Generated by trjconv : CNT in water t=  99.00000
33518
    1C        C    1   2.845   2.772   4.749
    1C        C    2   2.901   2.723   4.869
    1C        C    3   2.847   2.780   4.985
    1C        C    4   2.852   2.777   4.262
    1C        C    5   2.906   2.733   4.385
    1C        C    6   2.849   2.776   4.507
    1C        C    7   3.018   2.647   4.629
    1C        C    8   2.901   2.726   4.628
    1C        C    9   3.081   2.606   4.749
    1C        C   10   3.012   2.635   4.868
    1C        C   11   3.187   2.498   4.981
    1C        C   12   3.067   2.569   4.978
    1C        C   13   2.849   2.770   3.772
    1C        C   14   2.904   2.728   3.895
    1C        C   15   2.855   2.780   4.017
    1C        C   16   3.024   2.652   4.142
    1C        C   17   2.909   2.735   4.139
    1C        C   18   3.085   2.619   4.264
    1C        C   19   3.025   2.657   4.386
    1C        C   20   3.213   2.560   4.508
    1C        C   21   3.085   2.618   4.508
    1C        C   22   3.286   2.542   4.628
    1C        C   23   3.212   2.551   4.748
    1C        C   24   3.415   2.484   4.868
    1C        C   25   3.273   2.499   4.866
    1C        C   26   3.494   2.482   4.983
    1C        C   27   2.852   2.770   3.283
    1C        C   28   2.910   2.729   3.405
    1C        C   29   2.859   2.777   3.528
    1C        C   30   3.022   2.644   3.652
    1C        C   31   2.907   2.727   3.650
    1C        C   32   3.080   2.611   3.776
    1C        C   33   3.019   2.647   3.899
    1C        C   34   3.213   2.556   4.020
    1C        C   35   3.084   2.614   4.020
    1C        C   36   3.281   2.536   4.142
    1C        C   37   3.216   2.565   4.264
    1C        C   38   3.420   2.506   4.382
    1C        C   39   3.283   2.540   4.386
    1C        C   40   3.491   2.496   4.503
    1C        C   41   3.422   2.506   4.626
    1C        C   42   3.633   2.482   4.747
    1C        C   43   3.490   2.484   4.747
    1C        C   44   3.707   2.481   4.867
    1C        C   45   3.633   2.472   4.985
    1C        C   46   2.844   2.760   2.794
    1C        C   47   2.899   2.716   2.917
    1C        C   48   2.849   2.768   3.038
    1C        C   49   3.020   2.642   3.160
    1C        C   50   2.905   2.724   3.160
    1C        C   51   3.080   2.606   3.283
    1C        C   52   3.022   2.643   3.407
    1C        C   53   3.212   2.552   3.527
    1C        C   54   3.081   2.606   3.530
    1C        C   55   3.278   2.533   3.651
    1C        C   56   3.211   2.557   3.773
    1C        C   57   3.416   2.510   3.895
    1C        C   58   3.277   2.536   3.896
    1C        C   59   3.489   2.503   4.016
    1C        C   60   3.420   2.509   4.139
    1C        C   61   3.632   2.502   4.261
    1C        C   62   3.491   2.495   4.260
    1C        C   63   3.703   2.508   4.383
    1C        C   64   3.632   2.494   4.504
    1C        C   65   3.838   2.543   4.624
    1C        C   66   3.704   2.499   4.626
    1C        C   67   3.907   2.565   4.745
    1C        C   68   3.841   2.527   4.864
    1C        C   69   4.055   2.580   4.980
    1C        C   70   3.926   2.526   4.975
    1C        C   71   2.827   2.742   2.310
    1C        C   72   2.889   2.702   2.430
    1C        C   73   2.838   2.753   2.551
    1C        C   74   3.009   2.626   2.674
    1C        C   75   2.892   2.705   2.673
    1C        C   76   3.077   2.597   2.794
    1C        C   77   3.016   2.636   2.916
    1C        C   78   3.209   2.549   3.038
    1C        C   79   3.078   2.603   3.038
    1C        C   80   3.278   2.538   3.160
    1C        C   81   3.212   2.556   3.284
    1C        C   82   3.418   2.505   3.404
    1C        C   83   3.280   2.532   3.405
    1C        C   84   3.487   2.502   3.527
    1C        C   85   3.417   2.509   3.649
    1C        C   86   3.627   2.505   3.772
    1C        C   87   3.486   2.500   3.772
    1C        C   88   3.697   2.516   3.894
    1C        C   89   3.630   2.502   4.017
    1C        C   90   3.838   2.547   4.137
    1C        C   91   3.702   2.509   4.138
    1C        C   92   3.909   2.565   4.258
    1C        C   93   3.841   2.540   4.379
    1C        C   94   4.030   2.635   4.504
    1C        C   95   3.905   2.569   4.502
    1C        C   96   4.093   2.674   4.624
    1C        C   97   4.034   2.630   4.744
    1C        C   98   4.197   2.761   4.863
    1C        C   99   4.101   2.654   4.867
    1C        C  100   4.216   2.841   4.977
    1C        C  101   2.821   2.731   2.074
    1C        C  102   2.990   2.593   2.194
    1C        C  103   2.877   2.681   2.192
    1C        C  104   3.065   2.574   2.313
    1C        C  105   3.003   2.619   2.433
    1C        C  106   3.202   2.535   2.553
    1C        C  107   3.073   2.593   2.553
    1C        C  108   3.272   2.514   2.674
    1C        C  109   3.206   2.540   2.796
    1C        C  110   3.415   2.493   2.917
    1C        C  111   3.277   2.524   2.917
    1C        C  112   3.487   2.493   3.039
    1C        C  113   3.417   2.510   3.160
    1C        C  114   3.630   2.501   3.280
    1C        C  115   3.489   2.498   3.281
    1C        C  116   3.698   2.511   3.404
    1C        C  117   3.629   2.503   3.527
    1C        C  118   3.835   2.544   3.647
    1C        C  119   3.698   2.509   3.650
    1C        C  120   3.898   2.572   3.770
    1C        C  121   3.834   2.552   3.894
    1C        C  122   4.029   2.641   4.016
    1C        C  123   3.905   2.572   4.015
    1C        C  124   4.091   2.671   4.139
    1C        C  125   4.035   2.629   4.261
    1C        C  126   4.199   2.765   4.381
    1C        C  127   4.091   2.674   4.383
    1C        C  128   4.249   2.822   4.500
    1C        C  129   4.198   2.769   4.621
    1C        C  130   4.326   2.936   4.743
    1C        C  131   4.249   2.816   4.743
    1C        C  132   4.352   3.007   4.862
    1C        C  133   4.288   2.959   4.977
    1C        C  134   3.173   2.473   2.083
    1C        C  135   3.038   2.511   2.087
    1C        C  136   3.263   2.484   2.190
    1C        C  137   3.198   2.526   2.309
    1C        C  138   3.407   2.491   2.430
    1C        C  139   3.267   2.507   2.431
    1C        C  140   3.481   2.487   2.550
    1C        C  141   3.412   2.493   2.673
    1C        C  142   3.626   2.487   2.793
    1C        C  143   3.485   2.489   2.794
    1C        C  144   3.697   2.503   2.914
    1C        C  145   3.628   2.495   3.037
    1C        C  146   3.838   2.532   3.157
    1C        C  147   3.701   2.499   3.158
    1C        C  148   3.904   2.559   3.280
    1C        C  149   3.836   2.543   3.403
    1C        C  150   4.028   2.633   3.522
    1C        C  151   3.901   2.569   3.525
    1C        C  152   4.082   2.674   3.646
    1C        C  153   4.022   2.640   3.770
    1C        C  154   4.192   2.768   3.891
    1C        C  155   4.085   2.677   3.891
    1C        C  156   4.245   2.817   4.013
    1C        C  157   4.198   2.764   4.135
    1C        C  158   4.331   2.927   4.253
    1C        C  159   4.250   2.812   4.258
    1C        C  160   4.373   2.986   4.374
    1C        C  161   4.338   2.931   4.500
    1C        C  162   4.433   3.121   4.618
    1C        C  163   4.373   2.993   4.622
    1C        C  164   4.461   3.187   4.739
    1C        C  165   4.427   3.126   4.862
    1C        C  166   4.510   3.326   4.973
    1C        C  167   4.486   3.189   4.973
    1C        C  168   3.478   2.434   2.075
    1C        C  169   3.403   2.467   2.189
    1C        C  170   3.620   2.471   2.309
    1C        C  171   3.478   2.474   2.309
    1C        C  172   3.695   2.488   2.427
    1C        C  173   3.622   2.490   2.548
    1C        C  174   3.828   2.542   2.668
    1C        C  175   3.694   2.499   2.669
    1C        C  176   3.897   2.562   2.790
    1C        C  177   3.833   2.542   2.914
    1C        C  178   4.027   2.630   3.032
    1C        C  179   3.903   2.562   3.035
    1C        C  180   4.086   2.666   3.155
    1C        C  181   4.029   2.625   3.277
    1C        C  182   4.197   2.754   3.401
    1C        C  183   4.089   2.663   3.399
    1C        C  184   4.244   2.808   3.524
    1C        C  185   4.195   2.759   3.647
    1C        C  186   4.334   2.922   3.767
    1C        C  187   4.245   2.813   3.768
    1C        C  188   4.375   2.982   3.888
    1C        C  189   4.336   2.925   4.011
    1C        C  190   4.442   3.110   4.133
    1C        C  191   4.374   2.986   4.132
    1C        C  192   4.467   3.178   4.255
    1C        C  193   4.442   3.109   4.376
    1C        C  194   4.506   3.317   4.494
    1C        C  195   4.467   3.181   4.495
    1C        C  196   4.523   3.389   4.614
    1C        C  197   4.505   3.323   4.737
    1C        C  198   4.558   3.537   4.854
    1C        C  199   4.537   3.396   4.855
    1C        C  200   4.588   3.622   4.966
    1C        C  201   3.617   2.418   2.076
    1C        C  202   3.827   2.518   2.183
    1C        C  203   3.693   2.468   2.187
    1C        C  204   3.898   2.547   2.303
    1C        C  205   3.831   2.527   2.425
    1C        C  206   4.023   2.622   2.545
    1C        C  207   3.898   2.556   2.546
    1C        C  208   4.085   2.656   2.667
    1C        C  209   4.024   2.624   2.790
    1C        C  210   4.199   2.752   2.908
    1C        C  211   4.089   2.663   2.909
    1C        C  212   4.247   2.800   3.032
    1C        C  213   4.198   2.753   3.156
    1C        C  214   4.336   2.912   3.276
    1C        C  215   4.248   2.801   3.278
    1C        C  216   4.367   2.978   3.397
    1C        C  217   4.330   2.920   3.521
    1C        C  218   4.435   3.104   3.643
    1C        C  219   4.374   2.976   3.643
    1C        C  220   4.462   3.172   3.764
    1C        C  221   4.438   3.109   3.888
    1C        C  222   4.501   3.311   4.006
    1C        C  223   4.469   3.173   4.010
    1C        C  224   4.518   3.383   4.126
    1C        C  225   4.507   3.313   4.248
    1C        C  226   4.523   3.525   4.370
    1C        C  227   4.517   3.384   4.370
    1C        C  228   4.521   3.598   4.491
    1C        C  229   4.534   3.530   4.614
    1C        C  230   4.513   3.746   4.728
    1C        C  231   4.546   3.608   4.731
    1C        C  232   4.499   3.818   4.849
    1C        C  233   4.550   3.757   4.964
    1C        C  234   4.017   2.616   2.062
    1C        C  235   3.894   2.551   2.064
    1C        C  236   4.084   2.652   2.180
    1C        C  237   4.025   2.610   2.302
    1C        C  238   4.199   2.740   2.423
    1C        C  239   4.086   2.653   2.422
    1C        C  240   4.249   2.793   2.544
    1C        C  241   4.193   2.748   2.665
    1C        C  242   4.336   2.909   2.787
    1C        C  243   4.248   2.798   2.785
    1C        C  244   4.374   2.968   2.910
    1C        C  245   4.336   2.910   3.033
    1C        C  246   4.435   3.099   3.151
    1C        C  247   4.378   2.970   3.154
    1C        C  248   4.452   3.167   3.274
    1C        C  249   4.427   3.105   3.399
    1C        C  250   4.501   3.305   3.517
    1C        C  251   4.457   3.171   3.520
    1C        C  252   4.510   3.375   3.639
    1C        C  253   4.499   3.308   3.763
    1C        C  254   4.524   3.521   3.882
    1C        C  255   4.513   3.380   3.884
    1C        C  256   4.521   3.594   4.003
    1C        C  257   4.524   3.524   4.126
    1C        C  258   4.499   3.735   4.242
    1C        C  259   4.524   3.596   4.247
    1C        C  260   4.475   3.803   4.363
    1C        C  261   4.498   3.737   4.486
    1C        C  262   4.431   3.941   4.604
    1C        C  263   4.484   3.810   4.606
    1C        C  264   4.409   4.014   4.723
    1C        C  265   4.442   3.947   4.843
    1C        C  266   4.327   4.132   4.957
    1C        C  267   4.396   4.011   4.959
    1C        C  268   4.256   2.784   2.064
    1C        C  269   4.198   2.734   2.181
    1C        C  270   4.344   2.895   2.301
    1C        C  271   4.253   2.786   2.301
    1C        C  272   4.379   2.961   2.421
    1C        C  273   4.342   2.899   2.542
    1C        C  274   4.447   3.085   2.662
    1C        C  275   4.381   2.960   2.664
    1C        C  276   4.471   3.154   2.782
    1C        C  277   4.442   3.092   2.906
    1C        C  278   4.500   3.297   3.028
    1C        C  279   4.464   3.160   3.027
    1C        C  280   4.514   3.368   3.149
    1C        C  281   4.494   3.302   3.273
    1C        C  282   4.518   3.514   3.394
    1C        C  283   4.512   3.373   3.394
    1C        C  284   4.519   3.586   3.515
    1C        C  285   4.521   3.516   3.638
    1C        C  286   4.499   3.729   3.755
    1C        C  287   4.523   3.590   3.758
    1C        C  288   4.484   3.801   3.876
    1C        C  289   4.499   3.733   3.999
    1C        C  290   4.431   3.936   4.119
    1C        C  291   4.481   3.804   4.120
    1C        C  292   4.399   4.001   4.240
    1C        C  293   4.424   3.935   4.363
    1C        C  294   4.332   4.130   4.481
    1C        C  295   4.396   4.004   4.483
    1C        C  296   4.290   4.191   4.601
    1C        C  297   4.332   4.134   4.723
    1C        C  298   4.199   4.312   4.841
    1C        C  299   4.286   4.198   4.841
    1C        C  300   4.170   4.402   4.948
    1C        C  301   4.351   2.886   2.065
    1C        C  302   4.471   3.072   2.181
    1C        C  303   4.400   2.948   2.181
    1C        C  304   4.481   3.148   2.301
    1C        C  305   4.451   3.082   2.421
    1C        C  306   4.519   3.286   2.542
    1C        C  307   4.484   3.149   2.541
    1C        C  308   4.518   3.361   2.661
    1C        C  309   4.502   3.292   2.783
    1C        C  310   4.522   3.505   2.904
    1C        C  311   4.513   3.364   2.904
    1C        C  312   4.524   3.576   3.026
    1C        C  313   4.527   3.508   3.150
    1C        C  314   4.497   3.721   3.267
    1C        C  315   4.521   3.582   3.271
    1C        C  316   4.480   3.793   3.388
    1C        C  317   4.496   3.726   3.511
    1C        C  318   4.434   3.930   3.630
    1C        C  319   4.481   3.797   3.632
    1C        C  320   4.399   3.993   3.751
    1C        C  321   4.432   3.932   3.874
    1C        C  322   4.323   4.115   3.992
    1C        C  323   4.404   4.000   3.996
    1C        C  324   4.284   4.175   4.114
    1C        C  325   4.327   4.122   4.238
    1C        C  326   4.186   4.284   4.356
    1C        C  327   4.285   4.183   4.358
    1C        C  328   4.133   4.334   4.477
    1C        C  329   4.189   4.290   4.599
    1C        C  330   4.023   4.431   4.715
    1C        C  331   4.139   4.350   4.717
    1C        C  332   3.972   4.491   4.833
    1C        C  333   4.049   4.473   4.949
    1C        C  334   4.561   3.272   2.066
    1C        C  335   4.534   3.134   2.069
    1C        C  336   4.548   3.353   2.179
    1C        C  337   4.523   3.285   2.300
    1C        C  338   4.522   3.499   2.414
    1C        C  339   4.529   3.358   2.420
    1C        C  340   4.520   3.570   2.536
    1C        C  341   4.523   3.502   2.660
    1C        C  342   4.501   3.714   2.777
    1C        C  343   4.525   3.575   2.781
    1C        C  344   4.480   3.782   2.900
    1C        C  345   4.494   3.714   3.022
    1C        C  346   4.433   3.920   3.139
    1C        C  347   4.476   3.785   3.143
    1C        C  348   4.401   3.985   3.260
    1C        C  349   4.429   3.925   3.385
    1C        C  350   4.327   4.110   3.504
    1C        C  351   4.402   3.991   3.507
    1C        C  352   4.282   4.168   3.625
    1C        C  353   4.323   4.112   3.749
    1C        C  354   4.178   4.268   3.868
    1C        C  355   4.282   4.173   3.870
    1C        C  356   4.124   4.315   3.990
    1C        C  357   4.182   4.272   4.112
    1C        C  358   4.013   4.403   4.230
    1C        C  359   4.128   4.321   4.233
    1C        C  360   3.952   4.443   4.352
    1C        C  361   4.016   4.412   4.474
    1C        C  362   3.829   4.518   4.596
    1C        C  363   3.956   4.458   4.594
    1C        C  364   3.763   4.552   4.716
    1C        C  365   3.841   4.542   4.834
    1C        C  366   3.631   4.602   4.954
    1C        C  367   3.767   4.576   4.948
    1C        C  368   4.517   3.570   2.060
    1C        C  369   4.538   3.494   2.176
    1C        C  370   4.505   3.710   2.289
    1C        C  371   4.528   3.571   2.293
    1C        C  372   4.491   3.778   2.412
    1C        C  373   4.504   3.710   2.536
    1C        C  374   4.433   3.915   2.652
    1C        C  375   4.483   3.783   2.655
    1C        C  376   4.406   3.981   2.773
    1C        C  377   4.431   3.914   2.896
    1C        C  378   4.323   4.100   3.012
    1C        C  379   4.397   3.980   3.016
    1C        C  380   4.282   4.157   3.134
    1C        C  381   4.323   4.104   3.258
    1C        C  382   4.178   4.259   3.379
    1C        C  383   4.278   4.158   3.380
    1C        C  384   4.126   4.308   3.500
    1C        C  385   4.184   4.269   3.623
    1C        C  386   4.008   4.391   3.745
    1C        C  387   4.127   4.314   3.744
    1C        C  388   3.945   4.429   3.865
    1C        C  389   4.007   4.393   3.987
    1C        C  390   3.821   4.494   4.109
    1C        C  391   3.950   4.436   4.108
    1C        C  392   3.754   4.519   4.231
    1C        C  393   3.824   4.503   4.353
    1C        C  394   3.618   4.553   4.477
    1C        C  395   3.758   4.532   4.474
    1C        C  396   3.549   4.565   4.599
    1C        C  397   3.623   4.568   4.720
    1C        C  398   3.413   4.550   4.843
    1C        C  399   3.551   4.580   4.841
    1C        C  400   3.343   4.522   4.961
    1C        C  401   4.512   3.709   2.054
    1C        C  402   4.462   3.922   2.169
    1C        C  403   4.499   3.786   2.170
    1C        C  404   4.416   3.980   2.289
    1C        C  405   4.438   3.908   2.409
    1C        C  406   4.336   4.100   2.526
    1C        C  407   4.407   3.978   2.528
    1C        C  408   4.284   4.149   2.647
    1C        C  409   4.327   4.097   2.771
    1C        C  410   4.177   4.253   2.889
    1C        C  411   4.281   4.158   2.890
    1C        C  412   4.126   4.299   3.012
    1C        C  413   4.179   4.254   3.135
    1C        C  414   4.004   4.376   3.253
    1C        C  415   4.124   4.301   3.256
    1C        C  416   3.945   4.415   3.375
    1C        C  417   4.004   4.381   3.499
    1C        C  418   3.814   4.470   3.623
    1C        C  419   3.943   4.414   3.622
    1C        C  420   3.746   4.499   3.743
    1C        C  421   3.815   4.485   3.866
    1C        C  422   3.610   4.534   3.989
    1C        C  423   3.750   4.512   3.988
    1C        C  424   3.541   4.546   4.112
    1C        C  425   3.615   4.544   4.232
    1C        C  426   3.405   4.552   4.358
    1C        C  427   3.547   4.554   4.355
    1C        C  428   3.335   4.549   4.481
    1C        C  429   3.408   4.560   4.601
    1C        C  430   3.198   4.525   4.725
    1C        C  431   3.338   4.549   4.723
    1C        C  432   3.127   4.499   4.846
    1C        C  433   3.206   4.500   4.962
    1C        C  434   4.387   4.126   2.053
    1C        C  435   4.454   4.003   2.054
    1C        C  436   4.304   4.161   2.164
    1C        C  437   4.334   4.096   2.287
    1C        C  438   4.183   4.252   2.405
    1C        C  439   4.286   4.156   2.406
    1C        C  440   4.128   4.296   2.527
    1C        C  441   4.188   4.253   2.648
    1C        C  442   4.009   4.380   2.767
    1C        C  443   4.126   4.301   2.766
    1C        C  444   3.945   4.411   2.889
    1C        C  445   4.007   4.375   3.011
    1C        C  446   3.811   4.466   3.132
    1C        C  447   3.941   4.410   3.131
    1C        C  448   3.747   4.489   3.255
    1C        C  449   3.814   4.469   3.377
    1C        C  450   3.611   4.527   3.500
    1C        C  451   3.748   4.493   3.500
    1C        C  452   3.539   4.539   3.621
    1C        C  453   3.609   4.533   3.743
    1C        C  454   3.400   4.548   3.867
    1C        C  455   3.541   4.545   3.867
    1C        C  456   3.334   4.531   3.990
    1C        C  457   3.400   4.533   4.115
    1C        C  458   3.193   4.513   4.240
    1C        C  459   3.332   4.538   4.238
    1C        C  460   3.127   4.491   4.363
    1C        C  461   3.198   4.515   4.483
    1C        C  462   3.005   4.430   4.605
    1C        C  463   3.129   4.497   4.605
    1C        C  464   2.935   4.402   4.724
    1C        C  465   2.991   4.454   4.844
    1C        C  466   2.808   4.343   4.960
    1C        C  467   2.912   4.438   4.961
    1C        C  468   4.128   4.290   2.046
    1C        C  469   4.193   4.251   2.164
    1C        C  470   4.010   4.374   2.282
    1C        C  471   4.129   4.296   2.282
    1C        C  472   3.942   4.403   2.403
    1C        C  473   4.006   4.368   2.523
    1C        C  474   3.816   4.463   2.645
    1C        C  475   3.947   4.411   2.644
    1C        C  476   3.745   4.487   2.765
    1C        C  477   3.815   4.466   2.886
    1C        C  478   3.608   4.516   3.011
    1C        C  479   3.747   4.489   3.008
    1C        C  480   3.540   4.531   3.134
    1C        C  481   3.609   4.521   3.256
    1C        C  482   3.398   4.538   3.376
    1C        C  483   3.539   4.531   3.379
    1C        C  484   3.327   4.534   3.498
    1C        C  485   3.397   4.545   3.621
    1C        C  486   3.194   4.506   3.748
    1C        C  487   3.329   4.544   3.744
    1C        C  488   3.130   4.479   3.871
    1C        C  489   3.195   4.503   3.995
    1C        C  490   3.007   4.415   4.119
    1C        C  491   3.127   4.488   4.118
    1C        C  492   2.944   4.385   4.241
    1C        C  493   2.998   4.433   4.362
    1C        C  494   2.830   4.305   4.485
    1C        C  495   2.941   4.392   4.485
    1C        C  496   2.775   4.260   4.607
    1C        C  497   2.822   4.315   4.728
    1C        C  498   2.668   4.167   4.846
    1C        C  499   2.758   4.276   4.847
    1C        C  500   2.598   4.117   4.957
    1C        C  501   4.003   4.351   2.046
    1C        C  502   3.817   4.464   2.157
    1C        C  503   3.946   4.407   2.161
    1C        C  504   3.743   4.473   2.277
    1C        C  505   3.810   4.453   2.400
    1C        C  506   3.610   4.512   2.521
    1C        C  507   3.748   4.482   2.523
    1C        C  508   3.537   4.518   2.642
    1C        C  509   3.606   4.512   2.766
    1C        C  510   3.397   4.527   2.886
    1C        C  511   3.538   4.528   2.889
    1C        C  512   3.328   4.515   3.009
    1C        C  513   3.399   4.529   3.131
    1C        C  514   3.192   4.493   3.258
    1C        C  515   3.328   4.529   3.253
    1C        C  516   3.124   4.470   3.380
    1C        C  517   3.190   4.500   3.500
    1C        C  518   3.002   4.417   3.628
    1C        C  519   3.127   4.482   3.625
    1C        C  520   2.946   4.377   3.751
    1C        C  521   3.007   4.411   3.874
    1C        C  522   2.837   4.288   3.997
    1C        C  523   2.946   4.378   3.997
    1C        C  524   2.785   4.242   4.121
    1C        C  525   2.835   4.295   4.242
    1C        C  526   2.696   4.137   4.367
    1C        C  527   2.781   4.250   4.364
    1C        C  528   2.661   4.075   4.489
    1C        C  529   2.691   4.146   4.608
    1C        C  530   2.582   3.964   4.730
    1C        C  531   2.643   4.093   4.729
    1C        C  532   2.546   3.903   4.854
    1C        C  533   2.529   3.996   4.961
    1C        C  534   3.619   4.552   2.043
    1C        C  535   3.754   4.514   2.042
    1C        C  536   3.537   4.527   2.158
    1C        C  537   3.604   4.499   2.280
    1C        C  538   3.393   4.521   2.400
    1C        C  539   3.534   4.513   2.402
    1C        C  540   3.323   4.515   2.523
    1C        C  541   3.396   4.519   2.644
    1C        C  542   3.186   4.489   2.767
    1C        C  543   3.324   4.519   2.765
    1C        C  544   3.122   4.466   2.891
    1C        C  545   3.190   4.485   3.013
    1C        C  546   2.996   4.407   3.138
    1C        C  547   3.124   4.467   3.137
    1C        C  548   2.938   4.371   3.262
    1C        C  549   2.997   4.407   3.385
    1C        C  550   2.835   4.277   3.509
    1C        C  551   2.940   4.371   3.509
    1C        C  552   2.789   4.229   3.634
    1C        C  553   2.838   4.285   3.753
    1C        C  554   2.705   4.121   3.880
    1C        C  555   2.792   4.232   3.876
    1C        C  556   2.665   4.064   4.003
    1C        C  557   2.702   4.128   4.123
    1C        C  558   2.595   3.947   4.248
    1C        C  559   2.661   4.073   4.246
    1C        C  560   2.571   3.879   4.370
    1C        C  561   2.602   3.947   4.489
    1C        C  562   2.531   3.751   4.615
    1C        C  563   2.565   3.888   4.612
    1C        C  564   2.520   3.682   4.738
    1C        C  565   2.529   3.760   4.856
    1C        C  566   2.536   3.550   4.978
    1C        C  567   2.526   3.688   4.976
    1C        C  568   3.326   4.473   2.042
    1C        C  569   3.396   4.509   2.158
    1C        C  570   3.184   4.478   2.281
    1C        C  571   3.321   4.512   2.279
    1C        C  572   3.118   4.458   2.404
    1C        C  573   3.185   4.486   2.526
    1C        C  574   2.990   4.401   2.649
    1C        C  575   3.116   4.463   2.647
    1C        C  576   2.931   4.366   2.774
    1C        C  577   2.994   4.405   2.894
    1C        C  578   2.827   4.279   3.020
    1C        C  579   2.933   4.371   3.016
    1C        C  580   2.776   4.230   3.143
    1C        C  581   2.834   4.276   3.263
    1C        C  582   2.701   4.113   3.387
    1C        C  583   2.786   4.226   3.387
    1C        C  584   2.666   4.057   3.512
    1C        C  585   2.700   4.119   3.635
    1C        C  586   2.596   3.938   3.759
    1C        C  587   2.660   4.064   3.759
    1C        C  588   2.572   3.874   3.883
    1C        C  589   2.600   3.938   4.005
    1C        C  590   2.534   3.740   4.129
    1C        C  591   2.570   3.877   4.129
    1C        C  592   2.523   3.674   4.254
    1C        C  593   2.531   3.744   4.376
    1C        C  594   2.513   3.533   4.501
    1C        C  595   2.516   3.674   4.498
    1C        C  596   2.512   3.464   4.624
    1C        C  597   2.515   3.540   4.743
    1C        C  598   2.532   3.328   4.866
    1C        C  599   2.534   3.469   4.863
    1C        C  600   2.538   3.252   4.983
    1C        C  601   3.193   4.434   2.042
    1C        C  602   2.983   4.395   2.163
    1C        C  603   3.117   4.443   2.160
    1C        C  604   2.928   4.359   2.289
    1C        C  605   2.994   4.391   2.409
    1C        C  606   2.813   4.275   2.531
    1C        C  607   2.928   4.358   2.530
    1C        C  608   2.768   4.225   2.655
    1C        C  609   2.825   4.274   2.775
    1C        C  610   2.689   4.115   2.900
    1C        C  611   2.776   4.226   2.899
    1C        C  612   2.653   4.053   3.022
    1C        C  613   2.691   4.118   3.142
    1C        C  614   2.594   3.931   3.270
    1C        C  615   2.659   4.056   3.265
    1C        C  616   2.569   3.868   3.394
    1C        C  617   2.605   3.930   3.516
    1C        C  618   2.529   3.734   3.642
    1C        C  619   2.576   3.867   3.639
    1C        C  620   2.517   3.666   3.766
    1C        C  621   2.533   3.738   3.886
    1C        C  622   2.509   3.527   4.014
    1C        C  623   2.520   3.668   4.009
    1C        C  624   2.514   3.458   4.137
    1C        C  625   2.513   3.533   4.256
    1C        C  626   2.532   3.322   4.382
    1C        C  627   2.514   3.462   4.378
    1C        C  628   2.553   3.254   4.503
    1C        C  629   2.539   3.325   4.624
    1C        C  630   2.599   3.122   4.747
    1C        C  631   2.547   3.254   4.746
    1C        C  632   2.619   3.054   4.870
    1C        C  633   2.567   3.115   4.988
    1C        C  634   2.784   4.301   2.056
    1C        C  635   2.886   4.396   2.057
    1C        C  636   2.750   4.229   2.172
    1C        C  637   2.813   4.276   2.289
    1C        C  638   2.674   4.112   2.413
    1C        C  639   2.764   4.221   2.410
    1C        C  640   2.638   4.053   2.536
    1C        C  641   2.684   4.112   2.656
    1C        C  642   2.585   3.928   2.779
    1C        C  643   2.645   4.056   2.780
    1C        C  644   2.562   3.861   2.901
    1C        C  645   2.588   3.928   3.023
    1C        C  646   2.524   3.731   3.153
    1C        C  647   2.564   3.866   3.148
    1C        C  648   2.509   3.661   3.275
    1C        C  649   2.528   3.732   3.395
    1C        C  650   2.513   3.524   3.521
    1C        C  651   2.515   3.666   3.519
    1C        C  652   2.520   3.457   3.645
    1C        C  653   2.509   3.525   3.768
    1C        C  654   2.536   3.318   3.887
    1C        C  655   2.511   3.457   3.892
    1C        C  656   2.557   3.254   4.011
    1C        C  657   2.541   3.319   4.136
    1C        C  658   2.610   3.124   4.261
    1C        C  659   2.553   3.253   4.260
    1C        C  660   2.646   3.061   4.382
    1C        C  661   2.606   3.123   4.503
    1C        C  662   2.708   2.939   4.628
    1C        C  663   2.631   3.058   4.625
    1C        C  664   2.749   2.878   4.748
    1C        C  665   2.698   2.934   4.868
    1C        C  666   2.747   2.876   4.986
    1C        C  667   2.682   4.025   2.056
    1C        C  668   2.678   4.108   2.169
    1C        C  669   2.588   3.916   2.293
    1C        C  670   2.638   4.049   2.292
    1C        C  671   2.557   3.854   2.415
    1C        C  672   2.580   3.924   2.536
    1C        C  673   2.520   3.723   2.662
    1C        C  674   2.557   3.859   2.659
    1C        C  675   2.511   3.656   2.786
    1C        C  676   2.526   3.725   2.909
    1C        C  677   2.505   3.516   3.033
    1C        C  678   2.514   3.657   3.033
    1C        C  679   2.506   3.447   3.156
    1C        C  680   2.502   3.520   3.277
    1C        C  681   2.532   3.313   3.403
    1C        C  682   2.505   3.452   3.400
    1C        C  683   2.555   3.244   3.524
    1C        C  684   2.538   3.317   3.644
    1C        C  685   2.604   3.115   3.773
    1C        C  686   2.554   3.247   3.766
    1C        C  687   2.639   3.055   3.896
    1C        C  688   2.612   3.124   4.016
    1C        C  689   2.715   2.940   4.139
    1C        C  690   2.641   3.060   4.139
    1C        C  691   2.761   2.884   4.261
    1C        C  692   2.724   2.943   4.384
    1C        C  693   2.758   2.884   4.508
    1C        C  694   2.630   3.895   2.059
    1C        C  695   2.526   3.707   2.178
    1C        C  696   2.575   3.840   2.175
    1C        C  697   2.511   3.641   2.302
    1C        C  698   2.530   3.715   2.421
    1C        C  699   2.487   3.508   2.548
    1C        C  700   2.511   3.647   2.543
    1C        C  701   2.497   3.439   2.671
    1C        C  702   2.498   3.516   2.790
    1C        C  703   2.527   3.305   2.914
    1C        C  704   2.506   3.445   2.911
    1C        C  705   2.549   3.238   3.037
    1C        C  706   2.536   3.309   3.158
    1C        C  707   2.605   3.112   3.282
    1C        C  708   2.554   3.244   3.282
    1C        C  709   2.637   3.049   3.404
    1C        C  710   2.611   3.114   3.527
    1C        C  711   2.710   2.931   3.650
    1C        C  712   2.635   3.051   3.651
    1C        C  713   2.759   2.879   3.771
    1C        C  714   2.719   2.939   3.893
    1C        C  715   2.759   2.883   4.017
    1C        C  716   2.450   3.502   2.067
    1C        C  717   2.493   3.635   2.063
    1C        C  718   2.459   3.425   2.187
    1C        C  719   2.485   3.501   2.305
    1C        C  720   2.516   3.295   2.430
    1C        C  721   2.487   3.433   2.428
    1C        C  722   2.541   3.229   2.552
    1C        C  723   2.525   3.300   2.673
    1C        C  724   2.598   3.102   2.794
    1C        C  725   2.541   3.231   2.795
    1C        C  726   2.626   3.040   2.917
    1C        C  727   2.596   3.105   3.039
    1C        C  728   2.710   2.925   3.160
    1C        C  729   2.633   3.043   3.161
    1C        C  730   2.755   2.872   3.283
    1C        C  731   2.717   2.933   3.405
    1C        C  732   2.761   2.879   3.529
    1C        C  733   2.494   3.204   2.075
    1C        C  734   2.492   3.286   2.189
    1C        C  735   2.585   3.091   2.308
    1C        C  736   2.531   3.222   2.309
    1C        C  737   2.616   3.026   2.430
    1C        C  738   2.591   3.097   2.550
    1C        C  739   2.701   2.917   2.672
    1C        C  740   2.621   3.033   2.672
    1C        C  741   2.749   2.864   2.794
    1C        C  742   2.701   2.920   2.915
    1C        C  743   2.749   2.868   3.037
    1C        C  744   2.544   3.074   2.078
    1C        C  745   2.689   2.903   2.185
    1C        C  746   2.610   3.019   2.189
    1C        C  747   2.731   2.848   2.308
    1C        C  748   2.687   2.904   2.430
    1C        C  749   2.741   2.855   2.551
    1C        C  750   2.732   2.838   2.068
    1C        C  751   3.676   2.309   1.997
    1C        O  752   3.650   2.190   2.031
    1C        O  753   3.668   2.327   1.858
    1C        C  754   4.599   3.055   1.962
    1C        O  755   4.547   3.056   1.847
    1C        O  756   4.738   3.047   1.948
    1C        C  757   4.447   4.237   1.975
    1C        O  758   4.529   4.316   2.029
    1C        O  759   4.443   4.237   1.835
    1C        C  760   3.592   4.655   1.940
    1C        O  761   3.533   4.761   1.972
    1C        O  762   3.618   4.646   1.803
    1C        C  763   2.859   4.519   1.979
    1C        O  764   2.876   4.517   1.854
    1C        O  765   2.765   4.610   2.029
    1C        C  766   2.330   3.492   1.980
    1C        O  767   2.344   3.444   1.865
    1C        O  768   2.199   3.463   2.020
    1C        C  769   4.706   3.602   5.052
    1C        O  770   4.694   3.571   5.174
    1C        O  771   4.839   3.625   5.014
    1C        C  772   4.276   4.479   5.017
    1C        O  773   4.291   4.472   5.142
    1C        O  774   4.406   4.502   4.968
    1C        C  775   4.150   2.504   5.065
    1C        O  776   4.175   2.381   5.049
    1C        O  777   4.148   2.543   5.200
    1C        C  778   2.879   4.546   5.057
    1C        O  779   2.911   4.665   5.031
    1C        O  780   2.891   4.526   5.195
    1C        C  781   2.471   3.041   5.073
    1C        O  782   2.357   3.006   5.032
    1C        O  783   2.518   2.965   5.180
    1C        C  784   2.402   3.989   5.037
    1C        O  785   2.299   4.053   5.000
    1C        O  786   2.393   3.920   5.158
    1C        C  787   2.946   2.419   2.017
    1C        O  788   2.897   2.452   1.906
    1C        O  789   2.944   2.280   2.022
    1C        C  790   3.219   2.415   5.100
    1C        O  791   3.222   2.289   5.101
    1C        O  792   3.244   2.473   5.224
    1C        H  793   4.261   3.029   5.054
    1C        H  794   4.139   2.840   5.051
    1C        H  795   4.555   3.129   5.029
    1C        H  796   4.555   3.365   5.062
    1C        H  797   4.579   3.811   5.052
    1C        H  798   4.449   3.987   5.049
    1C        H  799   4.367   4.200   5.030
    1C        H  800   3.994   4.454   5.038
    1C        H  801   3.824   4.639   5.014
    1C        H  802   3.593   4.664   5.033
    1C        H  803   3.402   4.461   5.027
    1C        H  804   3.177   4.435   5.042
    1C        H  805   3.898   2.460   5.054
    1C        H  806   3.671   2.405   5.059
    1C        H  807   3.000   2.566   5.062
    1C        H  808   3.450   2.480   5.081
    1C        H  809   2.839   2.712   5.068
    1C        H  810   2.746   2.947   5.066
    1C        H  811   2.490   3.296   5.068
    1C        H  812   2.533   3.501   5.073
    1C        H  813   2.467   3.733   5.053
    1C        H  814   2.612   4.167   5.051
    1C        H  815   2.767   4.316   5.055
    1C        H  816   2.668   2.840   1.982
    1C        H  817   2.812   2.664   1.992
    1C        H  818   3.208   2.468   1.982
    1C        H  819   3.434   2.440   1.978
    1C        H  820   3.850   2.526   1.970
    1C        H  821   4.055   2.653   1.969
    1C        H  822   4.264   2.717   1.981
    1C        H  823   4.361   2.939   1.973
    1C        H  824   4.628   3.297   1.986
    1C        H  825   4.518   3.512   1.969
    1C        H  826   4.561   3.749   1.968
    1C        H  827   3.785   4.479   1.945
    1C        H  828   3.935   4.299   1.982
    1C        H  829   4.175   4.277   1.951
    1C        H  830   4.535   3.994   1.985
    1C        H  831   2.684   3.827   1.995
    1C        H  832   2.719   4.071   1.967
    1C        H  833   2.705   4.317   1.986
    1C        H  834   3.382   4.453   1.953
    1C        H  835   3.150   4.443   1.945
    1C        H  836   2.532   3.013   1.990
    1C        H  837   2.452   3.238   1.984
    1C        H  838   2.512   3.675   1.965
    2V3OU   H29  839   2.807   3.548   1.519
    2V3OU   C27  840   2.784   3.508   1.621
    2V3OU   H27  841   2.731   3.584   1.684
    2V3OU   H28  842   2.739   3.407   1.601
    2V3OU   O11  843   2.908   3.487   1.688
    2V3OU   C15  844   2.924   3.402   1.796
    2V3OU   C13  845   3.051   3.382   1.854
    2V3OU   C14  846   3.080   3.269   1.931
    2V3OU   C16  847   2.973   3.184   1.960
    2V3OU    H6  848   2.991   3.101   2.029
    2V3OU   C12  849   3.216   3.229   1.975
    2V3OU    O2  850   3.246   3.119   2.025
    2V3OU   C10  851   3.327   3.314   1.930
    2V3OU    C8  852   3.461   3.277   1.943
    2V3OU   O10  853   3.493   3.155   1.993
    2V3OU   H26  854   3.406   3.118   2.014
    2V3OU    C6  855   3.569   3.355   1.891
    2V3OU    C5  856   3.541   3.472   1.820
    2V3OU    C4  857   3.707   3.300   1.885
    2V3OU    H4  858   3.724   3.233   1.974
    2V3OU    H5  859   3.716   3.231   1.795
    2V3OU    C2  860   3.820   3.403   1.889
    2V3OU    O6  861   3.807   3.477   2.011
    2V3OU   H21  862   3.769   3.559   1.976
    2V3OU    C3  863   3.790   3.500   1.775
    2V3OU    H2  864   3.866   3.583   1.775
    2V3OU    H3  865   3.786   3.442   1.680
    2V3OU   C25  866   3.956   3.331   1.893
    2V3OU    O7  867   4.009   3.299   1.787
    2V3OU   C26  868   4.031   3.293   2.020
    2V3OU   H22  869   4.063   3.388   2.070
    2V3OU   H23  870   4.123   3.235   1.993
    2V3OU    O8  871   3.963   3.214   2.114
    2V3OU   H24  872   3.920   3.274   2.177
    2V3OU    C1  873   3.654   3.567   1.790
    2V3OU    H1  874   3.626   3.621   1.695
    2V3OU    O3  875   3.661   3.654   1.903
    2V3OU   C19  876   3.623   3.792   1.894
    2V3OU    H9  877   3.525   3.796   1.838
    2V3OU    O4  878   3.718   3.846   1.805
    2V3OU   C20  879   3.845   3.873   1.864
    2V3OU   H10  880   3.897   3.773   1.874
    2V3OU   C24  881   3.617   3.860   2.031
    2V3OU   H16  882   3.552   3.801   2.101
    2V3OU   H17  883   3.573   3.962   2.013
    2V3OU   C23  884   3.755   3.878   2.095
    2V3OU   H15  885   3.798   3.774   2.113
    2V3OU    N1  886   3.742   3.955   2.217
    2V3OU   H19  887   3.814   3.935   2.284
    2V3OU   H20  888   3.660   3.929   2.268
    2V3OU   C21  889   3.855   3.948   1.997
    2V3OU   H11  890   3.959   3.929   2.035
    2V3OU    O5  891   3.828   4.087   1.986
    2V3OU   H18  892   3.785   4.110   2.070
    2V3OU   C22  893   3.916   3.954   1.757
    2V3OU   H12  894   3.865   4.052   1.744
    2V3OU   H13  895   3.914   3.897   1.660
    2V3OU   H14  896   4.026   3.965   1.779
    2V3OU   C11  897   3.163   3.473   1.827
    2V3OU    O1  898   3.132   3.593   1.818
    2V3OU    C9  899   3.303   3.430   1.852
    2V3OU    C7  900   3.405   3.506   1.795
    2V3OU    O9  901   3.386   3.618   1.716
    2V3OU   H25  902   3.291   3.634   1.704
    2V3OU   C17  903   2.816   3.322   1.836
    2V3OU    H7  904   2.715   3.349   1.806
    2V3OU   C18  905   2.844   3.214   1.920
    2V3OU    H8  906   2.758   3.150   1.944
    3SOL     OW  907   1.212   3.536   1.396
    3SOL    HW1  908   1.115   3.551   1.413
    3SOL    HW2  909   1.254   3.492   1.476
    4SOL     OW  910   5.985   0.708   1.889
    4SOL    HW1  911   5.908   0.648   1.914
    4SOL    HW2  912   6.064   0.685   1.945
    5SOL     OW  913   4.231   1.843   0.633
    5SOL    HW1  914   4.157   1.870   0.695
    5SOL    HW2  915   4.213   1.880   0.542
    6SOL     OW  916   3.034   2.039   1.946
    6SOL    HW1  917   2.991   2.124   1.978
    6SOL    HW2  918   2.973   1.962   1.964
    7SOL     OW  919   5.560   1.805   2.010
    7SOL    HW1  920   5.658   1.790   1.998
    7SOL    HW2  921   5.523   1.850   1.929
    8SOL     OW  922   2.598   0.466   3.997
    8SOL    HW1  923   2.660   0.389   4.013
    8SOL    HW2  924   2.648   0.552   4.009
    9SOL     OW  925   1.877   4.964   6.120
    9SOL    HW1  926   1.922   4.892   6.172
    9SOL    HW2  927   1.902   4.957   6.023
   10SOL     OW  928   0.955   4.715   6.194
   10SOL    HW1  929   0.858   4.728   6.213
   10SOL    HW2  930   1.009   4.757   6.267
   11SOL     OW  931   4.374   6.466   0.241
   11SOL    HW1  932   4.434   6.515   0.304
   11SOL    HW2  933   4.384   6.368   0.255
   12SOL     OW  934   5.248   5.976   3.054
   12SOL    HW1  935   5.163   6.006   3.098
   12SOL    HW2  936   5.240   5.880   3.027
   13SOL     OW  937   2.958   6.290   4.015
   13SOL    HW1  938   3.042   6.333   4.048
   13SOL    HW2  939   2.980   6.202   3.973
   14SOL     OW  940   3.655   6.456   0.411
   14SOL    HW1  941   3.676   6.494   0.502
   14SOL    HW2  942   3.729   6.481   0.347
   15SOL     OW  943   1.036   6.557   0.211
   15SOL    HW1  944   1.108   6.624   0.230
   15SOL    HW2  945   0.947   6.600   0.222
   16SOL     OW  946   6.457   2.338   6.258
   16SOL    HW1  947   6.393   2.393   6.312
   16SOL    HW2  948   6.542   2.390   6.245
   17SOL     OW  949   5.158   6.571   3.954
   17SOL    HW1  950   5.117   6.639   3.893
   17SOL    HW2  951   5.258   6.583   3.954
   18SOL     OW  952   1.885   1.915   5.600
   18SOL    HW1  953   1.788   1.906   5.581
   18SOL    HW2  954   1.900   1.994   5.660
   19SOL     OW  955   0.225   0.060   2.723
   19SOL    HW1  956   0.150   0.125   2.730
   19SOL    HW2  957   0.307   0.108   2.690
   20SOL     OW  958   3.643   1.333   4.227
   20SOL    HW1  959   3.549   1.364   4.240
   20SOL    HW2  960   3.687   1.320   4.316
   21SOL     OW  961   2.906   1.361   1.373
   21SOL    HW1  962   2.844   1.430   1.335
   21SOL    HW2  963   2.984   1.406   1.415
   22SOL     OW  964   2.213   6.208   6.026
   22SOL    HW1  965   2.154   6.159   5.962
   22SOL    HW2  966   2.194   6.306   6.020
   23SOL     OW  967   4.537   6.737   4.060
   23SOL    HW1  968   4.453   6.781   4.091
   23SOL    HW2  969   4.516   6.675   3.985
   24SOL     OW  970   5.403   1.098   5.147
   24SOL    HW1  971   5.461   1.166   5.103
   24SOL    HW2  972   5.444   1.071   5.235
   25SOL     OW  973   3.917   5.562   0.468
   25SOL    HW1  974   3.951   5.521   0.384
   25SOL    HW2  975   3.820   5.584   0.457
   26SOL     OW  976   6.498   1.200   1.804
   26SOL    HW1  977   6.422   1.142   1.833
   26SOL    HW2  978   6.479   1.295   1.829
   27SOL     OW  979   6.064   0.266   2.669
   27SOL    HW1  980   6.159   0.274   2.641
   27SOL    HW2  981   6.059   0.257   2.769
   28SOL     OW  982   4.351   0.576   7.017
   28SOL    HW1  983   4.299   0.629   6.950
   28SOL    HW2  984   4.320   0.480   7.014
   29SOL     OW  985   4.561   2.423   1.364
   29SOL    HW1  986   4.586   2.421   1.268
   29SOL    HW2  987   4.644   2.431   1.420
   30SOL     OW  988   3.488   0.380   5.096
   30SOL    HW1  989   3.586   0.361   5.082
   30SOL    HW2  990   3.454   0.324   5.172
   31SOL     OW  991   0.649   1.185   4.989
   31SOL    HW1  992   0.736   1.188   5.039
   31SOL    HW2  993   0.578   1.231   5.042
   32SOL     OW  994   0.844   1.833   1.968
   32SOL    HW1  995   0.787   1.879   1.899
   32SOL    HW2  996   0.872   1.899   2.037
   33SOL     OW  997   1.961   2.600   6.276
   33SOL    HW1  998   1.937   2.507   6.247
   33SOL    HW2  999   1.904   2.665   6.227
   34SOL     OW 1000   2.268   6.952   4.697
   34SOL    HW1 1001   2.203   7.018   4.735
   34SOL    HW2 1002   2.301   6.892   4.769
   35SOL     OW 1003   5.099   1.624   0.492
   35SOL    HW1 1004   5.086   1.723   0.481
   35SOL    HW2 1005   5.057   1.576   0.415
   36SOL     OW 1006   1.797   1.210   5.905
   36SOL    HW1 1007   1.761   1.300   5.928
   36SOL    HW2 1008   1.738   1.139   5.942
   37SOL     OW 1009   3.034   6.602   1.309
   37SOL    HW1 1010   3.079   6.602   1.398
   37SOL    HW2 1011   3.089   6.551   1.243
   38SOL     OW 1012   6.967   6.573   3.466
   38SOL    HW1 1013   6.981   6.670   3.445
   38SOL    HW2 1014   6.870   6.551   3.458
   39SOL     OW 1015   6.763   3.155   5.348
   39SOL    HW1 1016   6.765   3.247   5.387
   39SOL    HW2 1017   6.700   3.098   5.401
   40SOL     OW 1018   5.933   0.707   2.735
   40SOL    HW1 1019   5.852   0.659   2.770
   40SOL    HW2 1020   5.966   0.662   2.652
   41SOL     OW 1021   1.456   6.581   4.993
   41SOL    HW1 1022   1.399   6.617   4.919
   41SOL    HW2 1023   1.515   6.509   4.958
   42SOL     OW 1024   3.569   0.549   6.539
   42SOL    HW1 1025   3.494   0.615   6.543
   42SOL    HW2 1026   3.652   0.590   6.578
   43SOL     OW 1027   5.449   6.356   5.242
   43SOL    HW1 1028   5.512   6.308   5.180
   43SOL    HW2 1029   5.499   6.387   5.322
   44SOL     OW 1030   0.349   2.765   6.445
   44SOL    HW1 1031   0.366   2.694   6.377
   44SOL    HW2 1032   0.430   2.778   6.501
   45SOL     OW 1033   2.654   1.300   2.172
   45SOL    HW1 1034   2.726   1.233   2.151
   45SOL    HW2 1035   2.565   1.257   2.158
   46SOL     OW 1036   1.765   3.955   4.379
   46SOL    HW1 1037   1.776   3.963   4.280
   46SOL    HW2 1038   1.780   3.860   4.406
   47SOL     OW 1039   6.803   4.539   3.272
   47SOL    HW1 1040   6.804   4.547   3.173
   47SOL    HW2 1041   6.718   4.496   3.302
   48SOL     OW 1042   0.104   2.442   5.055
   48SOL    HW1 1043   0.056   2.506   5.115
   48SOL    HW2 1044   0.043   2.414   4.980
   49SOL     OW 1045   4.590   3.418   0.800
   49SOL    HW1 1046   4.661   3.404   0.869
   49SOL    HW2 1047   4.632   3.436   0.711
   50SOL     OW 1048   6.441   3.793   4.723
   50SOL    HW1 1049   6.526   3.810   4.673
   50SOL    HW2 1050   6.371   3.857   4.693
   51SOL     OW 1051   3.497   4.890   3.167
   51SOL    HW1 1052   3.530   4.984   3.159
   51SOL    HW2 1053   3.420   4.876   3.106
   52SOL     OW 1054   3.155   1.276   2.140
   52SOL    HW1 1055   3.208   1.302   2.221
   52SOL    HW2 1056   3.184   1.333   2.063
   53SOL     OW 1057   5.018   6.841   4.347
   53SOL    HW1 1058   5.060   6.872   4.432
   53SOL    HW2 1059   4.961   6.913   4.309
   54SOL     OW 1060   3.451   5.097   5.716
   54SOL    HW1 1061   3.462   5.167   5.646
   54SOL    HW2 1062   3.396   5.021   5.680
   55SOL     OW 1063   3.988   1.519   5.958
   55SOL    HW1 1064   3.959   1.615   5.966
   55SOL    HW2 1065   4.046   1.508   5.878
   56SOL     OW 1066   1.168   0.565   2.356
   56SOL    HW1 1067   1.246   0.562   2.294
   56SOL    HW2 1068   1.084   0.555   2.304
   57SOL     OW 1069   4.928   1.020   0.584
   57SOL    HW1 1070   4.947   1.111   0.547
   57SOL    HW2 1071   4.848   0.982   0.537
   58SOL     OW 1072   7.003   6.174   6.765
   58SOL    HW1 1073   0.009   6.171   6.859
   58SOL    HW2 1074   7.008   6.268   6.731
   59SOL     OW 1075   1.151   0.508   6.124
   59SOL    HW1 1076   1.250   0.518   6.119
   59SOL    HW2 1077   1.126   0.473   6.214
   60SOL     OW 1078   4.474   6.839   5.242
   60SOL    HW1 1079   4.476   6.939   5.244
   60SOL    HW2 1080   4.559   6.805   5.201
   61SOL     OW 1081   4.875   0.222   3.879
   61SOL    HW1 1082   4.927   0.245   3.961
   61SOL    HW2 1083   4.925   0.153   3.827
   62SOL     OW 1084   1.830   0.482   3.880
   62SOL    HW1 1085   1.775   0.534   3.945
   62SOL    HW2 1086   1.919   0.526   3.869
   63SOL     OW 1087   6.589   3.028   3.239
   63SOL    HW1 1088   6.607   2.930   3.244
   63SOL    HW2 1089   6.626   3.065   3.154
   64SOL     OW 1090   6.008   3.856   6.320
   64SOL    HW1 1091   5.939   3.793   6.286
   64SOL    HW2 1092   5.982   3.890   6.410
   65SOL     OW 1093   6.759   4.674   4.844
   65SOL    HW1 1094   6.832   4.729   4.884
   65SOL    HW2 1095   6.752   4.692   4.746
   66SOL     OW 1096   3.353   0.394   0.074
   66SOL    HW1 1097   3.427   0.427   0.015
   66SOL    HW2 1098   3.393   0.343   0.151
   67SOL     OW 1099   5.674   5.954   4.858
   67SOL    HW1 1100   5.621   5.871   4.876
   67SOL    HW2 1101   5.657   6.021   4.930
   68SOL     OW 1102   6.170   1.677   6.143
   68SOL    HW1 1103   6.128   1.624   6.216
   68SOL    HW2 1104   6.121   1.660   6.057
   69SOL     OW 1105   2.777   4.374   6.137
   69SOL    HW1 1106   2.694   4.340   6.092
   69SOL    HW2 1107   2.795   4.321   6.219
   70SOL     OW 1108   0.038   5.734   2.731
   70SOL    HW1 1109   0.074   5.654   2.682
   70SOL    HW2 1110   0.027   5.810   2.666
   71SOL     OW 1111   2.179   2.862   3.293
   71SOL    HW1 1112   2.174   2.782   3.234
   71SOL    HW2 1113   2.237   2.842   3.372
   72SOL     OW 1114   2.830   5.446   3.914
   72SOL    HW1 1115   2.889   5.365   3.914
   72SOL    HW2 1116   2.821   5.480   3.820
   73SOL     OW 1117   3.701   1.998   0.114
   73SOL    HW1 1118   3.757   1.984   0.195
   73SOL    HW2 1119   3.606   1.972   0.134
   74SOL     OW 1120   5.113   6.657   6.521
   74SOL    HW1 1121   5.060   6.636   6.603
   74SOL    HW2 1122   5.136   6.572   6.473
   75SOL     OW 1123   3.769   5.814   5.585
   75SOL    HW1 1124   3.722   5.852   5.505
   75SOL    HW2 1125   3.817   5.887   5.633
   76SOL     OW 1126   1.747   2.254   1.270
   76SOL    HW1 1127   1.743   2.315   1.350
   76SOL    HW2 1128   1.819   2.286   1.208
   77SOL     OW 1129   6.009   5.322   5.391
   77SOL    HW1 1130   5.929   5.355   5.339
   77SOL    HW2 1131   6.092   5.358   5.349
   78SOL     OW 1132   6.339   6.156   5.848
   78SOL    HW1 1133   6.267   6.214   5.886
   78SOL    HW2 1134   6.320   6.139   5.751
   79SOL     OW 1135   3.646   7.003   0.584
   79SOL    HW1 1136   3.617   6.908   0.572
   79SOL    HW2 1137   3.566   0.034   0.583
   80SOL     OW 1138   6.789   1.510   4.564
   80SOL    HW1 1139   6.730   1.444   4.518
   80SOL    HW2 1140   6.754   1.529   4.656
   81SOL     OW 1141   1.733   1.077   2.905
   81SOL    HW1 1142   1.690   1.164   2.881
   81SOL    HW2 1143   1.663   1.007   2.913
   82SOL     OW 1144   6.626   4.800   6.839
   82SOL    HW1 1145   6.545   4.760   6.883
   82SOL    HW2 1146   6.617   4.794   6.740
   83SOL     OW 1147   0.161   6.371   0.480
   83SOL    HW1 1148   0.089   6.370   0.550
   83SOL    HW2 1149   0.220   6.292   0.491
   84SOL     OW 1150   5.062   3.777   2.188
   84SOL    HW1 1151   5.004   3.766   2.107
   84SOL    HW2 1152   5.034   3.712   2.258
   85SOL     OW 1153   0.613   1.680   5.150
   85SOL    HW1 1154   0.612   1.780   5.163
   85SOL    HW2 1155   0.523   1.643   5.174
   86SOL     OW 1156   0.436   0.365   5.678
   86SOL    HW1 1157   0.449   0.438   5.745
   86SOL    HW2 1158   0.505   0.373   5.606
   87SOL     OW 1159   4.619   2.523   0.301
   87SOL    HW1 1160   4.647   2.591   0.233
   87SOL    HW2 1161   4.687   2.521   0.375
   88SOL     OW 1162   5.372   1.167   0.848
   88SOL    HW1 1163   5.320   1.241   0.806
   88SOL    HW2 1164   5.438   1.205   0.914
   89SOL     OW 1165   1.761   3.018   6.474
   89SOL    HW1 1166   1.765   3.117   6.489
   89SOL    HW2 1167   1.797   2.971   6.554
   90SOL     OW 1168   6.197   6.230   4.122
   90SOL    HW1 1169   6.162   6.322   4.108
   90SOL    HW2 1170   6.206   6.183   4.035
   91SOL     OW 1171   4.908   4.678   4.403
   91SOL    HW1 1172   4.923   4.587   4.363
   91SOL    HW2 1173   4.812   4.690   4.426
   92SOL     OW 1174   3.146   4.666   0.946
   92SOL    HW1 1175   3.071   4.650   1.011
   92SOL    HW2 1176   3.137   4.758   0.907
   93SOL     OW 1177   3.867   4.939   6.047
   93SOL    HW1 1178   3.787   4.999   6.045
   93SOL    HW2 1179   3.844   4.853   6.092
   94SOL     OW 1180   2.892   5.838   6.948
   94SOL    HW1 1181   2.870   5.906   7.019
   94SOL    HW2 1182   2.842   5.754   6.966
   95SOL     OW 1183   0.553   0.264   4.137
   95SOL    HW1 1184   0.478   0.329   4.124
   95SOL    HW2 1185   0.534   0.180   4.086
   96SOL     OW 1186   2.210   0.371   5.345
   96SOL    HW1 1187   2.302   0.330   5.345
   96SOL    HW2 1188   2.148   0.314   5.291
   97SOL     OW 1189   5.896   3.488   4.185
   97SOL    HW1 1190   5.802   3.493   4.150
   97SOL    HW2 1191   5.894   3.492   4.285
   98SOL     OW 1192   5.023   2.458   6.137
   98SOL    HW1 1193   5.068   2.511   6.065
   98SOL    HW2 1194   5.076   2.375   6.155
   99SOL     OW 1195   3.855   2.673   0.964
   99SOL    HW1 1196   3.810   2.611   1.029
   99SOL    HW2 1197   3.844   2.768   0.995
  100SOL     OW 1198   0.534   6.391   6.580
  100SOL    HW1 1199   0.524   6.302   6.626
  100SOL    HW2 1200   0.570   6.458   6.645
  101SOL     OW 1201   0.500   6.015   4.009
  101SOL    HW1 1202   0.479   5.921   4.036
  101SOL    HW2 1203   0.587   6.043   4.051
  102SOL     OW 1204   3.737   0.685   3.333
  102SOL    HW1 1205   3.774   0.695   3.425
  102SOL    HW2 1206   3.665   0.753   3.319
  103SOL     OW 1207   4.318   2.425   1.493
  103SOL    HW1 1208   4.337   2.420   1.591
  103SOL    HW2 1209   4.403   2.441   1.443
  104SOL     OW 1210   6.604   5.593   2.521
  104SOL    HW1 1211   6.617   5.663   2.591
  104SOL    HW2 1212   6.621   5.503   2.561
  105SOL     OW 1213   6.260   1.189   6.742
  105SOL    HW1 1214   6.349   1.219   6.707
  105SOL    HW2 1215   6.272   1.107   6.797
  106SOL     OW 1216   2.660   6.095   6.492
  106SOL    HW1 1217   2.724   6.171   6.494
  106SOL    HW2 1218   2.709   6.010   6.474
  107SOL     OW 1219   1.179   2.400   1.047
  107SOL    HW1 1220   1.176   2.315   1.099
  107SOL    HW2 1221   1.252   2.459   1.084
  108SOL     OW 1222   4.956   4.992   6.886
  108SOL    HW1 1223   4.890   4.919   6.870
  108SOL    HW2 1224   4.993   5.025   6.799
  109SOL     OW 1225   0.434   0.379   0.786
  109SOL    HW1 1226   0.366   0.428   0.841
  109SOL    HW2 1227   0.503   0.339   0.847
  110SOL     OW 1228   3.631   6.053   5.773
  110SOL    HW1 1229   3.639   5.968   5.824
  110SOL    HW2 1230   3.539   6.060   5.734
  111SOL     OW 1231   3.759   0.719   3.650
  111SOL    HW1 1232   3.796   0.627   3.633
  111SOL    HW2 1233   3.773   0.744   3.746
  112SOL     OW 1234   6.140   5.652   5.726
  112SOL    HW1 1235   6.048   5.627   5.698
  112SOL    HW2 1236   6.138   5.686   5.820
  113SOL     OW 1237   6.842   4.671   3.777
  113SOL    HW1 1238   6.746   4.692   3.761
  113SOL    HW2 1239   6.861   4.576   3.756
  114SOL     OW 1240   0.420   6.824   0.469
  114SOL    HW1 1241   0.466   6.878   0.539
  114SOL    HW2 1242   0.394   6.735   0.507
  115SOL     OW 1243   4.652   1.155   4.123
  115SOL    HW1 1244   4.677   1.215   4.047
  115SOL    HW2 1245   4.659   1.205   4.209
  116SOL     OW 1246   6.449   4.874   2.370
  116SOL    HW1 1247   6.372   4.938   2.373
  116SOL    HW2 1248   6.414   4.781   2.359
  117SOL     OW 1249   1.236   0.632   6.609
  117SOL    HW1 1250   1.273   0.705   6.551
  117SOL    HW2 1251   1.156   0.591   6.563
  118SOL     OW 1252   0.303   0.832   1.737
  118SOL    HW1 1253   0.241   0.904   1.707
  118SOL    HW2 1254   0.265   0.786   1.816
  119SOL     OW 1255   6.866   2.563   6.526
  119SOL    HW1 1256   6.871   2.477   6.576
  119SOL    HW2 1257   6.953   2.612   6.535
  120SOL     OW 1258   6.231   6.783   0.873
  120SOL    HW1 1259   6.330   6.773   0.861
  120SOL    HW2 1260   6.203   6.731   0.954
  121SOL     OW 1261   2.593   3.680   6.363
  121SOL    HW1 1262   2.615   3.638   6.275
  121SOL    HW2 1263   2.550   3.612   6.423
  122SOL     OW 1264   1.249   3.588   5.163
  122SOL    HW1 1265   1.334   3.625   5.200
  122SOL    HW2 1266   1.213   3.649   5.093
  123SOL     OW 1267   6.772   1.586   1.425
  123SOL    HW1 1268   6.807   1.605   1.333
  123SOL    HW2 1269   6.848   1.571   1.487
  124SOL     OW 1270   5.426   3.162   0.118
  124SOL    HW1 1271   5.381   3.219   0.050
  124SOL    HW2 1272   5.480   3.091   0.072
  125SOL     OW 1273   1.659   2.325   1.933
  125SOL    HW1 1274   1.679   2.315   2.031
  125SOL    HW2 1275   1.568   2.289   1.914
  126SOL     OW 1276   2.581   4.501   0.895
  126SOL    HW1 1277   2.542   4.582   0.851
  126SOL    HW2 1278   2.514   4.426   0.891
  127SOL     OW 1279   0.101   5.305   5.846
  127SOL    HW1 1280   0.056   5.218   5.827
  127SOL    HW2 1281   0.096   5.363   5.765
  128SOL     OW 1282   4.372   2.996   1.483
  128SOL    HW1 1283   4.294   3.029   1.536
  128SOL    HW2 1284   4.427   2.934   1.539
  129SOL     OW 1285   3.341   3.977   6.340
  129SOL    HW1 1286   3.337   3.877   6.343
  129SOL    HW2 1287   3.333   4.007   6.245
  130SOL     OW 1288   1.021   0.888   4.003
  130SOL    HW1 1289   0.942   0.922   3.952
  130SOL    HW2 1290   1.009   0.907   4.101
  131SOL     OW 1291   4.643   1.429   2.574
  131SOL    HW1 1292   4.731   1.382   2.558
  131SOL    HW2 1293   4.596   1.385   2.650
  132SOL     OW 1294   1.045   2.973   1.537
  132SOL    HW1 1295   1.081   2.920   1.614
  132SOL    HW2 1296   1.118   3.028   1.497
  133SOL     OW 1297   6.017   6.114   2.888
  133SOL    HW1 1298   5.925   6.151   2.886
  133SOL    HW2 1299   6.058   6.122   2.797
  134SOL     OW 1300   6.835   3.136   3.377
  134SOL    HW1 1301   6.856   3.233   3.365
  134SOL    HW2 1302   6.753   3.113   3.325
  135SOL     OW 1303   5.183   1.594   3.736
  135SOL    HW1 1304   5.234   1.559   3.815
  135SOL    HW2 1305   5.244   1.649   3.679
  136SOL     OW 1306   5.650   4.198   5.531
  136SOL    HW1 1307   5.571   4.164   5.583
  136SOL    HW2 1308   5.619   4.235   5.444
  137SOL     OW 1309   5.264   0.051   5.562
  137SOL    HW1 1310   5.338   0.059   5.628
  137SOL    HW2 1311   5.214   0.138   5.557
  138SOL     OW 1312   6.850   4.979   4.635
  138SOL    HW1 1313   6.925   5.034   4.672
  138SOL    HW2 1314   6.865   4.963   4.538
  139SOL     OW 1315   2.679   4.972   5.371
  139SOL    HW1 1316   2.707   5.060   5.409
  139SOL    HW2 1317   2.725   4.956   5.284
  140SOL     OW 1318   5.484   5.279   3.913
  140SOL    HW1 1319   5.405   5.340   3.917
  140SOL    HW2 1320   5.500   5.239   4.003
  141SOL     OW 1321   1.159   1.857   4.848
  141SOL    HW1 1322   1.190   1.782   4.791
  141SOL    HW2 1323   1.096   1.915   4.796
  142SOL     OW 1324   1.413   6.196   1.771
  142SOL    HW1 1325   1.469   6.255   1.713
  142SOL    HW2 1326   1.431   6.101   1.749
  143SOL     OW 1327   5.130   4.915   2.187
  143SOL    HW1 1328   5.065   4.977   2.230
  143SOL    HW2 1329   5.105   4.820   2.208
  144SOL     OW 1330   1.478   6.819   6.425
  144SOL    HW1 1331   1.449   6.832   6.330
  144SOL    HW2 1332   1.524   6.730   6.434
  145SOL     OW 1333   0.407   5.599   0.557
  145SOL    HW1 1334   0.422   5.687   0.510
  145SOL    HW2 1335   0.315   5.566   0.537
  146SOL     OW 1336   5.261   6.814   0.411
  146SOL    HW1 1337   5.221   6.811   0.319
  146SOL    HW2 1338   5.270   6.720   0.446
  147SOL     OW 1339   6.507   3.021   0.549
  147SOL    HW1 1340   6.431   2.967   0.513
  147SOL    HW2 1341   6.589   2.964   0.553
  148SOL     OW 1342   0.830   4.966   5.761
  148SOL    HW1 1343   0.768   4.973   5.840
  148SOL    HW2 1344   0.885   4.883   5.770
  149SOL     OW 1345   2.976   1.206   4.261
  149SOL    HW1 1346   2.983   1.301   4.291
  149SOL    HW2 1347   2.916   1.156   4.323
  150SOL     OW 1348   6.842   4.968   6.797
  150SOL    HW1 1349   6.897   4.941   6.718
  150SOL    HW2 1350   6.779   4.894   6.821
  151SOL     OW 1351   3.963   1.454   1.372
  151SOL    HW1 1352   3.910   1.403   1.305
  151SOL    HW2 1353   3.932   1.549   1.375
  152SOL     OW 1354   2.900   0.761   4.698
  152SOL    HW1 1355   2.808   0.735   4.728
  152SOL    HW2 1356   2.903   0.860   4.683
  153SOL     OW 1357   2.334   0.688   2.804
  153SOL    HW1 1358   2.278   0.750   2.749
  153SOL    HW2 1359   2.277   0.611   2.834
  154SOL     OW 1360   6.962   2.329   1.781
  154SOL    HW1 1361   6.897   2.361   1.851
  154SOL    HW2 1362   7.025   2.403   1.759
  155SOL     OW 1363   0.187   0.866   2.921
  155SOL    HW1 1364   0.130   0.945   2.945
  155SOL    HW2 1365   0.259   0.854   2.989
  156SOL     OW 1366   6.144   1.687   1.433
  156SOL    HW1 1367   6.051   1.720   1.450
  156SOL    HW2 1368   6.140   1.598   1.387
  157SOL     OW 1369   6.123   3.425   2.722
  157SOL    HW1 1370   6.189   3.499   2.715
  157SOL    HW2 1371   6.141   3.372   2.806
  158SOL     OW 1372   2.848   0.898   2.697
  158SOL    HW1 1373   2.885   0.972   2.641
  158SOL    HW2 1374   2.784   0.843   2.643
  159SOL     OW 1375   4.512   4.616   1.921
  159SOL    HW1 1376   4.477   4.659   2.004
  159SOL    HW2 1377   4.513   4.517   1.931
  160SOL     OW 1378   6.585   4.278   5.815
  160SOL    HW1 1379   6.599   4.218   5.736
  160SOL    HW2 1380   6.654   4.350   5.814
  161SOL     OW 1381   2.193   4.775   5.158
  161SOL    HW1 1382   2.284   4.795   5.194
  161SOL    HW2 1383   2.194   4.782   5.059
  162SOL     OW 1384   4.778   5.973   0.690
  162SOL    HW1 1385   4.768   5.873   0.685
  162SOL    HW2 1386   4.734   6.014   0.610
  163SOL     OW 1387   4.180   6.787   1.617
  163SOL    HW1 1388   4.269   6.743   1.608
  163SOL    HW2 1389   4.137   6.794   1.527
  164SOL     OW 1390   6.285   3.440   0.880
  164SOL    HW1 1391   6.236   3.516   0.837
  164SOL    HW2 1392   6.281   3.450   0.979
  165SOL     OW 1393   4.961   3.494   6.714
  165SOL    HW1 1394   4.919   3.445   6.790
  165SOL    HW2 1395   5.001   3.429   6.650
  166SOL     OW 1396   0.380   6.419   3.009
  166SOL    HW1 1397   0.341   6.503   2.970
  166SOL    HW2 1398   0.305   6.361   3.043
  167SOL     OW 1399   6.525   2.307   0.086
  167SOL    HW1 1400   6.541   2.266   0.176
  167SOL    HW2 1401   6.585   2.263   0.019
  168SOL     OW 1402   2.124   5.157   0.979
  168SOL    HW1 1403   2.050   5.096   1.005
  168SOL    HW2 1404   2.145   5.218   1.055
  169SOL     OW 1405   2.310   0.255   2.136
  169SOL    HW1 1406   2.403   0.280   2.165
  169SOL    HW2 1407   2.287   0.305   2.053
  170SOL     OW 1408   0.066   1.990   3.740
  170SOL    HW1 1409   0.007   1.978   3.820
  170SOL    HW2 1410   0.157   2.018   3.770
  171SOL     OW 1411   3.729   3.821   0.602
  171SOL    HW1 1412   3.764   3.914   0.608
  171SOL    HW2 1413   3.763   3.777   0.518
  172SOL     OW 1414   6.797   2.077   5.181
  172SOL    HW1 1415   6.817   2.174   5.164
  172SOL    HW2 1416   6.869   2.038   5.238
  173SOL     OW 1417   6.925   6.644   4.810
  173SOL    HW1 1418   6.947   6.737   4.840
  173SOL    HW2 1419   6.995   6.581   4.843
  174SOL     OW 1420   2.738   5.181   3.713
  174SOL    HW1 1421   2.695   5.116   3.649
  174SOL    HW2 1422   2.772   5.260   3.662
  175SOL     OW 1423   1.787   5.993   2.026
  175SOL    HW1 1424   1.729   5.973   1.947
  175SOL    HW2 1425   1.855   5.920   2.037
  176SOL     OW 1426   1.984   4.104   1.349
  176SOL    HW1 1427   2.016   4.172   1.416
  176SOL    HW2 1428   2.059   4.080   1.288
  177SOL     OW 1429   4.898   2.323   3.102
  177SOL    HW1 1430   4.953   2.248   3.065
  177SOL    HW2 1431   4.826   2.347   3.037
  178SOL     OW 1432   4.992   4.402   6.646
  178SOL    HW1 1433   4.910   4.373   6.597
  178SOL    HW2 1434   4.968   4.473   6.712
  179SOL     OW 1435   3.273   0.454   0.559
  179SOL    HW1 1436   3.317   0.540   0.585
  179SOL    HW2 1437   3.175   0.458   0.581
  180SOL     OW 1438   0.802   1.004   6.789
  180SOL    HW1 1439   0.891   0.985   6.830
  180SOL    HW2 1440   0.786   1.102   6.789
  181SOL     OW 1441   3.800   2.359   6.300
  181SOL    HW1 1442   3.779   2.401   6.212
  181SOL    HW2 1443   3.791   2.260   6.293
  182SOL     OW 1444   4.031   2.163   4.091
  182SOL    HW1 1445   3.932   2.154   4.105
  182SOL    HW2 1446   4.051   2.253   4.053
  183SOL     OW 1447   4.722   1.051   1.525
  183SOL    HW1 1448   4.787   1.122   1.552
  183SOL    HW2 1449   4.748   0.965   1.569
  184SOL     OW 1450   1.272   4.837   3.313
  184SOL    HW1 1451   1.342   4.908   3.302
  184SOL    HW2 1452   1.285   4.790   3.400
  185SOL     OW 1453   1.743   3.768   6.376
  185SOL    HW1 1454   1.731   3.799   6.470
  185SOL    HW2 1455   1.766   3.846   6.318
  186SOL     OW 1456   6.068   0.202   2.965
  186SOL    HW1 1457   6.000   0.137   2.999
  186SOL    HW2 1458   6.069   0.283   3.024
  187SOL     OW 1459   5.539   0.695   4.111
  187SOL    HW1 1460   5.489   0.700   4.025
  187SOL    HW2 1461   5.476   0.703   4.188
  188SOL     OW 1462   6.031   2.328   3.054
  188SOL    HW1 1463   6.027   2.428   3.060
  188SOL    HW2 1464   5.969   2.287   3.121
  189SOL     OW 1465   2.295   5.091   2.876
  189SOL    HW1 1466   2.285   4.996   2.905
  189SOL    HW2 1467   2.210   5.123   2.835
  190SOL     OW 1468   3.892   1.160   5.255
  190SOL    HW1 1469   3.955   1.084   5.266
  190SOL    HW2 1470   3.934   1.231   5.199
  191SOL     OW 1471   6.092   5.729   6.363
  191SOL    HW1 1472   6.001   5.723   6.322
  191SOL    HW2 1473   6.091   5.798   6.436
  192SOL     OW 1474   6.404   0.060   1.784
  192SOL    HW1 1475   6.387   0.015   1.696
  192SOL    HW2 1476   6.345   0.141   1.791
  193SOL     OW 1477   5.273   3.535   6.861
  193SOL    HW1 1478   5.257   3.439   6.884
  193SOL    HW2 1479   5.329   3.541   6.778
  194SOL     OW 1480   2.893   0.994   3.178
  194SOL    HW1 1481   2.919   0.897   3.183
  194SOL    HW2 1482   2.800   1.006   3.213
  195SOL     OW 1483   1.757   5.549   3.762
  195SOL    HW1 1484   1.730   5.593   3.677
  195SOL    HW2 1485   1.783   5.618   3.830
  196SOL     OW 1486   1.549   2.008   6.762
  196SOL    HW1 1487   1.464   2.003   6.815
  196SOL    HW2 1488   1.580   2.103   6.756
  197SOL     OW 1489   1.782   1.046   1.203
  197SOL    HW1 1490   1.867   0.996   1.218
  197SOL    HW2 1491   1.790   1.138   1.243
  198SOL     OW 1492   3.807   1.521   3.065
  198SOL    HW1 1493   3.858   1.602   3.092
  198SOL    HW2 1494   3.870   1.444   3.054
  199SOL     OW 1495   1.076   2.397   4.106
  199SOL    HW1 1496   1.117   2.339   4.177
  199SOL    HW2 1497   0.984   2.423   4.134
  200SOL     OW 1498   0.310   2.676   0.535
  200SOL    HW1 1499   0.286   2.724   0.452
  200SOL    HW2 1500   0.232   2.676   0.598
  201SOL     OW 1501   0.638   0.432   5.983
  201SOL    HW1 1502   0.704   0.493   5.938
  201SOL    HW2 1503   0.647   0.441   6.083
  202SOL     OW 1504   4.594   0.463   6.129
  202SOL    HW1 1505   4.547   0.449   6.217
  202SOL    HW2 1506   4.553   0.404   6.060
  203SOL     OW 1507   5.441   3.249   5.273
  203SOL    HW1 1508   5.385   3.170   5.298
  203SOL    HW2 1509   5.406   3.288   5.188
  204SOL     OW 1510   0.221   0.464   6.155
  204SOL    HW1 1511   0.147   0.396   6.155
  204SOL    HW2 1512   0.267   0.464   6.066
  205SOL     OW 1513   0.900   2.822   2.194
  205SOL    HW1 1514   0.849   2.744   2.158
  205SOL    HW2 1515   0.858   2.907   2.161
  206SOL     OW 1516   0.158   3.239   0.953
  206SOL    HW1 1517   0.228   3.279   1.012
  206SOL    HW2 1518   0.169   3.139   0.951
  207SOL     OW 1519   4.862   1.938   3.609
  207SOL    HW1 1520   4.765   1.914   3.604
  207SOL    HW2 1521   4.884   2.003   3.537
  208SOL     OW 1522   1.095   3.958   4.832
  208SOL    HW1 1523   1.191   3.930   4.833
  208SOL    HW2 1524   1.040   3.887   4.787
  209SOL     OW 1525   6.810   4.876   2.471
  209SOL    HW1 1526   6.837   4.793   2.424
  209SOL    HW2 1527   6.758   4.934   2.409
  210SOL     OW 1528   4.644   2.327   0.128
  210SOL    HW1 1529   4.610   2.403   0.184
  210SOL    HW2 1530   4.608   2.335   0.036
  211SOL     OW 1531   1.556   0.508   3.293
  211SOL    HW1 1532   1.607   0.579   3.342
  211SOL    HW2 1533   1.525   0.543   3.205
  212SOL     OW 1534   1.617   4.145   3.245
  212SOL    HW1 1535   1.552   4.154   3.169
  212SOL    HW2 1536   1.575   4.090   3.318
  213SOL     OW 1537   2.130   5.433   1.217
  213SOL    HW1 1538   2.171   5.411   1.305
  213SOL    HW2 1539   2.147   5.529   1.196
  214SOL     OW 1540   4.624   6.053   2.475
  214SOL    HW1 1541   4.661   6.035   2.384
  214SOL    HW2 1542   4.686   6.115   2.524
  215SOL     OW 1543   2.506   4.870   2.128
  215SOL    HW1 1544   2.556   4.862   2.042
  215SOL    HW2 1545   2.568   4.901   2.200
  216SOL     OW 1546   1.524   0.110   2.396
  216SOL    HW1 1547   1.604   0.058   2.368
  216SOL    HW2 1548   1.532   0.132   2.494
  217SOL     OW 1549   1.517   3.896   6.580
  217SOL    HW1 1550   1.592   3.858   6.634
  217SOL    HW2 1551   1.550   3.975   6.529
  218SOL     OW 1552   0.734   2.339   5.597
  218SOL    HW1 1553   0.744   2.438   5.590
  218SOL    HW2 1554   0.824   2.295   5.590
  219SOL     OW 1555   3.987   0.552   0.606
  219SOL    HW1 1556   4.081   0.571   0.634
  219SOL    HW2 1557   3.929   0.546   0.688
  220SOL     OW 1558   3.400   0.138   0.548
  220SOL    HW1 1559   3.321   0.192   0.516
  220SOL    HW2 1560   3.374   0.042   0.556
  221SOL     OW 1561   5.135   5.390   1.059
  221SOL    HW1 1562   5.202   5.332   1.012
  221SOL    HW2 1563   5.055   5.402   1.001
  222SOL     OW 1564   2.404   4.282   6.417
  222SOL    HW1 1565   2.363   4.204   6.368
  222SOL    HW2 1566   2.501   4.263   6.434
  223SOL     OW 1567   6.342   2.660   5.065
  223SOL    HW1 1568   6.348   2.622   5.157
  223SOL    HW2 1569   6.353   2.760   5.069
  224SOL     OW 1570   2.120   1.739   6.079
  224SOL    HW1 1571   2.161   1.810   6.023
  224SOL    HW2 1572   2.171   1.654   6.070
  225SOL     OW 1573   4.902   3.940   6.100
  225SOL    HW1 1574   4.888   3.951   6.002
  225SOL    HW2 1575   4.861   4.017   6.148
  226SOL     OW 1576   1.111   1.631   6.359
  226SOL    HW1 1577   1.087   1.548   6.310
  226SOL    HW2 1578   1.096   1.710   6.300
  227SOL     OW 1579   2.128   3.861   2.352
  227SOL    HW1 1580   2.126   3.790   2.282
  227SOL    HW2 1581   2.141   3.820   2.442
  228SOL     OW 1582   1.512   0.387   2.908
  228SOL    HW1 1583   1.603   0.420   2.880
  228SOL    HW2 1584   1.519   0.291   2.936
  229SOL     OW 1585   5.129   4.826   6.576
  229SOL    HW1 1586   5.229   4.829   6.578
  229SOL    HW2 1587   5.093   4.919   6.568
  230SOL     OW 1588   4.713   5.863   4.883
  230SOL    HW1 1589   4.636   5.871   4.946
  230SOL    HW2 1590   4.703   5.780   4.828
  231SOL     OW 1591   5.002   1.496   0.274
  231SOL    HW1 1592   5.070   1.473   0.205
  231SOL    HW2 1593   4.926   1.431   0.271
  232SOL     OW 1594   1.201   2.261   6.027
  232SOL    HW1 1595   1.251   2.205   5.961
  232SOL    HW2 1596   1.103   2.250   6.014
  233SOL     OW 1597   2.863   1.682   3.727
  233SOL    HW1 1598   2.849   1.610   3.795
  233SOL    HW2 1599   2.932   1.746   3.760
  234SOL     OW 1600   5.163   1.178   6.437
  234SOL    HW1 1601   5.159   1.278   6.437
  234SOL    HW2 1602   5.152   1.143   6.344
  235SOL     OW 1603   4.917   3.228   1.990
  235SOL    HW1 1604   4.844   3.166   1.964
  235SOL    HW2 1605   5.003   3.178   1.995
  236SOL     OW 1606   4.308   3.807   6.469
  236SOL    HW1 1607   4.270   3.716   6.455
  236SOL    HW2 1608   4.245   3.875   6.432
  237SOL     OW 1609   6.094   4.089   2.481
  237SOL    HW1 1610   6.130   4.181   2.494
  237SOL    HW2 1611   6.031   4.089   2.403
  238SOL     OW 1612   5.964   1.486   0.344
  238SOL    HW1 1613   5.934   1.575   0.379
  238SOL    HW2 1614   6.035   1.449   0.405
  239SOL     OW 1615   1.624   4.059   0.629
  239SOL    HW1 1616   1.525   4.048   0.635
  239SOL    HW2 1617   1.646   4.154   0.609
  240SOL     OW 1618   6.202   3.844   3.260
  240SOL    HW1 1619   6.191   3.936   3.296
  240SOL    HW2 1620   6.150   3.780   3.317
  241SOL     OW 1621   3.119   1.207   4.013
  241SOL    HW1 1622   3.191   1.190   3.946
  241SOL    HW2 1623   3.148   1.279   4.076
  242SOL     OW 1624   3.338   3.886   3.636
  242SOL    HW1 1625   3.350   3.791   3.607
  242SOL    HW2 1626   3.242   3.900   3.662
  243SOL     OW 1627   4.866   2.765   6.403
  243SOL    HW1 1628   4.837   2.697   6.469
  243SOL    HW2 1629   4.966   2.765   6.398
  244SOL     OW 1630   6.333   3.583   6.133
  244SOL    HW1 1631   6.399   3.597   6.060
  244SOL    HW2 1632   6.338   3.488   6.165
  245SOL     OW 1633   3.192   2.055   2.786
  245SOL    HW1 1634   3.180   1.967   2.741
  245SOL    HW2 1635   3.134   2.059   2.868
  246SOL     OW 1636   6.017   1.489   3.454
  246SOL    HW1 1637   6.035   1.586   3.440
  246SOL    HW2 1638   6.103   1.442   3.478
  247SOL     OW 1639   2.264   1.529   0.731
  247SOL    HW1 1640   2.253   1.472   0.650
  247SOL    HW2 1641   2.243   1.624   0.708
  248SOL     OW 1642   2.071   1.577   2.343
  248SOL    HW1 1643   2.036   1.510   2.278
  248SOL    HW2 1644   2.160   1.611   2.311
  249SOL     OW 1645   5.407   6.942   4.711
  249SOL    HW1 1646   5.388   6.859   4.764
  249SOL    HW2 1647   5.356   6.939   4.625
  250SOL     OW 1648   3.488   2.866   0.374
  250SOL    HW1 1649   3.454   2.834   0.462
  250SOL    HW2 1650   3.414   2.861   0.306
  251SOL     OW 1651   4.298   3.826   5.382
  251SOL    HW1 1652   4.230   3.854   5.450
  251SOL    HW2 1653   4.277   3.733   5.350
  252SOL     OW 1654   5.902   6.549   5.775
  252SOL    HW1 1655   5.885   6.576   5.869
  252SOL    HW2 1656   5.898   6.630   5.716
  253SOL     OW 1657   4.180   5.282   5.766
  253SOL    HW1 1658   4.250   5.212   5.773
  253SOL    HW2 1659   4.101   5.257   5.822
  254SOL     OW 1660   6.200   2.922   4.230
  254SOL    HW1 1661   6.142   2.853   4.273
  254SOL    HW2 1662   6.153   3.010   4.230
  255SOL     OW 1663   2.166   4.823   5.941
  255SOL    HW1 1664   2.187   4.873   5.856
  255SOL    HW2 1665   2.144   4.728   5.920
  256SOL     OW 1666   4.842   3.085   5.655
  256SOL    HW1 1667   4.806   3.076   5.748
  256SOL    HW2 1668   4.786   3.150   5.604
  257SOL     OW 1669   4.887   6.242   2.878
  257SOL    HW1 1670   4.885   6.334   2.918
  257SOL    HW2 1671   4.798   6.221   2.837
  258SOL     OW 1672   2.647   3.561   6.121
  258SOL    HW1 1673   2.653   3.470   6.079
  258SOL    HW2 1674   2.737   3.604   6.121
  259SOL     OW 1675   4.334   0.038   2.618
  259SOL    HW1 1676   4.258   7.021   2.572
  259SOL    HW2 1677   4.330   0.019   2.716
  260SOL     OW 1678   4.065   5.250   3.573
  260SOL    HW1 1679   4.074   5.279   3.668
  260SOL    HW2 1680   4.131   5.177   3.554
  261SOL     OW 1681   4.686   5.195   0.602
  261SOL    HW1 1682   4.637   5.267   0.650
  261SOL    HW2 1683   4.621   5.123   0.575
  262SOL     OW 1684   2.134   4.098   0.719
  262SOL    HW1 1685   2.113   4.158   0.642
  262SOL    HW2 1686   2.090   4.009   0.706
  263SOL     OW 1687   1.399   6.835   4.245
  263SOL    HW1 1688   1.476   6.834   4.180
  263SOL    HW2 1689   1.415   6.766   4.315
  264SOL     OW 1690   0.097   3.048   6.964
  264SOL    HW1 1691   0.003   3.033   6.936
  264SOL    HW2 1692   0.158   3.021   6.889
  265SOL     OW 1693   5.774   6.916   3.861
  265SOL    HW1 1694   5.799   6.965   3.944
  265SOL    HW2 1695   5.747   6.823   3.884
  266SOL     OW 1696   4.900   2.019   5.360
  266SOL    HW1 1697   4.896   1.959   5.440
  266SOL    HW2 1698   4.975   1.992   5.300
  267SOL     OW 1699   1.228   0.905   5.211
  267SOL    HW1 1700   1.240   0.898   5.112
  267SOL    HW2 1701   1.138   0.942   5.231
  268SOL     OW 1702   3.634   1.158   0.898
  268SOL    HW1 1703   3.603   1.104   0.820
  268SOL    HW2 1704   3.734   1.164   0.896
  269SOL     OW 1705   3.211   2.219   0.321
  269SOL    HW1 1706   3.141   2.186   0.258
  269SOL    HW2 1707   3.250   2.304   0.286
  270SOL     OW 1708   0.202   6.720   0.103
  270SOL    HW1 1709   0.253   6.669   0.172
  270SOL    HW2 1710   0.145   6.657   0.050
  271SOL     OW 1711   0.344   1.897   6.312
  271SOL    HW1 1712   0.411   1.972   6.310
  271SOL    HW2 1713   0.264   1.922   6.257
  272SOL     OW 1714   3.132   6.123   3.768
  272SOL    HW1 1715   3.213   6.174   3.800
  272SOL    HW2 1716   3.103   6.159   3.680
  273SOL     OW 1717   2.022   5.171   5.537
  273SOL    HW1 1718   2.024   5.107   5.460
  273SOL    HW2 1719   2.067   5.256   5.511
  274SOL     OW 1720   4.077   0.884   4.225
  274SOL    HW1 1721   4.041   0.948   4.293
  274SOL    HW2 1722   4.123   0.935   4.153
  275SOL     OW 1723   0.444   6.768   2.835
  275SOL    HW1 1724   0.451   6.867   2.850
  275SOL    HW2 1725   0.351   6.738   2.856
  276SOL     OW 1726   0.216   0.220   4.490
  276SOL    HW1 1727   0.267   0.152   4.436
  276SOL    HW2 1728   0.190   0.180   4.577
  277SOL     OW 1729   2.346   2.957   0.663
  277SOL    HW1 1730   2.274   2.890   0.646
  277SOL    HW2 1731   2.424   2.938   0.604
  278SOL     OW 1732   6.970   2.647   2.896
  278SOL    HW1 1733   6.922   2.729   2.924
  278SOL    HW2 1734   6.916   2.566   2.921
  279SOL     OW 1735   5.786   2.528   4.211
  279SOL    HW1 1736   5.880   2.534   4.244
  279SOL    HW2 1737   5.759   2.432   4.206
  280SOL     OW 1738   1.915   5.129   1.755
  280SOL    HW1 1739   1.965   5.208   1.793
  280SOL    HW2 1740   1.928   5.050   1.815
  281SOL     OW 1741   2.220   3.744   0.946
  281SOL    HW1 1742   2.138   3.687   0.953
  281SOL    HW2 1743   2.194   3.838   0.924
  282SOL     OW 1744   3.617   1.785   5.985
  282SOL    HW1 1745   3.547   1.762   6.052
  282SOL    HW2 1746   3.574   1.832   5.907
  283SOL     OW 1747   5.423   3.137   6.512
  283SOL    HW1 1748   5.509   3.091   6.489
  283SOL    HW2 1749   5.353   3.112   6.445
  284SOL     OW 1750   0.635   3.010   3.765
  284SOL    HW1 1751   0.696   3.037   3.839
  284SOL    HW2 1752   0.541   3.007   3.800
  285SOL     OW 1753   5.853   4.549   3.512
  285SOL    HW1 1754   5.762   4.576   3.483
  285SOL    HW2 1755   5.884   4.471   3.458
  286SOL     OW 1756   3.225   3.762   6.796
  286SOL    HW1 1757   3.147   3.705   6.769
  286SOL    HW2 1758   3.220   3.780   6.895
  287SOL     OW 1759   1.940   3.737   0.967
  287SOL    HW1 1760   1.877   3.809   0.937
  287SOL    HW2 1761   1.974   3.759   1.058
  288SOL     OW 1762   4.490   1.756   0.142
  288SOL    HW1 1763   4.538   1.716   0.064
  288SOL    HW2 1764   4.555   1.773   0.216
  289SOL     OW 1765   2.439   4.634   5.964
  289SOL    HW1 1766   2.446   4.551   6.019
  289SOL    HW2 1767   2.384   4.615   5.882
  290SOL     OW 1768   0.143   2.225   5.769
  290SOL    HW1 1769   0.149   2.159   5.843
  290SOL    HW2 1770   0.229   2.277   5.763
  291SOL     OW 1771   0.122   1.565   2.637
  291SOL    HW1 1772   0.104   1.561   2.538
  291SOL    HW2 1773   0.092   1.654   2.672
  292SOL     OW 1774   2.184   0.742   3.234
  292SOL    HW1 1775   2.105   0.700   3.189
  292SOL    HW2 1776   2.266   0.724   3.180
  293SOL     OW 1777   4.282   5.192   4.210
  293SOL    HW1 1778   4.322   5.205   4.301
  293SOL    HW2 1779   4.304   5.100   4.178
  294SOL     OW 1780   5.371   6.513   6.363
  294SOL    HW1 1781   5.281   6.475   6.342
  294SOL    HW2 1782   5.388   6.593   6.305
  295SOL     OW 1783   4.780   0.599   3.697
  295SOL    HW1 1784   4.735   0.658   3.629
  295SOL    HW2 1785   4.828   0.656   3.763
  296SOL     OW 1786   3.052   2.236   3.352
  296SOL    HW1 1787   3.049   2.202   3.446
  296SOL    HW2 1788   3.147   2.238   3.321
  297SOL     OW 1789   1.436   3.894   3.394
  297SOL    HW1 1790   1.439   3.976   3.451
  297SOL    HW2 1791   1.524   3.847   3.398
  298SOL     OW 1792   6.283   5.136   1.174
  298SOL    HW1 1793   6.343   5.212   1.150
  298SOL    HW2 1794   6.204   5.170   1.225
  299SOL     OW 1795   6.517   2.310   4.889
  299SOL    HW1 1796   6.545   2.249   4.963
  299SOL    HW2 1797   6.579   2.388   4.885
  300SOL     OW 1798   5.970   0.699   3.284
  300SOL    HW1 1799   6.005   0.718   3.376
  300SOL    HW2 1800   5.944   0.785   3.240
  301SOL     OW 1801   5.392   3.756   6.184
  301SOL    HW1 1802   5.337   3.839   6.188
  301SOL    HW2 1803   5.487   3.778   6.208
  302SOL     OW 1804   0.457   6.992   3.641
  302SOL    HW1 1805   0.545   0.007   3.622
  302SOL    HW2 1806   0.408   0.016   3.710
  303SOL     OW 1807   4.925   0.857   3.306
  303SOL    HW1 1808   4.914   0.836   3.403
  303SOL    HW2 1809   5.021   0.873   3.286
  304SOL     OW 1810   2.458   0.239   3.544
  304SOL    HW1 1811   2.377   0.251   3.485
  304SOL    HW2 1812   2.431   0.245   3.640
  305SOL     OW 1813   1.397   3.240   0.390
  305SOL    HW1 1814   1.356   3.321   0.348
  305SOL    HW2 1815   1.343   3.212   0.469
  306SOL     OW 1816   2.129   1.005   3.932
  306SOL    HW1 1817   2.135   1.080   3.866
  306SOL    HW2 1818   2.034   0.977   3.943
  307SOL     OW 1819   4.129   0.422   1.252
  307SOL    HW1 1820   4.168   0.507   1.288
  307SOL    HW2 1821   4.196   0.348   1.261
  308SOL     OW 1822   0.884   6.107   3.871
  308SOL    HW1 1823   0.920   6.193   3.834
  308SOL    HW2 1824   0.955   6.037   3.866
  309SOL     OW 1825   3.446   4.968   4.958
  309SOL    HW1 1826   3.521   5.028   4.983
  309SOL    HW2 1827   3.459   4.936   4.864
  310SOL     OW 1828   0.540   6.326   5.466
  310SOL    HW1 1829   0.463   6.324   5.402
  310SOL    HW2 1830   0.528   6.256   5.536
  311SOL     OW 1831   0.412   6.483   1.183
  311SOL    HW1 1832   0.511   6.489   1.192
  311SOL    HW2 1833   0.374   6.435   1.263
  312SOL     OW 1834   4.772   2.067   4.943
  312SOL    HW1 1835   4.742   2.153   4.901
  312SOL    HW2 1836   4.709   1.994   4.916
  313SOL     OW 1837   1.520   4.071   1.482
  313SOL    HW1 1838   1.545   3.975   1.491
  313SOL    HW2 1839   1.478   4.103   1.567
  314SOL     OW 1840   3.709   6.312   0.681
  314SOL    HW1 1841   3.635   6.311   0.614
  314SOL    HW2 1842   3.677   6.274   0.767
  315SOL     OW 1843   0.664   2.226   3.288
  315SOL    HW1 1844   0.747   2.281   3.279
  315SOL    HW2 1845   0.667   2.176   3.375
  316SOL     OW 1846   2.494   2.525   3.963
  316SOL    HW1 1847   2.541   2.438   3.945
  316SOL    HW2 1848   2.454   2.523   4.054
  317SOL     OW 1849   6.975   1.658   6.686
  317SOL    HW1 1850   6.891   1.621   6.727
  317SOL    HW2 1851   6.996   1.607   6.603
  318SOL     OW 1852   2.140   4.451   0.836
  318SOL    HW1 1853   2.070   4.444   0.906
  318SOL    HW2 1854   2.214   4.386   0.856
  319SOL     OW 1855   1.818   6.181   0.798
  319SOL    HW1 1856   1.860   6.137   0.719
  319SOL    HW2 1857   1.889   6.226   0.853
  320SOL     OW 1858   5.997   3.630   0.497
  320SOL    HW1 1859   6.029   3.541   0.529
  320SOL    HW2 1860   6.063   3.668   0.433
  321SOL     OW 1861   1.918   2.703   1.417
  321SOL    HW1 1862   1.903   2.799   1.395
  321SOL    HW2 1863   2.016   2.687   1.431
  322SOL     OW 1864   3.712   3.195   5.270
  322SOL    HW1 1865   3.713   3.276   5.212
  322SOL    HW2 1866   3.801   3.149   5.266
  323SOL     OW 1867   0.563   3.897   1.808
  323SOL    HW1 1868   0.510   3.892   1.893
  323SOL    HW2 1869   0.501   3.904   1.730
  324SOL     OW 1870   0.916   2.253   4.816
  324SOL    HW1 1871   0.837   2.288   4.866
  324SOL    HW2 1872   1.000   2.294   4.852
  325SOL     OW 1873   2.252   2.663   1.932
  325SOL    HW1 1874   2.248   2.663   2.031
  325SOL    HW2 1875   2.325   2.602   1.901
  326SOL     OW 1876   1.450   4.881   6.509
  326SOL    HW1 1877   1.462   4.857   6.412
  326SOL    HW2 1878   1.513   4.828   6.565
  327SOL     OW 1879   6.301   5.202   5.178
  327SOL    HW1 1880   6.380   5.262   5.178
  327SOL    HW2 1881   6.300   5.148   5.262
  328SOL     OW 1882   3.915   5.481   2.351
  328SOL    HW1 1883   3.829   5.467   2.301
  328SOL    HW2 1884   3.914   5.426   2.435
  329SOL     OW 1885   3.252   3.733   3.311
  329SOL    HW1 1886   3.319   3.751   3.238
  329SOL    HW2 1887   3.164   3.774   3.287
  330SOL     OW 1888   3.646   0.226   1.881
  330SOL    HW1 1889   3.588   0.288   1.933
  330SOL    HW2 1890   3.599   0.139   1.867
  331SOL     OW 1891   5.098   5.241   5.975
  331SOL    HW1 1892   5.146   5.323   5.943
  331SOL    HW2 1893   5.165   5.175   6.009
  332SOL     OW 1894   3.426   2.079   2.646
  332SOL    HW1 1895   3.337   2.087   2.692
  332SOL    HW2 1896   3.451   1.982   2.638
  333SOL     OW 1897   4.267   6.153   6.102
  333SOL    HW1 1898   4.269   6.239   6.152
  333SOL    HW2 1899   4.324   6.161   6.020
  334SOL     OW 1900   4.217   7.014   2.243
  334SOL    HW1 1901   4.239   0.082   2.259
  334SOL    HW2 1902   4.283   6.975   2.179
  335SOL     OW 1903   2.762   6.868   3.468
  335SOL    HW1 1904   2.701   6.947   3.462
  335SOL    HW2 1905   2.713   6.786   3.441
  336SOL     OW 1906   2.806   0.820   3.801
  336SOL    HW1 1907   2.777   0.783   3.712
  336SOL    HW2 1908   2.746   0.896   3.826
  337SOL     OW 1909   6.907   3.899   1.390
  337SOL    HW1 1910   6.911   3.913   1.292
  337SOL    HW2 1911   6.882   3.804   1.409
  338SOL     OW 1912   3.403   2.675   1.312
  338SOL    HW1 1913   3.410   2.595   1.371
  338SOL    HW2 1914   3.312   2.677   1.269
  339SOL     OW 1915   4.338   6.529   3.315
  339SOL    HW1 1916   4.394   6.488   3.243
  339SOL    HW2 1917   4.244   6.494   3.309
  340SOL     OW 1918   4.970   3.998   4.324
  340SOL    HW1 1919   4.951   3.940   4.404
  340SOL    HW2 1920   4.940   3.950   4.242
  341SOL     OW 1921   5.300   5.119   4.640
  341SOL    HW1 1922   5.312   5.213   4.606
  341SOL    HW2 1923   5.376   5.095   4.699
  342SOL     OW 1924   6.328   4.299   0.816
  342SOL    HW1 1925   6.304   4.340   0.904
  342SOL    HW2 1926   6.361   4.371   0.754
  343SOL     OW 1927   3.204   0.261   2.412
  343SOL    HW1 1928   3.240   0.308   2.493
  343SOL    HW2 1929   3.274   0.257   2.342
  344SOL     OW 1930   2.728   5.343   0.454
  344SOL    HW1 1931   2.682   5.255   0.450
  344SOL    HW2 1932   2.756   5.362   0.548
  345SOL     OW 1933   0.936   6.859   5.160
  345SOL    HW1 1934   0.911   6.947   5.202
  345SOL    HW2 1935   0.863   6.793   5.176
  346SOL     OW 1936   1.312   0.143   3.132
  346SOL    HW1 1937   1.316   0.201   3.214
  346SOL    HW2 1938   1.405   0.126   3.100
  347SOL     OW 1939   4.831   6.870   6.362
  347SOL    HW1 1940   4.801   6.894   6.454
  347SOL    HW2 1941   4.840   6.953   6.307
  348SOL     OW 1942   3.780   5.244   1.694
  348SOL    HW1 1943   3.857   5.296   1.730
  348SOL    HW2 1944   3.697   5.266   1.745
  349SOL     OW 1945   1.085   4.819   2.052
  349SOL    HW1 1946   1.030   4.898   2.080
  349SOL    HW2 1947   1.136   4.842   1.969
  350SOL     OW 1948   4.626   3.431   1.138
  350SOL    HW1 1949   4.597   3.337   1.123
  350SOL    HW2 1950   4.616   3.454   1.235
  351SOL     OW 1951   3.249   1.912   0.370
  351SOL    HW1 1952   3.270   1.973   0.446
  351SOL    HW2 1953   3.277   1.955   0.284
  352SOL     OW 1954   3.114   0.562   6.785
  352SOL    HW1 1955   3.056   0.482   6.804
  352SOL    HW2 1956   3.057   0.644   6.778
  353SOL     OW 1957   2.366   6.099   1.384
  353SOL    HW1 1958   2.306   6.115   1.305
  353SOL    HW2 1959   2.325   6.139   1.466
  354SOL     OW 1960   4.985   1.413   1.099
  354SOL    HW1 1961   4.991   1.498   1.047
  354SOL    HW2 1962   4.900   1.413   1.152
  355SOL     OW 1963   0.102   2.535   2.517
  355SOL    HW1 1964   0.146   2.448   2.496
  355SOL    HW2 1965   0.004   2.529   2.496
  356SOL     OW 1966   4.274   5.494   3.550
  356SOL    HW1 1967   4.334   5.422   3.584
  356SOL    HW2 1968   4.186   5.455   3.524
  357SOL     OW 1969   0.535   5.452   5.445
  357SOL    HW1 1970   0.559   5.538   5.401
  357SOL    HW2 1971   0.436   5.440   5.444
  358SOL     OW 1972   5.446   0.335   1.223
  358SOL    HW1 1973   5.486   0.246   1.204
  358SOL    HW2 1974   5.458   0.395   1.143
  359SOL     OW 1975   1.480   1.590   1.904
  359SOL    HW1 1976   1.394   1.627   1.868
  359SOL    HW2 1977   1.481   1.491   1.890
  360SOL     OW 1978   4.126   6.922   0.284
  360SOL    HW1 1979   4.166   6.857   0.350
  360SOL    HW2 1980   4.152   6.895   0.192
  361SOL     OW 1981   4.624   0.032   2.624
  361SOL    HW1 1982   4.526   0.017   2.621
  361SOL    HW2 1983   4.659   0.042   2.530
  362SOL     OW 1984   2.970   3.380   0.847
  362SOL    HW1 1985   2.953   3.476   0.829
  362SOL    HW2 1986   3.064   3.368   0.881
  363SOL     OW 1987   4.158   4.746   4.046
  363SOL    HW1 1988   4.225   4.803   4.094
  363SOL    HW2 1989   4.068   4.789   4.053
  364SOL     OW 1990   1.271   5.351   6.015
  364SOL    HW1 1991   1.207   5.426   5.997
  364SOL    HW2 1992   1.321   5.369   6.099
  365SOL     OW 1993   4.513   6.280   1.878
  365SOL    HW1 1994   4.561   6.315   1.798
  365SOL    HW2 1995   4.564   6.204   1.917
  366SOL     OW 1996   5.753   0.857   0.147
  366SOL    HW1 1997   5.749   0.957   0.142
  366SOL    HW2 1998   5.848   0.827   0.144
  367SOL     OW 1999   5.252   2.770   0.839
  367SOL    HW1 2000   5.172   2.721   0.874
  367SOL    HW2 2001   5.320   2.780   0.912
  368SOL     OW 2002   0.956   4.670   4.889
  368SOL    HW1 2003   1.043   4.708   4.858
  368SOL    HW2 2004   0.958   4.570   4.882
  369SOL     OW 2005   0.993   3.827   1.976
  369SOL    HW1 2006   0.977   3.749   2.036
  369SOL    HW2 2007   1.069   3.806   1.914
  370SOL     OW 2008   3.699   1.347   5.760
  370SOL    HW1 2009   3.621   1.407   5.743
  370SOL    HW2 2010   3.681   1.258   5.718
  371SOL     OW 2011   4.140   2.780   6.947
  371SOL    HW1 2012   4.044   2.752   6.949
  371SOL    HW2 2013   4.146   2.880   6.954
  372SOL     OW 2014   0.698   6.368   6.343
  372SOL    HW1 2015   0.712   6.453   6.290
  372SOL    HW2 2016   0.626   6.382   6.410
  373SOL     OW 2017   0.025   6.802   0.309
  373SOL    HW1 2018   0.094   6.752   0.256
  373SOL    HW2 2019   6.970   6.810   0.255
  374SOL     OW 2020   3.089   0.852   1.526
  374SOL    HW1 2021   3.049   0.931   1.479
  374SOL    HW2 2022   3.156   0.884   1.593
  375SOL     OW 2023   6.921   4.522   3.001
  375SOL    HW1 2024   6.977   4.600   3.026
  375SOL    HW2 2025   6.975   4.438   3.004
  376SOL     OW 2026   2.188   2.847   3.857
  376SOL    HW1 2027   2.283   2.818   3.846
  376SOL    HW2 2028   2.182   2.947   3.848
  377SOL     OW 2029   4.990   1.393   3.854
  377SOL    HW1 2030   5.064   1.453   3.822
  377SOL    HW2 2031   4.918   1.448   3.896
  378SOL     OW 2032   5.057   2.840   4.951
  378SOL    HW1 2033   5.061   2.830   5.050
  378SOL    HW2 2034   5.148   2.828   4.912
  379SOL     OW 2035   6.462   3.878   1.190
  379SOL    HW1 2036   6.374   3.832   1.181
  379SOL    HW2 2037   6.513   3.869   1.104
  380SOL     OW 2038   0.939   2.164   1.239
  380SOL    HW1 2039   0.897   2.246   1.201
  380SOL    HW2 2040   1.035   2.160   1.210
  381SOL     OW 2041   3.684   3.557   1.172
  381SOL    HW1 2042   3.723   3.490   1.235
  381SOL    HW2 2043   3.602   3.598   1.212
  382SOL     OW 2044   2.910   6.090   0.587
  382SOL    HW1 2045   2.930   6.142   0.504
  382SOL    HW2 2046   2.858   6.008   0.564
  383SOL     OW 2047   6.603   2.547   0.203
  383SOL    HW1 2048   6.569   2.472   0.147
  383SOL    HW2 2049   6.651   2.613   0.145
  384SOL     OW 2050   1.623   5.658   5.296
  384SOL    HW1 2051   1.668   5.746   5.312
  384SOL    HW2 2052   1.638   5.599   5.376
  385SOL     OW 2053   4.454   5.604   0.525
  385SOL    HW1 2054   4.367   5.602   0.573
  385SOL    HW2 2055   4.527   5.633   0.587
  386SOL     OW 2056   3.376   6.404   5.826
  386SOL    HW1 2057   3.352   6.480   5.766
  386SOL    HW2 2058   3.470   6.376   5.809
  387SOL     OW 2059   0.408   0.515   5.352
  387SOL    HW1 2060   0.501   0.546   5.334
  387SOL    HW2 2061   0.397   0.422   5.317
  388SOL     OW 2062   6.970   2.325   4.863
  388SOL    HW1 2063   6.890   2.327   4.802
  388SOL    HW2 2064   0.022   2.293   4.813
  389SOL     OW 2065   4.174   4.531   1.522
  389SOL    HW1 2066   4.182   4.509   1.619
  389SOL    HW2 2067   4.241   4.476   1.471
  390SOL     OW 2068   3.385   2.075   0.183
  390SOL    HW1 2069   3.340   2.138   0.246
  390SOL    HW2 2070   3.409   2.124   0.099
  391SOL     OW 2071   3.285   4.311   5.406
  391SOL    HW1 2072   3.230   4.286   5.327
  391SOL    HW2 2073   3.244   4.390   5.452
  392SOL     OW 2074   1.344   3.487   1.665
  392SOL    HW1 2075   1.436   3.487   1.625
  392SOL    HW2 2076   1.343   3.430   1.746
  393SOL     OW 2077   1.388   4.195   1.720
  393SOL    HW1 2078   1.395   4.294   1.711
  393SOL    HW2 2079   1.358   4.171   1.813
  394SOL     OW 2080   0.076   0.852   6.517
  394SOL    HW1 2081   0.026   0.791   6.455
  394SOL    HW2 2082   0.048   0.834   6.611
  395SOL     OW 2083   5.388   4.550   1.100
  395SOL    HW1 2084   5.299   4.506   1.107
  395SOL    HW2 2085   5.454   4.487   1.058
  396SOL     OW 2086   1.662   1.042   1.458
  396SOL    HW1 2087   1.671   1.130   1.505
  396SOL    HW2 2088   1.687   1.052   1.362
  397SOL     OW 2089   4.346   2.161   5.203
  397SOL    HW1 2090   4.442   2.139   5.222
  397SOL    HW2 2091   4.334   2.175   5.105
  398SOL     OW 2092   1.393   1.299   4.310
  398SOL    HW1 2093   1.467   1.321   4.246
  398SOL    HW2 2094   1.314   1.264   4.259
  399SOL     OW 2095   5.709   6.377   4.162
  399SOL    HW1 2096   5.788   6.356   4.105
  399SOL    HW2 2097   5.665   6.461   4.129
  400SOL     OW 2098   5.973   0.249   4.470
  400SOL    HW1 2099   5.883   0.270   4.431
  400SOL    HW2 2100   6.020   0.334   4.493
  401SOL     OW 2101   0.205   4.882   5.759
  401SOL    HW1 2102   0.159   4.801   5.796
  401SOL    HW2 2103   0.171   4.964   5.806
  402SOL     OW 2104   6.277   1.361   3.195
  402SOL    HW1 2105   6.218   1.441   3.189
  402SOL    HW2 2106   6.295   1.340   3.291
  403SOL     OW 2107   2.918   1.290   5.118
  403SOL    HW1 2108   2.981   1.221   5.081
  403SOL    HW2 2109   2.891   1.264   5.210
  404SOL     OW 2110   3.234   5.414   3.526
  404SOL    HW1 2111   3.259   5.319   3.545
  404SOL    HW2 2112   3.318   5.470   3.520
  405SOL     OW 2113   2.121   4.879   3.858
  405SOL    HW1 2114   2.132   4.953   3.924
  405SOL    HW2 2115   2.066   4.806   3.898
  406SOL     OW 2116   0.093   5.699   5.332
  406SOL    HW1 2117   0.180   5.696   5.381
  406SOL    HW2 2118   0.098   5.768   5.260
  407SOL     OW 2119   1.944   3.125   4.313
  407SOL    HW1 2120   2.041   3.100   4.306
  407SOL    HW2 2121   1.888   3.042   4.318
  408SOL     OW 2122   2.350   1.717   3.539
  408SOL    HW1 2123   2.446   1.711   3.566
  408SOL    HW2 2124   2.293   1.712   3.621
  409SOL     OW 2125   0.666   3.339   2.623
  409SOL    HW1 2126   0.694   3.251   2.660
  409SOL    HW2 2127   0.633   3.327   2.530
  410SOL     OW 2128   1.356   1.151   1.278
  410SOL    HW1 2129   1.327   1.089   1.352
  410SOL    HW2 2130   1.429   1.107   1.225
  411SOL     OW 2131   0.116   3.099   1.623
  411SOL    HW1 2132   0.152   3.006   1.609
  411SOL    HW2 2133   0.033   3.094   1.679
  412SOL     OW 2134   1.389   5.121   2.528
  412SOL    HW1 2135   1.300   5.093   2.493
  412SOL    HW2 2136   1.434   5.042   2.571
  413SOL     OW 2137   5.789   6.023   2.476
  413SOL    HW1 2138   5.698   6.002   2.439
  413SOL    HW2 2139   5.784   6.107   2.531
  414SOL     OW 2140   1.657   6.561   3.269
  414SOL    HW1 2141   1.665   6.620   3.349
  414SOL    HW2 2142   1.595   6.485   3.289
  415SOL     OW 2143   6.169   1.027   0.389
  415SOL    HW1 2144   6.155   1.067   0.298
  415SOL    HW2 2145   6.267   1.015   0.405
  416SOL     OW 2146   5.573   3.503   4.931
  416SOL    HW1 2147   5.603   3.430   4.869
  416SOL    HW2 2148   5.485   3.477   4.972
  417SOL     OW 2149   2.016   1.826   6.306
  417SOL    HW1 2150   2.069   1.790   6.229
  417SOL    HW2 2151   1.934   1.770   6.319
  418SOL     OW 2152   3.977   0.056   4.676
  418SOL    HW1 2153   3.905   0.121   4.649
  418SOL    HW2 2154   3.940   7.022   4.745
  419SOL     OW 2155   0.284   0.194   0.603
  419SOL    HW1 2156   0.234   0.135   0.666
  419SOL    HW2 2157   0.351   0.248   0.654
  420SOL     OW 2158   4.191   0.788   6.837
  420SOL    HW1 2159   4.137   0.865   6.872
  420SOL    HW2 2160   4.151   0.755   6.752
  421SOL     OW 2161   5.087   4.154   2.523
  421SOL    HW1 2162   5.136   4.238   2.499
  421SOL    HW2 2163   4.996   4.177   2.557
  422SOL     OW 2164   5.113   2.986   1.530
  422SOL    HW1 2165   5.192   3.028   1.576
  422SOL    HW2 2166   5.035   2.985   1.592
  423SOL     OW 2167   3.498   1.110   6.597
  423SOL    HW1 2168   3.480   1.205   6.623
  423SOL    HW2 2169   3.473   1.097   6.501
  424SOL     OW 2170   1.145   3.803   4.101
  424SOL    HW1 2171   1.128   3.755   4.187
  424SOL    HW2 2172   1.243   3.818   4.090
  425SOL     OW 2173   2.916   1.072   6.350
  425SOL    HW1 2174   2.865   1.127   6.285
  425SOL    HW2 2175   2.906   0.975   6.329
  426SOL     OW 2176   2.575   2.159   4.275
  426SOL    HW1 2177   2.577   2.072   4.225
  426SOL    HW2 2178   2.575   2.235   4.209
  427SOL     OW 2179   3.954   2.139   2.996
  427SOL    HW1 2180   3.944   2.155   2.897
  427SOL    HW2 2181   3.887   2.071   3.025
  428SOL     OW 2182   2.985   2.169   5.910
  428SOL    HW1 2183   3.063   2.177   5.973
  428SOL    HW2 2184   2.991   2.083   5.860
  429SOL     OW 2185   0.362   5.472   4.303
  429SOL    HW1 2186   0.433   5.539   4.327
  429SOL    HW2 2187   0.272   5.512   4.320
  430SOL     OW 2188   1.609   0.062   3.832
  430SOL    HW1 2189   1.667   0.143   3.840
  430SOL    HW2 2190   1.584   0.047   3.736
  431SOL     OW 2191   2.309   1.817   1.450
  431SOL    HW1 2192   2.349   1.814   1.542
  431SOL    HW2 2193   2.354   1.889   1.397
  432SOL     OW 2194   4.919   1.994   1.439
  432SOL    HW1 2195   4.924   1.915   1.378
  432SOL    HW2 2196   4.881   2.072   1.389
  433SOL     OW 2197   1.486   5.446   1.008
  433SOL    HW1 2198   1.475   5.539   1.044
  433SOL    HW2 2199   1.437   5.382   1.066
  434SOL     OW 2200   4.691   5.638   3.702
  434SOL    HW1 2201   4.707   5.595   3.613
  434SOL    HW2 2202   4.772   5.689   3.729
  435SOL     OW 2203   3.750   1.658   5.730
  435SOL    HW1 2204   3.736   1.571   5.777
  435SOL    HW2 2205   3.749   1.733   5.797
  436SOL     OW 2206   4.807   6.743   2.918
  436SOL    HW1 2207   4.773   6.763   2.826
  436SOL    HW2 2208   4.777   6.815   2.981
  437SOL     OW 2209   6.441   0.825   4.960
  437SOL    HW1 2210   6.448   0.736   4.917
  437SOL    HW2 2211   6.429   0.814   5.059
  438SOL     OW 2212   0.313   4.492   2.428
  438SOL    HW1 2213   0.332   4.430   2.504
  438SOL    HW2 2214   0.216   4.486   2.404
  439SOL     OW 2215   0.123   0.680   4.588
  439SOL    HW1 2216   0.072   0.706   4.670
  439SOL    HW2 2217   0.209   0.637   4.615
  440SOL     OW 2218   4.151   1.566   0.615
  440SOL    HW1 2219   4.186   1.657   0.637
  440SOL    HW2 2220   4.060   1.574   0.575
  441SOL     OW 2221   0.372   4.392   2.689
  441SOL    HW1 2222   0.370   4.467   2.755
  441SOL    HW2 2223   0.452   4.335   2.706
  442SOL     OW 2224   5.571   2.681   5.505
  442SOL    HW1 2225   5.565   2.677   5.405
  442SOL    HW2 2226   5.549   2.774   5.535
  443SOL     OW 2227   5.155   3.297   1.795
  443SOL    HW1 2228   5.164   3.393   1.770
  443SOL    HW2 2229   5.156   3.287   1.894
  444SOL     OW 2230   4.453   1.224   1.821
  444SOL    HW1 2231   4.398   1.281   1.882
  444SOL    HW2 2232   4.524   1.178   1.874
  445SOL     OW 2233   1.511   5.369   2.569
  445SOL    HW1 2234   1.483   5.446   2.512
  445SOL    HW2 2235   1.467   5.285   2.537
  446SOL     OW 2236   5.514   6.932   1.361
  446SOL    HW1 2237   5.490   6.841   1.395
  446SOL    HW2 2238   5.475   6.944   1.270
  447SOL     OW 2239   5.939   4.577   0.647
  447SOL    HW1 2240   5.931   4.477   0.652
  447SOL    HW2 2241   6.035   4.604   0.655
  448SOL     OW 2242   2.970   6.882   3.176
  448SOL    HW1 2243   3.049   6.903   3.233
  448SOL    HW2 2244   2.924   6.967   3.149
  449SOL     OW 2245   1.572   3.810   4.956
  449SOL    HW1 2246   1.637   3.884   4.938
  449SOL    HW2 2247   1.614   3.744   5.019
  450SOL     OW 2248   0.030   5.255   3.597
  450SOL    HW1 2249   6.986   5.270   3.665
  450SOL    HW2 2250   0.115   5.232   3.644
  451SOL     OW 2251   0.933   1.874   1.558
  451SOL    HW1 2252   0.874   1.859   1.479
  451SOL    HW2 2253   1.024   1.839   1.540
  452SOL     OW 2254   4.791   5.695   2.441
  452SOL    HW1 2255   4.776   5.620   2.377
  452SOL    HW2 2256   4.868   5.751   2.409
  453SOL     OW 2257   3.070   0.778   6.408
  453SOL    HW1 2258   3.054   0.683   6.435
  453SOL    HW2 2259   3.104   0.781   6.315
  454SOL     OW 2260   6.598   3.296   6.451
  454SOL    HW1 2261   6.563   3.247   6.530
  454SOL    HW2 2262   6.697   3.305   6.458
  455SOL     OW 2263   5.430   4.944   5.862
  455SOL    HW1 2264   5.451   4.875   5.932
  455SOL    HW2 2265   5.421   4.900   5.773
  456SOL     OW 2266   2.470   1.316   3.029
  456SOL    HW1 2267   2.380   1.325   2.987
  456SOL    HW2 2268   2.461   1.274   3.119
  457SOL     OW 2269   2.280   6.864   0.217
  457SOL    HW1 2270   2.371   6.869   0.257
  457SOL    HW2 2271   2.276   6.920   0.135
  458SOL     OW 2272   2.871   1.722   3.285
  458SOL    HW1 2273   2.947   1.730   3.220
  458SOL    HW2 2274   2.856   1.811   3.329
  459SOL     OW 2275   4.033   0.234   3.440
  459SOL    HW1 2276   4.094   0.269   3.368
  459SOL    HW2 2277   4.035   0.134   3.438
  460SOL     OW 2278   0.898   1.509   6.095
  460SOL    HW1 2279   0.883   1.588   6.035
  460SOL    HW2 2280   0.813   1.456   6.101
  461SOL     OW 2281   1.150   4.818   5.492
  461SOL    HW1 2282   1.099   4.901   5.472
  461SOL    HW2 2283   1.086   4.742   5.506
  462SOL     OW 2284   3.592   4.169   4.403
  462SOL    HW1 2285   3.634   4.260   4.409
  462SOL    HW2 2286   3.524   4.169   4.330
  463SOL     OW 2287   5.176   6.339   3.365
  463SOL    HW1 2288   5.242   6.270   3.335
  463SOL    HW2 2289   5.085   6.299   3.370
  464SOL     OW 2290   3.953   5.142   6.575
  464SOL    HW1 2291   3.964   5.179   6.483
  464SOL    HW2 2292   3.882   5.194   6.623
  465SOL     OW 2293   0.800   3.803   1.080
  465SOL    HW1 2294   0.785   3.895   1.116
  465SOL    HW2 2295   0.859   3.809   1.000
  466SOL     OW 2296   4.087   5.448   4.685
  466SOL    HW1 2297   4.143   5.495   4.753
  466SOL    HW2 2298   4.021   5.388   4.731
  467SOL     OW 2299   6.180   6.911   2.058
  467SOL    HW1 2300   6.142   6.837   2.113
  467SOL    HW2 2301   6.106   6.955   2.006
  468SOL     OW 2302   2.788   6.314   6.503
  468SOL    HW1 2303   2.769   6.397   6.556
  468SOL    HW2 2304   2.841   6.338   6.422
  469SOL     OW 2305   3.261   4.896   4.646
  469SOL    HW1 2306   3.231   4.944   4.564
  469SOL    HW2 2307   3.185   4.846   4.686
  470SOL     OW 2308   2.459   4.441   2.690
  470SOL    HW1 2309   2.405   4.517   2.725
  470SOL    HW2 2310   2.399   4.375   2.644
  471SOL     OW 2311   1.463   2.288   4.401
  471SOL    HW1 2312   1.505   2.206   4.442
  471SOL    HW2 2313   1.513   2.313   4.319
  472SOL     OW 2314   5.671   3.842   6.247
  472SOL    HW1 2315   5.641   3.863   6.340
  472SOL    HW2 2316   5.737   3.767   6.249
  473SOL     OW 2317   6.489   2.840   1.819
  473SOL    HW1 2318   6.447   2.914   1.872
  473SOL    HW2 2319   6.488   2.863   1.722
  474SOL     OW 2320   4.669   6.497   4.210
  474SOL    HW1 2321   4.653   6.584   4.163
  474SOL    HW2 2322   4.765   6.473   4.204
  475SOL     OW 2323   5.668   1.843   0.120
  475SOL    HW1 2324   5.764   1.822   0.102
  475SOL    HW2 2325   5.631   1.896   0.044
  476SOL     OW 2326   1.122   4.121   0.827
  476SOL    HW1 2327   1.209   4.109   0.780
  476SOL    HW2 2328   1.049   4.129   0.759
  477SOL     OW 2329   1.665   4.759   3.759
  477SOL    HW1 2330   1.677   4.799   3.850
  477SOL    HW2 2331   1.596   4.811   3.708
  478SOL     OW 2332   4.990   6.167   2.306
  478SOL    HW1 2333   4.967   6.077   2.344
  478SOL    HW2 2334   5.026   6.155   2.214
  479SOL     OW 2335   3.158   4.081   3.496
  479SOL    HW1 2336   3.129   4.005   3.555
  479SOL    HW2 2337   3.200   4.152   3.553
  480SOL     OW 2338   1.004   0.797   2.875
  480SOL    HW1 2339   0.944   0.717   2.877
  480SOL    HW2 2340   0.960   0.872   2.925
  481SOL     OW 2341   0.252   0.003   0.402
  481SOL    HW1 2342   0.259   0.075   0.472
  481SOL    HW2 2343   0.310   6.955   0.428
  482SOL     OW 2344   3.940   4.981   1.956
  482SOL    HW1 2345   3.844   4.992   1.930
  482SOL    HW2 2346   3.946   4.933   2.044
  483SOL     OW 2347   6.138   2.403   4.064
  483SOL    HW1 2348   6.131   2.343   4.144
  483SOL    HW2 2349   6.047   2.424   4.030
  484SOL     OW 2350   2.540   4.730   3.862
  484SOL    HW1 2351   2.571   4.646   3.817
  484SOL    HW2 2352   2.460   4.766   3.814
  485SOL     OW 2353   5.626   3.117   1.167
  485SOL    HW1 2354   5.647   3.062   1.248
  485SOL    HW2 2355   5.697   3.186   1.154
  486SOL     OW 2356   5.917   6.049   6.382
  486SOL    HW1 2357   5.940   6.030   6.286
  486SOL    HW2 2358   5.971   5.990   6.442
  487SOL     OW 2359   0.226   6.400   5.683
  487SOL    HW1 2360   0.203   6.360   5.594
  487SOL    HW2 2361   0.163   6.364   5.752
  488SOL     OW 2362   2.052   5.469   3.875
  488SOL    HW1 2363   2.009   5.398   3.931
  488SOL    HW2 2364   1.986   5.541   3.855
  489SOL     OW 2365   2.018   5.864   6.301
  489SOL    HW1 2366   2.116   5.847   6.287
  489SOL    HW2 2367   1.982   5.799   6.369
  490SOL     OW 2368   0.927   3.802   4.674
  490SOL    HW1 2369   0.852   3.776   4.612
  490SOL    HW2 2370   0.989   3.724   4.685
  491SOL     OW 2371   0.156   3.037   0.584
  491SOL    HW1 2372   0.177   3.135   0.588
  491SOL    HW2 2373   0.118   3.009   0.672
  492SOL     OW 2374   0.961   2.606   5.815
  492SOL    HW1 2375   0.894   2.638   5.881
  492SOL    HW2 2376   1.048   2.654   5.830
  493SOL     OW 2377   2.082   5.737   4.883
  493SOL    HW1 2378   2.026   5.709   4.961
  493SOL    HW2 2379   2.024   5.785   4.817
  494SOL     OW 2380   2.602   6.834   4.599
  494SOL    HW1 2381   2.666   6.852   4.524
  494SOL    HW2 2382   2.590   6.918   4.653
  495SOL     OW 2383   3.760   4.126   6.476
  495SOL    HW1 2384   3.727   4.124   6.382
  495SOL    HW2 2385   3.693   4.172   6.535
  496SOL     OW 2386   4.806   1.436   3.074
  496SOL    HW1 2387   4.851   1.525   3.076
  496SOL    HW2 2388   4.707   1.448   3.063
  497SOL     OW 2389   4.685   1.707   0.359
  497SOL    HW1 2390   4.769   1.738   0.315
  497SOL    HW2 2391   4.707   1.655   0.441
  498SOL     OW 2392   0.081   6.857   1.204
  498SOL    HW1 2393   0.168   6.809   1.205
  498SOL    HW2 2394   0.015   6.807   1.260
  499SOL     OW 2395   3.014   6.128   0.311
  499SOL    HW1 2396   3.029   6.043   0.260
  499SOL    HW2 2397   3.037   6.206   0.252
  500SOL     OW 2398   5.434   2.204   0.016
  500SOL    HW1 2399   5.516   2.250   7.011
  500SOL    HW2 2400   5.369   2.273   0.049
  501SOL     OW 2401   1.042   1.409   4.586
  501SOL    HW1 2402   1.058   1.388   4.490
  501SOL    HW2 2403   1.016   1.506   4.595
  502SOL     OW 2404   2.762   4.377   6.802
  502SOL    HW1 2405   2.665   4.356   6.797
  502SOL    HW2 2406   2.775   4.461   6.855
  503SOL     OW 2407   4.076   4.918   0.789
  503SOL    HW1 2408   4.019   4.996   0.764
  503SOL    HW2 2409   4.153   4.949   0.845
  504SOL     OW 2410   6.758   6.143   1.421
  504SOL    HW1 2411   6.832   6.079   1.399
  504SOL    HW2 2412   6.766   6.172   1.516
  505SOL     OW 2413   5.113   5.720   5.365
  505SOL    HW1 2414   5.082   5.768   5.283
  505SOL    HW2 2415   5.197   5.669   5.346
  506SOL     OW 2416   4.095   5.177   2.513
  506SOL    HW1 2417   4.087   5.098   2.573
  506SOL    HW2 2418   4.074   5.260   2.564
  507SOL     OW 2419   3.242   0.512   1.362
  507SOL    HW1 2420   3.185   0.529   1.441
  507SOL    HW2 2421   3.307   0.439   1.383
  508SOL     OW 2422   0.216   4.011   2.870
  508SOL    HW1 2423   0.227   3.919   2.831
  508SOL    HW2 2424   0.130   4.016   2.922
  509SOL     OW 2425   4.757   0.521   5.866
  509SOL    HW1 2426   4.732   0.610   5.827
  509SOL    HW2 2427   4.695   0.500   5.942
  510SOL     OW 2428   6.638   3.924   6.999
  510SOL    HW1 2429   6.660   3.849   6.937
  510SOL    HW2 2430   6.545   3.956   6.980
  511SOL     OW 2431   0.532   2.024   0.333
  511SOL    HW1 2432   0.529   1.940   0.387
  511SOL    HW2 2433   0.554   2.001   0.238
  512SOL     OW 2434   0.403   2.006   4.206
  512SOL    HW1 2435   0.491   2.002   4.159
  512SOL    HW2 2436   0.418   2.018   4.304
  513SOL     OW 2437   4.783   0.945   3.091
  513SOL    HW1 2438   4.829   0.910   3.173
  513SOL    HW2 2439   4.832   0.912   3.010
  514SOL     OW 2440   5.782   0.724   4.724
  514SOL    HW1 2441   5.721   0.772   4.786
  514SOL    HW2 2442   5.732   0.650   4.678
  515SOL     OW 2443   4.003   0.290   5.894
  515SOL    HW1 2444   3.963   0.378   5.866
  515SOL    HW2 2445   4.096   0.284   5.858
  516SOL     OW 2446   2.146   6.138   2.464
  516SOL    HW1 2447   2.208   6.124   2.386
  516SOL    HW2 2448   2.197   6.177   2.540
  517SOL     OW 2449   3.099   5.645   1.501
  517SOL    HW1 2450   3.097   5.625   1.403
  517SOL    HW2 2451   3.024   5.706   1.524
  518SOL     OW 2452   2.136   3.769   4.065
  518SOL    HW1 2453   2.055   3.712   4.081
  518SOL    HW2 2454   2.179   3.790   4.153
  519SOL     OW 2455   6.826   0.570   1.831
  519SOL    HW1 2456   6.860   0.556   1.924
  519SOL    HW2 2457   6.889   0.630   1.781
  520SOL     OW 2458   1.975   4.182   0.962
  520SOL    HW1 2459   2.022   4.166   0.875
  520SOL    HW2 2460   1.892   4.235   0.946
  521SOL     OW 2461   6.766   6.477   5.117
  521SOL    HW1 2462   6.808   6.390   5.093
  521SOL    HW2 2463   6.749   6.530   5.034
  522SOL     OW 2464   3.619   4.374   1.395
  522SOL    HW1 2465   3.709   4.409   1.367
  522SOL    HW2 2466   3.596   4.410   1.485
  523SOL     OW 2467   0.782   0.383   0.741
  523SOL    HW1 2468   0.794   0.312   0.811
  523SOL    HW2 2469   0.724   0.455   0.777
  524SOL     OW 2470   6.522   2.013   1.359
  524SOL    HW1 2471   6.456   2.073   1.313
  524SOL    HW2 2472   6.535   2.044   1.453
  525SOL     OW 2473   0.610   3.493   4.846
  525SOL    HW1 2474   0.536   3.500   4.778
  525SOL    HW2 2475   0.620   3.398   4.875
  526SOL     OW 2476   3.486   0.433   3.861
  526SOL    HW1 2477   3.538   0.461   3.941
  526SOL    HW2 2478   3.493   0.334   3.850
  527SOL     OW 2479   0.338   1.150   0.733
  527SOL    HW1 2480   0.383   1.231   0.695
  527SOL    HW2 2481   0.385   1.068   0.703
  528SOL     OW 2482   6.815   3.010   4.597
  528SOL    HW1 2483   6.860   3.099   4.607
  528SOL    HW2 2484   6.730   3.010   4.649
  529SOL     OW 2485   1.792   0.092   0.188
  529SOL    HW1 2486   1.891   0.097   0.203
  529SOL    HW2 2487   1.766   7.025   0.173
  530SOL     OW 2488   3.403   4.641   0.881
  530SOL    HW1 2489   3.306   4.639   0.905
  530SOL    HW2 2490   3.412   4.646   0.781
  531SOL     OW 2491   1.901   0.427   0.469
  531SOL    HW1 2492   1.864   0.515   0.440
  531SOL    HW2 2493   1.825   0.363   0.486
  532SOL     OW 2494   1.386   2.303   6.225
  532SOL    HW1 2495   1.394   2.211   6.263
  532SOL    HW2 2496   1.329   2.301   6.143
  533SOL     OW 2497   3.961   0.216   4.080
  533SOL    HW1 2498   3.876   0.243   4.034
  533SOL    HW2 2499   4.037   0.268   4.042
  534SOL     OW 2500   2.105   4.507   1.854
  534SOL    HW1 2501   2.061   4.444   1.791
  534SOL    HW2 2502   2.189   4.542   1.813
  535SOL     OW 2503   5.064   3.373   3.630
  535SOL    HW1 2504   5.013   3.430   3.694
  535SOL    HW2 2505   5.120   3.307   3.680
  536SOL     OW 2506   6.573   0.076   2.026
  536SOL    HW1 2507   6.571   0.067   1.927
  536SOL    HW2 2508   6.655   0.127   2.053
  537SOL     OW 2509   3.349   1.917   3.777
  537SOL    HW1 2510   3.438   1.883   3.808
  537SOL    HW2 2511   3.334   2.009   3.813
  538SOL     OW 2512   3.355   4.805   5.161
  538SOL    HW1 2513   3.364   4.827   5.064
  538SOL    HW2 2514   3.258   4.792   5.183
  539SOL     OW 2515   0.940   6.916   0.027
  539SOL    HW1 2516   1.012   6.881   6.995
  539SOL    HW2 2517   0.912   6.844   0.091
  540SOL     OW 2518   1.221   0.130   4.054
  540SOL    HW1 2519   1.224   0.139   3.954
  540SOL    HW2 2520   1.128   0.108   4.082
  541SOL     OW 2521   4.495   5.556   3.883
  541SOL    HW1 2522   4.540   5.542   3.971
  541SOL    HW2 2523   4.564   5.572   3.813
  542SOL     OW 2524   3.629   0.462   5.360
  542SOL    HW1 2525   3.726   0.447   5.339
  542SOL    HW2 2526   3.612   0.442   5.457
  543SOL     OW 2527   6.298   2.182   3.800
  543SOL    HW1 2528   6.214   2.192   3.746
  543SOL    HW2 2529   6.275   2.151   3.892
  544SOL     OW 2530   1.580   3.349   1.320
  544SOL    HW1 2531   1.578   3.390   1.229
  544SOL    HW2 2532   1.523   3.268   1.322
  545SOL     OW 2533   6.063   0.193   1.392
  545SOL    HW1 2534   5.980   0.239   1.360
  545SOL    HW2 2535   6.094   0.129   1.323
  546SOL     OW 2536   0.097   4.478   2.659
  546SOL    HW1 2537   0.027   4.410   2.636
  546SOL    HW2 2538   0.175   4.433   2.701
  547SOL     OW 2539   4.999   0.978   6.344
  547SOL    HW1 2540   5.035   1.015   6.430
  547SOL    HW2 2541   4.934   0.905   6.364
  548SOL     OW 2542   4.000   2.125   0.349
  548SOL    HW1 2543   3.965   2.190   0.281
  548SOL    HW2 2544   3.994   2.166   0.440
  549SOL     OW 2545   5.793   1.366   1.491
  549SOL    HW1 2546   5.877   1.381   1.544
  549SOL    HW2 2547   5.802   1.282   1.438
  550SOL     OW 2548   0.332   6.081   3.346
  550SOL    HW1 2549   0.255   6.142   3.363
  550SOL    HW2 2550   0.298   5.989   3.325
  551SOL     OW 2551   6.018   0.746   0.277
  551SOL    HW1 2552   6.041   0.739   0.374
  551SOL    HW2 2553   6.049   0.835   0.241
  552SOL     OW 2554   0.331   5.788   5.449
  552SOL    HW1 2555   0.329   5.755   5.544
  552SOL    HW2 2556   0.404   5.856   5.440
  553SOL     OW 2557   3.024   1.485   0.007
  553SOL    HW1 2558   3.038   1.418   6.962
  553SOL    HW2 2559   3.053   1.575   7.004
  554SOL     OW 2560   5.167   6.610   1.123
  554SOL    HW1 2561   5.089   6.657   1.081
  554SOL    HW2 2562   5.134   6.529   1.172
  555SOL     OW 2563   1.279   3.746   5.690
  555SOL    HW1 2564   1.264   3.716   5.784
  555SOL    HW2 2565   1.192   3.772   5.649
  556SOL     OW 2566   5.761   0.274   4.158
  556SOL    HW1 2567   5.838   0.218   4.128
  556SOL    HW2 2568   5.680   0.216   4.169
  557SOL     OW 2569   6.724   4.005   6.727
  557SOL    HW1 2570   6.768   4.095   6.723
  557SOL    HW2 2571   6.627   4.016   6.746
  558SOL     OW 2572   2.983   3.894   2.383
  558SOL    HW1 2573   2.953   3.842   2.303
  558SOL    HW2 2574   2.981   3.835   2.463
  559SOL     OW 2575   6.702   6.217   5.861
  559SOL    HW1 2576   6.626   6.277   5.834
  559SOL    HW2 2577   6.726   6.158   5.784
  560SOL     OW 2578   6.775   3.210   4.250
  560SOL    HW1 2579   6.855   3.270   4.246
  560SOL    HW2 2580   6.715   3.230   4.173
  561SOL     OW 2581   0.761   3.092   0.097
  561SOL    HW1 2582   0.787   3.064   0.189
  561SOL    HW2 2583   0.842   3.114   0.044
  562SOL     OW 2584   4.252   0.005   5.044
  562SOL    HW1 2585   4.208   6.947   5.019
  562SOL    HW2 2586   4.219   0.077   4.982
  563SOL     OW 2587   1.574   0.786   4.327
  563SOL    HW1 2588   1.607   0.720   4.394
  563SOL    HW2 2589   1.635   0.865   4.324
  564SOL     OW 2590   6.840   1.577   6.406
  564SOL    HW1 2591   6.764   1.566   6.470
  564SOL    HW2 2592   6.879   1.487   6.385
  565SOL     OW 2593   3.460   3.334   3.784
  565SOL    HW1 2594   3.372   3.368   3.750
  565SOL    HW2 2595   3.465   3.235   3.768
  566SOL     OW 2596   2.936   0.778   3.452
  566SOL    HW1 2597   2.935   0.873   3.483
  566SOL    HW2 2598   2.842   0.747   3.436
  567SOL     OW 2599   2.236   2.606   5.568
  567SOL    HW1 2600   2.290   2.530   5.605
  567SOL    HW2 2601   2.298   2.676   5.532
  568SOL     OW 2602   0.518   6.366   6.971
  568SOL    HW1 2603   0.425   6.334   6.953
  568SOL    HW2 2604   0.515   6.460   7.006
  569SOL     OW 2605   6.333   2.598   0.347
  569SOL    HW1 2606   6.279   2.531   0.398
  569SOL    HW2 2607   6.431   2.581   0.364
  570SOL     OW 2608   2.464   0.384   6.490
  570SOL    HW1 2609   2.493   0.297   6.531
  570SOL    HW2 2610   2.544   0.430   6.451
  571SOL     OW 2611   1.948   4.879   1.964
  571SOL    HW1 2612   1.912   4.786   1.970
  571SOL    HW2 2613   1.903   4.937   2.032
  572SOL     OW 2614   2.834   0.641   4.363
  572SOL    HW1 2615   2.877   0.601   4.282
  572SOL    HW2 2616   2.895   0.711   4.402
  573SOL     OW 2617   0.134   1.120   5.343
  573SOL    HW1 2618   0.089   1.209   5.336
  573SOL    HW2 2619   0.192   1.117   5.424
  574SOL     OW 2620   2.372   2.109   5.712
  574SOL    HW1 2621   2.326   2.123   5.624
  574SOL    HW2 2622   2.397   2.012   5.721
  575SOL     OW 2623   3.914   2.830   0.141
  575SOL    HW1 2624   3.908   2.787   0.051
  575SOL    HW2 2625   3.977   2.777   0.198
  576SOL     OW 2626   2.345   2.828   2.748
  576SOL    HW1 2627   2.442   2.818   2.726
  576SOL    HW2 2628   2.336   2.886   2.830
  577SOL     OW 2629   0.691   0.961   1.684
  577SOL    HW1 2630   0.670   0.881   1.627
  577SOL    HW2 2631   0.632   0.959   1.765
  578SOL     OW 2632   2.402   6.804   6.641
  578SOL    HW1 2633   2.440   6.719   6.606
  578SOL    HW2 2634   2.312   6.787   6.680
  579SOL     OW 2635   2.270   3.941   2.013
  579SOL    HW1 2636   2.251   3.978   2.104
  579SOL    HW2 2637   2.362   3.901   2.011
  580SOL     OW 2638   4.664   5.629   4.735
  580SOL    HW1 2639   4.637   5.539   4.770
  580SOL    HW2 2640   4.632   5.639   4.641
  581SOL     OW 2641   1.708   2.768   4.482
  581SOL    HW1 2642   1.645   2.755   4.406
  581SOL    HW2 2643   1.666   2.829   4.550
  582SOL     OW 2644   5.231   5.338   3.916
  582SOL    HW1 2645   5.161   5.298   3.975
  582SOL    HW2 2646   5.227   5.438   3.922
  583SOL     OW 2647   4.120   5.899   5.864
  583SOL    HW1 2648   4.068   5.980   5.838
  583SOL    HW2 2649   4.060   5.819   5.863
  584SOL     OW 2650   4.843   0.692   5.013
  584SOL    HW1 2651   4.745   0.712   5.019
  584SOL    HW2 2652   4.893   0.776   4.995
  585SOL     OW 2653   2.956   0.747   1.820
  585SOL    HW1 2654   3.006   0.771   1.903
  585SOL    HW2 2655   3.015   0.692   1.760
  586SOL     OW 2656   4.146   0.174   0.775
  586SOL    HW1 2657   4.123   0.077   0.765
  586SOL    HW2 2658   4.062   0.228   0.782
  587SOL     OW 2659   4.888   2.049   1.710
  587SOL    HW1 2660   4.893   2.025   1.613
  587SOL    HW2 2661   4.793   2.045   1.740
  588SOL     OW 2662   1.991   5.112   3.346
  588SOL    HW1 2663   2.000   5.049   3.424
  588SOL    HW2 2664   1.999   5.206   3.379
  589SOL     OW 2665   2.885   5.692   1.197
  589SOL    HW1 2666   2.813   5.662   1.135
  589SOL    HW2 2667   2.876   5.790   1.212
  590SOL     OW 2668   4.494   2.149   0.495
  590SOL    HW1 2669   4.488   2.069   0.556
  590SOL    HW2 2670   4.557   2.216   0.535
  591SOL     OW 2671   3.228   6.094   4.492
  591SOL    HW1 2672   3.165   6.160   4.452
  591SOL    HW2 2673   3.218   6.095   4.592
  592SOL     OW 2674   3.813   2.122   4.358
  592SOL    HW1 2675   3.875   2.087   4.427
  592SOL    HW2 2676   3.720   2.127   4.395
  593SOL     OW 2677   3.216   2.363   6.600
  593SOL    HW1 2678   3.280   2.423   6.648
  593SOL    HW2 2679   3.141   2.416   6.562
  594SOL     OW 2680   4.868   1.208   1.705
  594SOL    HW1 2681   4.784   1.228   1.757
  594SOL    HW2 2682   4.934   1.162   1.764
  595SOL     OW 2683   5.842   5.801   2.631
  595SOL    HW1 2684   5.836   5.770   2.726
  595SOL    HW2 2685   5.797   5.889   2.622
  596SOL     OW 2686   6.045   4.958   3.977
  596SOL    HW1 2687   5.965   5.010   4.006
  596SOL    HW2 2688   6.026   4.860   3.982
  597SOL     OW 2689   2.458   0.777   6.513
  597SOL    HW1 2690   2.409   0.811   6.593
  597SOL    HW2 2691   2.393   0.735   6.450
  598SOL     OW 2692   2.910   3.393   4.167
  598SOL    HW1 2693   2.872   3.403   4.075
  598SOL    HW2 2694   2.983   3.325   4.166
  599SOL     OW 2695   1.106   4.827   1.464
  599SOL    HW1 2696   1.155   4.891   1.404
  599SOL    HW2 2697   1.149   4.826   1.554
  600SOL     OW 2698   6.312   3.626   5.037
  600SOL    HW1 2699   6.272   3.660   4.952
  600SOL    HW2 2700   6.411   3.612   5.024
  601SOL     OW 2701   1.633   6.532   5.333
  601SOL    HW1 2702   1.549   6.484   5.310
  601SOL    HW2 2703   1.695   6.469   5.381
  602SOL     OW 2704   2.331   0.098   3.822
  602SOL    HW1 2705   2.284   0.043   3.891
  602SOL    HW2 2706   2.424   0.063   3.809
  603SOL     OW 2707   1.331   1.435   5.203
  603SOL    HW1 2708   1.245   1.400   5.166
  603SOL    HW2 2709   1.339   1.533   5.183
  604SOL     OW 2710   6.525   2.229   1.886
  604SOL    HW1 2711   6.542   2.141   1.931
  604SOL    HW2 2712   6.591   2.296   1.920
  605SOL     OW 2713   6.533   6.525   1.465
  605SOL    HW1 2714   6.564   6.529   1.560
  605SOL    HW2 2715   6.446   6.573   1.456
  606SOL     OW 2716   3.729   6.763   4.496
  606SOL    HW1 2717   3.717   6.707   4.578
  606SOL    HW2 2718   3.688   6.716   4.418
  607SOL     OW 2719   1.650   4.297   6.054
  607SOL    HW1 2720   1.565   4.246   6.049
  607SOL    HW2 2721   1.658   4.356   5.973
  608SOL     OW 2722   2.779   1.176   5.385
  608SOL    HW1 2723   2.813   1.085   5.363
  608SOL    HW2 2724   2.773   1.187   5.484
  609SOL     OW 2725   3.420   2.848   2.095
  609SOL    HW1 2726   3.367   2.828   2.013
  609SOL    HW2 2727   3.440   2.762   2.143
  610SOL     OW 2728   4.854   3.647   1.509
  610SOL    HW1 2729   4.796   3.681   1.582
  610SOL    HW2 2730   4.827   3.554   1.484
  611SOL     OW 2731   3.536   0.196   2.624
  611SOL    HW1 2732   3.505   0.146   2.706
  611SOL    HW2 2733   3.581   0.280   2.651
  612SOL     OW 2734   4.168   4.863   5.225
  612SOL    HW1 2735   4.154   4.933   5.155
  612SOL    HW2 2736   4.169   4.905   5.315
  613SOL     OW 2737   4.525   4.778   5.446
  613SOL    HW1 2738   4.469   4.789   5.363
  613SOL    HW2 2739   4.605   4.838   5.440
  614SOL     OW 2740   3.694   5.629   5.789
  614SOL    HW1 2741   3.603   5.599   5.763
  614SOL    HW2 2742   3.739   5.673   5.712
  615SOL     OW 2743   0.944   5.069   2.109
  615SOL    HW1 2744   0.869   5.005   2.127
  615SOL    HW2 2745   0.957   5.128   2.189
  616SOL     OW 2746   6.667   3.841   3.547
  616SOL    HW1 2747   6.608   3.896   3.606
  616SOL    HW2 2748   6.651   3.744   3.566
  617SOL     OW 2749   3.294   5.949   6.414
  617SOL    HW1 2750   3.249   6.001   6.486
  617SOL    HW2 2751   3.239   5.952   6.331
  618SOL     OW 2752   1.440   1.122   2.684
  618SOL    HW1 2753   1.460   1.179   2.763
  618SOL    HW2 2754   1.407   1.033   2.714
  619SOL     OW 2755   0.732   1.117   0.098
  619SOL    HW1 2756   0.649   1.168   0.075
  619SOL    HW2 2757   0.739   1.036   0.041
  620SOL     OW 2758   4.838   3.933   1.249
  620SOL    HW1 2759   4.907   3.994   1.210
  620SOL    HW2 2760   4.881   3.871   1.314
  621SOL     OW 2761   0.512   4.910   1.539
  621SOL    HW1 2762   0.611   4.904   1.524
  621SOL    HW2 2763   0.485   5.006   1.548
  622SOL     OW 2764   1.134   0.120   0.064
  622SOL    HW1 2765   1.046   0.125   0.111
  622SOL    HW2 2766   1.119   0.126   6.994
  623SOL     OW 2767   0.570   4.495   6.321
  623SOL    HW1 2768   0.534   4.542   6.240
  623SOL    HW2 2769   0.547   4.397   6.316
  624SOL     OW 2770   0.222   2.385   2.117
  624SOL    HW1 2771   0.210   2.468   2.173
  624SOL    HW2 2772   0.141   2.327   2.127
  625SOL     OW 2773   2.455   0.988   2.025
  625SOL    HW1 2774   2.433   1.082   2.053
  625SOL    HW2 2775   2.395   0.961   1.949
  626SOL     OW 2776   3.011   6.536   4.525
  626SOL    HW1 2777   3.014   6.616   4.465
  626SOL    HW2 2778   3.072   6.466   4.490
  627SOL     OW 2779   4.749   1.091   6.982
  627SOL    HW1 2780   4.798   1.008   6.956
  627SOL    HW2 2781   4.665   1.099   6.928
  628SOL     OW 2782   5.130   3.949   3.998
  628SOL    HW1 2783   5.169   3.858   3.987
  628SOL    HW2 2784   5.200   4.013   4.028
  629SOL     OW 2785   1.647   6.237   0.297
  629SOL    HW1 2786   1.702   6.310   0.338
  629SOL    HW2 2787   1.617   6.174   0.368
  630SOL     OW 2788   3.713   2.031   0.974
  630SOL    HW1 2789   3.701   2.081   1.060
  630SOL    HW2 2790   3.786   2.073   0.921
  631SOL     OW 2791   2.174   6.782   5.258
  631SOL    HW1 2792   2.154   6.755   5.164
  631SOL    HW2 2793   2.175   6.701   5.316
  632SOL     OW 2794   1.817   1.257   0.962
  632SOL    HW1 2795   1.894   1.250   0.898
  632SOL    HW2 2796   1.839   1.208   1.046
  633SOL     OW 2797   2.312   0.326   6.237
  633SOL    HW1 2798   2.357   0.395   6.293
  633SOL    HW2 2799   2.327   0.346   6.140
  634SOL     OW 2800   3.697   5.988   0.218
  634SOL    HW1 2801   3.715   6.063   0.155
  634SOL    HW2 2802   3.778   5.970   0.273
  635SOL     OW 2803   2.666   0.819   3.072
  635SOL    HW1 2804   2.754   0.796   3.114
  635SOL    HW2 2805   2.679   0.894   3.006
  636SOL     OW 2806   5.402   5.250   0.171
  636SOL    HW1 2807   5.381   5.313   0.246
  636SOL    HW2 2808   5.498   5.262   0.144
  637SOL     OW 2809   5.158   4.446   0.986
  637SOL    HW1 2810   5.114   4.404   0.907
  637SOL    HW2 2811   5.212   4.524   0.957
  638SOL     OW 2812   5.528   1.677   2.729
  638SOL    HW1 2813   5.452   1.630   2.774
  638SOL    HW2 2814   5.608   1.617   2.727
  639SOL     OW 2815   4.113   4.760   2.404
  639SOL    HW1 2816   4.094   4.670   2.364
  639SOL    HW2 2817   4.211   4.774   2.411
  640SOL     OW 2818   3.059   4.122   5.816
  640SOL    HW1 2819   3.140   4.097   5.763
  640SOL    HW2 2820   3.060   4.221   5.834
  641SOL     OW 2821   6.682   5.801   4.854
  641SOL    HW1 2822   6.776   5.794   4.819
  641SOL    HW2 2823   6.639   5.711   4.848
  642SOL     OW 2824   1.612   5.110   5.934
  642SOL    HW1 2825   1.687   5.169   5.906
  642SOL    HW2 2826   1.619   5.092   6.032
  643SOL     OW 2827   5.622   6.386   4.809
  643SOL    HW1 2828   5.672   6.323   4.750
  643SOL    HW2 2829   5.613   6.346   4.900
  644SOL     OW 2830   1.631   6.163   2.188
  644SOL    HW1 2831   1.598   6.106   2.263
  644SOL    HW2 2832   1.696   6.110   2.133
  645SOL     OW 2833   6.069   3.628   3.398
  645SOL    HW1 2834   6.136   3.559   3.371
  645SOL    HW2 2835   6.084   3.653   3.494
  646SOL     OW 2836   1.716   1.805   4.715
  646SOL    HW1 2837   1.635   1.846   4.758
  646SOL    HW2 2838   1.798   1.842   4.758
  647SOL     OW 2839   5.582   3.341   0.401
  647SOL    HW1 2840   5.615   3.321   0.493
  647SOL    HW2 2841   5.605   3.265   0.340
  648SOL     OW 2842   5.866   2.325   2.597
  648SOL    HW1 2843   5.823   2.415   2.595
  648SOL    HW2 2844   5.904   2.310   2.688
  649SOL     OW 2845   4.003   4.705   1.667
  649SOL    HW1 2846   3.904   4.698   1.655
  649SOL    HW2 2847   4.046   4.618   1.644
  650SOL     OW 2848   4.260   4.032   0.867
  650SOL    HW1 2849   4.239   4.023   0.769
  650SOL    HW2 2850   4.331   3.966   0.892
  651SOL     OW 2851   0.673   5.385   6.292
  651SOL    HW1 2852   0.680   5.482   6.269
  651SOL    HW2 2853   0.608   5.372   6.367
  652SOL     OW 2854   3.557   1.088   2.522
  652SOL    HW1 2855   3.625   1.057   2.456
  652SOL    HW2 2856   3.544   1.018   2.593
  653SOL     OW 2857   3.813   5.314   3.506
  653SOL    HW1 2858   3.903   5.283   3.534
  653SOL    HW2 2859   3.788   5.396   3.558
  654SOL     OW 2860   6.331   4.806   0.480
  654SOL    HW1 2861   6.273   4.886   0.491
  654SOL    HW2 2862   6.372   4.808   0.389
  655SOL     OW 2863   1.062   0.911   0.349
  655SOL    HW1 2864   1.112   0.854   0.284
  655SOL    HW2 2865   0.971   0.931   0.312
  656SOL     OW 2866   2.898   6.088   2.163
  656SOL    HW1 2867   2.823   6.137   2.116
  656SOL    HW2 2868   2.879   6.084   2.261
  657SOL     OW 2869   3.456   1.362   6.746
  657SOL    HW1 2870   3.517   1.306   6.801
  657SOL    HW2 2871   3.509   1.425   6.690
  658SOL     OW 2872   3.604   5.176   6.062
  658SOL    HW1 2873   3.565   5.266   6.045
  658SOL    HW2 2874   3.546   5.106   6.022
  659SOL     OW 2875   2.734   0.057   6.682
  659SOL    HW1 2876   2.722   6.988   6.702
  659SOL    HW2 2877   2.702   0.076   6.590
  660SOL     OW 2878   3.697   5.607   3.423
  660SOL    HW1 2879   3.716   5.591   3.326
  660SOL    HW2 2880   3.732   5.697   3.450
  661SOL     OW 2881   5.569   5.618   2.760
  661SOL    HW1 2882   5.648   5.650   2.707
  661SOL    HW2 2883   5.572   5.660   2.851
  662SOL     OW 2884   3.457   1.383   0.346
  662SOL    HW1 2885   3.523   1.450   0.380
  662SOL    HW2 2886   3.458   1.302   0.404
  663SOL     OW 2887   2.468   4.555   5.065
  663SOL    HW1 2888   2.455   4.619   5.140
  663SOL    HW2 2889   2.475   4.462   5.100
  664SOL     OW 2890   6.292   1.081   0.096
  664SOL    HW1 2891   6.343   1.165   0.077
  664SOL    HW2 2892   6.355   1.003   0.092
  665SOL     OW 2893   2.420   5.488   2.565
  665SOL    HW1 2894   2.488   5.442   2.508
  665SOL    HW2 2895   2.331   5.443   2.553
  666SOL     OW 2896   3.884   0.988   1.860
  666SOL    HW1 2897   3.835   1.051   1.800
  666SOL    HW2 2898   3.945   0.931   1.806
  667SOL     OW 2899   1.177   6.706   2.603
  667SOL    HW1 2900   1.130   6.622   2.628
  667SOL    HW2 2901   1.133   6.746   2.523
  668SOL     OW 2902   5.298   3.575   0.461
  668SOL    HW1 2903   5.247   3.499   0.420
  668SOL    HW2 2904   5.345   3.542   0.543
  669SOL     OW 2905   4.974   1.624   2.281
  669SOL    HW1 2906   5.037   1.661   2.213
  669SOL    HW2 2907   4.907   1.694   2.305
  670SOL     OW 2908   2.528   2.016   3.018
  670SOL    HW1 2909   2.571   1.939   3.064
  670SOL    HW2 2910   2.596   2.088   3.004
  671SOL     OW 2911   3.515   6.727   0.850
  671SOL    HW1 2912   3.418   6.706   0.861
  671SOL    HW2 2913   3.559   6.655   0.796
  672SOL     OW 2914   1.231   6.733   2.302
  672SOL    HW1 2915   1.320   6.774   2.285
  672SOL    HW2 2916   1.241   6.634   2.311
  673SOL     OW 2917   5.762   6.844   0.208
  673SOL    HW1 2918   5.778   6.774   0.277
  673SOL    HW2 2919   5.696   6.910   0.243
  674SOL     OW 2920   6.940   1.208   4.338
  674SOL    HW1 2921   6.889   1.133   4.380
  674SOL    HW2 2922   7.013   1.237   4.400
  675SOL     OW 2923   6.650   2.784   2.710
  675SOL    HW1 2924   6.608   2.702   2.750
  675SOL    HW2 2925   6.606   2.865   2.748
  676SOL     OW 2926   2.468   5.774   5.980
  676SOL    HW1 2927   2.425   5.864   5.979
  676SOL    HW2 2928   2.551   5.778   6.036
  677SOL     OW 2929   4.948   1.174   0.949
  677SOL    HW1 2930   4.859   1.156   0.906
  677SOL    HW2 2931   4.936   1.241   1.022
  678SOL     OW 2932   1.898   4.694   4.819
  678SOL    HW1 2933   1.987   4.738   4.804
  678SOL    HW2 2934   1.872   4.704   4.915
  679SOL     OW 2935   5.173   1.826   5.264
  679SOL    HW1 2936   5.112   1.867   5.196
  679SOL    HW2 2937   5.131   1.742   5.299
  680SOL     OW 2938   5.066   0.233   4.107
  680SOL    HW1 2939   5.089   0.330   4.111
  680SOL    HW2 2940   5.139   0.183   4.062
  681SOL     OW 2941   4.356   4.907   2.385
  681SOL    HW1 2942   4.440   4.954   2.361
  681SOL    HW2 2943   4.278   4.967   2.367
  682SOL     OW 2944   0.704   1.038   3.502
  682SOL    HW1 2945   0.660   1.121   3.534
  682SOL    HW2 2946   0.635   0.972   3.471
  683SOL     OW 2947   4.364   3.506   1.032
  683SOL    HW1 2948   4.281   3.478   1.081
  683SOL    HW2 2949   4.444   3.464   1.075
  684SOL     OW 2950   6.581   0.962   6.568
  684SOL    HW1 2951   6.529   0.921   6.494
  684SOL    HW2 2952   6.601   0.893   6.637
  685SOL     OW 2953   3.441   0.495   2.859
  685SOL    HW1 2954   3.507   0.504   2.784
  685SOL    HW2 2955   3.490   0.470   2.943
  686SOL     OW 2956   4.763   0.364   4.821
  686SOL    HW1 2957   4.735   0.345   4.915
  686SOL    HW2 2958   4.850   0.413   4.822
  687SOL     OW 2959   0.966   2.175   3.846
  687SOL    HW1 2960   1.060   2.151   3.867
  687SOL    HW2 2961   0.925   2.105   3.788
  688SOL     OW 2962   6.532   1.301   6.860
  688SOL    HW1 2963   6.602   1.234   6.885
  688SOL    HW2 2964   6.518   1.298   6.761
  689SOL     OW 2965   1.551   5.666   5.736
  689SOL    HW1 2966   1.551   5.761   5.705
  689SOL    HW2 2967   1.526   5.606   5.660
  690SOL     OW 2968   6.049   3.607   2.395
  690SOL    HW1 2969   5.967   3.570   2.439
  690SOL    HW2 2970   6.026   3.691   2.346
  691SOL     OW 2971   5.448   1.469   0.641
  691SOL    HW1 2972   5.402   1.490   0.555
  691SOL    HW2 2973   5.395   1.507   0.717
  692SOL     OW 2974   2.253   0.638   5.102
  692SOL    HW1 2975   2.169   0.589   5.127
  692SOL    HW2 2976   2.288   0.600   5.016
  693SOL     OW 2977   5.367   6.089   3.777
  693SOL    HW1 2978   5.397   5.996   3.761
  693SOL    HW2 2979   5.437   6.153   3.747
  694SOL     OW 2980   4.425   6.607   5.403
  694SOL    HW1 2981   4.415   6.703   5.377
  694SOL    HW2 2982   4.520   6.578   5.387
  695SOL     OW 2983   3.215   0.488   3.977
  695SOL    HW1 2984   3.145   0.528   3.917
  695SOL    HW2 2985   3.297   0.468   3.924
  696SOL     OW 2986   5.319   4.482   3.180
  696SOL    HW1 2987   5.406   4.449   3.217
  696SOL    HW2 2988   5.253   4.493   3.254
  697SOL     OW 2989   0.874   5.802   2.068
  697SOL    HW1 2990   0.784   5.810   2.110
  697SOL    HW2 2991   0.928   5.883   2.090
  698SOL     OW 2992   5.864   6.633   0.362
  698SOL    HW1 2993   5.820   6.575   0.293
  698SOL    HW2 2994   5.957   6.655   0.333
  699SOL     OW 2995   2.635   2.703   0.945
  699SOL    HW1 2996   2.574   2.636   0.903
  699SOL    HW2 2997   2.683   2.661   1.022
  700SOL     OW 2998   3.286   0.637   3.373
  700SOL    HW1 2999   3.276   0.726   3.328
  700SOL    HW2 3000   3.222   0.631   3.449
  701SOL     OW 3001   5.642   5.219   1.456
  701SOL    HW1 3002   5.665   5.146   1.522
  701SOL    HW2 3003   5.726   5.256   1.417
  702SOL     OW 3004   3.235   1.033   4.496
  702SOL    HW1 3005   3.255   1.053   4.400
  702SOL    HW2 3006   3.220   1.118   4.546
  703SOL     OW 3007   2.814   2.153   6.225
  703SOL    HW1 3008   2.806   2.062   6.186
  703SOL    HW2 3009   2.895   2.199   6.189
  704SOL     OW 3010   1.450   2.570   5.448
  704SOL    HW1 3011   1.467   2.594   5.544
  704SOL    HW2 3012   1.515   2.619   5.390
  705SOL     OW 3013   0.241   6.728   5.317
  705SOL    HW1 3014   0.233   6.723   5.417
  705SOL    HW2 3015   0.179   6.661   5.275
  706SOL     OW 3016   4.531   1.031   5.191
  706SOL    HW1 3017   4.578   1.080   5.118
  706SOL    HW2 3018   4.464   1.091   5.235
  707SOL     OW 3019   3.455   5.265   4.243
  707SOL    HW1 3020   3.432   5.168   4.254
  707SOL    HW2 3021   3.372   5.318   4.229
  708SOL     OW 3022   3.926   6.671   3.904
  708SOL    HW1 3023   3.853   6.636   3.845
  708SOL    HW2 3024   3.905   6.766   3.930
  709SOL     OW 3025   2.840   6.838   1.760
  709SOL    HW1 3026   2.798   6.929   1.766
  709SOL    HW2 3027   2.838   6.808   1.664
  710SOL     OW 3028   4.550   2.860   1.677
  710SOL    HW1 3029   4.632   2.893   1.631
  710SOL    HW2 3030   4.511   2.933   1.733
  711SOL     OW 3031   0.172   2.238   6.325
  711SOL    HW1 3032   0.247   2.263   6.264
  711SOL    HW2 3033   0.102   2.310   6.320
  712SOL     OW 3034   5.184   4.348   0.652
  712SOL    HW1 3035   5.275   4.327   0.614
  712SOL    HW2 3036   5.158   4.277   0.717
  713SOL     OW 3037   4.056   2.767   5.341
  713SOL    HW1 3038   4.126   2.782   5.411
  713SOL    HW2 3039   4.091   2.703   5.273
  714SOL     OW 3040   5.501   5.224   2.869
  714SOL    HW1 3041   5.443   5.165   2.925
  714SOL    HW2 3042   5.556   5.168   2.806
  715SOL     OW 3043   6.443   5.401   5.390
  715SOL    HW1 3044   6.532   5.412   5.435
  715SOL    HW2 3045   6.393   5.326   5.433
  716SOL     OW 3046   1.971   2.201   2.972
  716SOL    HW1 3047   1.909   2.231   2.899
  716SOL    HW2 3048   1.920   2.191   3.057
  717SOL     OW 3049   5.360   3.799   4.224
  717SOL    HW1 3050   5.300   3.726   4.192
  717SOL    HW2 3051   5.394   3.851   4.145
  718SOL     OW 3052   6.078   1.491   5.501
  718SOL    HW1 3053   6.028   1.573   5.473
  718SOL    HW2 3054   6.176   1.510   5.502
  719SOL     OW 3055   5.218   0.374   3.359
  719SOL    HW1 3056   5.141   0.357   3.421
  719SOL    HW2 3057   5.188   0.361   3.265
  720SOL     OW 3058   2.762   1.401   0.601
  720SOL    HW1 3059   2.859   1.416   0.582
  720SOL    HW2 3060   2.750   1.368   0.694
  721SOL     OW 3061   0.304   1.639   3.424
  721SOL    HW1 3062   0.254   1.600   3.347
  721SOL    HW2 3063   0.398   1.656   3.397
  722SOL     OW 3064   4.628   6.581   0.350
  722SOL    HW1 3065   4.666   6.500   0.396
  722SOL    HW2 3066   4.672   6.592   0.261
  723SOL     OW 3067   2.468   5.574   3.843
  723SOL    HW1 3068   2.411   5.495   3.821
  723SOL    HW2 3069   2.502   5.615   3.759
  724SOL     OW 3070   1.008   1.475   4.264
  724SOL    HW1 3071   1.092   1.517   4.299
  724SOL    HW2 3072   1.031   1.393   4.212
  725SOL     OW 3073   1.531   3.789   2.590
  725SOL    HW1 3074   1.451   3.756   2.540
  725SOL    HW2 3075   1.517   3.885   2.615
  726SOL     OW 3076   1.992   4.318   0.631
  726SOL    HW1 3077   2.058   4.384   0.668
  726SOL    HW2 3078   1.909   4.366   0.603
  727SOL     OW 3079   4.787   5.861   5.346
  727SOL    HW1 3080   4.864   5.906   5.391
  727SOL    HW2 3081   4.710   5.854   5.410
  728SOL     OW 3082   6.700   3.855   3.900
  728SOL    HW1 3083   6.750   3.924   3.849
  728SOL    HW2 3084   6.764   3.786   3.934
  729SOL     OW 3085   0.812   4.158   1.419
  729SOL    HW1 3086   0.825   4.249   1.380
  729SOL    HW2 3087   0.765   4.099   1.353
  730SOL     OW 3088   4.549   0.594   3.381
  730SOL    HW1 3089   4.505   0.614   3.294
  730SOL    HW2 3090   4.623   0.528   3.368
  731SOL     OW 3091   4.435   5.345   6.285
  731SOL    HW1 3092   4.399   5.333   6.192
  731SOL    HW2 3093   4.396   5.426   6.327
  732SOL     OW 3094   4.540   1.741   4.686
  732SOL    HW1 3095   4.492   1.658   4.657
  732SOL    HW2 3096   4.635   1.719   4.705
  733SOL     OW 3097   6.251   6.354   3.316
  733SOL    HW1 3098   6.324   6.382   3.253
  733SOL    HW2 3099   6.177   6.312   3.264
  734SOL     OW 3100   6.268   6.254   2.294
  734SOL    HW1 3101   6.298   6.189   2.224
  734SOL    HW2 3102   6.176   6.230   2.325
  735SOL     OW 3103   4.676   0.570   2.599
  735SOL    HW1 3104   4.605   0.635   2.570
  735SOL    HW2 3105   4.757   0.621   2.626
  736SOL     OW 3106   1.800   1.715   4.107
  736SOL    HW1 3107   1.709   1.726   4.145
  736SOL    HW2 3108   1.827   1.798   4.059
  737SOL     OW 3109   4.661   1.037   6.639
  737SOL    HW1 3110   4.590   0.988   6.690
  737SOL    HW2 3111   4.654   1.016   6.542
  738SOL     OW 3112   1.846   4.705   0.957
  738SOL    HW1 3113   1.914   4.633   0.973
  738SOL    HW2 3114   1.833   4.759   1.040
  739SOL     OW 3115   2.906   0.069   4.347
  739SOL    HW1 3116   2.853   0.022   4.277
  739SOL    HW2 3117   2.871   0.045   4.438
  740SOL     OW 3118   5.667   3.495   2.786
  740SOL    HW1 3119   5.576   3.534   2.770
  740SOL    HW2 3120   5.658   3.416   2.847
  741SOL     OW 3121   2.275   1.004   3.128
  741SOL    HW1 3122   2.303   0.909   3.113
  741SOL    HW2 3123   2.180   1.016   3.098
  742SOL     OW 3124   1.898   6.919   1.975
  742SOL    HW1 3125   1.893   6.988   2.047
  742SOL    HW2 3126   1.918   6.963   1.887
  743SOL     OW 3127   0.946   6.269   3.633
  743SOL    HW1 3128   0.865   6.324   3.610
  743SOL    HW2 3129   1.015   6.328   3.675
  744SOL     OW 3130   4.882   1.841   0.243
  744SOL    HW1 3131   4.860   1.937   0.225
  744SOL    HW2 3132   4.911   1.798   0.158
  745SOL     OW 3133   2.440   6.515   5.156
  745SOL    HW1 3134   2.463   6.500   5.060
  745SOL    HW2 3135   2.522   6.545   5.206
  746SOL     OW 3136   6.589   4.746   5.559
  746SOL    HW1 3137   6.644   4.730   5.477
  746SOL    HW2 3138   6.545   4.661   5.587
  747SOL     OW 3139   5.027   6.011   3.207
  747SOL    HW1 3140   4.947   6.066   3.184
  747SOL    HW2 3141   4.999   5.936   3.268
  748SOL     OW 3142   5.446   5.461   2.191
  748SOL    HW1 3143   5.447   5.552   2.233
  748SOL    HW2 3144   5.367   5.453   2.130
  749SOL     OW 3145   4.861   3.737   3.810
  749SOL    HW1 3146   4.961   3.734   3.804
  749SOL    HW2 3147   4.826   3.799   3.739
  750SOL     OW 3148   2.249   2.105   1.754
  750SOL    HW1 3149   2.328   2.068   1.803
  750SOL    HW2 3150   2.280   2.151   1.671
  751SOL     OW 3151   4.394   0.280   0.579
  751SOL    HW1 3152   4.378   0.197   0.634
  751SOL    HW2 3153   4.352   0.358   0.626
  752SOL     OW 3154   3.537   2.397   5.450
  752SOL    HW1 3155   3.488   2.331   5.393
  752SOL    HW2 3156   3.477   2.476   5.468
  753SOL     OW 3157   3.621   3.892   5.069
  753SOL    HW1 3158   3.640   3.988   5.049
  753SOL    HW2 3159   3.582   3.884   5.161
  754SOL     OW 3160   5.726   0.244   0.243
  754SOL    HW1 3161   5.672   0.262   0.161
  754SOL    HW2 3162   5.665   0.218   0.318
  755SOL     OW 3163   4.064   4.603   5.259
  755SOL    HW1 3164   4.141   4.551   5.221
  755SOL    HW2 3165   4.072   4.699   5.231
  756SOL     OW 3166   1.962   5.354   6.303
  756SOL    HW1 3167   1.982   5.394   6.392
  756SOL    HW2 3168   2.025   5.279   6.284
  757SOL     OW 3169   2.689   6.040   2.918
  757SOL    HW1 3170   2.674   6.025   3.016
  757SOL    HW2 3171   2.603   6.031   2.869
  758SOL     OW 3172   3.306   0.937   3.943
  758SOL    HW1 3173   3.271   0.870   3.878
  758SOL    HW2 3174   3.319   1.025   3.896
  759SOL     OW 3175   0.241   2.834   4.071
  759SOL    HW1 3176   0.299   2.890   4.012
  759SOL    HW2 3177   0.257   2.737   4.052
  760SOL     OW 3178   6.054   5.670   3.343
  760SOL    HW1 3179   6.065   5.656   3.245
  760SOL    HW2 3180   6.126   5.622   3.393
  761SOL     OW 3181   3.959   3.224   6.147
  761SOL    HW1 3182   4.051   3.213   6.110
  761SOL    HW2 3183   3.893   3.184   6.084
  762SOL     OW 3184   3.290   5.773   4.027
  762SOL    HW1 3185   3.208   5.799   4.078
  762SOL    HW2 3186   3.273   5.688   3.978
  763SOL     OW 3187   5.605   0.706   0.306
  763SOL    HW1 3188   5.655   0.778   0.258
  763SOL    HW2 3189   5.667   0.630   0.326
  764SOL     OW 3190   5.581   0.416   5.670
  764SOL    HW1 3191   5.665   0.453   5.631
  764SOL    HW2 3192   5.514   0.402   5.597
  765SOL     OW 3193   6.688   6.459   0.606
  765SOL    HW1 3194   6.764   6.521   0.625
  765SOL    HW2 3195   6.679   6.445   0.508
  766SOL     OW 3196   2.358   2.362   5.087
  766SOL    HW1 3197   2.455   2.372   5.065
  766SOL    HW2 3198   2.328   2.442   5.140
  767SOL     OW 3199   6.642   6.202   4.347
  767SOL    HW1 3200   6.652   6.167   4.440
  767SOL    HW2 3201   6.547   6.229   4.332
  768SOL     OW 3202   2.154   5.274   2.270
  768SOL    HW1 3203   2.113   5.183   2.261
  768SOL    HW2 3204   2.102   5.340   2.216
  769SOL     OW 3205   2.717   2.401   4.789
  769SOL    HW1 3206   2.664   2.324   4.823
  769SOL    HW2 3207   2.811   2.394   4.821
  770SOL     OW 3208   1.576   4.397   5.472
  770SOL    HW1 3209   1.550   4.491   5.449
  770SOL    HW2 3210   1.597   4.391   5.569
  771SOL     OW 3211   1.357   5.631   3.288
  771SOL    HW1 3212   1.372   5.564   3.361
  771SOL    HW2 3213   1.393   5.719   3.317
  772SOL     OW 3214   5.433   4.290   0.572
  772SOL    HW1 3215   5.481   4.244   0.646
  772SOL    HW2 3216   5.464   4.385   0.567
  773SOL     OW 3217   0.735   3.894   3.520
  773SOL    HW1 3218   0.821   3.846   3.500
  773SOL    HW2 3219   0.749   3.959   3.594
  774SOL     OW 3220   2.377   0.309   3.172
  774SOL    HW1 3221   2.408   0.214   3.161
  774SOL    HW2 3222   2.354   0.325   3.267
  775SOL     OW 3223   2.011   4.914   2.666
  775SOL    HW1 3224   1.928   4.924   2.610
  775SOL    HW2 3225   1.986   4.899   2.761
  776SOL     OW 3226   3.016   5.198   6.642
  776SOL    HW1 3227   2.957   5.131   6.595
  776SOL    HW2 3228   2.999   5.289   6.605
  777SOL     OW 3229   2.406   4.190   0.210
  777SOL    HW1 3230   2.505   4.182   0.195
  777SOL    HW2 3231   2.383   4.150   0.299
  778SOL     OW 3232   2.935   6.542   0.558
  778SOL    HW1 3233   3.010   6.509   0.616
  778SOL    HW2 3234   2.958   6.633   0.522
  779SOL     OW 3235   6.765   2.476   3.448
  779SOL    HW1 3236   6.793   2.426   3.366
  779SOL    HW2 3237   6.665   2.483   3.451
  780SOL     OW 3238   0.648   1.996   4.064
  780SOL    HW1 3239   0.692   1.913   4.097
  780SOL    HW2 3240   0.712   2.073   4.072
  781SOL     OW 3241   0.747   4.623   0.355
  781SOL    HW1 3242   0.734   4.678   0.438
  781SOL    HW2 3243   0.717   4.675   0.275
  782SOL     OW 3244   1.715   3.353   5.232
  782SOL    HW1 3245   1.799   3.324   5.187
  782SOL    HW2 3246   1.694   3.447   5.205
  783SOL     OW 3247   6.362   4.607   6.347
  783SOL    HW1 3248   6.431   4.543   6.382
  783SOL    HW2 3249   6.329   4.576   6.258
  784SOL     OW 3250   2.694   6.224   0.699
  784SOL    HW1 3251   2.631   6.235   0.623
  784SOL    HW2 3252   2.763   6.155   0.676
  785SOL     OW 3253   1.448   6.899   4.842
  785SOL    HW1 3254   1.401   6.814   4.819
  785SOL    HW2 3255   1.382   6.963   4.882
  786SOL     OW 3256   6.691   1.279   3.485
  786SOL    HW1 3257   6.774   1.226   3.505
  786SOL    HW2 3258   6.712   1.376   3.491
  787SOL     OW 3259   2.200   0.071   0.818
  787SOL    HW1 3260   2.283   0.029   0.782
  787SOL    HW2 3261   2.173   0.024   0.903
  788SOL     OW 3262   2.366   2.256   1.569
  788SOL    HW1 3263   2.457   2.265   1.527
  788SOL    HW2 3264   2.300   2.311   1.517
  789SOL     OW 3265   4.350   4.990   2.049
  789SOL    HW1 3266   4.324   5.040   2.131
  789SOL    HW2 3267   4.354   4.892   2.069
  790SOL     OW 3268   0.550   2.048   2.626
  790SOL    HW1 3269   0.528   2.144   2.641
  790SOL    HW2 3270   0.596   2.010   2.707
  791SOL     OW 3271   2.960   5.549   4.527
  791SOL    HW1 3272   2.982   5.646   4.540
  791SOL    HW2 3273   2.863   5.534   4.545
  792SOL     OW 3274   1.448   0.696   0.321
  792SOL    HW1 3275   1.407   0.718   0.410
  792SOL    HW2 3276   1.490   0.779   0.284
  793SOL     OW 3277   2.914   6.015   3.955
  793SOL    HW1 3278   2.994   6.026   3.896
  793SOL    HW2 3279   2.832   6.008   3.899
  794SOL     OW 3280   3.449   3.226   2.875
  794SOL    HW1 3281   3.485   3.136   2.849
  794SOL    HW2 3282   3.496   3.297   2.822
  795SOL     OW 3283   3.461   0.378   6.178
  795SOL    HW1 3284   3.476   0.334   6.267
  795SOL    HW2 3285   3.451   0.477   6.191
  796SOL     OW 3286   1.222   3.244   0.115
  796SOL    HW1 3287   1.240   3.155   0.158
  796SOL    HW2 3288   1.307   3.278   0.074
  797SOL     OW 3289   4.651   0.126   0.652
  797SOL    HW1 3290   4.568   0.179   0.661
  797SOL    HW2 3291   4.652   0.079   0.564
  798SOL     OW 3292   4.402   6.503   0.694
  798SOL    HW1 3293   4.353   6.501   0.781
  798SOL    HW2 3294   4.418   6.597   0.667
  799SOL     OW 3295   2.152   2.173   5.902
  799SOL    HW1 3296   2.189   2.264   5.922
  799SOL    HW2 3297   2.214   2.125   5.839
  800SOL     OW 3298   6.282   3.356   2.486
  800SOL    HW1 3299   6.208   3.384   2.546
  800SOL    HW2 3300   6.251   3.280   2.428
  801SOL     OW 3301   2.376   5.532   5.872
  801SOL    HW1 3302   2.312   5.506   5.945
  801SOL    HW2 3303   2.435   5.605   5.904
  802SOL     OW 3304   5.267   2.456   6.426
  802SOL    HW1 3305   5.342   2.488   6.368
  802SOL    HW2 3306   5.251   2.359   6.409
  803SOL     OW 3307   2.441   1.288   5.039
  803SOL    HW1 3308   2.448   1.192   5.066
  803SOL    HW2 3309   2.369   1.298   4.969
  804SOL     OW 3310   5.454   0.436   2.513
  804SOL    HW1 3311   5.537   0.459   2.462
  804SOL    HW2 3312   5.417   0.350   2.477
  805SOL     OW 3313   3.512   0.846   3.291
  805SOL    HW1 3314   3.539   0.911   3.362
  805SOL    HW2 3315   3.415   0.823   3.302
  806SOL     OW 3316   2.402   6.044   5.970
  806SOL    HW1 3317   2.468   6.079   5.903
  806SOL    HW2 3318   2.337   6.116   5.992
  807SOL     OW 3319   0.965   6.066   6.309
  807SOL    HW1 3320   0.878   6.017   6.323
  807SOL    HW2 3321   0.994   6.105   6.396
  808SOL     OW 3322   5.674   3.034   6.433
  808SOL    HW1 3323   5.750   3.099   6.436
  808SOL    HW2 3324   5.661   3.003   6.339
  809SOL     OW 3325   2.294   4.717   0.019
  809SOL    HW1 3326   2.365   4.660   7.006
  809SOL    HW2 3327   2.222   4.736   6.979
  810SOL     OW 3328   3.558   3.329   6.962
  810SOL    HW1 3329   3.477   3.283   7.000
  810SOL    HW2 3330   3.581   3.288   6.874
  811SOL     OW 3331   5.705   4.868   4.603
  811SOL    HW1 3332   5.647   4.937   4.559
  811SOL    HW2 3333   5.718   4.891   4.699
  812SOL     OW 3334   0.778   3.138   1.981
  812SOL    HW1 3335   0.818   3.169   2.067
  812SOL    HW2 3336   0.846   3.084   1.930
  813SOL     OW 3337   1.164   2.130   4.595
  813SOL    HW1 3338   1.201   2.077   4.518
  813SOL    HW2 3339   1.080   2.086   4.628
  814SOL     OW 3340   0.449   5.312   2.998
  814SOL    HW1 3341   0.474   5.276   3.087
  814SOL    HW2 3342   0.491   5.256   2.926
  815SOL     OW 3343   4.884   1.923   4.425
  815SOL    HW1 3344   4.859   1.893   4.517
  815SOL    HW2 3345   4.969   1.879   4.397
  816SOL     OW 3346   5.335   4.896   6.313
  816SOL    HW1 3347   5.281   4.977   6.336
  816SOL    HW2 3348   5.398   4.875   6.388
  817SOL     OW 3349   1.355   4.144   6.771
  817SOL    HW1 3350   1.335   4.046   6.773
  817SOL    HW2 3351   1.291   4.193   6.830
  818SOL     OW 3352   6.551   2.158   5.113
  818SOL    HW1 3353   6.497   2.080   5.081
  818SOL    HW2 3354   6.636   2.125   5.155
  819SOL     OW 3355   4.796   2.488   1.456
  819SOL    HW1 3356   4.828   2.412   1.512
  819SOL    HW2 3357   4.865   2.508   1.385
  820SOL     OW 3358   2.166   2.152   5.009
  820SOL    HW1 3359   2.124   2.098   5.082
  820SOL    HW2 3360   2.234   2.214   5.049
  821SOL     OW 3361   5.214   3.881   5.597
  821SOL    HW1 3362   5.284   3.952   5.601
  821SOL    HW2 3363   5.253   3.794   5.625
  822SOL     OW 3364   0.790   4.202   3.276
  822SOL    HW1 3365   0.864   4.144   3.311
  822SOL    HW2 3366   0.735   4.236   3.353
  823SOL     OW 3367   1.072   3.400   5.244
  823SOL    HW1 3368   1.132   3.480   5.233
  823SOL    HW2 3369   1.109   3.341   5.315
  824SOL     OW 3370   5.691   1.228   6.043
  824SOL    HW1 3371   5.675   1.192   6.135
  824SOL    HW2 3372   5.775   1.282   6.043
  825SOL     OW 3373   5.687   5.161   1.059
  825SOL    HW1 3374   5.667   5.168   0.961
  825SOL    HW2 3375   5.769   5.215   1.079
  826SOL     OW 3376   3.782   2.160   6.892
  826SOL    HW1 3377   3.879   2.149   6.871
  826SOL    HW2 3378   3.755   2.096   6.964
  827SOL     OW 3379   3.891   4.040   5.103
  827SOL    HW1 3380   3.829   4.119   5.100
  827SOL    HW2 3381   3.959   4.054   5.175
  828SOL     OW 3382   6.473   5.933   5.865
  828SOL    HW1 3383   6.570   5.927   5.841
  828SOL    HW2 3384   6.442   6.028   5.858
  829SOL     OW 3385   3.177   3.620   2.805
  829SOL    HW1 3386   3.250   3.681   2.774
  829SOL    HW2 3387   3.176   3.617   2.905
  830SOL     OW 3388   6.358   4.545   0.351
  830SOL    HW1 3389   6.345   4.621   0.414
  830SOL    HW2 3390   6.436   4.491   0.380
  831SOL     OW 3391   4.261   0.175   1.470
  831SOL    HW1 3392   4.271   0.104   1.539
  831SOL    HW2 3393   4.176   0.225   1.485
  832SOL     OW 3394   2.751   2.046   4.724
  832SOL    HW1 3395   2.707   2.082   4.806
  832SOL    HW2 3396   2.847   2.028   4.743
  833SOL     OW 3397   2.766   2.084   6.839
  833SOL    HW1 3398   2.707   2.064   6.761
  833SOL    HW2 3399   2.709   2.096   6.921
  834SOL     OW 3400   5.521   3.302   6.786
  834SOL    HW1 3401   5.451   3.244   6.829
  834SOL    HW2 3402   5.476   3.378   6.739
  835SOL     OW 3403   0.518   0.038   4.002
  835SOL    HW1 3404   0.512   6.974   4.040
  835SOL    HW2 3405   0.609   0.051   3.961
  836SOL     OW 3406   3.800   1.106   4.189
  836SOL    HW1 3407   3.718   1.164   4.191
  836SOL    HW2 3408   3.780   1.019   4.234
  837SOL     OW 3409   1.589   0.643   0.622
  837SOL    HW1 3410   1.493   0.672   0.615
  837SOL    HW2 3411   1.597   0.570   0.690
  838SOL     OW 3412   1.813   5.283   3.702
  838SOL    HW1 3413   1.842   5.236   3.785
  838SOL    HW2 3414   1.795   5.379   3.722
  839SOL     OW 3415   1.345   1.898   0.369
  839SOL    HW1 3416   1.396   1.834   0.312
  839SOL    HW2 3417   1.277   1.945   0.313
  840SOL     OW 3418   5.299   5.277   6.895
  840SOL    HW1 3419   5.357   5.217   6.839
  840SOL    HW2 3420   5.335   5.280   6.988
  841SOL     OW 3421   3.343   4.753   6.670
  841SOL    HW1 3422   3.289   4.721   6.592
  841SOL    HW2 3423   3.440   4.735   6.654
  842SOL     OW 3424   3.850   6.193   0.076
  842SOL    HW1 3425   3.791   6.256   0.127
  842SOL    HW2 3426   3.829   6.199   7.007
  843SOL     OW 3427   1.332   1.244   2.169
  843SOL    HW1 3428   1.283   1.163   2.203
  843SOL    HW2 3429   1.314   1.254   2.071
  844SOL     OW 3430   6.600   0.944   1.738
  844SOL    HW1 3431   6.576   1.038   1.758
  844SOL    HW2 3432   6.565   0.919   1.648
  845SOL     OW 3433   3.436   1.041   2.254
  845SOL    HW1 3434   3.472   1.082   2.337
  845SOL    HW2 3435   3.429   1.112   2.183
  846SOL     OW 3436   2.669   1.699   0.564
  846SOL    HW1 3437   2.707   1.612   0.532
  846SOL    HW2 3438   2.652   1.693   0.663
  847SOL     OW 3439   2.747   4.036   1.623
  847SOL    HW1 3440   2.760   3.948   1.578
  847SOL    HW2 3441   2.835   4.069   1.658
  848SOL     OW 3442   6.778   5.802   0.595
  848SOL    HW1 3443   6.707   5.735   0.571
  848SOL    HW2 3444   6.824   5.773   0.680
  849SOL     OW 3445   5.840   3.643   6.255
  849SOL    HW1 3446   5.825   3.571   6.187
  849SOL    HW2 3447   5.812   3.609   6.345
  850SOL     OW 3448   1.040   0.576   4.898
  850SOL    HW1 3449   1.014   0.609   4.807
  850SOL    HW2 3450   1.123   0.521   4.890
  851SOL     OW 3451   6.338   3.299   6.293
  851SOL    HW1 3452   6.434   3.294   6.324
  851SOL    HW2 3453   6.321   3.226   6.227
  852SOL     OW 3454   0.611   4.263   2.410
  852SOL    HW1 3455   0.657   4.352   2.408
  852SOL    HW2 3456   0.680   4.191   2.423
  853SOL     OW 3457   2.727   2.550   6.909
  853SOL    HW1 3458   2.664   2.600   6.849
  853SOL    HW2 3459   2.674   2.495   6.973
  854SOL     OW 3460   5.593   6.834   6.592
  854SOL    HW1 3461   5.622   6.739   6.581
  854SOL    HW2 3462   5.505   6.847   6.547
  855SOL     OW 3463   5.575   1.250   0.514
  855SOL    HW1 3464   5.572   1.294   0.424
  855SOL    HW2 3465   5.529   1.308   0.581
  856SOL     OW 3466   2.163   5.675   1.096
  856SOL    HW1 3467   2.101   5.729   1.040
  856SOL    HW2 3468   2.229   5.736   1.140
  857SOL     OW 3469   6.336   5.428   5.735
  857SOL    HW1 3470   6.275   5.500   5.702
  857SOL    HW2 3471   6.282   5.351   5.767
  858SOL     OW 3472   4.718   3.321   0.275
  858SOL    HW1 3473   4.748   3.416   0.283
  858SOL    HW2 3474   4.618   3.317   0.278
  859SOL     OW 3475   4.705   6.554   5.441
  859SOL    HW1 3476   4.787   6.548   5.385
  859SOL    HW2 3477   4.729   6.582   5.534
  860SOL     OW 3478   5.304   3.541   5.774
  860SOL    HW1 3479   5.247   3.459   5.775
  860SOL    HW2 3480   5.249   3.621   5.798
  861SOL     OW 3481   2.299   6.100   2.244
  861SOL    HW1 3482   2.383   6.138   2.205
  861SOL    HW2 3483   2.232   6.085   2.172
  862SOL     OW 3484   0.530   4.019   3.434
  862SOL    HW1 3485   0.609   3.973   3.476
  862SOL    HW2 3486   0.562   4.081   3.363
  863SOL     OW 3487   6.663   0.678   0.108
  863SOL    HW1 3488   6.727   0.749   0.078
  863SOL    HW2 3489   6.632   0.625   0.029
  864SOL     OW 3490   5.682   6.921   4.751
  864SOL    HW1 3491   5.586   6.939   4.770
  864SOL    HW2 3492   5.730   6.901   4.836
  865SOL     OW 3493   1.850   6.290   5.201
  865SOL    HW1 3494   1.803   6.313   5.116
  865SOL    HW2 3495   1.789   6.308   5.279
  866SOL     OW 3496   3.343   6.255   2.063
  866SOL    HW1 3497   3.283   6.311   2.006
  866SOL    HW2 3498   3.438   6.266   2.032
  867SOL     OW 3499   5.842   2.534   6.669
  867SOL    HW1 3500   5.908   2.508   6.738
  867SOL    HW2 3501   5.749   2.521   6.704
  868SOL     OW 3502   0.007   1.802   2.693
  868SOL    HW1 3503   6.974   1.804   2.772
  868SOL    HW2 3504   0.007   1.891   2.649
  869SOL     OW 3505   6.758   4.154   3.532
  869SOL    HW1 3506   6.743   4.149   3.433
  869SOL    HW2 3507   6.730   4.069   3.574
  870SOL     OW 3508   3.729   5.225   2.065
  870SOL    HW1 3509   3.714   5.141   2.116
  870SOL    HW2 3510   3.677   5.222   1.980
  871SOL     OW 3511   4.454   1.773   2.938
  871SOL    HW1 3512   4.374   1.722   2.907
  871SOL    HW2 3513   4.449   1.786   3.037
  872SOL     OW 3514   6.885   2.972   5.173
  872SOL    HW1 3515   6.854   2.880   5.197
  872SOL    HW2 3516   6.833   3.039   5.226
  873SOL     OW 3517   4.835   6.709   6.036
  873SOL    HW1 3518   4.849   6.805   6.060
  873SOL    HW2 3519   4.761   6.702   5.969
  874SOL     OW 3520   4.450   4.417   0.421
  874SOL    HW1 3521   4.366   4.367   0.397
  874SOL    HW2 3522   4.430   4.515   0.427
  875SOL     OW 3523   5.338   5.464   0.544
  875SOL    HW1 3524   5.423   5.418   0.520
  875SOL    HW2 3525   5.263   5.427   0.489
  876SOL     OW 3526   6.868   6.619   1.243
  876SOL    HW1 3527   6.817   6.536   1.265
  876SOL    HW2 3528   6.805   6.688   1.208
  877SOL     OW 3529   2.507   3.388   6.678
  877SOL    HW1 3530   2.465   3.443   6.606
  877SOL    HW2 3531   2.436   3.345   6.733
  878SOL     OW 3532   4.027   6.879   4.244
  878SOL    HW1 3533   4.024   6.875   4.344
  878SOL    HW2 3534   4.003   6.790   4.206
  879SOL     OW 3535   5.873   0.470   0.589
  879SOL    HW1 3536   5.949   0.535   0.588
  879SOL    HW2 3537   5.854   0.442   0.683
  880SOL     OW 3538   2.880   3.395   3.143
  880SOL    HW1 3539   2.803   3.421   3.201
  880SOL    HW2 3540   2.957   3.367   3.200
  881SOL     OW 3541   3.985   1.534   6.936
  881SOL    HW1 3542   3.989   1.438   6.909
  881SOL    HW2 3543   4.075   1.563   6.968
  882SOL     OW 3544   1.362   3.491   4.410
  882SOL    HW1 3545   1.428   3.429   4.453
  882SOL    HW2 3546   1.409   3.574   4.379
  883SOL     OW 3547   2.908   0.177   2.680
  883SOL    HW1 3548   2.845   0.232   2.625
  883SOL    HW2 3549   2.988   0.153   2.626
  884SOL     OW 3550   4.730   3.350   5.490
  884SOL    HW1 3551   4.788   3.401   5.426
  884SOL    HW2 3552   4.634   3.367   5.469
  885SOL     OW 3553   3.942   2.681   6.063
  885SOL    HW1 3554   4.020   2.620   6.052
  885SOL    HW2 3555   3.858   2.632   6.040
  886SOL     OW 3556   3.589   0.157   6.972
  886SOL    HW1 3557   3.516   0.225   6.975
  886SOL    HW2 3558   3.555   0.074   6.928
  887SOL     OW 3559   4.636   1.770   4.189
  887SOL    HW1 3560   4.610   1.775   4.286
  887SOL    HW2 3561   4.640   1.861   4.150
  888SOL     OW 3562   6.993   6.878   3.432
  888SOL    HW1 3563   0.002   6.958   3.386
  888SOL    HW2 3564   6.914   6.844   3.381
  889SOL     OW 3565   0.857   3.482   0.202
  889SOL    HW1 3566   0.930   3.418   0.227
  889SOL    HW2 3567   0.771   3.432   0.193
  890SOL     OW 3568   2.574   5.636   4.186
  890SOL    HW1 3569   2.489   5.583   4.194
  890SOL    HW2 3570   2.652   5.574   4.197
  891SOL     OW 3571   5.779   5.450   1.026
  891SOL    HW1 3572   5.782   5.493   1.116
  891SOL    HW2 3573   5.713   5.498   0.968
  892SOL     OW 3574   3.158   4.914   6.335
  892SOL    HW1 3575   3.059   4.923   6.324
  892SOL    HW2 3576   3.179   4.828   6.380
  893SOL     OW 3577   2.719   6.515   2.942
  893SOL    HW1 3578   2.726   6.596   2.885
  893SOL    HW2 3579   2.626   6.506   2.978
  894SOL     OW 3580   1.453   3.796   1.526
  894SOL    HW1 3581   1.357   3.825   1.527
  894SOL    HW2 3582   1.458   3.700   1.496
  895SOL     OW 3583   0.741   6.435   3.557
  895SOL    HW1 3584   0.658   6.399   3.600
  895SOL    HW2 3585   0.731   6.433   3.458
  896SOL     OW 3586   6.493   6.268   5.345
  896SOL    HW1 3587   6.576   6.301   5.390
  896SOL    HW2 3588   6.432   6.228   5.414
  897SOL     OW 3589   5.391   0.789   6.653
  897SOL    HW1 3590   5.378   0.887   6.670
  897SOL    HW2 3591   5.312   0.739   6.687
  898SOL     OW 3592   4.154   5.864   3.204
  898SOL    HW1 3593   4.068   5.832   3.242
  898SOL    HW2 3594   4.150   5.963   3.191
  899SOL     OW 3595   6.864   4.654   6.599
  899SOL    HW1 3596   6.799   4.633   6.526
  899SOL    HW2 3597   6.901   4.746   6.585
  900SOL     OW 3598   5.541   5.982   0.692
  900SOL    HW1 3599   5.607   6.044   0.733
  900SOL    HW2 3600   5.588   5.917   0.632
  901SOL     OW 3601   1.454   0.942   2.222
  901SOL    HW1 3602   1.360   0.975   2.223
  901SOL    HW2 3603   1.500   0.970   2.306
  902SOL     OW 3604   6.132   4.165   1.591
  902SOL    HW1 3605   6.155   4.160   1.494
  902SOL    HW2 3606   6.214   4.149   1.646
  903SOL     OW 3607   6.874   2.931   0.243
  903SOL    HW1 3608   6.913   2.861   0.303
  903SOL    HW2 3609   6.849   3.012   0.297
  904SOL     OW 3610   3.181   1.849   2.621
  904SOL    HW1 3611   3.110   1.901   2.573
  904SOL    HW2 3612   3.252   1.822   2.557
  905SOL     OW 3613   5.977   2.468   6.936
  905SOL    HW1 3614   5.915   2.425   7.002
  905SOL    HW2 3615   6.043   2.525   6.984
  906SOL     OW 3616   6.570   3.177   6.701
  906SOL    HW1 3617   6.488   3.162   6.757
  906SOL    HW2 3618   6.636   3.103   6.718
  907SOL     OW 3619   4.960   3.766   6.641
  907SOL    HW1 3620   4.985   3.671   6.660
  907SOL    HW2 3621   4.939   3.813   6.726
  908SOL     OW 3622   2.491   4.893   2.730
  908SOL    HW1 3623   2.422   4.949   2.684
  908SOL    HW2 3624   2.539   4.947   2.798
  909SOL     OW 3625   5.093   5.075   6.378
  909SOL    HW1 3626   5.053   4.995   6.332
  909SOL    HW2 3627   5.075   5.157   6.323
  910SOL     OW 3628   2.650   3.335   1.331
  910SOL    HW1 3629   2.657   3.309   1.427
  910SOL    HW2 3630   2.580   3.279   1.286
  911SOL     OW 3631   0.941   5.403   6.553
  911SOL    HW1 3632   0.891   5.327   6.594
  911SOL    HW2 3633   0.878   5.480   6.538
  912SOL     OW 3634   4.692   2.054   2.720
  912SOL    HW1 3635   4.630   2.008   2.655
  912SOL    HW2 3636   4.761   1.989   2.751
  913SOL     OW 3637   4.993   0.027   3.421
  913SOL    HW1 3638   4.908   7.021   3.460
  913SOL    HW2 3639   4.981   0.041   3.322
  914SOL     OW 3640   2.531   6.814   0.340
  914SOL    HW1 3641   2.537   6.729   0.392
  914SOL    HW2 3642   2.481   6.882   0.394
  915SOL     OW 3643   6.236   5.901   0.532
  915SOL    HW1 3644   6.281   5.903   0.621
  915SOL    HW2 3645   6.299   5.937   0.463
  916SOL     OW 3646   0.473   2.365   2.247
  916SOL    HW1 3647   0.515   2.276   2.230
  916SOL    HW2 3648   0.404   2.384   2.176
  917SOL     OW 3649   6.875   6.949   0.673
  917SOL    HW1 3650   6.966   6.976   0.703
  917SOL    HW2 3651   6.872   6.849   0.661
  918SOL     OW 3652   1.652   5.382   0.587
  918SOL    HW1 3653   1.719   5.450   0.558
  918SOL    HW2 3654   1.583   5.370   0.515
  919SOL     OW 3655   5.612   1.820   4.558
  919SOL    HW1 3656   5.562   1.886   4.614
  919SOL    HW2 3657   5.648   1.747   4.616
  920SOL     OW 3658   2.767   4.692   2.267
  920SOL    HW1 3659   2.793   4.674   2.173
  920SOL    HW2 3660   2.711   4.618   2.302
  921SOL     OW 3661   5.091   5.598   4.518
  921SOL    HW1 3662   5.177   5.560   4.485
  921SOL    HW2 3663   5.094   5.698   4.513
  922SOL     OW 3664   4.126   3.509   3.699
  922SOL    HW1 3665   4.178   3.450   3.762
  922SOL    HW2 3666   4.163   3.602   3.703
  923SOL     OW 3667   2.261   3.296   5.649
  923SOL    HW1 3668   2.209   3.277   5.732
  923SOL    HW2 3669   2.197   3.318   5.575
  924SOL     OW 3670   0.156   3.720   2.855
  924SOL    HW1 3671   0.061   3.734   2.828
  924SOL    HW2 3672   0.212   3.708   2.773
  925SOL     OW 3673   5.934   1.739   0.408
  925SOL    HW1 3674   5.996   1.757   0.484
  925SOL    HW2 3675   5.966   1.787   0.326
  926SOL     OW 3676   0.688   1.355   2.204
  926SOL    HW1 3677   0.661   1.431   2.144
  926SOL    HW2 3678   0.772   1.314   2.170
  927SOL     OW 3679   5.569   4.126   3.400
  927SOL    HW1 3680   5.569   4.215   3.446
  927SOL    HW2 3681   5.614   4.058   3.458
  928SOL     OW 3682   2.910   5.007   6.837
  928SOL    HW1 3683   2.956   4.936   6.890
  928SOL    HW2 3684   2.977   5.067   6.794
  929SOL     OW 3685   6.914   1.301   5.502
  929SOL    HW1 3686   6.845   1.290   5.430
  929SOL    HW2 3687   7.001   1.325   5.460
  930SOL     OW 3688   5.614   5.265   5.632
  930SOL    HW1 3689   5.612   5.190   5.565
  930SOL    HW2 3690   5.524   5.308   5.635
  931SOL     OW 3691   6.317   2.814   2.931
  931SOL    HW1 3692   6.270   2.867   3.002
  931SOL    HW2 3693   6.349   2.727   2.970
  932SOL     OW 3694   3.542   0.500   3.471
  932SOL    HW1 3695   3.452   0.532   3.440
  932SOL    HW2 3696   3.574   0.558   3.545
  933SOL     OW 3697   1.506   4.825   2.042
  933SOL    HW1 3698   1.439   4.870   1.983
  933SOL    HW2 3699   1.555   4.755   1.989
  934SOL     OW 3700   1.891   4.555   6.658
  934SOL    HW1 3701   1.812   4.518   6.707
  934SOL    HW2 3702   1.891   4.521   6.564
  935SOL     OW 3703   5.946   3.245   3.790
  935SOL    HW1 3704   5.963   3.146   3.788
  935SOL    HW2 3705   5.983   3.283   3.874
  936SOL     OW 3706   1.567   0.217   6.129
  936SOL    HW1 3707   1.468   0.231   6.123
  936SOL    HW2 3708   1.587   0.120   6.116
  937SOL     OW 3709   4.611   1.328   5.763
  937SOL    HW1 3710   4.640   1.255   5.701
  937SOL    HW2 3711   4.569   1.289   5.844
  938SOL     OW 3712   5.370   5.578   4.146
  938SOL    HW1 3713   5.466   5.562   4.121
  938SOL    HW2 3714   5.318   5.600   4.064
  939SOL     OW 3715   0.414   6.852   5.569
  939SOL    HW1 3716   0.417   6.763   5.523
  939SOL    HW2 3717   0.322   6.867   5.606
  940SOL     OW 3718   1.696   5.086   0.129
  940SOL    HW1 3719   1.775   5.118   0.079
  940SOL    HW2 3720   1.725   5.049   0.218
  941SOL     OW 3721   3.255   0.268   6.628
  941SOL    HW1 3722   3.327   0.251   6.560
  941SOL    HW2 3723   3.167   0.277   6.582
  942SOL     OW 3724   0.331   5.138   0.443
  942SOL    HW1 3725   0.398   5.207   0.470
  942SOL    HW2 3726   0.313   5.145   0.345
  943SOL     OW 3727   2.903   5.547   2.750
  943SOL    HW1 3728   2.949   5.467   2.789
  943SOL    HW2 3729   2.805   5.532   2.749
  944SOL     OW 3730   0.062   6.359   4.444
  944SOL    HW1 3731   0.049   6.375   4.346
  944SOL    HW2 3732   7.008   6.386   4.494
  945SOL     OW 3733   0.588   5.395   6.869
  945SOL    HW1 3734   0.625   5.303   6.877
  945SOL    HW2 3735   0.656   5.455   6.827
  946SOL     OW 3736   4.858   3.241   3.499
  946SOL    HW1 3737   4.922   3.300   3.548
  946SOL    HW2 3738   4.815   3.292   3.425
  947SOL     OW 3739   3.749   4.116   4.177
  947SOL    HW1 3740   3.811   4.045   4.211
  947SOL    HW2 3741   3.742   4.110   4.077
  948SOL     OW 3742   4.004   0.463   2.812
  948SOL    HW1 3743   4.002   0.430   2.717
  948SOL    HW2 3744   3.928   0.526   2.827
  949SOL     OW 3745   2.351   6.832   6.359
  949SOL    HW1 3746   2.304   6.919   6.340
  949SOL    HW2 3747   2.379   6.830   6.455
  950SOL     OW 3748   0.052   6.986   1.782
  950SOL    HW1 3749   0.053   7.016   1.686
  950SOL    HW2 3750   0.125   0.005   1.832
  951SOL     OW 3751   2.184   6.799   3.532
  951SOL    HW1 3752   2.115   6.735   3.499
  951SOL    HW2 3753   2.160   6.832   3.623
  952SOL     OW 3754   3.210   1.031   1.955
  952SOL    HW1 3755   3.125   1.073   1.925
  952SOL    HW2 3756   3.254   1.089   2.023
  953SOL     OW 3757   6.177   4.506   5.643
  953SOL    HW1 3758   6.184   4.595   5.598
  953SOL    HW2 3759   6.148   4.437   5.577
  954SOL     OW 3760   4.759   6.287   2.541
  954SOL    HW1 3761   4.744   6.386   2.536
  954SOL    HW2 3762   4.848   6.268   2.581
  955SOL     OW 3763   1.283   4.749   6.761
  955SOL    HW1 3764   1.293   4.749   6.860
  955SOL    HW2 3765   1.322   4.833   6.723
  956SOL     OW 3766   5.924   0.345   1.230
  956SOL    HW1 3767   5.824   0.346   1.226
  956SOL    HW2 3768   5.959   0.432   1.196
  957SOL     OW 3769   5.883   1.439   3.233
  957SOL    HW1 3770   5.785   1.440   3.252
  957SOL    HW2 3771   5.934   1.463   3.315
  958SOL     OW 3772   5.374   0.071   1.897
  958SOL    HW1 3773   5.345   0.166   1.885
  958SOL    HW2 3774   5.312   0.025   1.960
  959SOL     OW 3775   4.176   6.437   4.497
  959SOL    HW1 3776   4.239   6.511   4.475
  959SOL    HW2 3777   4.178   6.419   4.595
  960SOL     OW 3778   1.065   0.127   6.801
  960SOL    HW1 3779   1.029   0.215   6.768
  960SOL    HW2 3780   0.994   0.057   6.794
  961SOL     OW 3781   3.602   6.996   3.215
  961SOL    HW1 3782   3.515   6.966   3.176
  961SOL    HW2 3783   3.604   0.068   3.219
  962SOL     OW 3784   6.432   0.432   5.216
  962SOL    HW1 3785   6.333   0.443   5.216
  962SOL    HW2 3786   6.465   0.426   5.122
  963SOL     OW 3787   5.904   3.319   0.721
  963SOL    HW1 3788   5.944   3.347   0.808
  963SOL    HW2 3789   5.953   3.364   0.646
  964SOL     OW 3790   4.944   4.441   5.233
  964SOL    HW1 3791   4.997   4.521   5.261
  964SOL    HW2 3792   4.959   4.422   5.136
  965SOL     OW 3793   6.096   3.295   3.580
  965SOL    HW1 3794   6.017   3.274   3.638
  965SOL    HW2 3795   6.174   3.239   3.609
  966SOL     OW 3796   4.746   2.215   4.635
  966SOL    HW1 3797   4.785   2.269   4.560
  966SOL    HW2 3798   4.731   2.274   4.714
  967SOL     OW 3799   5.057   4.154   6.347
  967SOL    HW1 3800   4.972   4.149   6.295
  967SOL    HW2 3801   5.079   4.064   6.384
  968SOL     OW 3802   3.544   0.485   1.603
  968SOL    HW1 3803   3.531   0.394   1.564
  968SOL    HW2 3804   3.556   0.551   1.529
  969SOL     OW 3805   3.596   4.227   6.250
  969SOL    HW1 3806   3.620   4.320   6.221
  969SOL    HW2 3807   3.655   4.162   6.203
  970SOL     OW 3808   6.453   6.996   6.374
  970SOL    HW1 3809   6.464   0.055   6.326
  970SOL    HW2 3810   6.373   7.001   6.433
  971SOL     OW 3811   5.865   4.253   2.611
  971SOL    HW1 3812   5.957   4.218   2.588
  971SOL    HW2 3813   5.841   4.225   2.704
  972SOL     OW 3814   6.938   2.922   0.715
  972SOL    HW1 3815   6.942   3.006   0.660
  972SOL    HW2 3816   6.936   2.946   0.812
  973SOL     OW 3817   6.872   3.586   5.981
  973SOL    HW1 3818   6.891   3.647   6.058
  973SOL    HW2 3819   6.953   3.578   5.924
  974SOL     OW 3820   6.821   5.290   3.781
  974SOL    HW1 3821   6.776   5.212   3.737
  974SOL    HW2 3822   6.775   5.374   3.754
  975SOL     OW 3823   2.625   0.229   2.073
  975SOL    HW1 3824   2.593   0.197   2.162
  975SOL    HW2 3825   2.590   0.167   2.002
  976SOL     OW 3826   6.324   3.447   3.021
  976SOL    HW1 3827   6.250   3.384   2.997
  976SOL    HW2 3828   6.297   3.541   2.999
  977SOL     OW 3829   0.136   0.781   2.467
  977SOL    HW1 3830   0.206   0.768   2.537
  977SOL    HW2 3831   0.099   0.873   2.473
  978SOL     OW 3832   5.349   3.289   2.164
  978SOL    HW1 3833   5.444   3.306   2.189
  978SOL    HW2 3834   5.316   3.361   2.103
  979SOL     OW 3835   0.703   4.085   6.536
  979SOL    HW1 3836   0.644   4.014   6.576
  979SOL    HW2 3837   0.700   4.078   6.436
  980SOL     OW 3838   3.053   1.622   4.525
  980SOL    HW1 3839   3.117   1.699   4.520
  980SOL    HW2 3840   2.961   1.656   4.542
  981SOL     OW 3841   6.895   6.681   5.278
  981SOL    HW1 3842   6.830   6.612   5.245
  981SOL    HW2 3843   6.874   6.769   5.237
  982SOL     OW 3844   6.205   0.692   5.832
  982SOL    HW1 3845   6.292   0.732   5.803
  982SOL    HW2 3846   6.131   0.757   5.814
  983SOL     OW 3847   0.223   4.590   4.747
  983SOL    HW1 3848   0.205   4.681   4.785
  983SOL    HW2 3849   0.312   4.589   4.703
  984SOL     OW 3850   0.663   2.518   3.160
  984SOL    HW1 3851   0.612   2.452   3.105
  984SOL    HW2 3852   0.739   2.472   3.206
  985SOL     OW 3853   6.467   4.847   5.203
  985SOL    HW1 3854   6.399   4.875   5.134
  985SOL    HW2 3855   6.527   4.925   5.223
  986SOL     OW 3856   5.491   4.830   1.022
  986SOL    HW1 3857   5.473   4.734   1.043
  986SOL    HW2 3858   5.538   4.872   1.100
  987SOL     OW 3859   5.197   4.714   4.095
  987SOL    HW1 3860   5.121   4.776   4.076
  987SOL    HW2 3861   5.260   4.757   4.159
  988SOL     OW 3862   2.627   4.261   1.582
  988SOL    HW1 3863   2.634   4.339   1.645
  988SOL    HW2 3864   2.659   4.179   1.629
  989SOL     OW 3865   0.521   1.641   1.198
  989SOL    HW1 3866   0.519   1.729   1.150
  989SOL    HW2 3867   0.574   1.650   1.282
  990SOL     OW 3868   3.651   0.106   3.787
  990SOL    HW1 3869   3.622   0.053   3.867
  990SOL    HW2 3870   3.571   0.128   3.731
  991SOL     OW 3871   0.038   5.155   3.327
  991SOL    HW1 3872   0.085   5.067   3.334
  991SOL    HW2 3873   0.017   5.189   3.418
  992SOL     OW 3874   0.418   2.640   0.974
  992SOL    HW1 3875   0.403   2.714   0.909
  992SOL    HW2 3876   0.435   2.554   0.925
  993SOL     OW 3877   1.196   5.057   0.368
  993SOL    HW1 3878   1.126   5.119   0.331
  993SOL    HW2 3879   1.179   5.044   0.465
  994SOL     OW 3880   3.199   6.293   0.098
  994SOL    HW1 3881   3.123   6.288   0.034
  994SOL    HW2 3882   3.225   6.388   0.112
  995SOL     OW 3883   5.800   3.569   5.397
  995SOL    HW1 3884   5.888   3.616   5.383
  995SOL    HW2 3885   5.731   3.609   5.337
  996SOL     OW 3886   3.623   6.315   5.758
  996SOL    HW1 3887   3.705   6.368   5.781
  996SOL    HW2 3888   3.638   6.219   5.779
  997SOL     OW 3889   1.472   6.151   3.961
  997SOL    HW1 3890   1.491   6.249   3.973
  997SOL    HW2 3891   1.540   6.097   4.011
  998SOL     OW 3892   6.506   0.549   6.474
  998SOL    HW1 3893   6.458   0.472   6.516
  998SOL    HW2 3894   6.601   0.550   6.505
  999SOL     OW 3895   4.852   4.252   2.619
  999SOL    HW1 3896   4.774   4.236   2.681
  999SOL    HW2 3897   4.881   4.347   2.626
 1000SOL     OW 3898   4.482   1.963   1.031
 1000SOL    HW1 3899   4.519   1.872   1.051
 1000SOL    HW2 3900   4.547   2.015   0.976
 1001SOL     OW 3901   3.604   6.451   2.600
 1001SOL    HW1 3902   3.538   6.412   2.664
 1001SOL    HW2 3903   3.564   6.529   2.552
 1002SOL     OW 3904   5.058   2.358   0.952
 1002SOL    HW1 3905   5.118   2.321   0.881
 1002SOL    HW2 3906   4.986   2.291   0.973
 1003SOL     OW 3907   0.552   0.333   3.226
 1003SOL    HW1 3908   0.525   0.237   3.233
 1003SOL    HW2 3909   0.642   0.344   3.270
 1004SOL     OW 3910   5.647   1.721   3.511
 1004SOL    HW1 3911   5.641   1.697   3.608
 1004SOL    HW2 3912   5.691   1.811   3.501
 1005SOL     OW 3913   1.056   4.561   2.835
 1005SOL    HW1 3914   1.072   4.660   2.839
 1005SOL    HW2 3915   0.964   4.543   2.801
 1006SOL     OW 3916   2.794   3.742   1.034
 1006SOL    HW1 3917   2.750   3.822   1.076
 1006SOL    HW2 3918   2.725   3.672   1.015
 1007SOL     OW 3919   4.886   0.866   6.897
 1007SOL    HW1 3920   4.980   0.872   6.928
 1007SOL    HW2 3921   4.878   0.797   6.825
 1008SOL     OW 3922   7.015   4.724   5.476
 1008SOL    HW1 3923   0.029   4.639   5.445
 1008SOL    HW2 3924   0.056   4.795   5.485
 1009SOL     OW 3925   6.850   5.337   6.554
 1009SOL    HW1 3926   6.798   5.420   6.576
 1009SOL    HW2 3927   6.828   5.307   6.461
 1010SOL     OW 3928   2.598   3.146   0.916
 1010SOL    HW1 3929   2.525   3.078   0.912
 1010SOL    HW2 3930   2.668   3.125   0.847
 1011SOL     OW 3931   6.397   5.431   2.311
 1011SOL    HW1 3932   6.432   5.342   2.340
 1011SOL    HW2 3933   6.473   5.496   2.302
 1012SOL     OW 3934   4.773   0.431   3.334
 1012SOL    HW1 3935   4.728   0.343   3.319
 1012SOL    HW2 3936   4.853   0.438   3.275
 1013SOL     OW 3937   0.039   6.870   6.770
 1013SOL    HW1 3938   0.039   6.954   6.824
 1013SOL    HW2 3939   6.973   6.843   6.751
 1014SOL     OW 3940   0.908   4.723   5.182
 1014SOL    HW1 3941   0.846   4.801   5.197
 1014SOL    HW2 3942   0.961   4.738   5.098
 1015SOL     OW 3943   2.995   6.319   6.893
 1015SOL    HW1 3944   2.906   6.311   6.938
 1015SOL    HW2 3945   2.988   6.286   6.799
 1016SOL     OW 3946   5.923   4.220   1.817
 1016SOL    HW1 3947   5.905   4.319   1.812
 1016SOL    HW2 3948   5.987   4.195   1.744
 1017SOL     OW 3949   2.257   1.849   2.126
 1017SOL    HW1 3950   2.272   1.921   2.194
 1017SOL    HW2 3951   2.287   1.761   2.164
 1018SOL     OW 3952   6.664   5.943   3.705
 1018SOL    HW1 3953   6.633   5.865   3.760
 1018SOL    HW2 3954   6.673   6.023   3.763
 1019SOL     OW 3955   6.694   4.635   0.781
 1019SOL    HW1 3956   6.743   4.703   0.727
 1019SOL    HW2 3957   6.670   4.673   0.870
 1020SOL     OW 3958   6.243   0.862   0.807
 1020SOL    HW1 3959   6.175   0.923   0.766
 1020SOL    HW2 3960   6.318   0.847   0.742
 1021SOL     OW 3961   0.090   6.111   1.245
 1021SOL    HW1 3962   0.190   6.122   1.252
 1021SOL    HW2 3963   0.046   6.197   1.269
 1022SOL     OW 3964   2.404   5.497   6.883
 1022SOL    HW1 3965   2.454   5.542   6.810
 1022SOL    HW2 3966   2.305   5.508   6.867
 1023SOL     OW 3967   0.589   1.774   3.480
 1023SOL    HW1 3968   0.581   1.677   3.503
 1023SOL    HW2 3969   0.660   1.785   3.411
 1024SOL     OW 3970   2.060   2.174   4.738
 1024SOL    HW1 3971   1.994   2.244   4.712
 1024SOL    HW2 3972   2.075   2.176   4.837
 1025SOL     OW 3973   4.831   3.696   0.611
 1025SOL    HW1 3974   4.847   3.765   0.541
 1025SOL    HW2 3975   4.750   3.642   0.587
 1026SOL     OW 3976   3.066   2.622   0.898
 1026SOL    HW1 3977   2.981   2.676   0.897
 1026SOL    HW2 3978   3.144   2.684   0.899
 1027SOL     OW 3979   0.771   6.756   0.766
 1027SOL    HW1 3980   0.711   6.692   0.813
 1027SOL    HW2 3981   0.720   6.838   0.740
 1028SOL     OW 3982   1.464   6.133   2.656
 1028SOL    HW1 3983   1.495   6.222   2.623
 1028SOL    HW2 3984   1.469   6.067   2.581
 1029SOL     OW 3985   0.773   0.868   6.166
 1029SOL    HW1 3986   0.744   0.951   6.119
 1029SOL    HW2 3987   0.846   0.824   6.114
 1030SOL     OW 3988   3.666   3.104   1.245
 1030SOL    HW1 3989   3.758   3.075   1.270
 1030SOL    HW2 3990   3.599   3.046   1.291
 1031SOL     OW 3991   3.447   3.380   1.235
 1031SOL    HW1 3992   3.374   3.373   1.303
 1031SOL    HW2 3993   3.535   3.391   1.282
 1032SOL     OW 3994   2.394   2.010   6.306
 1032SOL    HW1 3995   2.308   2.060   6.317
 1032SOL    HW2 3996   2.379   1.913   6.325
 1033SOL     OW 3997   1.155   6.277   2.088
 1033SOL    HW1 3998   1.249   6.245   2.080
 1033SOL    HW2 3999   1.142   6.359   2.033
 1034SOL     OW 4000   3.000   0.270   4.195
 1034SOL    HW1 4001   3.100   0.261   4.198
 1034SOL    HW2 4002   2.959   0.208   4.262
 1035SOL     OW 4003   1.061   1.880   5.724
 1035SOL    HW1 4004   1.088   1.846   5.814
 1035SOL    HW2 4005   1.109   1.827   5.653
 1036SOL     OW 4006   5.492   1.828   1.225
 1036SOL    HW1 4007   5.411   1.818   1.167
 1036SOL    HW2 4008   5.503   1.745   1.281
 1037SOL     OW 4009   1.470   2.636   2.263
 1037SOL    HW1 4010   1.569   2.626   2.249
 1037SOL    HW2 4011   1.434   2.702   2.197
 1038SOL     OW 4012   2.740   6.001   0.072
 1038SOL    HW1 4013   2.712   6.095   0.052
 1038SOL    HW2 4014   2.671   5.938   0.036
 1039SOL     OW 4015   3.873   2.959   3.687
 1039SOL    HW1 4016   3.797   3.023   3.699
 1039SOL    HW2 4017   3.857   2.904   3.605
 1040SOL     OW 4018   3.506   0.987   3.008
 1040SOL    HW1 4019   3.504   0.918   3.081
 1040SOL    HW2 4020   3.508   1.078   3.048
 1041SOL     OW 4021   0.093   5.842   6.294
 1041SOL    HW1 4022   0.154   5.912   6.330
 1041SOL    HW2 4023   0.082   5.769   6.361
 1042SOL     OW 4024   5.560   4.863   2.580
 1042SOL    HW1 4025   5.577   4.930   2.652
 1042SOL    HW2 4026   5.645   4.848   2.529
 1043SOL     OW 4027   3.052   2.106   3.584
 1043SOL    HW1 4028   3.057   2.132   3.680
 1043SOL    HW2 4029   3.092   2.015   3.571
 1044SOL     OW 4030   5.229   4.783   1.983
 1044SOL    HW1 4031   5.219   4.834   2.069
 1044SOL    HW2 4032   5.327   4.775   1.961
 1045SOL     OW 4033   1.943   0.834   2.915
 1045SOL    HW1 4034   1.917   0.753   2.967
 1045SOL    HW2 4035   1.885   0.911   2.942
 1046SOL     OW 4036   3.124   1.195   1.030
 1046SOL    HW1 4037   3.127   1.295   1.032
 1046SOL    HW2 4038   3.104   1.165   0.936
 1047SOL     OW 4039   3.760   6.376   3.858
 1047SOL    HW1 4040   3.783   6.341   3.767
 1047SOL    HW2 4041   3.804   6.319   3.928
 1048SOL     OW 4042   1.504   6.501   2.189
 1048SOL    HW1 4043   1.471   6.411   2.163
 1048SOL    HW2 4044   1.489   6.515   2.287
 1049SOL     OW 4045   4.396   6.246   5.435
 1049SOL    HW1 4046   4.372   6.189   5.357
 1049SOL    HW2 4047   4.321   6.245   5.502
 1050SOL     OW 4048   3.671   5.270   2.927
 1050SOL    HW1 4049   3.689   5.327   2.848
 1050SOL    HW2 4050   3.717   5.308   3.008
 1051SOL     OW 4051   0.972   7.018   6.325
 1051SOL    HW1 4052   0.975   0.004   6.226
 1051SOL    HW2 4053   0.907   6.946   6.346
 1052SOL     OW 4054   3.044   0.762   7.020
 1052SOL    HW1 4055   3.092   0.680   6.991
 1052SOL    HW2 4056   3.038   0.826   6.943
 1053SOL     OW 4057   5.632   2.833   3.356
 1053SOL    HW1 4058   5.625   2.851   3.454
 1053SOL    HW2 4059   5.559   2.881   3.307
 1054SOL     OW 4060   3.103   4.805   6.015
 1054SOL    HW1 4061   3.184   4.863   6.018
 1054SOL    HW2 4062   3.128   4.712   6.040
 1055SOL     OW 4063   5.144   6.207   6.572
 1055SOL    HW1 4064   5.201   6.174   6.647
 1055SOL    HW2 4065   5.048   6.206   6.599
 1056SOL     OW 4066   3.231   3.696   6.307
 1056SOL    HW1 4067   3.297   3.629   6.341
 1056SOL    HW2 4068   3.209   3.675   6.212
 1057SOL     OW 4069   2.581   2.094   0.818
 1057SOL    HW1 4070   2.667   2.056   0.783
 1057SOL    HW2 4071   2.534   2.142   0.745
 1058SOL     OW 4072   2.361   2.604   2.349
 1058SOL    HW1 4073   2.310   2.689   2.337
 1058SOL    HW2 4074   2.432   2.597   2.279
 1059SOL     OW 4075   2.645   6.584   1.995
 1059SOL    HW1 4076   2.589   6.606   2.074
 1059SOL    HW2 4077   2.589   6.584   1.913
 1060SOL     OW 4078   5.799   6.332   5.653
 1060SOL    HW1 4079   5.804   6.420   5.700
 1060SOL    HW2 4080   5.883   6.317   5.601
 1061SOL     OW 4081   0.121   3.964   0.340
 1061SOL    HW1 4082   0.165   4.018   0.413
 1061SOL    HW2 4083   0.145   4.003   0.251
 1062SOL     OW 4084   3.735   6.444   4.926
 1062SOL    HW1 4085   3.764   6.464   5.019
 1062SOL    HW2 4086   3.742   6.345   4.910
 1063SOL     OW 4087   2.818   6.589   6.017
 1063SOL    HW1 4088   2.881   6.511   6.026
 1063SOL    HW2 4089   2.773   6.606   6.104
 1064SOL     OW 4090   1.753   3.569   0.694
 1064SOL    HW1 4091   1.826   3.578   0.761
 1064SOL    HW2 4092   1.665   3.587   0.738
 1065SOL     OW 4093   4.247   1.088   4.118
 1065SOL    HW1 4094   4.319   1.052   4.058
 1065SOL    HW2 4095   4.200   1.163   4.072
 1066SOL     OW 4096   4.956   6.966   1.838
 1066SOL    HW1 4097   5.011   0.015   1.871
 1066SOL    HW2 4098   4.860   6.994   1.832
 1067SOL     OW 4099   2.509   1.369   0.245
 1067SOL    HW1 4100   2.514   1.414   0.334
 1067SOL    HW2 4101   2.496   1.271   0.258
 1068SOL     OW 4102   6.415   3.294   1.403
 1068SOL    HW1 4103   6.446   3.242   1.324
 1068SOL    HW2 4104   6.387   3.232   1.476
 1069SOL     OW 4105   6.567   4.016   1.680
 1069SOL    HW1 4106   6.545   3.946   1.612
 1069SOL    HW2 4107   6.482   4.062   1.709
 1070SOL     OW 4108   0.913   0.066   2.175
 1070SOL    HW1 4109   0.973   0.102   2.103
 1070SOL    HW2 4110   0.945   7.004   2.203
 1071SOL     OW 4111   6.775   3.048   5.757
 1071SOL    HW1 4112   6.872   3.031   5.742
 1071SOL    HW2 4113   6.721   3.002   5.687
 1072SOL     OW 4114   2.369   1.253   2.122
 1072SOL    HW1 4115   2.375   1.350   2.096
 1072SOL    HW2 4116   2.274   1.222   2.112
 1073SOL     OW 4117   4.935   1.651   3.012
 1073SOL    HW1 4118   5.024   1.662   3.056
 1073SOL    HW2 4119   4.871   1.718   3.048
 1074SOL     OW 4120   2.635   4.503   1.712
 1074SOL    HW1 4121   2.727   4.491   1.748
 1074SOL    HW2 4122   2.630   4.589   1.661
 1075SOL     OW 4123   5.577   3.679   5.603
 1075SOL    HW1 4124   5.625   3.743   5.543
 1075SOL    HW2 4125   5.537   3.606   5.547
 1076SOL     OW 4126   2.226   4.107   4.759
 1076SOL    HW1 4127   2.239   4.197   4.718
 1076SOL    HW2 4128   2.261   4.108   4.853
 1077SOL     OW 4129   0.480   0.048   7.028
 1077SOL    HW1 4130   0.398   7.027   0.029
 1077SOL    HW2 4131   0.455   0.142   7.004
 1078SOL     OW 4132   6.791   6.637   4.068
 1078SOL    HW1 4133   6.762   6.565   4.131
 1078SOL    HW2 4134   6.824   6.597   3.983
 1079SOL     OW 4135   0.642   6.638   2.574
 1079SOL    HW1 4136   0.552   6.622   2.615
 1079SOL    HW2 4137   0.700   6.686   2.640
 1080SOL     OW 4138   2.724   5.322   6.052
 1080SOL    HW1 4139   2.804   5.271   6.083
 1080SOL    HW2 4140   2.657   5.259   6.013
 1081SOL     OW 4141   6.910   5.467   4.289
 1081SOL    HW1 4142   6.843   5.474   4.363
 1081SOL    HW2 4143   6.905   5.376   4.248
 1082SOL     OW 4144   4.891   6.566   6.243
 1082SOL    HW1 4145   4.875   6.602   6.151
 1082SOL    HW2 4146   4.904   6.642   6.307
 1083SOL     OW 4147   5.186   4.349   1.248
 1083SOL    HW1 4148   5.255   4.296   1.296
 1083SOL    HW2 4149   5.207   4.351   1.150
 1084SOL     OW 4150   6.805   0.433   5.604
 1084SOL    HW1 4151   6.738   0.360   5.591
 1084SOL    HW2 4152   6.805   0.493   5.524
 1085SOL     OW 4153   1.433   3.967   4.524
 1085SOL    HW1 4154   1.466   4.047   4.473
 1085SOL    HW2 4155   1.335   3.955   4.508
 1086SOL     OW 4156   5.814   5.145   0.791
 1086SOL    HW1 4157   5.797   5.047   0.790
 1086SOL    HW2 4158   5.873   5.167   0.869
 1087SOL     OW 4159   3.110   0.372   5.290
 1087SOL    HW1 4160   3.013   0.354   5.308
 1087SOL    HW2 4161   3.128   0.470   5.298
 1088SOL     OW 4162   6.890   5.021   3.602
 1088SOL    HW1 4163   6.967   5.085   3.603
 1088SOL    HW2 4164   6.924   4.927   3.603
 1089SOL     OW 4165   6.444   4.127   3.921
 1089SOL    HW1 4166   6.524   4.163   3.968
 1089SOL    HW2 4167   6.417   4.040   3.964
 1090SOL     OW 4168   5.308   1.746   5.006
 1090SOL    HW1 4169   5.254   1.785   5.081
 1090SOL    HW2 4170   5.247   1.723   4.930
 1091SOL     OW 4171   2.282   2.835   3.564
 1091SOL    HW1 4172   2.292   2.815   3.661
 1091SOL    HW2 4173   2.355   2.790   3.512
 1092SOL     OW 4174   0.668   5.638   1.257
 1092SOL    HW1 4175   0.652   5.542   1.282
 1092SOL    HW2 4176   0.692   5.690   1.339
 1093SOL     OW 4177   1.879   6.858   2.611
 1093SOL    HW1 4178   1.848   6.788   2.546
 1093SOL    HW2 4179   1.970   6.834   2.645
 1094SOL     OW 4180   1.103   0.245   2.924
 1094SOL    HW1 4181   1.047   0.324   2.901
 1094SOL    HW2 4182   1.171   0.270   2.993
 1095SOL     OW 4183   5.964   3.238   0.075
 1095SOL    HW1 4184   6.027   3.163   0.099
 1095SOL    HW2 4185   5.871   3.210   0.095
 1096SOL     OW 4186   2.759   5.619   1.611
 1096SOL    HW1 4187   2.725   5.540   1.560
 1096SOL    HW2 4188   2.814   5.676   1.550
 1097SOL     OW 4189   3.539   5.264   4.605
 1097SOL    HW1 4190   3.578   5.324   4.675
 1097SOL    HW2 4191   3.607   5.249   4.533
 1098SOL     OW 4192   6.269   4.850   1.148
 1098SOL    HW1 4193   6.170   4.840   1.147
 1098SOL    HW2 4194   6.293   4.947   1.137
 1099SOL     OW 4195   4.720   0.521   5.464
 1099SOL    HW1 4196   4.778   0.446   5.496
 1099SOL    HW2 4197   4.636   0.524   5.519
 1100SOL     OW 4198   3.421   1.713   4.102
 1100SOL    HW1 4199   3.373   1.626   4.090
 1100SOL    HW2 4200   3.474   1.733   4.020
 1101SOL     OW 4201   6.328   3.086   6.119
 1101SOL    HW1 4202   6.356   3.028   6.195
 1101SOL    HW2 4203   6.232   3.067   6.096
 1102SOL     OW 4204   2.904   1.559   4.284
 1102SOL    HW1 4205   2.962   1.572   4.365
 1102SOL    HW2 4206   2.811   1.537   4.314
 1103SOL     OW 4207   2.502   0.204   6.741
 1103SOL    HW1 4208   2.496   0.301   6.767
 1103SOL    HW2 4209   2.597   0.173   6.754
 1104SOL     OW 4210   0.699   3.329   3.997
 1104SOL    HW1 4211   0.607   3.293   3.984
 1104SOL    HW2 4212   0.764   3.252   4.003
 1105SOL     OW 4213   5.701   0.945   5.794
 1105SOL    HW1 4214   5.750   0.924   5.879
 1105SOL    HW2 4215   5.707   1.043   5.775
 1106SOL     OW 4216   0.608   2.128   0.935
 1106SOL    HW1 4217   0.566   2.043   0.901
 1106SOL    HW2 4218   0.559   2.158   1.017
 1107SOL     OW 4219   1.095   1.372   0.230
 1107SOL    HW1 4220   1.137   1.287   0.262
 1107SOL    HW2 4221   0.996   1.358   0.218
 1108SOL     OW 4222   2.745   6.363   4.186
 1108SOL    HW1 4223   2.824   6.334   4.132
 1108SOL    HW2 4224   2.672   6.393   4.125
 1109SOL     OW 4225   4.848   1.635   3.952
 1109SOL    HW1 4226   4.905   1.695   3.895
 1109SOL    HW2 4227   4.858   1.662   4.048
 1110SOL     OW 4228   3.026   0.815   2.351
 1110SOL    HW1 4229   2.935   0.807   2.391
 1110SOL    HW2 4230   3.090   0.849   2.421
 1111SOL     OW 4231   5.359   4.071   6.317
 1111SOL    HW1 4232   5.316   4.159   6.339
 1111SOL    HW2 4233   5.358   4.013   6.398
 1112SOL     OW 4234   4.775   0.092   2.354
 1112SOL    HW1 4235   4.839   0.138   2.416
 1112SOL    HW2 4236   4.825   0.026   2.298
 1113SOL     OW 4237   5.332   4.773   2.373
 1113SOL    HW1 4238   5.237   4.768   2.402
 1113SOL    HW2 4239   5.392   4.770   2.453
 1114SOL     OW 4240   3.889   3.597   5.393
 1114SOL    HW1 4241   3.914   3.653   5.472
 1114SOL    HW2 4242   3.861   3.656   5.317
 1115SOL     OW 4243   2.992   4.441   5.691
 1115SOL    HW1 4244   3.004   4.540   5.699
 1115SOL    HW2 4245   2.973   4.417   5.596
 1116SOL     OW 4246   4.610   0.051   6.100
 1116SOL    HW1 4247   4.575   0.130   6.050
 1116SOL    HW2 4248   4.703   0.068   6.129
 1117SOL     OW 4249   1.300   2.726   1.730
 1117SOL    HW1 4250   1.396   2.699   1.742
 1117SOL    HW2 4251   1.283   2.741   1.632
 1118SOL     OW 4252   3.281   4.834   6.920
 1118SOL    HW1 4253   3.364   4.863   6.969
 1118SOL    HW2 4254   3.306   4.802   6.829
 1119SOL     OW 4255   3.600   4.934   4.411
 1119SOL    HW1 4256   3.521   4.962   4.356
 1119SOL    HW2 4257   3.579   4.945   4.508
 1120SOL     OW 4258   7.007   4.429   0.816
 1120SOL    HW1 4259   0.009   4.406   0.909
 1120SOL    HW2 4260   0.055   4.466   0.764
 1121SOL     OW 4261   6.126   4.587   4.510
 1121SOL    HW1 4262   6.048   4.650   4.516
 1121SOL    HW2 4263   6.180   4.593   4.593
 1122SOL     OW 4264   5.538   2.620   1.874
 1122SOL    HW1 4265   5.580   2.536   1.909
 1122SOL    HW2 4266   5.584   2.699   1.914
 1123SOL     OW 4267   3.660   1.633   2.733
 1123SOL    HW1 4268   3.713   1.706   2.775
 1123SOL    HW2 4269   3.627   1.571   2.804
 1124SOL     OW 4270   2.261   2.842   4.856
 1124SOL    HW1 4271   2.308   2.890   4.930
 1124SOL    HW2 4272   2.324   2.775   4.815
 1125SOL     OW 4273   0.984   3.775   3.787
 1125SOL    HW1 4274   0.996   3.747   3.883
 1125SOL    HW2 4275   0.886   3.789   3.769
 1126SOL     OW 4276   3.286   5.267   4.742
 1126SOL    HW1 4277   3.302   5.210   4.823
 1126SOL    HW2 4278   3.371   5.275   4.689
 1127SOL     OW 4279   5.875   6.635   2.946
 1127SOL    HW1 4280   5.804   6.694   2.907
 1127SOL    HW2 4281   5.844   6.600   3.035
 1128SOL     OW 4282   5.720   1.105   3.501
 1128SOL    HW1 4283   5.815   1.074   3.507
 1128SOL    HW2 4284   5.717   1.204   3.515
 1129SOL     OW 4285   1.846   0.493   0.776
 1129SOL    HW1 4286   1.878   0.398   0.774
 1129SOL    HW2 4287   1.924   0.554   0.762
 1130SOL     OW 4288   2.084   5.008   2.229
 1130SOL    HW1 4289   2.099   4.955   2.312
 1130SOL    HW2 4290   2.123   4.959   2.151
 1131SOL     OW 4291   1.492   5.538   4.668
 1131SOL    HW1 4292   1.521   5.522   4.573
 1131SOL    HW2 4293   1.405   5.492   4.684
 1132SOL     OW 4294   2.918   1.158   2.138
 1132SOL    HW1 4295   2.929   1.059   2.145
 1132SOL    HW2 4296   3.007   1.202   2.148
 1133SOL     OW 4297   1.075   0.041   4.897
 1133SOL    HW1 4298   1.012   0.007   4.968
 1133SOL    HW2 4299   1.029   0.111   4.843
 1134SOL     OW 4300   3.733   6.611   1.519
 1134SOL    HW1 4301   3.767   6.676   1.450
 1134SOL    HW2 4302   3.810   6.577   1.573
 1135SOL     OW 4303   1.835   5.764   3.944
 1135SOL    HW1 4304   1.907   5.832   3.928
 1135SOL    HW2 4305   1.802   5.772   4.038
 1136SOL     OW 4306   2.113   5.909   2.004
 1136SOL    HW1 4307   2.135   5.882   1.910
 1136SOL    HW2 4308   2.145   5.839   2.067
 1137SOL     OW 4309   1.029   5.112   5.447
 1137SOL    HW1 4310   1.048   5.113   5.545
 1137SOL    HW2 4311   0.955   5.175   5.427
 1138SOL     OW 4312   2.015   2.847   4.785
 1138SOL    HW1 4313   1.979   2.936   4.755
 1138SOL    HW2 4314   2.110   2.858   4.812
 1139SOL     OW 4315   2.681   5.466   4.626
 1139SOL    HW1 4316   2.637   5.404   4.691
 1139SOL    HW2 4317   2.679   5.425   4.535
 1140SOL     OW 4318   1.131   1.711   0.712
 1140SOL    HW1 4319   1.162   1.646   0.642
 1140SOL    HW2 4320   1.209   1.743   0.764
 1141SOL     OW 4321   6.139   4.935   6.294
 1141SOL    HW1 4322   6.106   4.919   6.387
 1141SOL    HW2 4323   6.229   4.892   6.282
 1142SOL     OW 4324   2.239   6.266   2.930
 1142SOL    HW1 4325   2.303   6.224   2.995
 1142SOL    HW2 4326   2.173   6.198   2.900
 1143SOL     OW 4327   1.411   3.698   2.001
 1143SOL    HW1 4328   1.461   3.782   2.020
 1143SOL    HW2 4329   1.337   3.717   1.936
 1144SOL     OW 4330   5.399   4.526   1.516
 1144SOL    HW1 4331   5.388   4.583   1.435
 1144SOL    HW2 4332   5.349   4.441   1.503
 1145SOL     OW 4333   6.734   1.217   1.038
 1145SOL    HW1 4334   6.679   1.168   1.106
 1145SOL    HW2 4335   6.828   1.183   1.040
 1146SOL     OW 4336   0.964   1.014   1.808
 1146SOL    HW1 4337   0.882   0.966   1.779
 1146SOL    HW2 4338   0.995   1.075   1.734
 1147SOL     OW 4339   3.383   6.459   1.325
 1147SOL    HW1 4340   3.304   6.450   1.263
 1147SOL    HW2 4341   3.440   6.377   1.319
 1148SOL     OW 4342   4.635   5.241   3.807
 1148SOL    HW1 4343   4.559   5.286   3.760
 1148SOL    HW2 4344   4.685   5.184   3.741
 1149SOL     OW 4345   4.685   2.867   1.055
 1149SOL    HW1 4346   4.598   2.856   1.008
 1149SOL    HW2 4347   4.682   2.819   1.142
 1150SOL     OW 4348   2.102   4.250   6.972
 1150SOL    HW1 4349   2.075   4.329   6.916
 1150SOL    HW2 4350   2.151   4.184   6.915
 1151SOL     OW 4351   6.531   5.977   4.069
 1151SOL    HW1 4352   6.554   5.983   4.167
 1151SOL    HW2 4353   6.518   6.068   4.032
 1152SOL     OW 4354   3.738   6.974   6.571
 1152SOL    HW1 4355   3.665   6.922   6.527
 1152SOL    HW2 4356   3.700   0.028   6.614
 1153SOL     OW 4357   6.377   0.826   1.061
 1153SOL    HW1 4358   6.335   0.819   0.971
 1153SOL    HW2 4359   6.473   0.798   1.055
 1154SOL     OW 4360   2.041   2.317   1.585
 1154SOL    HW1 4361   2.073   2.300   1.679
 1154SOL    HW2 4362   1.947   2.353   1.588
 1155SOL     OW 4363   2.755   6.270   5.009
 1155SOL    HW1 4364   2.720   6.363   5.017
 1155SOL    HW2 4365   2.849   6.267   5.044
 1156SOL     OW 4366   3.077   2.195   3.852
 1156SOL    HW1 4367   3.166   2.172   3.892
 1156SOL    HW2 4368   3.017   2.232   3.923
 1157SOL     OW 4369   3.737   1.140   5.943
 1157SOL    HW1 4370   3.647   1.141   5.986
 1157SOL    HW2 4371   3.742   1.210   5.872
 1158SOL     OW 4372   6.074   6.223   3.156
 1158SOL    HW1 4373   6.064   6.127   3.182
 1158SOL    HW2 4374   6.076   6.231   3.056
 1159SOL     OW 4375   6.456   6.135   1.804
 1159SOL    HW1 4376   6.498   6.191   1.733
 1159SOL    HW2 4377   6.365   6.106   1.774
 1160SOL     OW 4378   5.732   1.130   0.908
 1160SOL    HW1 4379   5.768   1.064   0.974
 1160SOL    HW2 4380   5.659   1.184   0.951
 1161SOL     OW 4381   0.660   5.543   0.386
 1161SOL    HW1 4382   0.617   5.593   0.311
 1161SOL    HW2 4383   0.618   5.570   0.473
 1162SOL     OW 4384   2.461   2.655   4.885
 1162SOL    HW1 4385   2.515   2.690   4.809
 1162SOL    HW2 4386   2.390   2.594   4.850
 1163SOL     OW 4387   5.743   3.167   1.838
 1163SOL    HW1 4388   5.783   3.170   1.929
 1163SOL    HW2 4389   5.761   3.254   1.791
 1164SOL     OW 4390   4.659   2.342   4.893
 1164SOL    HW1 4391   4.633   2.414   4.829
 1164SOL    HW2 4392   4.577   2.300   4.932
 1165SOL     OW 4393   4.109   6.365   3.277
 1165SOL    HW1 4394   4.084   6.283   3.328
 1165SOL    HW2 4395   4.047   6.378   3.200
 1166SOL     OW 4396   2.619   5.290   6.607
 1166SOL    HW1 4397   2.654   5.273   6.699
 1166SOL    HW2 4398   2.668   5.233   6.541
 1167SOL     OW 4399   5.999   4.818   2.216
 1167SOL    HW1 4400   5.943   4.742   2.183
 1167SOL    HW2 4401   5.948   4.904   2.206
 1168SOL     OW 4402   6.311   1.642   3.211
 1168SOL    HW1 4403   6.383   1.576   3.232
 1168SOL    HW2 4404   6.261   1.665   3.294
 1169SOL     OW 4405   5.507   0.818   5.292
 1169SOL    HW1 4406   5.432   0.803   5.227
 1169SOL    HW2 4407   5.493   0.904   5.341
 1170SOL     OW 4408   4.710   6.570   3.792
 1170SOL    HW1 4409   4.620   6.536   3.818
 1170SOL    HW2 4410   4.780   6.513   3.834
 1171SOL     OW 4411   1.287   0.069   1.118
 1171SOL    HW1 4412   1.278   0.043   1.021
 1171SOL    HW2 4413   1.255   7.021   1.175
 1172SOL     OW 4414   6.941   3.598   6.420
 1172SOL    HW1 4415   6.866   3.659   6.443
 1172SOL    HW2 4416   6.908   3.503   6.416
 1173SOL     OW 4417   3.578   1.690   0.390
 1173SOL    HW1 4418   3.605   1.784   0.372
 1173SOL    HW2 4419   3.508   1.687   0.461
 1174SOL     OW 4420   3.622   3.262   0.700
 1174SOL    HW1 4421   3.708   3.232   0.740
 1174SOL    HW2 4422   3.545   3.215   0.744
 1175SOL     OW 4423   3.073   3.236   3.889
 1175SOL    HW1 4424   3.091   3.144   3.855
 1175SOL    HW2 4425   3.115   3.248   3.979
 1176SOL     OW 4426   5.192   3.939   6.156
 1176SOL    HW1 4427   5.094   3.955   6.158
 1176SOL    HW2 4428   5.241   4.024   6.175
 1177SOL     OW 4429   6.793   2.337   5.129
 1177SOL    HW1 4430   6.869   2.346   5.064
 1177SOL    HW2 4431   6.721   2.401   5.104
 1178SOL     OW 4432   3.451   5.002   0.481
 1178SOL    HW1 4433   3.409   4.918   0.449
 1178SOL    HW2 4434   3.383   5.058   0.528
 1179SOL     OW 4435   2.411   5.739   0.300
 1179SOL    HW1 4436   2.505   5.773   0.305
 1179SOL    HW2 4437   2.348   5.816   0.315
 1180SOL     OW 4438   3.926   6.117   0.937
 1180SOL    HW1 4439   3.973   6.192   0.889
 1180SOL    HW2 4440   3.913   6.041   0.874
 1181SOL     OW 4441   0.463   5.835   0.434
 1181SOL    HW1 4442   0.407   5.883   0.501
 1181SOL    HW2 4443   0.521   5.901   0.386
 1182SOL     OW 4444   4.206   5.019   3.033
 1182SOL    HW1 4445   4.121   4.973   3.007
 1182SOL    HW2 4446   4.210   5.027   3.133
 1183SOL     OW 4447   2.062   3.762   6.176
 1183SOL    HW1 4448   2.097   3.674   6.208
 1183SOL    HW2 4449   2.079   3.772   6.078
 1184SOL     OW 4450   1.556   6.736   5.196
 1184SOL    HW1 4451   1.514   6.680   5.124
 1184SOL    HW2 4452   1.612   6.679   5.255
 1185SOL     OW 4453   6.923   1.299   6.332
 1185SOL    HW1 4454   6.969   1.306   6.243
 1185SOL    HW2 4455   6.914   1.203   6.358
 1186SOL     OW 4456   5.340   6.049   5.074
 1186SOL    HW1 4457   5.265   6.100   5.117
 1186SOL    HW2 4458   5.417   6.043   5.137
 1187SOL     OW 4459   6.082   0.231   5.819
 1187SOL    HW1 4460   5.989   0.196   5.829
 1187SOL    HW2 4461   6.102   0.245   5.722
 1188SOL     OW 4462   2.384   6.788   5.548
 1188SOL    HW1 4463   2.474   6.805   5.509
 1188SOL    HW2 4464   2.323   6.864   5.525
 1189SOL     OW 4465   5.780   3.578   3.288
 1189SOL    HW1 4466   5.701   3.614   3.337
 1189SOL    HW2 4467   5.864   3.605   3.336
 1190SOL     OW 4468   1.837   6.142   2.485
 1190SOL    HW1 4469   1.932   6.150   2.517
 1190SOL    HW2 4470   1.817   6.047   2.464
 1191SOL     OW 4471   4.895   5.595   2.849
 1191SOL    HW1 4472   4.913   5.497   2.835
 1191SOL    HW2 4473   4.821   5.624   2.788
 1192SOL     OW 4474   4.623   6.222   3.392
 1192SOL    HW1 4475   4.627   6.144   3.455
 1192SOL    HW2 4476   4.554   6.204   3.321
 1193SOL     OW 4477   6.650   5.480   3.713
 1193SOL    HW1 4478   6.638   5.523   3.623
 1193SOL    HW2 4479   6.563   5.481   3.762
 1194SOL     OW 4480   4.069   0.896   1.523
 1194SOL    HW1 4481   4.129   0.966   1.485
 1194SOL    HW2 4482   4.081   0.892   1.622
 1195SOL     OW 4483   6.138   2.312   2.480
 1195SOL    HW1 4484   6.040   2.297   2.490
 1195SOL    HW2 4485   6.188   2.232   2.511
 1196SOL     OW 4486   6.409   6.623   4.761
 1196SOL    HW1 4487   6.367   6.544   4.807
 1196SOL    HW2 4488   6.337   6.681   4.723
 1197SOL     OW 4489   3.146   6.390   0.799
 1197SOL    HW1 4490   3.129   6.292   0.789
 1197SOL    HW2 4491   3.087   6.428   0.870
 1198SOL     OW 4492   0.791   1.885   0.440
 1198SOL    HW1 4493   0.866   1.947   0.461
 1198SOL    HW2 4494   0.770   1.888   0.342
 1199SOL     OW 4495   4.925   4.691   2.185
 1199SOL    HW1 4496   4.978   4.613   2.219
 1199SOL    HW2 4497   4.942   4.703   2.087
 1200SOL     OW 4498   3.023   3.722   2.598
 1200SOL    HW1 4499   2.943   3.671   2.567
 1200SOL    HW2 4500   3.062   3.678   2.680
 1201SOL     OW 4501   1.710   2.052   4.505
 1201SOL    HW1 4502   1.731   1.968   4.556
 1201SOL    HW2 4503   1.707   2.130   4.568
 1202SOL     OW 4504   0.079   5.223   6.651
 1202SOL    HW1 4505   0.169   5.265   6.660
 1202SOL    HW2 4506   0.014   5.291   6.617
 1203SOL     OW 4507   4.800   5.860   5.642
 1203SOL    HW1 4508   4.816   5.879   5.739
 1203SOL    HW2 4509   4.704   5.875   5.620
 1204SOL     OW 4510   1.880   0.339   2.250
 1204SOL    HW1 4511   1.814   0.317   2.322
 1204SOL    HW2 4512   1.970   0.304   2.276
 1205SOL     OW 4513   5.386   3.980   2.127
 1205SOL    HW1 4514   5.334   3.948   2.207
 1205SOL    HW2 4515   5.338   4.057   2.085
 1206SOL     OW 4516   3.179   2.977   5.172
 1206SOL    HW1 4517   3.084   2.951   5.190
 1206SOL    HW2 4518   3.203   3.058   5.226
 1207SOL     OW 4519   2.019   6.816   2.242
 1207SOL    HW1 4520   2.097   6.755   2.227
 1207SOL    HW2 4521   2.038   6.906   2.203
 1208SOL     OW 4522   3.358   3.496   6.409
 1208SOL    HW1 4523   3.406   3.495   6.321
 1208SOL    HW2 4524   3.359   3.404   6.448
 1209SOL     OW 4525   4.002   0.092   5.603
 1209SOL    HW1 4526   4.055   0.027   5.658
 1209SOL    HW2 4527   4.047   0.104   5.515
 1210SOL     OW 4528   2.909   1.325   3.014
 1210SOL    HW1 4529   2.969   1.390   3.061
 1210SOL    HW2 4530   2.840   1.291   3.078
 1211SOL     OW 4531   0.952   3.800   0.825
 1211SOL    HW1 4532   1.033   3.802   0.766
 1211SOL    HW2 4533   0.892   3.877   0.804
 1212SOL     OW 4534   0.805   6.991   6.702
 1212SOL    HW1 4535   0.772   7.004   6.795
 1212SOL    HW2 4536   0.803   0.050   6.653
 1213SOL     OW 4537   5.366   2.694   0.462
 1213SOL    HW1 4538   5.309   2.620   0.498
 1213SOL    HW2 4539   5.326   2.782   0.486
 1214SOL     OW 4540   0.173   2.464   1.684
 1214SOL    HW1 4541   0.105   2.536   1.698
 1214SOL    HW2 4542   0.252   2.502   1.636
 1215SOL     OW 4543   0.960   4.851   4.153
 1215SOL    HW1 4544   0.917   4.913   4.219
 1215SOL    HW2 4545   0.968   4.897   4.064
 1216SOL     OW 4546   4.476   6.989   6.329
 1216SOL    HW1 4547   4.392   0.009   6.355
 1216SOL    HW2 4548   4.513   0.001   6.246
 1217SOL     OW 4549   2.382   4.525   0.532
 1217SOL    HW1 4550   2.434   4.440   0.531
 1217SOL    HW2 4551   2.392   4.569   0.621
 1218SOL     OW 4552   1.474   4.111   3.905
 1218SOL    HW1 4553   1.489   4.174   3.981
 1218SOL    HW2 4554   1.402   4.146   3.845
 1219SOL     OW 4555   4.353   5.984   2.474
 1219SOL    HW1 4556   4.443   6.028   2.469
 1219SOL    HW2 4557   4.285   6.051   2.505
 1220SOL     OW 4558   1.033   4.823   2.519
 1220SOL    HW1 4559   1.088   4.743   2.541
 1220SOL    HW2 4560   0.949   4.821   2.573
 1221SOL     OW 4561   6.034   3.384   6.156
 1221SOL    HW1 4562   6.029   3.309   6.089
 1221SOL    HW2 4563   6.105   3.364   6.223
 1222SOL     OW 4564   7.011   6.013   0.050
 1222SOL    HW1 4565   6.957   6.092   0.079
 1222SOL    HW2 4566   7.002   5.940   0.118
 1223SOL     OW 4567   3.421   6.254   0.607
 1223SOL    HW1 4568   3.367   6.270   0.525
 1223SOL    HW2 4569   3.437   6.156   0.618
 1224SOL     OW 4570   2.505   6.841   1.624
 1224SOL    HW1 4571   2.540   6.934   1.636
 1224SOL    HW2 4572   2.535   6.784   1.700
 1225SOL     OW 4573   3.169   4.390   6.473
 1225SOL    HW1 4574   3.181   4.344   6.561
 1225SOL    HW2 4575   3.221   4.342   6.402
 1226SOL     OW 4576   1.846   4.890   1.174
 1226SOL    HW1 4577   1.821   4.986   1.186
 1226SOL    HW2 4578   1.881   4.853   1.260
 1227SOL     OW 4579   0.010   3.936   6.343
 1227SOL    HW1 4580   0.104   3.915   6.316
 1227SOL    HW2 4581   0.011   3.996   6.423
 1228SOL     OW 4582   4.369   2.122   6.298
 1228SOL    HW1 4583   4.450   2.177   6.276
 1228SOL    HW2 4584   4.388   2.026   6.277
 1229SOL     OW 4585   3.590   4.717   6.568
 1229SOL    HW1 4586   3.683   4.755   6.574
 1229SOL    HW2 4587   3.589   4.642   6.503
 1230SOL     OW 4588   4.474   6.700   3.612
 1230SOL    HW1 4589   4.499   6.615   3.566
 1230SOL    HW2 4590   4.521   6.706   3.700
 1231SOL     OW 4591   2.044   3.487   4.766
 1231SOL    HW1 4592   2.035   3.586   4.779
 1231SOL    HW2 4593   1.966   3.441   4.808
 1232SOL     OW 4594   1.368   2.795   4.664
 1232SOL    HW1 4595   1.446   2.735   4.680
 1232SOL    HW2 4596   1.387   2.886   4.701
 1233SOL     OW 4597   0.791   3.642   4.978
 1233SOL    HW1 4598   0.730   3.591   4.917
 1233SOL    HW2 4599   0.885   3.611   4.965
 1234SOL     OW 4600   5.984   4.126   4.242
 1234SOL    HW1 4601   5.957   4.213   4.282
 1234SOL    HW2 4602   5.985   4.135   4.142
 1235SOL     OW 4603   6.612   5.596   3.465
 1235SOL    HW1 4604   6.523   5.643   3.466
 1235SOL    HW2 4605   6.685   5.664   3.472
 1236SOL     OW 4606   5.535   0.265   0.018
 1236SOL    HW1 4607   5.496   0.355   0.036
 1236SOL    HW2 4608   5.529   0.245   6.948
 1237SOL     OW 4609   3.355   5.077   6.274
 1237SOL    HW1 4610   3.433   5.055   6.333
 1237SOL    HW2 4611   3.275   5.027   6.305
 1238SOL     OW 4612   1.716   1.533   1.189
 1238SOL    HW1 4613   1.714   1.561   1.093
 1238SOL    HW2 4614   1.811   1.532   1.221
 1239SOL     OW 4615   6.764   5.982   6.761
 1239SOL    HW1 4616   6.762   5.890   6.800
 1239SOL    HW2 4617   6.857   6.017   6.764
 1240SOL     OW 4618   4.927   6.193   1.828
 1240SOL    HW1 4619   4.999   6.198   1.759
 1240SOL    HW2 4620   4.879   6.281   1.832
 1241SOL     OW 4621   6.448   3.861   3.961
 1241SOL    HW1 4622   6.543   3.865   3.931
 1241SOL    HW2 4623   6.409   3.772   3.935
 1242SOL     OW 4624   2.296   4.064   0.438
 1242SOL    HW1 4625   2.209   4.100   0.406
 1242SOL    HW2 4626   2.286   3.966   0.459
 1243SOL     OW 4627   2.390   5.116   5.347
 1243SOL    HW1 4628   2.303   5.072   5.325
 1243SOL    HW2 4629   2.455   5.100   5.272
 1244SOL     OW 4630   0.974   1.340   3.934
 1244SOL    HW1 4631   0.922   1.259   3.911
 1244SOL    HW2 4632   1.035   1.320   4.011
 1245SOL     OW 4633   3.189   3.495   0.071
 1245SOL    HW1 4634   3.246   3.535   0.142
 1245SOL    HW2 4635   3.161   3.566   0.006
 1246SOL     OW 4636   1.738   6.392   2.383
 1246SOL    HW1 4637   1.791   6.317   2.424
 1246SOL    HW2 4638   1.673   6.355   2.317
 1247SOL     OW 4639   1.812   6.634   6.519
 1247SOL    HW1 4640   1.870   6.658   6.441
 1247SOL    HW2 4641   1.731   6.585   6.486
 1248SOL     OW 4642   1.927   5.355   4.127
 1248SOL    HW1 4643   1.938   5.255   4.121
 1248SOL    HW2 4644   1.832   5.379   4.108
 1249SOL     OW 4645   5.878   3.326   3.370
 1249SOL    HW1 4646   5.961   3.319   3.425
 1249SOL    HW2 4647   5.846   3.421   3.371
 1250SOL     OW 4648   1.127   4.755   4.346
 1250SOL    HW1 4649   1.055   4.787   4.285
 1250SOL    HW2 4650   1.092   4.750   4.440
 1251SOL     OW 4651   3.895   0.370   4.788
 1251SOL    HW1 4652   3.897   0.470   4.789
 1251SOL    HW2 4653   3.856   0.338   4.702
 1252SOL     OW 4654   3.616   3.947   5.813
 1252SOL    HW1 4655   3.685   3.878   5.836
 1252SOL    HW2 4656   3.529   3.902   5.792
 1253SOL     OW 4657   3.759   5.571   3.169
 1253SOL    HW1 4658   3.700   5.577   3.089
 1253SOL    HW2 4659   3.854   5.586   3.142
 1254SOL     OW 4660   6.561   1.876   3.043
 1254SOL    HW1 4661   6.524   1.955   2.994
 1254SOL    HW2 4662   6.544   1.793   2.990
 1255SOL     OW 4663   6.786   6.889   6.807
 1255SOL    HW1 4664   6.807   6.882   6.709
 1255SOL    HW2 4665   6.735   6.973   6.824
 1256SOL     OW 4666   4.308   0.832   3.123
 1256SOL    HW1 4667   4.218   0.834   3.167
 1256SOL    HW2 4668   4.351   0.743   3.138
 1257SOL     OW 4669   6.744   1.162   3.880
 1257SOL    HW1 4670   6.789   1.159   3.969
 1257SOL    HW2 4671   6.652   1.124   3.888
 1258SOL     OW 4672   0.458   6.662   3.363
 1258SOL    HW1 4673   0.403   6.675   3.445
 1258SOL    HW2 4674   0.403   6.681   3.282
 1259SOL     OW 4675   4.133   1.713   4.469
 1259SOL    HW1 4676   4.194   1.726   4.391
 1259SOL    HW2 4677   4.155   1.780   4.540
 1260SOL     OW 4678   1.402   0.616   0.046
 1260SOL    HW1 4679   1.420   0.555   0.123
 1260SOL    HW2 4680   1.461   0.696   0.051
 1261SOL     OW 4681   6.630   4.763   1.006
 1261SOL    HW1 4682   6.549   4.713   1.037
 1261SOL    HW2 4683   6.682   4.794   1.086
 1262SOL     OW 4684   5.368   5.651   1.022
 1262SOL    HW1 4685   5.276   5.636   0.987
 1262SOL    HW2 4686   5.379   5.602   1.108
 1263SOL     OW 4687   1.304   2.153   3.438
 1263SOL    HW1 4688   1.279   2.059   3.464
 1263SOL    HW2 4689   1.220   2.205   3.419
 1264SOL     OW 4690   0.701   2.666   5.334
 1264SOL    HW1 4691   0.778   2.636   5.278
 1264SOL    HW2 4692   0.701   2.615   5.420
 1265SOL     OW 4693   5.969   6.527   4.680
 1265SOL    HW1 4694   5.951   6.483   4.767
 1265SOL    HW2 4695   5.902   6.497   4.612
 1266SOL     OW 4696   1.936   0.507   5.029
 1266SOL    HW1 4697   1.965   0.592   4.983
 1266SOL    HW2 4698   1.886   0.530   5.112
 1267SOL     OW 4699   4.334   6.958   2.884
 1267SOL    HW1 4700   4.318   6.859   2.890
 1267SOL    HW2 4701   4.345   6.996   2.976
 1268SOL     OW 4702   4.354   2.666   5.305
 1268SOL    HW1 4703   4.325   2.725   5.381
 1268SOL    HW2 4704   4.275   2.619   5.267
 1269SOL     OW 4705   6.379   1.835   4.169
 1269SOL    HW1 4706   6.437   1.824   4.088
 1269SOL    HW2 4707   6.374   1.749   4.219
 1270SOL     OW 4708   6.891   5.867   2.881
 1270SOL    HW1 4709   6.952   5.813   2.824
 1270SOL    HW2 4710   6.844   5.807   2.946
 1271SOL     OW 4711   1.296   1.513   1.108
 1271SOL    HW1 4712   1.396   1.524   1.109
 1271SOL    HW2 4713   1.272   1.437   1.047
 1272SOL     OW 4714   6.771   4.083   0.124
 1272SOL    HW1 4715   6.715   4.028   0.062
 1272SOL    HW2 4716   6.812   4.025   0.194
 1273SOL     OW 4717   1.447   4.669   5.076
 1273SOL    HW1 4718   1.380   4.629   5.138
 1273SOL    HW2 4719   1.522   4.709   5.130
 1274SOL     OW 4720   0.350   5.517   2.699
 1274SOL    HW1 4721   0.286   5.441   2.713
 1274SOL    HW2 4722   0.396   5.538   2.785
 1275SOL     OW 4723   2.188   1.312   2.952
 1275SOL    HW1 4724   2.180   1.326   2.853
 1275SOL    HW2 4725   2.127   1.238   2.980
 1276SOL     OW 4726   5.246   4.785   3.846
 1276SOL    HW1 4727   5.251   4.738   3.934
 1276SOL    HW2 4728   5.246   4.884   3.862
 1277SOL     OW 4729   0.332   6.178   0.517
 1277SOL    HW1 4730   0.351   6.108   0.586
 1277SOL    HW2 4731   0.391   6.162   0.437
 1278SOL     OW 4732   1.032   5.827   2.865
 1278SOL    HW1 4733   1.123   5.849   2.899
 1278SOL    HW2 4734   0.982   5.912   2.847
 1279SOL     OW 4735   1.887   2.492   0.510
 1279SOL    HW1 4736   1.852   2.418   0.451
 1279SOL    HW2 4737   1.890   2.460   0.605
 1280SOL     OW 4738   2.094   2.298   3.679
 1280SOL    HW1 4739   1.998   2.320   3.694
 1280SOL    HW2 4740   2.104   2.255   3.589
 1281SOL     OW 4741   4.494   6.244   4.548
 1281SOL    HW1 4742   4.464   6.226   4.454
 1281SOL    HW2 4743   4.418   6.280   4.601
 1282SOL     OW 4744   6.606   2.587   1.357
 1282SOL    HW1 4745   6.551   2.546   1.283
 1282SOL    HW2 4746   6.614   2.523   1.432
 1283SOL     OW 4747   6.744   3.235   5.024
 1283SOL    HW1 4748   6.805   3.301   5.068
 1283SOL    HW2 4749   6.798   3.169   4.972
 1284SOL     OW 4750   4.299   1.687   1.859
 1284SOL    HW1 4751   4.307   1.786   1.844
 1284SOL    HW2 4752   4.294   1.669   1.958
 1285SOL     OW 4753   4.157   1.276   5.015
 1285SOL    HW1 4754   4.099   1.273   4.933
 1285SOL    HW2 4755   4.253   1.279   4.987
 1286SOL     OW 4756   5.093   2.059   1.880
 1286SOL    HW1 4757   5.062   2.037   1.972
 1286SOL    HW2 4758   5.014   2.068   1.819
 1287SOL     OW 4759   6.412   4.369   4.610
 1287SOL    HW1 4760   6.392   4.290   4.667
 1287SOL    HW2 4761   6.477   4.343   4.538
 1288SOL     OW 4762   4.292   3.966   0.023
 1288SOL    HW1 4763   4.203   3.933   7.019
 1288SOL    HW2 4764   4.322   4.043   6.996
 1289SOL     OW 4765   6.754   0.334   1.655
 1289SOL    HW1 4766   6.734   0.380   1.742
 1289SOL    HW2 4767   6.843   0.288   1.662
 1290SOL     OW 4768   1.586   6.953   6.072
 1290SOL    HW1 4769   1.637   6.932   5.989
 1290SOL    HW2 4770   1.535   6.873   6.101
 1291SOL     OW 4771   6.748   5.423   3.048
 1291SOL    HW1 4772   6.828   5.364   3.055
 1291SOL    HW2 4773   6.711   5.418   2.955
 1292SOL     OW 4774   0.981   6.857   2.264
 1292SOL    HW1 4775   1.057   6.800   2.296
 1292SOL    HW2 4776   0.894   6.817   2.294
 1293SOL     OW 4777   3.388   1.768   0.054
 1293SOL    HW1 4778   3.394   1.804   0.148
 1293SOL    HW2 4779   3.299   1.793   0.015
 1294SOL     OW 4780   2.316   3.548   5.410
 1294SOL    HW1 4781   2.392   3.484   5.423
 1294SOL    HW2 4782   2.338   3.635   5.455
 1295SOL     OW 4783   6.436   4.508   0.669
 1295SOL    HW1 4784   6.478   4.461   0.591
 1295SOL    HW2 4785   6.508   4.548   0.726
 1296SOL     OW 4786   5.495   7.012   5.454
 1296SOL    HW1 4787   5.407   0.025   5.475
 1296SOL    HW2 4788   5.499   6.988   5.357
 1297SOL     OW 4789   0.656   0.157   2.259
 1297SOL    HW1 4790   0.594   0.144   2.182
 1297SOL    HW2 4791   0.745   0.117   2.236
 1298SOL     OW 4792   5.310   6.381   2.358
 1298SOL    HW1 4793   5.342   6.315   2.426
 1298SOL    HW2 4794   5.216   6.409   2.380
 1299SOL     OW 4795   1.358   3.307   5.044
 1299SOL    HW1 4796   1.421   3.231   5.055
 1299SOL    HW2 4797   1.324   3.336   5.133
 1300SOL     OW 4798   1.159   4.602   1.922
 1300SOL    HW1 4799   1.093   4.527   1.924
 1300SOL    HW2 4800   1.124   4.679   1.976
 1301SOL     OW 4801   0.735   0.639   0.884
 1301SOL    HW1 4802   0.638   0.660   0.896
 1301SOL    HW2 4803   0.782   0.648   0.972
 1302SOL     OW 4804   5.354   6.897   4.393
 1302SOL    HW1 4805   5.269   6.892   4.445
 1302SOL    HW2 4806   5.375   6.993   4.374
 1303SOL     OW 4807   3.879   6.211   1.980
 1303SOL    HW1 4808   3.873   6.116   1.950
 1303SOL    HW2 4809   3.957   6.255   1.935
 1304SOL     OW 4810   0.768   1.293   0.473
 1304SOL    HW1 4811   0.864   1.268   0.473
 1304SOL    HW2 4812   0.731   1.288   0.566
 1305SOL     OW 4813   5.126   3.596   6.169
 1305SOL    HW1 4814   5.201   3.659   6.189
 1305SOL    HW2 4815   5.118   3.584   6.070
 1306SOL     OW 4816   2.659   5.337   4.374
 1306SOL    HW1 4817   2.642   5.240   4.356
 1306SOL    HW2 4818   2.697   5.380   4.292
 1307SOL     OW 4819   2.642   1.987   3.531
 1307SOL    HW1 4820   2.592   2.042   3.598
 1307SOL    HW2 4821   2.627   1.890   3.550
 1308SOL     OW 4822   0.686   4.754   5.908
 1308SOL    HW1 4823   0.712   4.747   5.812
 1308SOL    HW2 4824   0.588   4.734   5.917
 1309SOL     OW 4825   5.605   4.407   6.817
 1309SOL    HW1 4826   5.512   4.381   6.844
 1309SOL    HW2 4827   5.630   4.359   6.732
 1310SOL     OW 4828   1.212   3.788   3.286
 1310SOL    HW1 4829   1.202   3.758   3.192
 1310SOL    HW2 4830   1.302   3.830   3.299
 1311SOL     OW 4831   6.987   5.538   0.684
 1311SOL    HW1 4832   6.996   5.593   0.767
 1311SOL    HW2 4833   6.917   5.469   0.698
 1312SOL     OW 4834   2.391   0.969   6.146
 1312SOL    HW1 4835   2.460   0.971   6.075
 1312SOL    HW2 4836   2.325   0.897   6.127
 1313SOL     OW 4837   6.495   6.266   2.875
 1313SOL    HW1 4838   6.583   6.223   2.895
 1313SOL    HW2 4839   6.508   6.337   2.805
 1314SOL     OW 4840   2.347   1.813   5.368
 1314SOL    HW1 4841   2.446   1.807   5.368
 1314SOL    HW2 4842   2.308   1.727   5.335
 1315SOL     OW 4843   6.248   1.349   3.485
 1315SOL    HW1 4844   6.281   1.410   3.557
 1315SOL    HW2 4845   6.229   1.259   3.524
 1316SOL     OW 4846   3.923   0.635   5.219
 1316SOL    HW1 4847   4.019   0.617   5.239
 1316SOL    HW2 4848   3.890   0.709   5.277
 1317SOL     OW 4849   2.962   3.355   5.947
 1317SOL    HW1 4850   2.908   3.305   5.879
 1317SOL    HW2 4851   2.981   3.447   5.913
 1318SOL     OW 4852   2.001   2.355   6.091
 1318SOL    HW1 4853   1.906   2.342   6.122
 1318SOL    HW2 4854   2.006   2.439   6.037
 1319SOL     OW 4855   6.796   6.583   0.950
 1319SOL    HW1 4856   6.714   6.561   1.003
 1319SOL    HW2 4857   6.848   6.654   0.998
 1320SOL     OW 4858   3.501   2.964   6.093
 1320SOL    HW1 4859   3.435   2.930   6.026
 1320SOL    HW2 4860   3.466   3.048   6.135
 1321SOL     OW 4861   5.225   2.770   0.090
 1321SOL    HW1 4862   5.312   2.777   0.042
 1321SOL    HW2 4863   5.191   2.862   0.110
 1322SOL     OW 4864   3.211   1.619   0.460
 1322SOL    HW1 4865   3.214   1.705   0.410
 1322SOL    HW2 4866   3.301   1.598   0.498
 1323SOL     OW 4867   3.961   6.814   0.532
 1323SOL    HW1 4868   4.046   6.765   0.511
 1323SOL    HW2 4869   3.977   6.912   0.522
 1324SOL     OW 4870   1.494   3.788   6.993
 1324SOL    HW1 4871   1.447   3.868   6.955
 1324SOL    HW2 4872   1.505   3.799   0.063
 1325SOL     OW 4873   2.579   5.223   5.768
 1325SOL    HW1 4874   2.483   5.199   5.783
 1325SOL    HW2 4875   2.588   5.323   5.764
 1326SOL     OW 4876   4.860   2.996   3.393
 1326SOL    HW1 4877   4.860   3.086   3.435
 1326SOL    HW2 4878   4.824   2.929   3.458
 1327SOL     OW 4879   5.983   5.712   1.420
 1327SOL    HW1 4880   5.992   5.748   1.513
 1327SOL    HW2 4881   6.052   5.753   1.361
 1328SOL     OW 4882   1.835   3.418   5.566
 1328SOL    HW1 4883   1.887   3.501   5.582
 1328SOL    HW2 4884   1.878   3.366   5.492
 1329SOL     OW 4885   0.846   2.764   3.216
 1329SOL    HW1 4886   0.888   2.797   3.131
 1329SOL    HW2 4887   0.795   2.680   3.197
 1330SOL     OW 4888   6.350   3.094   1.594
 1330SOL    HW1 4889   6.437   3.047   1.577
 1330SOL    HW2 4890   6.276   3.027   1.595
 1331SOL     OW 4891   4.530   1.771   3.269
 1331SOL    HW1 4892   4.471   1.814   3.337
 1331SOL    HW2 4893   4.539   1.673   3.291
 1332SOL     OW 4894   1.714   5.947   0.127
 1332SOL    HW1 4895   1.663   6.002   0.193
 1332SOL    HW2 4896   1.750   5.866   0.173
 1333SOL     OW 4897   3.871   4.056   3.115
 1333SOL    HW1 4898   3.877   4.156   3.111
 1333SOL    HW2 4899   3.792   4.025   3.062
 1334SOL     OW 4900   0.216   3.378   2.263
 1334SOL    HW1 4901   0.134   3.431   2.242
 1334SOL    HW2 4902   0.254   3.408   2.351
 1335SOL     OW 4903   1.376   3.296   2.071
 1335SOL    HW1 4904   1.416   3.248   2.149
 1335SOL    HW2 4905   1.446   3.311   2.001
 1336SOL     OW 4906   2.957   0.607   5.163
 1336SOL    HW1 4907   2.957   0.522   5.110
 1336SOL    HW2 4908   2.892   0.599   5.239
 1337SOL     OW 4909   0.076   1.310   3.753
 1337SOL    HW1 4910   0.012   1.381   3.781
 1337SOL    HW2 4911   0.144   1.349   3.691
 1338SOL     OW 4912   6.641   4.217   4.981
 1338SOL    HW1 4913   6.568   4.171   5.030
 1338SOL    HW2 4914   6.636   4.315   4.997
 1339SOL     OW 4915   0.228   0.784   0.010
 1339SOL    HW1 4916   0.295   0.714   7.012
 1339SOL    HW2 4917   0.271   0.874   0.006
 1340SOL     OW 4918   4.332   2.459   1.773
 1340SOL    HW1 4919   4.381   2.384   1.818
 1340SOL    HW2 4920   4.234   2.440   1.774
 1341SOL     OW 4921   4.742   7.019   0.031
 1341SOL    HW1 4922   4.690   6.970   0.102
 1341SOL    HW2 4923   4.826   0.027   0.072
 1342SOL     OW 4924   2.602   6.277   1.434
 1342SOL    HW1 4925   2.608   6.371   1.468
 1342SOL    HW2 4926   2.506   6.252   1.423
 1343SOL     OW 4927   5.866   6.235   3.412
 1343SOL    HW1 4928   5.850   6.315   3.355
 1343SOL    HW2 4929   5.906   6.162   3.357
 1344SOL     OW 4930   0.106   0.471   5.086
 1344SOL    HW1 4931   0.050   0.392   5.111
 1344SOL    HW2 4932   0.181   0.442   5.026
 1345SOL     OW 4933   0.140   6.111   0.862
 1345SOL    HW1 4934   0.200   6.180   0.903
 1345SOL    HW2 4935   0.052   6.110   0.910
 1346SOL     OW 4936   3.146   5.341   5.558
 1346SOL    HW1 4937   3.080   5.411   5.529
 1346SOL    HW2 4938   3.096   5.262   5.594
 1347SOL     OW 4939   1.136   6.880   6.512
 1347SOL    HW1 4940   1.083   6.934   6.447
 1347SOL    HW2 4941   1.076   6.815   6.558
 1348SOL     OW 4942   0.802   6.361   5.469
 1348SOL    HW1 4943   0.833   6.400   5.556
 1348SOL    HW2 4944   0.705   6.338   5.476
 1349SOL     OW 4945   4.856   3.056   3.697
 1349SOL    HW1 4946   4.848   2.972   3.644
 1349SOL    HW2 4947   4.867   3.134   3.635
 1350SOL     OW 4948   3.814   3.920   0.213
 1350SOL    HW1 4949   3.793   3.857   0.139
 1350SOL    HW2 4950   3.730   3.968   0.241
 1351SOL     OW 4951   6.776   2.652   5.783
 1351SOL    HW1 4952   6.832   2.591   5.839
 1351SOL    HW2 4953   6.708   2.697   5.842
 1352SOL     OW 4954   6.893   0.654   2.449
 1352SOL    HW1 4955   6.968   0.713   2.481
 1352SOL    HW2 4956   6.840   0.704   2.380
 1353SOL     OW 4957   0.671   0.931   0.596
 1353SOL    HW1 4958   0.715   1.020   0.603
 1353SOL    HW2 4959   0.737   0.863   0.564
 1354SOL     OW 4960   5.387   5.037   2.266
 1354SOL    HW1 4961   5.343   5.103   2.327
 1354SOL    HW2 4962   5.337   4.951   2.269
 1355SOL     OW 4963   6.305   3.707   5.708
 1355SOL    HW1 4964   6.345   3.637   5.649
 1355SOL    HW2 4965   6.220   3.673   5.748
 1356SOL     OW 4966   3.457   3.165   1.046
 1356SOL    HW1 4967   3.373   3.133   1.090
 1356SOL    HW2 4968   3.531   3.170   1.113
 1357SOL     OW 4969   6.778   3.391   5.461
 1357SOL    HW1 4970   6.767   3.489   5.441
 1357SOL    HW2 4971   6.788   3.379   5.560
 1358SOL     OW 4972   1.534   6.591   6.775
 1358SOL    HW1 4973   1.446   6.593   6.728
 1358SOL    HW2 4974   1.607   6.582   6.707
 1359SOL     OW 4975   6.807   4.525   1.857
 1359SOL    HW1 4976   6.758   4.611   1.843
 1359SOL    HW2 4977   6.888   4.524   1.799
 1360SOL     OW 4978   2.053   2.267   6.870
 1360SOL    HW1 4979   2.051   2.317   6.783
 1360SOL    HW2 4980   2.105   2.320   6.938
 1361SOL     OW 4981   6.616   5.036   4.750
 1361SOL    HW1 4982   6.705   5.011   4.711
 1361SOL    HW2 4983   6.581   4.961   4.805
 1362SOL     OW 4984   3.138   3.006   2.892
 1362SOL    HW1 4985   3.147   3.101   2.921
 1362SOL    HW2 4986   3.097   3.003   2.801
 1363SOL     OW 4987   1.046   5.659   5.168
 1363SOL    HW1 4988   1.035   5.560   5.181
 1363SOL    HW2 4989   1.093   5.676   5.081
 1364SOL     OW 4990   3.468   3.918   1.115
 1364SOL    HW1 4991   3.437   3.860   1.040
 1364SOL    HW2 4992   3.520   3.996   1.079
 1365SOL     OW 4993   0.184   3.846   6.763
 1365SOL    HW1 4994   0.163   3.775   6.696
 1365SOL    HW2 4995   0.110   3.850   6.830
 1366SOL     OW 4996   2.697   0.140   5.201
 1366SOL    HW1 4997   2.664   0.121   5.109
 1366SOL    HW2 4998   2.630   0.107   5.268
 1367SOL     OW 4999   2.154   0.913   2.710
 1367SOL    HW1 5000   2.083   0.902   2.780
 1367SOL    HW2 5001   2.166   1.011   2.691
 1368SOL     OW 5002   5.698   6.892   4.280
 1368SOL    HW1 5003   5.719   6.879   4.377
 1368SOL    HW2 5004   5.672   6.805   4.238
 1369SOL     OW 5005   0.787   0.639   3.192
 1369SOL    HW1 5006   0.750   0.593   3.273
 1369SOL    HW2 5007   0.727   0.716   3.167
 1370SOL     OW 5008   2.541   0.665   1.776
 1370SOL    HW1 5009   2.533   0.636   1.681
 1370SOL    HW2 5010   2.589   0.595   1.828
 1371SOL     OW 5011   4.272   0.701   6.577
 1371SOL    HW1 5012   4.364   0.733   6.559
 1371SOL    HW2 5013   4.221   0.696   6.491
 1372SOL     OW 5014   3.297   2.118   1.902
 1372SOL    HW1 5015   3.210   2.071   1.913
 1372SOL    HW2 5016   3.349   2.114   1.987
 1373SOL     OW 5017   1.759   5.789   1.121
 1373SOL    HW1 5018   1.665   5.819   1.139
 1373SOL    HW2 5019   1.772   5.774   1.023
 1374SOL     OW 5020   4.984   2.666   0.493
 1374SOL    HW1 5021   5.037   2.660   0.409
 1374SOL    HW2 5022   4.931   2.751   0.495
 1375SOL     OW 5023   0.421   4.187   5.687
 1375SOL    HW1 5024   0.411   4.279   5.725
 1375SOL    HW2 5025   0.332   4.144   5.679
 1376SOL     OW 5026   4.769   1.863   1.948
 1376SOL    HW1 5027   4.715   1.841   2.029
 1376SOL    HW2 5028   4.866   1.868   1.972
 1377SOL     OW 5029   0.694   5.152   5.029
 1377SOL    HW1 5030   0.619   5.095   5.062
 1377SOL    HW2 5031   0.673   5.248   5.043
 1378SOL     OW 5032   1.464   2.480   6.983
 1378SOL    HW1 5033   1.404   2.457   6.906
 1378SOL    HW2 5034   1.408   2.507   0.033
 1379SOL     OW 5035   3.882   6.032   1.654
 1379SOL    HW1 5036   3.865   6.130   1.639
 1379SOL    HW2 5037   3.850   5.980   1.575
 1380SOL     OW 5038   6.334   6.723   2.994
 1380SOL    HW1 5039   6.378   6.805   3.030
 1380SOL    HW2 5040   6.360   6.644   3.050
 1381SOL     OW 5041   6.048   1.211   1.437
 1381SOL    HW1 5042   6.003   1.238   1.351
 1381SOL    HW2 5043   6.016   1.271   1.511
 1382SOL     OW 5044   6.309   4.816   6.678
 1382SOL    HW1 5045   6.285   4.880   6.751
 1382SOL    HW2 5046   6.232   4.809   6.614
 1383SOL     OW 5047   2.759   0.003   0.750
 1383SOL    HW1 5048   2.815   0.006   0.833
 1383SOL    HW2 5049   2.735   6.937   0.729
 1384SOL     OW 5050   2.857   1.942   2.305
 1384SOL    HW1 5051   2.944   1.952   2.256
 1384SOL    HW2 5052   2.876   1.927   2.402
 1385SOL     OW 5053   5.742   3.066   2.678
 1385SOL    HW1 5054   5.695   3.123   2.611
 1385SOL    HW2 5055   5.674   3.015   2.732
 1386SOL     OW 5056   2.198   2.479   3.913
 1386SOL    HW1 5057   2.157   2.420   3.844
 1386SOL    HW2 5058   2.296   2.487   3.897
 1387SOL     OW 5059   2.471   0.973   5.240
 1387SOL    HW1 5060   2.521   0.973   5.154
 1387SOL    HW2 5061   2.373   0.967   5.221
 1388SOL     OW 5062   6.269   0.690   5.423
 1388SOL    HW1 5063   6.308   0.643   5.502
 1388SOL    HW2 5064   6.253   0.786   5.446
 1389SOL     OW 5065   6.656   0.634   5.094
 1389SOL    HW1 5066   6.654   0.542   5.057
 1389SOL    HW2 5067   6.737   0.682   5.061
 1390SOL     OW 5068   4.979   2.604   2.418
 1390SOL    HW1 5069   4.912   2.673   2.393
 1390SOL    HW2 5070   4.945   2.551   2.495
 1391SOL     OW 5071   6.087   1.335   4.836
 1391SOL    HW1 5072   6.124   1.420   4.799
 1391SOL    HW2 5073   6.157   1.288   4.889
 1392SOL     OW 5074   4.593   5.638   6.091
 1392SOL    HW1 5075   4.609   5.653   5.993
 1392SOL    HW2 5076   4.515   5.693   6.121
 1393SOL     OW 5077   5.861   0.250   6.247
 1393SOL    HW1 5078   5.801   0.248   6.167
 1393SOL    HW2 5079   5.950   0.212   6.222
 1394SOL     OW 5080   4.219   0.324   4.011
 1394SOL    HW1 5081   4.230   0.405   3.954
 1394SOL    HW2 5082   4.272   0.335   4.095
 1395SOL     OW 5083   0.965   5.218   2.350
 1395SOL    HW1 5084   1.029   5.156   2.396
 1395SOL    HW2 5085   1.008   5.307   2.339
 1396SOL     OW 5086   2.029   1.449   3.803
 1396SOL    HW1 5087   1.946   1.445   3.748
 1396SOL    HW2 5088   2.005   1.471   3.898
 1397SOL     OW 5089   0.896   5.548   4.756
 1397SOL    HW1 5090   0.971   5.600   4.798
 1397SOL    HW2 5091   0.812   5.602   4.758
 1398SOL     OW 5092   1.400   6.272   0.567
 1398SOL    HW1 5093   1.362   6.363   0.551
 1398SOL    HW2 5094   1.485   6.280   0.620
 1399SOL     OW 5095   4.217   0.522   0.265
 1399SOL    HW1 5096   4.213   0.478   0.176
 1399SOL    HW2 5097   4.127   0.519   0.308
 1400SOL     OW 5098   7.016   0.735   4.841
 1400SOL    HW1 5099   0.051   0.765   4.912
 1400SOL    HW2 5100   6.983   0.643   4.863
 1401SOL     OW 5101   5.208   0.229   2.437
 1401SOL    HW1 5102   5.117   0.255   2.468
 1401SOL    HW2 5103   5.246   0.160   2.498
 1402SOL     OW 5104   0.095   4.748   2.615
 1402SOL    HW1 5105   0.072   4.651   2.610
 1402SOL    HW2 5106   0.085   4.780   2.709
 1403SOL     OW 5107   3.262   3.538   6.072
 1403SOL    HW1 5108   3.272   3.440   6.090
 1403SOL    HW2 5109   3.350   3.577   6.046
 1404SOL     OW 5110   3.717   6.579   0.648
 1404SOL    HW1 5111   3.798   6.636   0.657
 1404SOL    HW2 5112   3.738   6.484   0.674
 1405SOL     OW 5113   0.715   4.058   1.130
 1405SOL    HW1 5114   0.648   4.032   1.061
 1405SOL    HW2 5115   0.775   4.129   1.093
 1406SOL     OW 5116   2.126   3.071   0.453
 1406SOL    HW1 5117   2.172   3.034   0.534
 1406SOL    HW2 5118   2.178   3.149   0.418
 1407SOL     OW 5119   0.073   3.139   1.342
 1407SOL    HW1 5120   0.067   3.142   1.442
 1407SOL    HW2 5121   0.142   3.203   1.311
 1408SOL     OW 5122   5.585   6.413   1.004
 1408SOL    HW1 5123   5.569   6.507   0.976
 1408SOL    HW2 5124   5.617   6.360   0.925
 1409SOL     OW 5125   6.580   1.203   5.835
 1409SOL    HW1 5126   6.671   1.165   5.818
 1409SOL    HW2 5127   6.585   1.303   5.832
 1410SOL     OW 5128   3.382   0.641   6.200
 1410SOL    HW1 5129   3.288   0.670   6.185
 1410SOL    HW2 5130   3.430   0.708   6.255
 1411SOL     OW 5131   3.826   4.954   6.948
 1411SOL    HW1 5132   3.876   5.032   6.910
 1411SOL    HW2 5133   3.810   4.968   0.017
 1412SOL     OW 5134   2.803   2.513   6.628
 1412SOL    HW1 5135   2.825   2.443   6.696
 1412SOL    HW2 5136   2.784   2.600   6.674
 1413SOL     OW 5137   1.527   2.250   4.903
 1413SOL    HW1 5138   1.485   2.164   4.873
 1413SOL    HW2 5139   1.593   2.230   4.975
 1414SOL     OW 5140   0.647   4.577   2.888
 1414SOL    HW1 5141   0.711   4.637   2.936
 1414SOL    HW2 5142   0.689   4.543   2.804
 1415SOL     OW 5143   2.703   1.673   4.926
 1415SOL    HW1 5144   2.605   1.694   4.924
 1415SOL    HW2 5145   2.716   1.577   4.950
 1416SOL     OW 5146   4.576   0.831   4.660
 1416SOL    HW1 5147   4.542   0.750   4.708
 1416SOL    HW2 5148   4.527   0.841   4.573
 1417SOL     OW 5149   3.616   3.591   5.621
 1417SOL    HW1 5150   3.583   3.666   5.564
 1417SOL    HW2 5151   3.616   3.506   5.568
 1418SOL     OW 5152   3.935   4.290   5.675
 1418SOL    HW1 5153   3.845   4.255   5.702
 1418SOL    HW2 5154   3.935   4.390   5.684
 1419SOL     OW 5155   1.468   5.961   2.031
 1419SOL    HW1 5156   1.399   5.911   1.978
 1419SOL    HW2 5157   1.423   6.036   2.081
 1420SOL     OW 5158   2.822   6.274   2.839
 1420SOL    HW1 5159   2.787   6.362   2.869
 1420SOL    HW2 5160   2.760   6.201   2.868
 1421SOL     OW 5161   1.411   4.887   6.235
 1421SOL    HW1 5162   1.454   4.850   6.152
 1421SOL    HW2 5163   1.323   4.842   6.250
 1422SOL     OW 5164   2.142   3.368   6.515
 1422SOL    HW1 5165   2.158   3.271   6.500
 1422SOL    HW2 5166   2.149   3.389   6.612
 1423SOL     OW 5167   3.999   1.148   4.818
 1423SOL    HW1 5168   3.975   1.196   4.734
 1423SOL    HW2 5169   3.919   1.100   4.854
 1424SOL     OW 5170   6.084   3.046   0.792
 1424SOL    HW1 5171   6.183   3.049   0.775
 1424SOL    HW2 5172   6.054   3.133   0.829
 1425SOL     OW 5173   5.438   0.154   3.412
 1425SOL    HW1 5174   5.519   0.204   3.445
 1425SOL    HW2 5175   5.399   0.203   3.334
 1426SOL     OW 5176   3.690   1.124   0.395
 1426SOL    HW1 5177   3.727   1.039   0.357
 1426SOL    HW2 5178   3.762   1.193   0.397
 1427SOL     OW 5179   1.963   0.388   3.600
 1427SOL    HW1 5180   1.911   0.454   3.653
 1427SOL    HW2 5181   2.024   0.336   3.660
 1428SOL     OW 5182   0.845   2.761   3.858
 1428SOL    HW1 5183   0.817   2.714   3.775
 1428SOL    HW2 5184   0.932   2.723   3.891
 1429SOL     OW 5185   6.357   1.014   2.088
 1429SOL    HW1 5186   6.344   1.022   1.990
 1429SOL    HW2 5187   6.270   0.991   2.132
 1430SOL     OW 5188   2.138   3.551   4.348
 1430SOL    HW1 5189   2.182   3.636   4.376
 1430SOL    HW2 5190   2.147   3.483   4.421
 1431SOL     OW 5191   3.064   1.089   0.485
 1431SOL    HW1 5192   3.057   1.069   0.387
 1431SOL    HW2 5193   3.143   1.148   0.501
 1432SOL     OW 5194   3.120   0.018   2.557
 1432SOL    HW1 5195   3.092   6.975   2.493
 1432SOL    HW2 5196   3.156   0.096   2.507
 1433SOL     OW 5197   2.736   0.698   4.018
 1433SOL    HW1 5198   2.784   0.755   3.951
 1433SOL    HW2 5199   2.800   0.661   4.084
 1434SOL     OW 5200   6.099   4.093   0.265
 1434SOL    HW1 5201   6.174   4.146   0.304
 1434SOL    HW2 5202   6.118   3.995   0.275
 1435SOL     OW 5203   1.292   0.047   3.789
 1435SOL    HW1 5204   1.246   0.031   3.701
 1435SOL    HW2 5205   1.350   6.997   3.810
 1436SOL     OW 5206   5.383   1.010   0.614
 1436SOL    HW1 5207   5.355   1.055   0.699
 1436SOL    HW2 5208   5.462   1.058   0.576
 1437SOL     OW 5209   3.674   0.687   0.115
 1437SOL    HW1 5210   3.598   0.742   0.151
 1437SOL    HW2 5211   3.637   0.609   0.065
 1438SOL     OW 5212   2.140   0.481   2.641
 1438SOL    HW1 5213   2.117   0.389   2.673
 1438SOL    HW2 5214   2.056   0.532   2.624
 1439SOL     OW 5215   0.090   4.605   6.895
 1439SOL    HW1 5216   0.140   4.602   6.808
 1439SOL    HW2 5217   7.026   4.570   6.882
 1440SOL     OW 5218   3.378   2.883   2.988
 1440SOL    HW1 5219   3.430   2.873   2.903
 1440SOL    HW2 5220   3.285   2.915   2.967
 1441SOL     OW 5221   6.459   2.982   4.175
 1441SOL    HW1 5222   6.366   2.947   4.184
 1441SOL    HW2 5223   6.524   2.907   4.192
 1442SOL     OW 5224   5.434   6.850   6.853
 1442SOL    HW1 5225   5.337   6.876   6.851
 1442SOL    HW2 5226   5.470   6.846   6.760
 1443SOL     OW 5227   1.078   2.462   3.065
 1443SOL    HW1 5228   1.000   2.466   3.003
 1443SOL    HW2 5229   1.113   2.554   3.081
 1444SOL     OW 5230   5.325   0.342   5.219
 1444SOL    HW1 5231   5.309   0.437   5.192
 1444SOL    HW2 5232   5.329   0.336   5.319
 1445SOL     OW 5233   6.403   1.983   0.453
 1445SOL    HW1 5234   6.406   2.070   0.404
 1445SOL    HW2 5235   6.488   1.971   0.504
 1446SOL     OW 5236   3.928   0.149   1.211
 1446SOL    HW1 5237   3.974   0.225   1.164
 1446SOL    HW2 5238   3.977   0.127   1.295
 1447SOL     OW 5239   5.324   1.430   4.838
 1447SOL    HW1 5240   5.423   1.438   4.821
 1447SOL    HW2 5241   5.305   1.448   4.934
 1448SOL     OW 5242   5.531   0.085   6.843
 1448SOL    HW1 5243   5.512   7.017   6.862
 1448SOL    HW2 5244   5.621   0.109   6.879
 1449SOL     OW 5245   4.585   5.705   0.752
 1449SOL    HW1 5246   4.680   5.676   0.768
 1449SOL    HW2 5247   4.574   5.801   0.778
 1450SOL     OW 5248   5.865   2.340   3.922
 1450SOL    HW1 5249   5.834   2.267   3.861
 1450SOL    HW2 5250   5.910   2.412   3.868
 1451SOL     OW 5251   1.727   6.952   2.234
 1451SOL    HW1 5252   1.820   6.916   2.228
 1451SOL    HW2 5253   1.724   0.014   2.192
 1452SOL     OW 5254   4.317   0.694   5.022
 1452SOL    HW1 5255   4.284   0.661   4.934
 1452SOL    HW2 5256   4.249   0.756   5.062
 1453SOL     OW 5257   4.619   4.447   4.120
 1453SOL    HW1 5258   4.536   4.482   4.164
 1453SOL    HW2 5259   4.652   4.367   4.170
 1454SOL     OW 5260   4.919   4.494   1.116
 1454SOL    HW1 5261   4.931   4.525   1.210
 1454SOL    HW2 5262   5.002   4.446   1.086
 1455SOL     OW 5263   2.378   2.050   1.323
 1455SOL    HW1 5264   2.458   2.109   1.316
 1455SOL    HW2 5265   2.300   2.105   1.354
 1456SOL     OW 5266   6.228   5.605   4.069
 1456SOL    HW1 5267   6.229   5.599   4.169
 1456SOL    HW2 5268   6.246   5.699   4.041
 1457SOL     OW 5269   1.897   0.025   3.663
 1457SOL    HW1 5270   1.812   7.005   3.645
 1457SOL    HW2 5271   1.878   0.114   3.704
 1458SOL     OW 5272   6.728   5.432   0.371
 1458SOL    HW1 5273   6.648   5.390   0.328
 1458SOL    HW2 5274   6.744   5.522   0.331
 1459SOL     OW 5275   2.678   0.312   1.489
 1459SOL    HW1 5276   2.773   0.293   1.464
 1459SOL    HW2 5277   2.671   0.319   1.589
 1460SOL     OW 5278   0.725   6.416   0.568
 1460SOL    HW1 5279   0.695   6.430   0.474
 1460SOL    HW2 5280   0.678   6.337   0.607
 1461SOL     OW 5281   4.413   4.700   1.562
 1461SOL    HW1 5282   4.324   4.656   1.550
 1461SOL    HW2 5283   4.482   4.630   1.581
 1462SOL     OW 5284   5.114   0.642   5.351
 1462SOL    HW1 5285   5.064   0.728   5.344
 1462SOL    HW2 5286   5.193   0.643   5.290
 1463SOL     OW 5287   0.417   1.238   5.107
 1463SOL    HW1 5288   0.342   1.175   5.089
 1463SOL    HW2 5289   0.458   1.217   5.196
 1464SOL     OW 5290   0.001   0.013   1.522
 1464SOL    HW1 5291   0.089   7.013   1.482
 1464SOL    HW2 5292   6.955   7.001   1.470
 1465SOL     OW 5293   0.479   0.152   4.777
 1465SOL    HW1 5294   0.408   0.196   4.721
 1465SOL    HW2 5295   0.519   0.076   4.726
 1466SOL     OW 5296   5.603   4.778   4.305
 1466SOL    HW1 5297   5.569   4.700   4.356
 1466SOL    HW2 5298   5.571   4.773   4.210
 1467SOL     OW 5299   6.239   3.883   2.566
 1467SOL    HW1 5300   6.185   3.960   2.532
 1467SOL    HW2 5301   6.295   3.847   2.491
 1468SOL     OW 5302   5.463   6.670   3.053
 1468SOL    HW1 5303   5.423   6.581   3.073
 1468SOL    HW2 5304   5.522   6.698   3.129
 1469SOL     OW 5305   0.227   0.960   2.670
 1469SOL    HW1 5306   0.323   0.989   2.678
 1469SOL    HW2 5307   0.202   0.908   2.751
 1470SOL     OW 5308   0.230   0.879   3.573
 1470SOL    HW1 5309   0.150   0.933   3.547
 1470SOL    HW2 5310   0.203   0.783   3.583
 1471SOL     OW 5311   6.687   0.899   0.547
 1471SOL    HW1 5312   6.717   0.977   0.602
 1471SOL    HW2 5313   6.638   0.834   0.606
 1472SOL     OW 5314   4.693   5.654   5.184
 1472SOL    HW1 5315   4.688   5.558   5.214
 1472SOL    HW2 5316   4.757   5.703   5.242
 1473SOL     OW 5317   6.012   4.402   3.008
 1473SOL    HW1 5318   6.094   4.374   3.057
 1473SOL    HW2 5319   6.020   4.377   2.912
 1474SOL     OW 5320   4.593   5.134   4.075
 1474SOL    HW1 5321   4.598   5.163   3.980
 1474SOL    HW2 5322   4.562   5.040   4.081
 1475SOL     OW 5323   6.892   1.037   3.232
 1475SOL    HW1 5324   6.884   1.137   3.226
 1475SOL    HW2 5325   6.809   0.995   3.197
 1476SOL     OW 5326   6.313   2.307   1.475
 1476SOL    HW1 5327   6.407   2.303   1.510
 1476SOL    HW2 5328   6.260   2.372   1.530
 1477SOL     OW 5329   3.028   6.216   3.539
 1477SOL    HW1 5330   2.969   6.288   3.503
 1477SOL    HW2 5331   3.062   6.160   3.464
 1478SOL     OW 5332   7.013   4.873   1.895
 1478SOL    HW1 5333   6.976   4.931   1.822
 1478SOL    HW2 5334   0.047   4.927   1.952
 1479SOL     OW 5335   0.757   5.247   0.668
 1479SOL    HW1 5336   0.787   5.332   0.711
 1479SOL    HW2 5337   0.671   5.263   0.620
 1480SOL     OW 5338   3.137   0.921   0.262
 1480SOL    HW1 5339   3.141   0.975   0.178
 1480SOL    HW2 5340   3.150   0.824   0.240
 1481SOL     OW 5341   0.191   2.045   5.972
 1481SOL    HW1 5342   0.288   2.024   5.964
 1481SOL    HW2 5343   0.157   2.014   6.061
 1482SOL     OW 5344   5.565   1.346   6.384
 1482SOL    HW1 5345   5.544   1.347   6.481
 1482SOL    HW2 5346   5.609   1.260   6.360
 1483SOL     OW 5347   6.250   2.322   0.017
 1483SOL    HW1 5348   6.269   2.308   6.949
 1483SOL    HW2 5349   6.334   2.349   0.064
 1484SOL     OW 5350   0.226   6.897   2.973
 1484SOL    HW1 5351   0.195   6.939   2.888
 1484SOL    HW2 5352   0.259   6.968   3.035
 1485SOL     OW 5353   5.990   2.972   3.810
 1485SOL    HW1 5354   5.909   2.916   3.828
 1485SOL    HW2 5355   6.065   2.941   3.867
 1486SOL     OW 5356   5.260   2.363   1.648
 1486SOL    HW1 5357   5.169   2.325   1.634
 1486SOL    HW2 5358   5.271   2.445   1.591
 1487SOL     OW 5359   6.401   1.087   5.635
 1487SOL    HW1 5360   6.468   1.029   5.589
 1487SOL    HW2 5361   6.448   1.147   5.700
 1488SOL     OW 5362   4.500   1.850   2.659
 1488SOL    HW1 5363   4.501   1.783   2.585
 1488SOL    HW2 5364   4.517   1.804   2.746
 1489SOL     OW 5365   4.076   5.057   5.037
 1489SOL    HW1 5366   3.988   5.097   5.065
 1489SOL    HW2 5367   4.071   5.031   4.941
 1490SOL     OW 5368   2.294   2.347   1.090
 1490SOL    HW1 5369   2.346   2.418   1.137
 1490SOL    HW2 5370   2.349   2.263   1.086
 1491SOL     OW 5371   6.920   2.167   5.703
 1491SOL    HW1 5372   6.866   2.224   5.766
 1491SOL    HW2 5373   7.017   2.187   5.714
 1492SOL     OW 5374   5.646   2.790   1.683
 1492SOL    HW1 5375   5.599   2.703   1.699
 1492SOL    HW2 5376   5.694   2.818   1.766
 1493SOL     OW 5377   5.466   1.037   5.424
 1493SOL    HW1 5378   5.499   1.088   5.503
 1493SOL    HW2 5379   5.369   1.056   5.410
 1494SOL     OW 5380   5.512   2.336   3.848
 1494SOL    HW1 5381   5.576   2.347   3.772
 1494SOL    HW2 5382   5.424   2.302   3.813
 1495SOL     OW 5383   1.744   2.189   2.489
 1495SOL    HW1 5384   1.646   2.182   2.470
 1495SOL    HW2 5385   1.779   2.100   2.516
 1496SOL     OW 5386   1.157   1.109   3.310
 1496SOL    HW1 5387   1.143   1.179   3.240
 1496SOL    HW2 5388   1.091   1.036   3.298
 1497SOL     OW 5389   5.391   4.456   5.917
 1497SOL    HW1 5390   5.470   4.489   5.865
 1497SOL    HW2 5391   5.421   4.386   5.981
 1498SOL     OW 5392   1.922   5.544   0.028
 1498SOL    HW1 5393   1.881   5.623   7.011
 1498SOL    HW2 5394   2.008   5.520   7.011
 1499SOL     OW 5395   0.651   4.516   5.005
 1499SOL    HW1 5396   0.648   4.463   4.920
 1499SOL    HW2 5397   0.732   4.490   5.058
 1500SOL     OW 5398   4.001   6.619   5.256
 1500SOL    HW1 5399   4.056   6.685   5.307
 1500SOL    HW2 5400   4.037   6.610   5.163
 1501SOL     OW 5401   4.278   0.248   6.509
 1501SOL    HW1 5402   4.190   0.200   6.509
 1501SOL    HW2 5403   4.269   0.333   6.561
 1502SOL     OW 5404   6.965   6.268   0.359
 1502SOL    HW1 5405   0.032   6.296   0.370
 1502SOL    HW2 5406   6.928   6.241   0.448
 1503SOL     OW 5407   3.392   4.186   5.104
 1503SOL    HW1 5408   3.389   4.135   5.190
 1503SOL    HW2 5409   3.318   4.156   5.045
 1504SOL     OW 5410   2.796   6.348   4.462
 1504SOL    HW1 5411   2.756   6.338   4.371
 1504SOL    HW2 5412   2.865   6.421   4.460
 1505SOL     OW 5413   4.611   5.367   2.116
 1505SOL    HW1 5414   4.516   5.397   2.120
 1505SOL    HW2 5415   4.622   5.299   2.044
 1506SOL     OW 5416   0.597   6.598   2.983
 1506SOL    HW1 5417   0.524   6.545   3.025
 1506SOL    HW2 5418   0.558   6.666   2.921
 1507SOL     OW 5419   2.285   1.311   6.240
 1507SOL    HW1 5420   2.368   1.330   6.292
 1507SOL    HW2 5421   2.303   1.239   6.173
 1508SOL     OW 5422   4.484   0.314   0.316
 1508SOL    HW1 5423   4.439   0.399   0.287
 1508SOL    HW2 5424   4.470   0.300   0.414
 1509SOL     OW 5425   5.338   1.520   0.386
 1509SOL    HW1 5426   5.255   1.567   0.416
 1509SOL    HW2 5427   5.400   1.586   0.344
 1510SOL     OW 5428   6.966   2.388   3.662
 1510SOL    HW1 5429   0.031   2.369   3.630
 1510SOL    HW2 5430   6.924   2.456   3.602
 1511SOL     OW 5431   1.251   2.577   0.180
 1511SOL    HW1 5432   1.224   2.633   0.259
 1511SOL    HW2 5433   1.251   2.481   0.205
 1512SOL     OW 5434   5.648   0.207   2.390
 1512SOL    HW1 5435   5.714   0.133   2.377
 1512SOL    HW2 5436   5.689   0.281   2.443
 1513SOL     OW 5437   3.791   1.276   2.267
 1513SOL    HW1 5438   3.721   1.266   2.197
 1513SOL    HW2 5439   3.816   1.373   2.275
 1514SOL     OW 5440   5.390   1.187   6.007
 1514SOL    HW1 5441   5.410   1.089   6.006
 1514SOL    HW2 5442   5.464   1.236   6.054
 1515SOL     OW 5443   6.575   5.312   4.750
 1515SOL    HW1 5444   6.651   5.342   4.692
 1515SOL    HW2 5445   6.582   5.214   4.766
 1516SOL     OW 5446   0.656   1.269   0.722
 1516SOL    HW1 5447   0.653   1.347   0.784
 1516SOL    HW2 5448   0.652   1.184   0.774
 1517SOL     OW 5449   3.693   5.052   3.740
 1517SOL    HW1 5450   3.628   5.001   3.796
 1517SOL    HW2 5451   3.721   5.135   3.788
 1518SOL     OW 5452   1.304   4.661   1.231
 1518SOL    HW1 5453   1.307   4.588   1.299
 1518SOL    HW2 5454   1.235   4.638   1.161
 1519SOL     OW 5455   6.939   4.553   1.256
 1519SOL    HW1 5456   6.992   4.476   1.222
 1519SOL    HW2 5457   6.845   4.522   1.274
 1520SOL     OW 5458   1.850   2.764   2.465
 1520SOL    HW1 5459   1.818   2.857   2.447
 1520SOL    HW2 5460   1.883   2.758   2.560
 1521SOL     OW 5461   2.639   3.964   6.066
 1521SOL    HW1 5462   2.718   3.969   6.127
 1521SOL    HW2 5463   2.666   3.918   5.981
 1522SOL     OW 5464   0.748   2.544   6.483
 1522SOL    HW1 5465   0.672   2.567   6.544
 1522SOL    HW2 5466   0.759   2.616   6.415
 1523SOL     OW 5467   6.895   1.587   0.568
 1523SOL    HW1 5468   6.991   1.578   0.544
 1523SOL    HW2 5469   6.871   1.518   0.637
 1524SOL     OW 5470   6.270   1.085   3.062
 1524SOL    HW1 5471   6.283   1.174   3.106
 1524SOL    HW2 5472   6.313   1.086   2.971
 1525SOL     OW 5473   4.577   1.837   5.807
 1525SOL    HW1 5474   4.483   1.821   5.838
 1525SOL    HW2 5475   4.576   1.878   5.716
 1526SOL     OW 5476   6.807   1.723   0.313
 1526SOL    HW1 5477   6.839   1.667   0.389
 1526SOL    HW2 5478   6.797   1.665   0.232
 1527SOL     OW 5479   2.867   1.966   5.570
 1527SOL    HW1 5480   2.815   2.048   5.594
 1527SOL    HW2 5481   2.844   1.938   5.477
 1528SOL     OW 5482   5.118   5.860   3.478
 1528SOL    HW1 5483   5.200   5.808   3.453
 1528SOL    HW2 5484   5.041   5.830   3.422
 1529SOL     OW 5485   3.236   0.701   5.188
 1529SOL    HW1 5486   3.145   0.676   5.156
 1529SOL    HW2 5487   3.291   0.734   5.111
 1530SOL     OW 5488   3.013   6.979   2.069
 1530SOL    HW1 5489   2.953   6.899   2.069
 1530SOL    HW2 5490   2.965   0.029   2.028
 1531SOL     OW 5491   6.513   7.012   6.067
 1531SOL    HW1 5492   6.543   0.049   6.137
 1531SOL    HW2 5493   6.565   6.927   6.078
 1532SOL     OW 5494   3.404   2.217   5.330
 1532SOL    HW1 5495   3.369   2.256   5.244
 1532SOL    HW2 5496   3.330   2.212   5.397
 1533SOL     OW 5497   5.838   2.764   0.008
 1533SOL    HW1 5498   5.937   2.750   0.003
 1533SOL    HW2 5499   5.807   2.814   6.956
 1534SOL     OW 5500   6.832   6.871   1.430
 1534SOL    HW1 5501   6.758   6.871   1.497
 1534SOL    HW2 5502   6.822   6.792   1.370
 1535SOL     OW 5503   4.834   5.422   3.865
 1535SOL    HW1 5504   4.876   5.422   3.775
 1535SOL    HW2 5505   4.756   5.359   3.866
 1536SOL     OW 5506   2.798   5.407   3.599
 1536SOL    HW1 5507   2.866   5.409   3.525
 1536SOL    HW2 5508   2.748   5.493   3.600
 1537SOL     OW 5509   2.265   5.462   4.753
 1537SOL    HW1 5510   2.351   5.434   4.796
 1537SOL    HW2 5511   2.235   5.550   4.792
 1538SOL     OW 5512   3.411   5.071   6.703
 1538SOL    HW1 5513   3.381   5.158   6.664
 1538SOL    HW2 5514   3.332   5.012   6.720
 1539SOL     OW 5515   3.415   5.082   1.918
 1539SOL    HW1 5516   3.392   5.174   1.950
 1539SOL    HW2 5517   3.504   5.084   1.871
 1540SOL     OW 5518   6.369   6.916   5.590
 1540SOL    HW1 5519   6.352   6.957   5.679
 1540SOL    HW2 5520   6.347   6.818   5.593
 1541SOL     OW 5521   4.857   2.050   0.658
 1541SOL    HW1 5522   4.884   2.101   0.576
 1541SOL    HW2 5523   4.939   2.026   0.709
 1542SOL     OW 5524   0.899   6.227   1.104
 1542SOL    HW1 5525   0.891   6.131   1.077
 1542SOL    HW2 5526   0.995   6.254   1.105
 1543SOL     OW 5527   2.988   3.802   4.177
 1543SOL    HW1 5528   3.007   3.714   4.220
 1543SOL    HW2 5529   3.030   3.876   4.231
 1544SOL     OW 5530   3.645   4.029   2.666
 1544SOL    HW1 5531   3.656   3.946   2.721
 1544SOL    HW2 5532   3.581   4.090   2.712
 1545SOL     OW 5533   6.850   0.504   4.539
 1545SOL    HW1 5534   6.847   0.592   4.491
 1545SOL    HW2 5535   6.921   0.446   4.499
 1546SOL     OW 5536   0.195   6.486   6.085
 1546SOL    HW1 5537   0.195   6.465   6.183
 1546SOL    HW2 5538   0.242   6.573   6.069
 1547SOL     OW 5539   3.811   6.295   6.845
 1547SOL    HW1 5540   3.775   6.282   6.753
 1547SOL    HW2 5541   3.908   6.320   6.840
 1548SOL     OW 5542   6.171   4.691   3.720
 1548SOL    HW1 5543   6.092   4.738   3.760
 1548SOL    HW2 5544   6.155   4.679   3.622
 1549SOL     OW 5545   6.384   1.796   1.469
 1549SOL    HW1 5546   6.290   1.769   1.451
 1549SOL    HW2 5547   6.405   1.881   1.421
 1550SOL     OW 5548   2.273   5.903   3.024
 1550SOL    HW1 5549   2.290   5.824   3.083
 1550SOL    HW2 5550   2.262   5.985   3.080
 1551SOL     OW 5551   0.416   3.395   1.049
 1551SOL    HW1 5552   0.484   3.323   1.036
 1551SOL    HW2 5553   0.448   3.479   1.004
 1552SOL     OW 5554   1.210   6.901   0.749
 1552SOL    HW1 5555   1.306   6.874   0.759
 1552SOL    HW2 5556   1.151   6.825   0.777
 1553SOL     OW 5557   5.627   1.728   5.675
 1553SOL    HW1 5558   5.554   1.753   5.611
 1553SOL    HW2 5559   5.695   1.801   5.679
 1554SOL     OW 5560   2.881   1.891   1.309
 1554SOL    HW1 5561   2.819   1.915   1.383
 1554SOL    HW2 5562   2.940   1.815   1.337
 1555SOL     OW 5563   4.049   0.893   6.319
 1555SOL    HW1 5564   3.999   0.904   6.405
 1555SOL    HW2 5565   3.994   0.839   6.255
 1556SOL     OW 5566   3.468   2.245   7.000
 1556SOL    HW1 5567   3.427   2.316   6.942
 1556SOL    HW2 5568   3.568   2.247   6.989
 1557SOL     OW 5569   1.595   2.956   0.088
 1557SOL    HW1 5570   1.658   3.023   0.050
 1557SOL    HW2 5571   1.587   2.968   0.186
 1558SOL     OW 5572   5.238   3.179   6.050
 1558SOL    HW1 5573   5.165   3.222   6.101
 1558SOL    HW2 5574   5.327   3.208   6.086
 1559SOL     OW 5575   2.965   5.118   3.450
 1559SOL    HW1 5576   3.006   5.209   3.438
 1559SOL    HW2 5577   2.884   5.111   3.391
 1560SOL     OW 5578   4.012   1.945   0.777
 1560SOL    HW1 5579   3.925   1.909   0.744
 1560SOL    HW2 5580   4.000   2.040   0.806
 1561SOL     OW 5581   5.924   6.036   1.150
 1561SOL    HW1 5582   5.961   6.017   1.241
 1561SOL    HW2 5583   5.985   6.100   1.102
 1562SOL     OW 5584   3.190   6.995   2.808
 1562SOL    HW1 5585   3.169   6.983   2.711
 1562SOL    HW2 5586   3.201   6.906   2.851
 1563SOL     OW 5587   2.662   2.308   3.922
 1563SOL    HW1 5588   2.748   2.300   3.971
 1563SOL    HW2 5589   2.617   2.219   3.918
 1564SOL     OW 5590   0.574   1.146   3.206
 1564SOL    HW1 5591   0.489   1.132   3.156
 1564SOL    HW2 5592   0.605   1.241   3.193
 1565SOL     OW 5593   4.026   1.480   4.746
 1565SOL    HW1 5594   4.118   1.492   4.782
 1565SOL    HW2 5595   3.970   1.559   4.772
 1566SOL     OW 5596   5.828   4.340   3.209
 1566SOL    HW1 5597   5.879   4.330   3.294
 1566SOL    HW2 5598   5.889   4.376   3.138
 1567SOL     OW 5599   5.350   0.687   4.877
 1567SOL    HW1 5600   5.276   0.752   4.856
 1567SOL    HW2 5601   5.347   0.612   4.810
 1568SOL     OW 5602   2.977   4.969   1.120
 1568SOL    HW1 5603   3.049   4.926   1.174
 1568SOL    HW2 5604   3.015   5.002   1.033
 1569SOL     OW 5605   2.942   1.271   2.761
 1569SOL    HW1 5606   2.952   1.273   2.860
 1569SOL    HW2 5607   2.982   1.187   2.725
 1570SOL     OW 5608   3.090   5.982   6.239
 1570SOL    HW1 5609   3.040   6.013   6.158
 1570SOL    HW2 5610   3.057   6.032   6.320
 1571SOL     OW 5611   0.300   3.361   3.528
 1571SOL    HW1 5612   0.283   3.458   3.514
 1571SOL    HW2 5613   0.358   3.347   3.608
 1572SOL     OW 5614   3.054   5.457   2.197
 1572SOL    HW1 5615   2.960   5.483   2.219
 1572SOL    HW2 5616   3.054   5.390   2.123
 1573SOL     OW 5617   5.519   6.014   0.111
 1573SOL    HW1 5618   5.462   6.096   0.117
 1573SOL    HW2 5619   5.468   5.940   0.067
 1574SOL     OW 5620   0.377   4.134   3.076
 1574SOL    HW1 5621   0.473   4.141   3.049
 1574SOL    HW2 5622   0.325   4.089   3.004
 1575SOL     OW 5623   6.831   2.332   0.286
 1575SOL    HW1 5624   6.764   2.277   0.335
 1575SOL    HW2 5625   6.784   2.392   0.222
 1576SOL     OW 5626   1.221   6.882   1.614
 1576SOL    HW1 5627   1.316   6.852   1.620
 1576SOL    HW2 5628   1.161   6.810   1.648
 1577SOL     OW 5629   3.688   5.908   5.338
 1577SOL    HW1 5630   3.650   5.823   5.305
 1577SOL    HW2 5631   3.741   5.952   5.265
 1578SOL     OW 5632   4.985   1.089   1.442
 1578SOL    HW1 5633   4.956   1.033   1.365
 1578SOL    HW2 5634   5.024   1.031   1.513
 1579SOL     OW 5635   1.777   2.466   1.463
 1579SOL    HW1 5636   1.780   2.440   1.560
 1579SOL    HW2 5637   1.843   2.539   1.446
 1580SOL     OW 5638   2.975   3.248   2.825
 1580SOL    HW1 5639   2.921   3.237   2.908
 1580SOL    HW2 5640   3.070   3.271   2.850
 1581SOL     OW 5641   6.366   4.656   5.405
 1581SOL    HW1 5642   6.410   4.705   5.330
 1581SOL    HW2 5643   6.300   4.716   5.451
 1582SOL     OW 5644   4.773   6.081   5.058
 1582SOL    HW1 5645   4.788   6.035   4.971
 1582SOL    HW2 5646   4.796   6.018   5.133
 1583SOL     OW 5647   1.304   4.997   4.726
 1583SOL    HW1 5648   1.316   5.055   4.807
 1583SOL    HW2 5649   1.317   4.901   4.752
 1584SOL     OW 5650   0.214   4.268   0.318
 1584SOL    HW1 5651   0.217   4.292   0.221
 1584SOL    HW2 5652   0.119   4.274   0.351
 1585SOL     OW 5653   4.210   6.686   3.622
 1585SOL    HW1 5654   4.171   6.658   3.534
 1585SOL    HW2 5655   4.309   6.698   3.611
 1586SOL     OW 5656   3.555   5.914   3.707
 1586SOL    HW1 5657   3.639   5.863   3.687
 1586SOL    HW2 5658   3.478   5.870   3.660
 1587SOL     OW 5659   2.802   6.496   6.738
 1587SOL    HW1 5660   2.734   6.513   6.809
 1587SOL    HW2 5661   2.886   6.545   6.760
 1588SOL     OW 5662   6.630   1.376   4.058
 1588SOL    HW1 5663   6.669   1.442   4.122
 1588SOL    HW2 5664   6.703   1.334   4.005
 1589SOL     OW 5665   6.446   4.321   3.591
 1589SOL    HW1 5666   6.392   4.247   3.551
 1589SOL    HW2 5667   6.544   4.300   3.582
 1590SOL     OW 5668   6.653   2.335   4.037
 1590SOL    HW1 5669   6.740   2.306   4.078
 1590SOL    HW2 5670   6.671   2.385   3.953
 1591SOL     OW 5671   1.306   6.103   1.356
 1591SOL    HW1 5672   1.368   6.179   1.339
 1591SOL    HW2 5673   1.232   6.133   1.417
 1592SOL     OW 5674   0.027   4.346   5.991
 1592SOL    HW1 5675   0.081   4.315   5.913
 1592SOL    HW2 5676   0.021   4.272   6.059
 1593SOL     OW 5677   3.472   6.974   6.893
 1593SOL    HW1 5678   3.463   6.884   6.850
 1593SOL    HW2 5679   3.383   7.019   6.894
 1594SOL     OW 5680   5.808   0.408   2.569
 1594SOL    HW1 5681   5.899   0.368   2.560
 1594SOL    HW2 5682   5.790   0.469   2.492
 1595SOL     OW 5683   0.471   3.626   0.428
 1595SOL    HW1 5684   0.430   3.540   0.460
 1595SOL    HW2 5685   0.518   3.611   0.341
 1596SOL     OW 5686   4.479   4.876   3.815
 1596SOL    HW1 5687   4.553   4.853   3.751
 1596SOL    HW2 5688   4.405   4.810   3.804
 1597SOL     OW 5689   4.145   6.128   6.626
 1597SOL    HW1 5690   4.168   6.158   6.533
 1597SOL    HW2 5691   4.070   6.184   6.661
 1598SOL     OW 5692   1.266   4.538   6.567
 1598SOL    HW1 5693   1.286   4.614   6.629
 1598SOL    HW2 5694   1.194   4.481   6.607
 1599SOL     OW 5695   4.401   5.390   3.152
 1599SOL    HW1 5696   4.359   5.476   3.181
 1599SOL    HW2 5697   4.472   5.409   3.083
 1600SOL     OW 5698   3.870   0.467   2.185
 1600SOL    HW1 5699   3.864   0.511   2.095
 1600SOL    HW2 5700   3.786   0.417   2.204
 1601SOL     OW 5701   6.281   0.338   5.495
 1601SOL    HW1 5702   6.305   0.254   5.545
 1601SOL    HW2 5703   6.364   0.387   5.468
 1602SOL     OW 5704   4.098   5.956   3.888
 1602SOL    HW1 5705   4.163   5.975   3.962
 1602SOL    HW2 5706   4.111   5.861   3.857
 1603SOL     OW 5707   3.423   5.509   3.222
 1603SOL    HW1 5708   3.459   5.525   3.314
 1603SOL    HW2 5709   3.383   5.418   3.217
 1604SOL     OW 5710   4.195   5.237   2.051
 1604SOL    HW1 5711   4.263   5.311   2.044
 1604SOL    HW2 5712   4.176   5.218   2.147
 1605SOL     OW 5713   4.719   5.377   0.396
 1605SOL    HW1 5714   4.625   5.350   0.376
 1605SOL    HW2 5715   4.753   5.323   0.473
 1606SOL     OW 5716   3.552   5.896   4.619
 1606SOL    HW1 5717   3.520   5.963   4.552
 1606SOL    HW2 5718   3.650   5.882   4.607
 1607SOL     OW 5719   4.644   5.425   3.012
 1607SOL    HW1 5720   4.700   5.347   3.041
 1607SOL    HW2 5721   4.638   5.426   2.912
 1608SOL     OW 5722   5.283   1.516   3.304
 1608SOL    HW1 5723   5.338   1.442   3.263
 1608SOL    HW2 5724   5.277   1.502   3.402
 1609SOL     OW 5725   2.478   6.841   1.330
 1609SOL    HW1 5726   2.467   6.862   1.427
 1609SOL    HW2 5727   2.473   6.926   1.277
 1610SOL     OW 5728   5.384   6.880   1.074
 1610SOL    HW1 5729   5.381   6.949   1.002
 1610SOL    HW2 5730   5.293   6.839   1.086
 1611SOL     OW 5731   1.482   4.546   0.631
 1611SOL    HW1 5732   1.432   4.580   0.552
 1611SOL    HW2 5733   1.419   4.501   0.694
 1612SOL     OW 5734   4.229   0.394   1.697
 1612SOL    HW1 5735   4.211   0.475   1.640
 1612SOL    HW2 5736   4.155   0.384   1.764
 1613SOL     OW 5737   6.554   6.078   2.444
 1613SOL    HW1 5738   6.569   6.154   2.381
 1613SOL    HW2 5739   6.513   6.112   2.529
 1614SOL     OW 5740   6.215   1.367   6.223
 1614SOL    HW1 5741   6.141   1.425   6.257
 1614SOL    HW2 5742   6.296   1.380   6.280
 1615SOL     OW 5743   0.653   4.068   6.283
 1615SOL    HW1 5744   0.690   4.081   6.191
 1615SOL    HW2 5745   0.584   4.138   6.302
 1616SOL     OW 5746   1.379   1.142   4.526
 1616SOL    HW1 5747   1.364   1.207   4.452
 1616SOL    HW2 5748   1.382   1.049   4.489
 1617SOL     OW 5749   6.359   6.732   3.312
 1617SOL    HW1 5750   6.325   6.672   3.385
 1617SOL    HW2 5751   6.308   6.818   3.312
 1618SOL     OW 5752   3.257   5.810   3.289
 1618SOL    HW1 5753   3.321   5.826   3.215
 1618SOL    HW2 5754   3.185   5.747   3.259
 1619SOL     OW 5755   1.553   4.083   0.145
 1619SOL    HW1 5756   1.585   4.145   0.217
 1619SOL    HW2 5757   1.581   4.118   0.056
 1620SOL     OW 5758   3.562   5.240   4.942
 1620SOL    HW1 5759   3.481   5.283   4.984
 1620SOL    HW2 5760   3.610   5.307   4.886
 1621SOL     OW 5761   5.182   6.295   0.422
 1621SOL    HW1 5762   5.093   6.250   0.424
 1621SOL    HW2 5763   5.249   6.237   0.469
 1622SOL     OW 5764   6.596   4.553   4.330
 1622SOL    HW1 5765   6.571   4.461   4.361
 1622SOL    HW2 5766   6.595   4.556   4.230
 1623SOL     OW 5767   6.847   2.340   3.228
 1623SOL    HW1 5768   6.866   2.245   3.254
 1623SOL    HW2 5769   6.787   2.342   3.149
 1624SOL     OW 5770   4.060   2.605   0.767
 1624SOL    HW1 5771   3.963   2.614   0.789
 1624SOL    HW2 5772   4.104   2.548   0.836
 1625SOL     OW 5773   0.386   6.243   0.981
 1625SOL    HW1 5774   0.402   6.161   1.036
 1625SOL    HW2 5775   0.373   6.322   1.042
 1626SOL     OW 5776   2.642   2.223   1.476
 1626SOL    HW1 5777   2.667   2.130   1.504
 1626SOL    HW2 5778   2.697   2.289   1.527
 1627SOL     OW 5779   3.786   2.028   5.433
 1627SOL    HW1 5780   3.880   2.050   5.406
 1627SOL    HW2 5781   3.759   2.085   5.511
 1628SOL     OW 5782   5.559   6.676   0.890
 1628SOL    HW1 5783   5.567   6.675   0.790
 1628SOL    HW2 5784   5.516   6.761   0.919
 1629SOL     OW 5785   2.020   0.671   3.775
 1629SOL    HW1 5786   2.065   0.681   3.686
 1629SOL    HW2 5787   2.079   0.619   3.836
 1630SOL     OW 5788   0.335   3.987   6.597
 1630SOL    HW1 5789   0.259   3.962   6.656
 1630SOL    HW2 5790   0.415   3.930   6.619
 1631SOL     OW 5791   6.682   3.676   0.187
 1631SOL    HW1 5792   6.715   3.713   0.100
 1631SOL    HW2 5793   6.720   3.729   0.262
 1632SOL     OW 5794   6.676   5.868   2.373
 1632SOL    HW1 5795   6.628   5.948   2.408
 1632SOL    HW2 5796   6.761   5.897   2.328
 1633SOL     OW 5797   6.101   3.296   4.531
 1633SOL    HW1 5798   6.106   3.333   4.624
 1633SOL    HW2 5799   6.049   3.359   4.473
 1634SOL     OW 5800   6.574   1.673   5.052
 1634SOL    HW1 5801   6.593   1.575   5.057
 1634SOL    HW2 5802   6.656   1.725   5.075
 1635SOL     OW 5803   4.159   6.098   3.083
 1635SOL    HW1 5804   4.191   6.104   2.989
 1635SOL    HW2 5805   4.059   6.108   3.086
 1636SOL     OW 5806   6.070   6.027   1.410
 1636SOL    HW1 5807   6.136   5.982   1.470
 1636SOL    HW2 5808   6.069   6.125   1.428
 1637SOL     OW 5809   0.775   0.363   2.404
 1637SOL    HW1 5810   0.716   0.299   2.354
 1637SOL    HW2 5811   0.848   0.311   2.450
 1638SOL     OW 5812   6.141   2.303   1.835
 1638SOL    HW1 5813   6.171   2.393   1.865
 1638SOL    HW2 5814   6.087   2.311   1.751
 1639SOL     OW 5815   5.221   2.709   2.597
 1639SOL    HW1 5816   5.184   2.681   2.685
 1639SOL    HW2 5817   5.146   2.718   2.531
 1640SOL     OW 5818   6.863   0.236   6.764
 1640SOL    HW1 5819   6.961   0.256   6.763
 1640SOL    HW2 5820   6.838   0.195   6.852
 1641SOL     OW 5821   6.376   2.551   3.030
 1641SOL    HW1 5822   6.329   2.579   3.113
 1641SOL    HW2 5823   6.332   2.469   2.993
 1642SOL     OW 5824   6.656   2.535   6.316
 1642SOL    HW1 5825   6.732   2.562   6.256
 1642SOL    HW2 5826   6.693   2.502   6.403
 1643SOL     OW 5827   2.125   5.847   4.111
 1643SOL    HW1 5828   2.076   5.762   4.134
 1643SOL    HW2 5829   2.177   5.834   4.027
 1644SOL     OW 5830   5.866   2.908   1.437
 1644SOL    HW1 5831   5.846   2.856   1.354
 1644SOL    HW2 5832   5.835   2.857   1.517
 1645SOL     OW 5833   2.088   0.648   5.370
 1645SOL    HW1 5834   2.171   0.637   5.316
 1645SOL    HW2 5835   2.106   0.626   5.466
 1646SOL     OW 5836   1.218   4.540   0.717
 1646SOL    HW1 5837   1.119   4.542   0.729
 1646SOL    HW2 5838   1.258   4.621   0.760
 1647SOL     OW 5839   5.662   2.720   4.049
 1647SOL    HW1 5840   5.693   2.642   4.102
 1647SOL    HW2 5841   5.722   2.798   4.067
 1648SOL     OW 5842   5.378   5.967   0.898
 1648SOL    HW1 5843   5.437   5.945   0.820
 1648SOL    HW2 5844   5.388   5.896   0.968
 1649SOL     OW 5845   3.636   0.690   3.041
 1649SOL    HW1 5846   3.668   0.663   3.132
 1649SOL    HW2 5847   3.540   0.720   3.047
 1650SOL     OW 5848   2.636   3.821   6.738
 1650SOL    HW1 5849   2.725   3.864   6.752
 1650SOL    HW2 5850   2.648   3.730   6.700
 1651SOL     OW 5851   0.944   2.802   3.478
 1651SOL    HW1 5852   0.887   2.798   3.396
 1651SOL    HW2 5853   1.038   2.821   3.452
 1652SOL     OW 5854   6.945   3.384   1.571
 1652SOL    HW1 5855   6.929   3.289   1.542
 1652SOL    HW2 5856   6.993   3.384   1.659
 1653SOL     OW 5857   0.385   4.586   2.911
 1653SOL    HW1 5858   0.484   4.586   2.925
 1653SOL    HW2 5859   0.352   4.681   2.913
 1654SOL     OW 5860   0.226   3.083   2.637
 1654SOL    HW1 5861   0.143   3.036   2.607
 1654SOL    HW2 5862   0.201   3.162   2.693
 1655SOL     OW 5863   6.649   0.240   5.316
 1655SOL    HW1 5864   6.593   0.315   5.283
 1655SOL    HW2 5865   6.622   0.155   5.271
 1656SOL     OW 5866   2.007   4.277   3.376
 1656SOL    HW1 5867   2.102   4.285   3.346
 1656SOL    HW2 5868   1.953   4.233   3.304
 1657SOL     OW 5869   0.697   6.743   5.350
 1657SOL    HW1 5870   0.653   6.662   5.389
 1657SOL    HW2 5871   0.774   6.769   5.408
 1658SOL     OW 5872   5.725   6.892   6.103
 1658SOL    HW1 5873   5.714   6.851   6.013
 1658SOL    HW2 5874   5.820   6.919   6.116
 1659SOL     OW 5875   4.260   0.057   6.149
 1659SOL    HW1 5876   4.268   0.150   6.186
 1659SOL    HW2 5877   4.166   0.042   6.118
 1660SOL     OW 5878   2.407   0.898   2.501
 1660SOL    HW1 5879   2.447   0.950   2.425
 1660SOL    HW2 5880   2.383   0.960   2.575
 1661SOL     OW 5881   4.664   4.545   2.692
 1661SOL    HW1 5882   4.623   4.526   2.603
 1661SOL    HW2 5883   4.762   4.560   2.680
 1662SOL     OW 5884   0.342   1.705   4.409
 1662SOL    HW1 5885   0.370   1.648   4.486
 1662SOL    HW2 5886   0.421   1.754   4.372
 1663SOL     OW 5887   4.885   4.750   0.075
 1663SOL    HW1 5888   4.853   4.735   7.010
 1663SOL    HW2 5889   4.912   4.846   0.086
 1664SOL     OW 5890   1.143   6.846   5.550
 1664SOL    HW1 5891   1.149   6.945   5.564
 1664SOL    HW2 5892   1.171   6.825   5.456
 1665SOL     OW 5893   2.755   4.384   0.430
 1665SOL    HW1 5894   2.797   4.321   0.365
 1665SOL    HW2 5895   2.717   4.462   0.381
 1666SOL     OW 5896   5.655   6.621   5.990
 1666SOL    HW1 5897   5.641   6.540   6.047
 1666SOL    HW2 5898   5.602   6.611   5.905
 1667SOL     OW 5899   0.448   6.166   1.501
 1667SOL    HW1 5900   0.357   6.133   1.526
 1667SOL    HW2 5901   0.444   6.211   1.412
 1668SOL     OW 5902   5.793   4.834   2.415
 1668SOL    HW1 5903   5.891   4.825   2.427
 1668SOL    HW2 5904   5.759   4.760   2.356
 1669SOL     OW 5905   6.076   3.671   5.455
 1669SOL    HW1 5906   6.069   3.714   5.365
 1669SOL    HW2 5907   6.130   3.587   5.447
 1670SOL     OW 5908   2.310   4.490   6.543
 1670SOL    HW1 5909   2.363   4.416   6.500
 1670SOL    HW2 5910   2.300   4.566   6.479
 1671SOL     OW 5911   6.213   2.261   1.017
 1671SOL    HW1 5912   6.282   2.301   0.957
 1671SOL    HW2 5913   6.122   2.278   0.980
 1672SOL     OW 5914   0.570   3.384   0.239
 1672SOL    HW1 5915   0.498   3.434   0.191
 1672SOL    HW2 5916   0.537   3.292   0.264
 1673SOL     OW 5917   1.571   0.492   4.455
 1673SOL    HW1 5918   1.474   0.511   4.469
 1673SOL    HW2 5919   1.625   0.567   4.494
 1674SOL     OW 5920   4.682   1.810   2.244
 1674SOL    HW1 5921   4.658   1.727   2.294
 1674SOL    HW2 5922   4.755   1.858   2.293
 1675SOL     OW 5923   5.735   0.404   1.027
 1675SOL    HW1 5924   5.831   0.428   1.012
 1675SOL    HW2 5925   5.680   0.439   0.951
 1676SOL     OW 5926   1.287   2.235   2.518
 1676SOL    HW1 5927   1.306   2.276   2.429
 1676SOL    HW2 5928   1.220   2.161   2.507
 1677SOL     OW 5929   3.881   3.173   3.345
 1677SOL    HW1 5930   3.954   3.231   3.381
 1677SOL    HW2 5931   3.793   3.205   3.380
 1678SOL     OW 5932   0.891   6.976   1.308
 1678SOL    HW1 5933   0.793   6.962   1.301
 1678SOL    HW2 5934   0.916   0.032   1.260
 1679SOL     OW 5935   0.724   1.878   6.704
 1679SOL    HW1 5936   0.628   1.891   6.681
 1679SOL    HW2 5937   0.766   1.815   6.640
 1680SOL     OW 5938   5.281   2.578   3.631
 1680SOL    HW1 5939   5.211   2.510   3.609
 1680SOL    HW2 5940   5.247   2.637   3.705
 1681SOL     OW 5941   2.517   6.191   4.554
 1681SOL    HW1 5942   2.592   6.240   4.509
 1681SOL    HW2 5943   2.542   6.172   4.648
 1682SOL     OW 5944   3.440   0.467   4.212
 1682SOL    HW1 5945   3.386   0.427   4.138
 1682SOL    HW2 5946   3.424   0.566   4.215
 1683SOL     OW 5947   6.134   4.836   2.772
 1683SOL    HW1 5948   6.158   4.930   2.798
 1683SOL    HW2 5949   6.105   4.786   2.854
 1684SOL     OW 5950   2.520   4.553   2.102
 1684SOL    HW1 5951   2.613   4.573   2.070
 1684SOL    HW2 5952   2.479   4.636   2.139
 1685SOL     OW 5953   0.084   1.430   5.331
 1685SOL    HW1 5954   0.177   1.463   5.315
 1685SOL    HW2 5955   0.021   1.508   5.336
 1686SOL     OW 5956   4.493   5.671   2.983
 1686SOL    HW1 5957   4.553   5.608   3.031
 1686SOL    HW2 5958   4.459   5.628   2.899
 1687SOL     OW 5959   5.168   4.043   1.502
 1687SOL    HW1 5960   5.096   4.073   1.564
 1687SOL    HW2 5961   5.143   3.955   1.461
 1688SOL     OW 5962   1.211   1.087   2.518
 1688SOL    HW1 5963   1.299   1.133   2.511
 1688SOL    HW2 5964   1.214   1.021   2.593
 1689SOL     OW 5965   4.716   0.679   1.291
 1689SOL    HW1 5966   4.705   0.683   1.390
 1689SOL    HW2 5967   4.670   0.758   1.249
 1690SOL     OW 5968   0.422   4.505   3.648
 1690SOL    HW1 5969   0.371   4.420   3.647
 1690SOL    HW2 5970   0.394   4.562   3.570
 1691SOL     OW 5971   4.633   2.762   5.258
 1691SOL    HW1 5972   4.554   2.711   5.292
 1691SOL    HW2 5973   4.691   2.701   5.204
 1692SOL     OW 5974   4.824   4.988   1.725
 1692SOL    HW1 5975   4.742   5.041   1.708
 1692SOL    HW2 5976   4.801   4.906   1.778
 1693SOL     OW 5977   5.368   0.092   5.098
 1693SOL    HW1 5978   5.419   0.092   5.013
 1693SOL    HW2 5979   5.389   0.175   5.150
 1694SOL     OW 5980   4.681   1.592   5.701
 1694SOL    HW1 5981   4.644   1.500   5.716
 1694SOL    HW2 5982   4.637   1.656   5.764
 1695SOL     OW 5983   4.006   0.958   6.918
 1695SOL    HW1 5984   3.919   0.911   6.901
 1695SOL    HW2 5985   4.002   1.050   6.880
 1696SOL     OW 5986   5.198   6.544   0.523
 1696SOL    HW1 5987   5.209   6.520   0.620
 1696SOL    HW2 5988   5.224   6.465   0.467
 1697SOL     OW 5989   4.927   2.331   2.163
 1697SOL    HW1 5990   4.923   2.412   2.103
 1697SOL    HW2 5991   5.022   2.316   2.191
 1698SOL     OW 5992   4.119   0.671   1.899
 1698SOL    HW1 5993   4.151   0.751   1.848
 1698SOL    HW2 5994   4.196   0.627   1.945
 1699SOL     OW 5995   2.702   6.672   0.148
 1699SOL    HW1 5996   2.793   6.688   0.186
 1699SOL    HW2 5997   2.638   6.741   0.184
 1700SOL     OW 5998   5.623   2.623   3.035
 1700SOL    HW1 5999   5.590   2.646   3.127
 1700SOL    HW2 6000   5.697   2.556   3.042
 1701SOL     OW 6001   6.974   5.838   4.770
 1701SOL    HW1 6002   7.024   5.828   4.684
 1701SOL    HW2 6003   7.023   5.900   4.830
 1702SOL     OW 6004   1.763   2.164   6.192
 1702SOL    HW1 6005   1.785   2.090   6.129
 1702SOL    HW2 6006   1.780   2.134   6.286
 1703SOL     OW 6007   2.064   1.716   1.334
 1703SOL    HW1 6008   1.991   1.783   1.320
 1703SOL    HW2 6009   2.142   1.761   1.379
 1704SOL     OW 6010   2.942   2.231   0.981
 1704SOL    HW1 6011   2.939   2.219   1.080
 1704SOL    HW2 6012   3.034   2.260   0.954
 1705SOL     OW 6013   4.107   2.479   0.523
 1705SOL    HW1 6014   4.100   2.523   0.613
 1705SOL    HW2 6015   4.202   2.480   0.493
 1706SOL     OW 6016   5.401   2.216   6.740
 1706SOL    HW1 6017   5.431   2.123   6.721
 1706SOL    HW2 6018   5.353   2.220   6.828
 1707SOL     OW 6019   4.656   1.510   2.243
 1707SOL    HW1 6020   4.676   1.495   2.340
 1707SOL    HW2 6021   4.586   1.445   2.213
 1708SOL     OW 6022   3.325   4.888   2.076
 1708SOL    HW1 6023   3.358   4.966   2.022
 1708SOL    HW2 6024   3.377   4.806   2.052
 1709SOL     OW 6025   4.596   5.382   0.789
 1709SOL    HW1 6026   4.605   5.480   0.806
 1709SOL    HW2 6027   4.557   5.338   0.870
 1710SOL     OW 6028   4.985   4.979   3.251
 1710SOL    HW1 6029   5.080   4.951   3.267
 1710SOL    HW2 6030   4.981   5.035   3.168
 1711SOL     OW 6031   4.423   5.104   6.685
 1711SOL    HW1 6032   4.353   5.035   6.699
 1711SOL    HW2 6033   4.388   5.193   6.715
 1712SOL     OW 6034   0.668   1.306   2.482
 1712SOL    HW1 6035   0.677   1.318   2.383
 1712SOL    HW2 6036   0.581   1.343   2.512
 1713SOL     OW 6037   3.829   0.878   2.748
 1713SOL    HW1 6038   3.736   0.906   2.772
 1713SOL    HW2 6039   3.894   0.919   2.813
 1714SOL     OW 6040   3.278   3.714   0.519
 1714SOL    HW1 6041   3.185   3.724   0.553
 1714SOL    HW2 6042   3.330   3.655   0.581
 1715SOL     OW 6043   2.384   6.687   2.708
 1715SOL    HW1 6044   2.297   6.723   2.742
 1715SOL    HW2 6045   2.379   6.587   2.705
 1716SOL     OW 6046   5.011   1.216   3.630
 1716SOL    HW1 6047   4.999   1.262   3.542
 1716SOL    HW2 6048   5.009   1.283   3.704
 1717SOL     OW 6049   3.335   6.472   5.220
 1717SOL    HW1 6050   3.264   6.462   5.289
 1717SOL    HW2 6051   3.403   6.399   5.231
 1718SOL     OW 6052   1.180   2.984   1.150
 1718SOL    HW1 6053   1.207   3.050   1.220
 1718SOL    HW2 6054   1.222   2.895   1.170
 1719SOL     OW 6055   1.318   5.409   2.837
 1719SOL    HW1 6056   1.313   5.314   2.868
 1719SOL    HW2 6057   1.410   5.428   2.800
 1720SOL     OW 6058   0.728   3.159   5.923
 1720SOL    HW1 6059   0.785   3.143   6.003
 1720SOL    HW2 6060   0.785   3.162   5.841
 1721SOL     OW 6061   1.217   2.324   0.795
 1721SOL    HW1 6062   1.204   2.357   0.888
 1721SOL    HW2 6063   1.312   2.341   0.766
 1722SOL     OW 6064   2.425   2.707   3.786
 1722SOL    HW1 6065   2.482   2.671   3.860
 1722SOL    HW2 6066   2.470   2.692   3.698
 1723SOL     OW 6067   5.745   4.116   0.579
 1723SOL    HW1 6068   5.796   4.032   0.560
 1723SOL    HW2 6069   5.678   4.131   0.505
 1724SOL     OW 6070   5.807   2.693   0.962
 1724SOL    HW1 6071   5.879   2.718   1.026
 1724SOL    HW2 6072   5.809   2.756   0.884
 1725SOL     OW 6073   1.587   6.010   6.687
 1725SOL    HW1 6074   1.551   6.101   6.669
 1725SOL    HW2 6075   1.515   5.942   6.671
 1726SOL     OW 6076   5.670   4.474   2.549
 1726SOL    HW1 6077   5.639   4.434   2.635
 1726SOL    HW2 6078   5.755   4.430   2.521
 1727SOL     OW 6079   3.029   4.016   3.269
 1727SOL    HW1 6080   3.064   4.032   3.361
 1727SOL    HW2 6081   3.097   4.044   3.201
 1728SOL     OW 6082   5.349   2.500   3.983
 1728SOL    HW1 6083   5.438   2.475   3.947
 1728SOL    HW2 6084   5.350   2.495   4.083
 1729SOL     OW 6085   1.336   2.734   2.498
 1729SOL    HW1 6086   1.384   2.678   2.430
 1729SOL    HW2 6087   1.390   2.815   2.518
 1730SOL     OW 6088   2.204   5.307   4.337
 1730SOL    HW1 6089   2.162   5.392   4.371
 1730SOL    HW2 6090   2.280   5.329   4.277
 1731SOL     OW 6091   6.381   5.255   3.465
 1731SOL    HW1 6092   6.387   5.264   3.564
 1731SOL    HW2 6093   6.468   5.282   3.423
 1732SOL     OW 6094   2.500   3.421   5.745
 1732SOL    HW1 6095   2.410   3.380   5.732
 1732SOL    HW2 6096   2.557   3.404   5.665
 1733SOL     OW 6097   2.141   3.517   6.253
 1733SOL    HW1 6098   2.212   3.505   6.183
 1733SOL    HW2 6099   2.172   3.475   6.338
 1734SOL     OW 6100   6.411   3.156   1.136
 1734SOL    HW1 6101   6.499   3.113   1.117
 1734SOL    HW2 6102   6.341   3.085   1.143
 1735SOL     OW 6103   4.105   5.417   6.165
 1735SOL    HW1 6104   4.107   5.389   6.261
 1735SOL    HW2 6105   4.047   5.355   6.113
 1736SOL     OW 6106   5.254   2.527   0.636
 1736SOL    HW1 6107   5.197   2.597   0.679
 1736SOL    HW2 6108   5.343   2.523   0.683
 1737SOL     OW 6109   4.409   1.874   5.353
 1737SOL    HW1 6110   4.396   1.870   5.253
 1737SOL    HW2 6111   4.501   1.908   5.373
 1738SOL     OW 6112   1.699   3.446   4.098
 1738SOL    HW1 6113   1.688   3.350   4.072
 1738SOL    HW2 6114   1.613   3.494   4.080
 1739SOL     OW 6115   6.096   0.744   3.533
 1739SOL    HW1 6116   6.065   0.689   3.611
 1739SOL    HW2 6117   6.186   0.713   3.504
 1740SOL     OW 6118   6.269   3.224   4.932
 1740SOL    HW1 6119   6.198   3.154   4.924
 1740SOL    HW2 6120   6.318   3.214   5.018
 1741SOL     OW 6121   0.108   1.748   4.691
 1741SOL    HW1 6122   0.064   1.718   4.607
 1741SOL    HW2 6123   0.154   1.836   4.675
 1742SOL     OW 6124   6.483   5.922   6.332
 1742SOL    HW1 6125   6.391   5.951   6.304
 1742SOL    HW2 6126   6.514   5.848   6.272
 1743SOL     OW 6127   1.778   1.531   2.442
 1743SOL    HW1 6128   1.869   1.571   2.454
 1743SOL    HW2 6129   1.787   1.443   2.394
 1744SOL     OW 6130   3.473   2.121   4.780
 1744SOL    HW1 6131   3.447   2.215   4.758
 1744SOL    HW2 6132   3.447   2.100   4.874
 1745SOL     OW 6133   6.048   6.488   1.262
 1745SOL    HW1 6134   5.962   6.462   1.217
 1745SOL    HW2 6135   6.027   6.542   1.344
 1746SOL     OW 6136   2.565   4.727   3.516
 1746SOL    HW1 6137   2.652   4.757   3.555
 1746SOL    HW2 6138   2.539   4.789   3.442
 1747SOL     OW 6139   4.276   0.314   2.640
 1747SOL    HW1 6140   4.296   0.225   2.600
 1747SOL    HW2 6141   4.242   0.301   2.733
 1748SOL     OW 6142   6.651   2.845   4.908
 1748SOL    HW1 6143   6.588   2.895   4.848
 1748SOL    HW2 6144   6.664   2.897   4.992
 1749SOL     OW 6145   0.582   4.850   0.875
 1749SOL    HW1 6146   0.603   4.874   0.970
 1749SOL    HW2 6147   0.563   4.934   0.823
 1750SOL     OW 6148   3.759   0.228   6.313
 1750SOL    HW1 6149   3.787   0.323   6.320
 1750SOL    HW2 6150   3.839   0.170   6.298
 1751SOL     OW 6151   6.085   2.959   5.171
 1751SOL    HW1 6152   6.161   2.943   5.109
 1751SOL    HW2 6153   6.022   3.025   5.130
 1752SOL     OW 6154   6.880   0.480   2.105
 1752SOL    HW1 6155   6.796   0.443   2.144
 1752SOL    HW2 6156   6.914   0.554   2.163
 1753SOL     OW 6157   6.092   1.233   1.936
 1753SOL    HW1 6158   6.037   1.165   1.887
 1753SOL    HW2 6159   6.045   1.260   2.019
 1754SOL     OW 6160   2.788   5.485   4.188
 1754SOL    HW1 6161   2.807   5.477   4.090
 1754SOL    HW2 6162   2.869   5.523   4.233
 1755SOL     OW 6163   6.102   6.727   4.525
 1755SOL    HW1 6164   6.063   6.648   4.573
 1755SOL    HW2 6165   6.063   6.733   4.433
 1756SOL     OW 6166   5.010   6.550   0.317
 1756SOL    HW1 6167   5.016   6.549   0.417
 1756SOL    HW2 6168   5.098   6.523   0.278
 1757SOL     OW 6169   2.526   5.128   5.113
 1757SOL    HW1 6170   2.620   5.156   5.131
 1757SOL    HW2 6171   2.505   5.140   5.016
 1758SOL     OW 6172   1.744   6.023   4.651
 1758SOL    HW1 6173   1.783   5.945   4.700
 1758SOL    HW2 6174   1.654   6.045   4.690
 1759SOL     OW 6175   1.225   6.349   0.199
 1759SOL    HW1 6176   1.193   6.433   0.243
 1759SOL    HW2 6177   1.323   6.356   0.181
 1760SOL     OW 6178   6.840   0.862   4.692
 1760SOL    HW1 6179   6.827   0.962   4.695
 1760SOL    HW2 6180   6.920   0.838   4.746
 1761SOL     OW 6181   5.745   1.499   2.764
 1761SOL    HW1 6182   5.793   1.453   2.689
 1761SOL    HW2 6183   5.802   1.499   2.846
 1762SOL     OW 6184   1.025   1.392   5.540
 1762SOL    HW1 6185   1.043   1.458   5.467
 1762SOL    HW2 6186   1.063   1.428   5.626
 1763SOL     OW 6187   0.533   3.895   3.874
 1763SOL    HW1 6188   0.577   3.978   3.910
 1763SOL    HW2 6189   0.457   3.921   3.814
 1764SOL     OW 6190   1.400   5.373   3.457
 1764SOL    HW1 6191   1.302   5.354   3.466
 1764SOL    HW2 6192   1.443   5.302   3.402
 1765SOL     OW 6193   5.791   3.558   2.491
 1765SOL    HW1 6194   5.781   3.561   2.590
 1765SOL    HW2 6195   5.746   3.637   2.450
 1766SOL     OW 6196   4.302   4.683   3.820
 1766SOL    HW1 6197   4.241   4.696   3.899
 1766SOL    HW2 6198   4.248   4.652   3.742
 1767SOL     OW 6199   0.265   4.801   2.156
 1767SOL    HW1 6200   0.185   4.762   2.201
 1767SOL    HW2 6201   0.278   4.895   2.188
 1768SOL     OW 6202   5.050   5.317   2.097
 1768SOL    HW1 6203   4.979   5.275   2.040
 1768SOL    HW2 6204   5.050   5.273   2.187
 1769SOL     OW 6205   5.758   0.497   0.362
 1769SOL    HW1 6206   5.724   0.412   0.322
 1769SOL    HW2 6207   5.795   0.478   0.453
 1770SOL     OW 6208   1.628   4.954   0.869
 1770SOL    HW1 6209   1.692   4.879   0.853
 1770SOL    HW2 6210   1.535   4.924   0.848
 1771SOL     OW 6211   2.109   2.893   5.999
 1771SOL    HW1 6212   2.068   2.929   5.916
 1771SOL    HW2 6213   2.056   2.923   6.078
 1772SOL     OW 6214   2.229   4.005   2.639
 1772SOL    HW1 6215   2.142   4.038   2.604
 1772SOL    HW2 6216   2.220   3.909   2.667
 1773SOL     OW 6217   1.969   6.292   6.527
 1773SOL    HW1 6218   1.917   6.278   6.443
 1773SOL    HW2 6219   2.037   6.364   6.513
 1774SOL     OW 6220   5.585   5.590   0.876
 1774SOL    HW1 6221   5.515   5.638   0.929
 1774SOL    HW2 6222   5.620   5.651   0.804
 1775SOL     OW 6223   2.214   5.157   0.357
 1775SOL    HW1 6224   2.302   5.183   0.318
 1775SOL    HW2 6225   2.187   5.223   0.427
 1776SOL     OW 6226   4.729   2.348   5.195
 1776SOL    HW1 6227   4.644   2.397   5.217
 1776SOL    HW2 6228   4.741   2.345   5.096
 1777SOL     OW 6229   5.026   6.652   6.794
 1777SOL    HW1 6230   5.058   6.559   6.811
 1777SOL    HW2 6231   5.070   6.715   6.858
 1778SOL     OW 6232   5.917   0.075   4.005
 1778SOL    HW1 6233   5.971   0.144   3.956
 1778SOL    HW2 6234   5.960   0.056   4.094
 1779SOL     OW 6235   5.464   0.427   3.996
 1779SOL    HW1 6236   5.515   0.477   4.065
 1779SOL    HW2 6237   5.375   0.400   4.033
 1780SOL     OW 6238   2.132   5.037   5.309
 1780SOL    HW1 6239   2.101   5.090   5.230
 1780SOL    HW2 6240   2.127   4.940   5.289
 1781SOL     OW 6241   3.855   0.846   5.362
 1781SOL    HW1 6242   3.942   0.896   5.358
 1781SOL    HW2 6243   3.798   0.885   5.434
 1782SOL     OW 6244   6.302   1.547   2.263
 1782SOL    HW1 6245   6.360   1.510   2.336
 1782SOL    HW2 6246   6.309   1.488   2.182
 1783SOL     OW 6247   2.182   3.969   6.592
 1783SOL    HW1 6248   2.203   4.030   6.516
 1783SOL    HW2 6249   2.185   3.874   6.561
 1784SOL     OW 6250   2.834   6.507   1.711
 1784SOL    HW1 6251   2.792   6.523   1.800
 1784SOL    HW2 6252   2.880   6.418   1.710
 1785SOL     OW 6253   1.284   6.696   4.815
 1785SOL    HW1 6254   1.269   6.602   4.784
 1785SOL    HW2 6255   1.232   6.713   4.898
 1786SOL     OW 6256   1.135   6.356   1.158
 1786SOL    HW1 6257   1.233   6.336   1.154
 1786SOL    HW2 6258   1.115   6.403   1.244
 1787SOL     OW 6259   2.291   3.165   6.092
 1787SOL    HW1 6260   2.372   3.216   6.123
 1787SOL    HW2 6261   2.250   3.119   6.170
 1788SOL     OW 6262   4.470   4.094   1.103
 1788SOL    HW1 6263   4.542   4.024   1.106
 1788SOL    HW2 6264   4.480   4.149   1.021
 1789SOL     OW 6265   6.244   3.824   2.159
 1789SOL    HW1 6266   6.285   3.748   2.109
 1789SOL    HW2 6267   6.152   3.798   2.188
 1790SOL     OW 6268   1.678   2.264   4.659
 1790SOL    HW1 6269   1.615   2.294   4.730
 1790SOL    HW2 6270   1.730   2.342   4.626
 1791SOL     OW 6271   5.022   0.287   3.561
 1791SOL    HW1 6272   4.928   0.301   3.593
 1791SOL    HW2 6273   5.038   0.189   3.549
 1792SOL     OW 6274   0.463   2.040   5.966
 1792SOL    HW1 6275   0.502   2.078   5.882
 1792SOL    HW2 6276   0.515   1.959   5.992
 1793SOL     OW 6277   0.144   0.582   5.745
 1793SOL    HW1 6278   0.183   0.565   5.836
 1793SOL    HW2 6279   0.215   0.620   5.685
 1794SOL     OW 6280   0.994   0.359   5.948
 1794SOL    HW1 6281   1.057   0.421   5.993
 1794SOL    HW2 6282   0.920   0.411   5.905
 1795SOL     OW 6283   5.507   4.299   1.016
 1795SOL    HW1 6284   5.593   4.347   1.033
 1795SOL    HW2 6285   5.501   4.219   1.076
 1796SOL     OW 6286   0.248   0.241   0.061
 1796SOL    HW1 6287   0.328   0.275   0.012
 1796SOL    HW2 6288   0.236   0.144   0.041
 1797SOL     OW 6289   2.150   5.031   5.733
 1797SOL    HW1 6290   2.089   5.066   5.662
 1797SOL    HW2 6291   2.196   5.107   5.777
 1798SOL     OW 6292   2.566   3.805   5.316
 1798SOL    HW1 6293   2.509   3.825   5.236
 1798SOL    HW2 6294   2.508   3.793   5.397
 1799SOL     OW 6295   2.936   1.689   0.839
 1799SOL    HW1 6296   2.864   1.647   0.893
 1799SOL    HW2 6297   2.970   1.623   0.771
 1800SOL     OW 6298   5.691   3.359   5.226
 1800SOL    HW1 6299   5.737   3.415   5.294
 1800SOL    HW2 6300   5.620   3.303   5.271
 1801SOL     OW 6301   1.093   0.356   3.422
 1801SOL    HW1 6302   1.179   0.322   3.384
 1801SOL    HW2 6303   1.072   0.445   3.383
 1802SOL     OW 6304   6.992   5.256   3.984
 1802SOL    HW1 6305   6.960   5.261   4.078
 1802SOL    HW2 6306   6.919   5.284   3.922
 1803SOL     OW 6307   0.474   0.046   3.351
 1803SOL    HW1 6308   0.419   7.006   3.400
 1803SOL    HW2 6309   0.571   0.027   3.367
 1804SOL     OW 6310   2.378   2.956   5.938
 1804SOL    HW1 6311   2.305   2.887   5.941
 1804SOL    HW2 6312   2.362   3.025   6.009
 1805SOL     OW 6313   6.592   5.054   0.916
 1805SOL    HW1 6314   6.603   4.956   0.936
 1805SOL    HW2 6315   6.495   5.078   0.918
 1806SOL     OW 6316   0.079   1.493   1.317
 1806SOL    HW1 6317   0.057   1.558   1.390
 1806SOL    HW2 6318   0.131   1.540   1.245
 1807SOL     OW 6319   7.016   2.289   2.233
 1807SOL    HW1 6320   6.982   2.361   2.294
 1807SOL    HW2 6321   6.943   2.224   2.214
 1808SOL     OW 6322   5.351   1.754   6.275
 1808SOL    HW1 6323   5.258   1.773   6.307
 1808SOL    HW2 6324   5.361   1.655   6.260
 1809SOL     OW 6325   4.752   0.222   5.078
 1809SOL    HW1 6326   4.743   0.303   5.136
 1809SOL    HW2 6327   4.672   0.163   5.091
 1810SOL     OW 6328   0.917   0.420   4.521
 1810SOL    HW1 6329   0.862   0.428   4.438
 1810SOL    HW2 6330   1.000   0.368   4.501
 1811SOL     OW 6331   3.750   5.719   2.073
 1811SOL    HW1 6332   3.728   5.643   2.135
 1811SOL    HW2 6333   3.810   5.685   2.000
 1812SOL     OW 6334   4.733   6.351   6.345
 1812SOL    HW1 6335   4.796   6.273   6.344
 1812SOL    HW2 6336   4.777   6.429   6.301
 1813SOL     OW 6337   4.773   4.251   1.928
 1813SOL    HW1 6338   4.686   4.252   1.977
 1813SOL    HW2 6339   4.756   4.238   1.830
 1814SOL     OW 6340   6.455   6.245   0.539
 1814SOL    HW1 6341   6.534   6.184   0.534
 1814SOL    HW2 6342   6.438   6.269   0.635
 1815SOL     OW 6343   5.415   6.163   1.117
 1815SOL    HW1 6344   5.370   6.252   1.126
 1815SOL    HW2 6345   5.424   6.141   1.019
 1816SOL     OW 6346   4.440   4.770   5.173
 1816SOL    HW1 6347   4.497   4.788   5.092
 1816SOL    HW2 6348   4.345   4.791   5.152
 1817SOL     OW 6349   0.083   2.607   3.841
 1817SOL    HW1 6350   0.108   2.521   3.797
 1817SOL    HW2 6351   0.166   2.660   3.861
 1818SOL     OW 6352   2.685   0.803   0.506
 1818SOL    HW1 6353   2.635   0.787   0.421
 1818SOL    HW2 6354   2.783   0.801   0.487
 1819SOL     OW 6355   1.968   4.142   2.610
 1819SOL    HW1 6356   1.884   4.137   2.663
 1819SOL    HW2 6357   2.021   4.222   2.637
 1820SOL     OW 6358   3.307   0.175   5.253
 1820SOL    HW1 6359   3.260   0.089   5.232
 1820SOL    HW2 6360   3.239   0.244   5.280
 1821SOL     OW 6361   3.537   1.840   2.218
 1821SOL    HW1 6362   3.598   1.864   2.293
 1821SOL    HW2 6363   3.587   1.786   2.150
 1822SOL     OW 6364   0.065   3.387   3.025
 1822SOL    HW1 6365   0.156   3.345   3.026
 1822SOL    HW2 6366   0.007   3.342   3.091
 1823SOL     OW 6367   4.333   6.481   1.922
 1823SOL    HW1 6368   4.292   6.482   2.013
 1823SOL    HW2 6369   4.389   6.399   1.911
 1824SOL     OW 6370   4.294   3.112   1.772
 1824SOL    HW1 6371   4.374   3.070   1.816
 1824SOL    HW2 6372   4.307   3.211   1.767
 1825SOL     OW 6373   0.982   2.666   5.196
 1825SOL    HW1 6374   1.063   2.621   5.233
 1825SOL    HW2 6375   0.999   2.694   5.102
 1826SOL     OW 6376   3.465   1.873   1.610
 1826SOL    HW1 6377   3.441   1.835   1.520
 1826SOL    HW2 6378   3.427   1.965   1.618
 1827SOL     OW 6379   5.573   5.339   0.427
 1827SOL    HW1 6380   5.606   5.266   0.367
 1827SOL    HW2 6381   5.650   5.385   0.471
 1828SOL     OW 6382   1.707   3.630   5.196
 1828SOL    HW1 6383   1.688   3.691   5.272
 1828SOL    HW2 6384   1.806   3.617   5.188
 1829SOL     OW 6385   4.017   0.297   1.861
 1829SOL    HW1 6386   3.984   0.206   1.884
 1829SOL    HW2 6387   3.951   0.341   1.799
 1830SOL     OW 6388   5.108   0.863   6.097
 1830SOL    HW1 6389   5.065   0.911   6.174
 1830SOL    HW2 6390   5.206   0.883   6.095
 1831SOL     OW 6391   3.479   5.215   0.322
 1831SOL    HW1 6392   3.488   5.129   0.373
 1831SOL    HW2 6393   3.491   5.197   0.225
 1832SOL     OW 6394   2.779   2.793   6.737
 1832SOL    HW1 6395   2.867   2.838   6.723
 1832SOL    HW2 6396   2.716   2.856   6.783
 1833SOL     OW 6397   5.336   1.485   6.981
 1833SOL    HW1 6398   5.433   1.494   7.005
 1833SOL    HW2 6399   5.312   1.388   6.976
 1834SOL     OW 6400   0.172   2.792   5.275
 1834SOL    HW1 6401   0.156   2.888   5.296
 1834SOL    HW2 6402   0.267   2.769   5.295
 1835SOL     OW 6403   6.701   6.400   1.256
 1835SOL    HW1 6404   6.755   6.332   1.306
 1835SOL    HW2 6405   6.637   6.445   1.319
 1836SOL     OW 6406   5.485   2.579   2.340
 1836SOL    HW1 6407   5.490   2.591   2.439
 1836SOL    HW2 6408   5.392   2.601   2.309
 1837SOL     OW 6409   3.314   2.070   6.539
 1837SOL    HW1 6410   3.277   2.156   6.574
 1837SOL    HW2 6411   3.282   1.994   6.596
 1838SOL     OW 6412   5.090   0.870   0.731
 1838SOL    HW1 6413   5.032   0.932   0.677
 1838SOL    HW2 6414   5.100   0.907   0.824
 1839SOL     OW 6415   0.033   0.378   0.482
 1839SOL    HW1 6416   6.997   0.425   0.422
 1839SOL    HW2 6417   0.094   0.322   0.426
 1840SOL     OW 6418   4.455   6.298   4.140
 1840SOL    HW1 6419   4.541   6.349   4.144
 1840SOL    HW2 6420   4.444   6.258   4.049
 1841SOL     OW 6421   1.305   1.113   1.890
 1841SOL    HW1 6422   1.227   1.175   1.890
 1841SOL    HW2 6423   1.272   1.019   1.888
 1842SOL     OW 6424   1.088   5.558   1.306
 1842SOL    HW1 6425   1.035   5.618   1.366
 1842SOL    HW2 6426   1.106   5.606   1.219
 1843SOL     OW 6427   2.677   1.101   6.507
 1843SOL    HW1 6428   2.763   1.144   6.535
 1843SOL    HW2 6429   2.683   1.072   6.412
 1844SOL     OW 6430   6.105   2.656   6.208
 1844SOL    HW1 6431   6.178   2.679   6.144
 1844SOL    HW2 6432   6.115   2.711   6.291
 1845SOL     OW 6433   0.944   2.099   3.255
 1845SOL    HW1 6434   1.040   2.123   3.264
 1845SOL    HW2 6435   0.898   2.165   3.196
 1846SOL     OW 6436   2.831   1.622   1.222
 1846SOL    HW1 6437   2.811   1.710   1.265
 1846SOL    HW2 6438   2.928   1.617   1.199
 1847SOL     OW 6439   1.604   5.667   6.013
 1847SOL    HW1 6440   1.523   5.722   6.033
 1847SOL    HW2 6441   1.603   5.641   5.916
 1848SOL     OW 6442   3.900   6.613   3.390
 1848SOL    HW1 6443   3.952   6.542   3.436
 1848SOL    HW2 6444   3.817   6.574   3.350
 1849SOL     OW 6445   4.850   2.580   2.072
 1849SOL    HW1 6446   4.751   2.565   2.074
 1849SOL    HW2 6447   4.870   2.676   2.089
 1850SOL     OW 6448   4.267   2.014   0.390
 1850SOL    HW1 6449   4.346   2.069   0.420
 1850SOL    HW2 6450   4.192   2.076   0.366
 1851SOL     OW 6451   6.999   4.447   4.674
 1851SOL    HW1 6452   0.030   4.526   4.690
 1851SOL    HW2 6453   6.971   4.408   4.762
 1852SOL     OW 6454   0.870   0.492   2.960
 1852SOL    HW1 6455   0.787   0.444   2.931
 1852SOL    HW2 6456   0.859   0.522   3.055
 1853SOL     OW 6457   0.427   2.277   6.136
 1853SOL    HW1 6458   0.504   2.288   6.198
 1853SOL    HW2 6459   0.448   2.207   6.068
 1854SOL     OW 6460   1.027   6.580   3.597
 1854SOL    HW1 6461   1.061   6.643   3.667
 1854SOL    HW2 6462   0.927   6.584   3.593
 1855SOL     OW 6463   5.593   2.881   4.576
 1855SOL    HW1 6464   5.667   2.916   4.633
 1855SOL    HW2 6465   5.632   2.845   4.490
 1856SOL     OW 6466   3.991   3.382   0.172
 1856SOL    HW1 6467   3.990   3.370   0.271
 1856SOL    HW2 6468   3.902   3.414   0.141
 1857SOL     OW 6469   3.629   1.214   6.888
 1857SOL    HW1 6470   3.629   1.117   6.862
 1857SOL    HW2 6471   3.603   1.223   6.984
 1858SOL     OW 6472   4.911   2.442   3.976
 1858SOL    HW1 6473   4.903   2.395   4.063
 1858SOL    HW2 6474   4.897   2.540   3.990
 1859SOL     OW 6475   6.177   1.007   4.010
 1859SOL    HW1 6476   6.118   1.004   4.091
 1859SOL    HW2 6477   6.169   1.098   3.968
 1860SOL     OW 6478   2.193   1.212   5.882
 1860SOL    HW1 6479   2.118   1.178   5.824
 1860SOL    HW2 6480   2.267   1.246   5.824
 1861SOL     OW 6481   6.556   6.390   4.659
 1861SOL    HW1 6482   6.499   6.361   4.582
 1861SOL    HW2 6483   6.516   6.472   4.701
 1862SOL     OW 6484   3.019   5.415   5.195
 1862SOL    HW1 6485   2.990   5.363   5.115
 1862SOL    HW2 6486   3.103   5.375   5.232
 1863SOL     OW 6487   0.354   2.522   1.429
 1863SOL    HW1 6488   0.412   2.447   1.398
 1863SOL    HW2 6489   0.346   2.590   1.356
 1864SOL     OW 6490   3.530   5.901   2.112
 1864SOL    HW1 6491   3.550   5.995   2.141
 1864SOL    HW2 6492   3.615   5.855   2.088
 1865SOL     OW 6493   6.199   2.341   5.912
 1865SOL    HW1 6494   6.167   2.426   5.869
 1865SOL    HW2 6495   6.144   2.321   5.993
 1866SOL     OW 6496   0.532   5.241   3.241
 1866SOL    HW1 6497   0.577   5.308   3.300
 1866SOL    HW2 6498   0.490   5.170   3.297
 1867SOL     OW 6499   0.681   2.592   1.507
 1867SOL    HW1 6500   0.692   2.688   1.481
 1867SOL    HW2 6501   0.708   2.580   1.603
 1868SOL     OW 6502   5.720   3.468   6.869
 1868SOL    HW1 6503   5.647   3.406   6.838
 1868SOL    HW2 6504   5.685   3.527   6.942
 1869SOL     OW 6505   4.894   1.173   4.617
 1869SOL    HW1 6506   4.872   1.077   4.631
 1869SOL    HW2 6507   4.984   1.193   4.658
 1870SOL     OW 6508   6.480   6.473   5.843
 1870SOL    HW1 6509   6.540   6.552   5.834
 1870SOL    HW2 6510   6.472   6.448   5.939
 1871SOL     OW 6511   0.492   6.652   0.009
 1871SOL    HW1 6512   0.497   6.723   0.079
 1871SOL    HW2 6513   0.409   6.664   6.984
 1872SOL     OW 6514   2.869   3.074   1.538
 1872SOL    HW1 6515   2.885   3.025   1.624
 1872SOL    HW2 6516   2.788   3.131   1.546
 1873SOL     OW 6517   6.652   1.063   0.794
 1873SOL    HW1 6518   6.568   1.095   0.750
 1873SOL    HW2 6519   6.662   1.107   0.883
 1874SOL     OW 6520   0.861   5.475   0.766
 1874SOL    HW1 6521   0.904   5.500   0.852
 1874SOL    HW2 6522   0.838   5.559   0.715
 1875SOL     OW 6523   0.379   5.643   1.710
 1875SOL    HW1 6524   0.284   5.629   1.738
 1875SOL    HW2 6525   0.436   5.654   1.792
 1876SOL     OW 6526   0.537   5.500   0.970
 1876SOL    HW1 6527   0.637   5.501   0.979
 1876SOL    HW2 6528   0.498   5.435   1.034
 1877SOL     OW 6529   1.048   1.655   1.959
 1877SOL    HW1 6530   1.048   1.633   2.056
 1877SOL    HW2 6531   0.968   1.711   1.937
 1878SOL     OW 6532   5.544   3.821   3.998
 1878SOL    HW1 6533   5.609   3.888   3.963
 1878SOL    HW2 6534   5.551   3.738   3.943
 1879SOL     OW 6535   4.627   6.480   4.477
 1879SOL    HW1 6536   4.583   6.392   4.494
 1879SOL    HW2 6537   4.628   6.498   4.378
 1880SOL     OW 6538   0.302   1.242   4.280
 1880SOL    HW1 6539   0.294   1.150   4.242
 1880SOL    HW2 6540   0.254   1.247   4.367
 1881SOL     OW 6541   2.176   1.678   3.759
 1881SOL    HW1 6542   2.245   1.696   3.829
 1881SOL    HW2 6543   2.149   1.582   3.763
 1882SOL     OW 6544   1.623   5.091   0.552
 1882SOL    HW1 6545   1.577   5.176   0.523
 1882SOL    HW2 6546   1.620   5.085   0.652
 1883SOL     OW 6547   2.267   2.394   2.999
 1883SOL    HW1 6548   2.285   2.315   2.940
 1883SOL    HW2 6549   2.251   2.362   3.093
 1884SOL     OW 6550   4.191   1.250   0.180
 1884SOL    HW1 6551   4.243   1.185   0.235
 1884SOL    HW2 6552   4.252   1.299   0.119
 1885SOL     OW 6553   0.116   1.582   0.505
 1885SOL    HW1 6554   0.161   1.621   0.425
 1885SOL    HW2 6555   0.166   1.607   0.588
 1886SOL     OW 6556   3.508   2.575   6.440
 1886SOL    HW1 6557   3.578   2.620   6.385
 1886SOL    HW2 6558   3.492   2.483   6.405
 1887SOL     OW 6559   0.857   6.465   4.926
 1887SOL    HW1 6560   0.817   6.552   4.956
 1887SOL    HW2 6561   0.953   6.461   4.955
 1888SOL     OW 6562   1.909   1.780   5.174
 1888SOL    HW1 6563   1.938   1.844   5.245
 1888SOL    HW2 6564   1.810   1.784   5.164
 1889SOL     OW 6565   3.153   2.724   6.830
 1889SOL    HW1 6566   3.239   2.756   6.870
 1889SOL    HW2 6567   3.097   2.682   6.901
 1890SOL     OW 6568   6.122   6.158   0.010
 1890SOL    HW1 6569   6.147   6.169   6.942
 1890SOL    HW2 6570   6.035   6.204   0.027
 1891SOL     OW 6571   5.288   3.675   6.486
 1891SOL    HW1 6572   5.194   3.649   6.508
 1891SOL    HW2 6573   5.289   3.762   6.437
 1892SOL     OW 6574   4.157   7.000   1.909
 1892SOL    HW1 6575   4.205   6.914   1.926
 1892SOL    HW2 6576   4.063   6.992   1.942
 1893SOL     OW 6577   2.953   1.628   5.197
 1893SOL    HW1 6578   2.948   1.632   5.097
 1893SOL    HW2 6579   2.881   1.567   5.231
 1894SOL     OW 6580   5.068   3.779   1.418
 1894SOL    HW1 6581   4.988   3.750   1.471
 1894SOL    HW2 6582   5.070   3.731   1.330
 1895SOL     OW 6583   4.327   0.201   3.723
 1895SOL    HW1 6584   4.329   0.273   3.654
 1895SOL    HW2 6585   4.233   0.190   3.757
 1896SOL     OW 6586   6.120   1.913   6.290
 1896SOL    HW1 6587   6.166   1.993   6.251
 1896SOL    HW2 6588   6.104   1.845   6.219
 1897SOL     OW 6589   5.345   5.242   3.453
 1897SOL    HW1 6590   5.431   5.236   3.503
 1897SOL    HW2 6591   5.363   5.278   3.361
 1898SOL     OW 6592   5.879   6.570   6.928
 1898SOL    HW1 6593   5.877   6.649   6.868
 1898SOL    HW2 6594   5.974   6.540   6.941
 1899SOL     OW 6595   1.352   2.293   2.941
 1899SOL    HW1 6596   1.267   2.281   2.890
 1899SOL    HW2 6597   1.395   2.379   2.915
 1900SOL     OW 6598   2.702   6.288   2.002
 1900SOL    HW1 6599   2.636   6.269   2.074
 1900SOL    HW2 6600   2.699   6.385   1.978
 1901SOL     OW 6601   1.277   1.052   6.218
 1901SOL    HW1 6602   1.242   1.123   6.280
 1901SOL    HW2 6603   1.318   1.096   6.138
 1902SOL     OW 6604   1.841   2.074   5.340
 1902SOL    HW1 6605   1.840   2.172   5.360
 1902SOL    HW2 6606   1.828   2.022   5.425
 1903SOL     OW 6607   6.759   4.398   3.678
 1903SOL    HW1 6608   6.760   4.334   3.601
 1903SOL    HW2 6609   6.817   4.364   3.752
 1904SOL     OW 6610   0.503   0.529   4.553
 1904SOL    HW1 6611   0.486   0.563   4.461
 1904SOL    HW2 6612   0.563   0.449   4.549
 1905SOL     OW 6613   6.331   2.885   4.778
 1905SOL    HW1 6614   6.232   2.871   4.770
 1905SOL    HW2 6615   6.368   2.907   4.688
 1906SOL     OW 6616   2.661   5.885   6.726
 1906SOL    HW1 6617   2.645   5.826   6.805
 1906SOL    HW2 6618   2.691   5.975   6.757
 1907SOL     OW 6619   4.319   6.336   3.653
 1907SOL    HW1 6620   4.297   6.255   3.707
 1907SOL    HW2 6621   4.417   6.337   3.633
 1908SOL     OW 6622   4.861   0.196   6.481
 1908SOL    HW1 6623   4.876   0.280   6.534
 1908SOL    HW2 6624   4.807   0.132   6.535
 1909SOL     OW 6625   4.269   5.172   4.674
 1909SOL    HW1 6626   4.331   5.130   4.608
 1909SOL    HW2 6627   4.220   5.247   4.630
 1910SOL     OW 6628   5.032   2.938   4.329
 1910SOL    HW1 6629   4.938   2.963   4.308
 1910SOL    HW2 6630   5.086   3.020   4.347
 1911SOL     OW 6631   0.116   3.473   5.873
 1911SOL    HW1 6632   0.193   3.515   5.824
 1911SOL    HW2 6633   0.149   3.393   5.923
 1912SOL     OW 6634   2.703   5.747   3.304
 1912SOL    HW1 6635   2.656   5.665   3.274
 1912SOL    HW2 6636   2.732   5.736   3.399
 1913SOL     OW 6637   1.365   4.205   5.469
 1913SOL    HW1 6638   1.394   4.115   5.500
 1913SOL    HW2 6639   1.441   4.269   5.475
 1914SOL     OW 6640   4.395   1.143   5.434
 1914SOL    HW1 6641   4.360   1.086   5.508
 1914SOL    HW2 6642   4.495   1.138   5.433
 1915SOL     OW 6643   3.452   0.676   5.346
 1915SOL    HW1 6644   3.493   0.592   5.311
 1915SOL    HW2 6645   3.358   0.683   5.314
 1916SOL     OW 6646   3.958   6.540   1.639
 1916SOL    HW1 6647   4.028   6.545   1.568
 1916SOL    HW2 6648   3.991   6.585   1.722
 1917SOL     OW 6649   3.554   3.021   4.288
 1917SOL    HW1 6650   3.621   3.079   4.241
 1917SOL    HW2 6651   3.541   3.054   4.382
 1918SOL     OW 6652   6.251   6.474   4.957
 1918SOL    HW1 6653   6.166   6.481   5.009
 1918SOL    HW2 6654   6.329   6.475   5.020
 1919SOL     OW 6655   6.627   6.896   1.580
 1919SOL    HW1 6656   6.599   6.846   1.662
 1919SOL    HW2 6657   6.548   6.946   1.543
 1920SOL     OW 6658   0.032   6.405   4.160
 1920SOL    HW1 6659   6.965   6.425   4.139
 1920SOL    HW2 6660   0.068   6.340   4.094
 1921SOL     OW 6661   1.018   6.683   6.671
 1921SOL    HW1 6662   0.933   6.661   6.624
 1921SOL    HW2 6663   1.011   6.659   6.767
 1922SOL     OW 6664   3.737   4.042   1.119
 1922SOL    HW1 6665   3.758   3.952   1.080
 1922SOL    HW2 6666   3.747   4.039   1.218
 1923SOL     OW 6667   1.801   2.656   1.149
 1923SOL    HW1 6668   1.838   2.635   1.239
 1923SOL    HW2 6669   1.715   2.706   1.158
 1924SOL     OW 6670   1.110   3.291   1.966
 1924SOL    HW1 6671   1.119   3.366   1.900
 1924SOL    HW2 6672   1.200   3.269   2.003
 1925SOL     OW 6673   3.567   4.046   0.259
 1925SOL    HW1 6674   3.549   3.973   0.325
 1925SOL    HW2 6675   3.497   4.043   0.187
 1926SOL     OW 6676   0.914   6.956   3.754
 1926SOL    HW1 6677   0.854   0.005   3.770
 1926SOL    HW2 6678   0.996   6.987   3.705
 1927SOL     OW 6679   4.186   3.711   0.452
 1927SOL    HW1 6680   4.133   3.790   0.420
 1927SOL    HW2 6681   4.198   3.719   0.551
 1928SOL     OW 6682   0.074   5.467   5.625
 1928SOL    HW1 6683   0.153   5.434   5.575
 1928SOL    HW2 6684   0.094   5.557   5.664
 1929SOL     OW 6685   1.678   6.933   3.340
 1929SOL    HW1 6686   1.609   6.884   3.287
 1929SOL    HW2 6687   1.769   6.899   3.315
 1930SOL     OW 6688   6.401   4.675   6.967
 1930SOL    HW1 6689   6.396   4.581   6.933
 1930SOL    HW2 6690   6.343   4.683   0.020
 1931SOL     OW 6691   0.500   2.329   5.318
 1931SOL    HW1 6692   0.448   2.334   5.233
 1931SOL    HW2 6693   0.597   2.317   5.297
 1932SOL     OW 6694   5.960   2.911   2.589
 1932SOL    HW1 6695   5.881   2.926   2.648
 1932SOL    HW2 6696   6.036   2.875   2.643
 1933SOL     OW 6697   2.222   4.363   1.213
 1933SOL    HW1 6698   2.188   4.285   1.160
 1933SOL    HW2 6699   2.158   4.439   1.204
 1934SOL     OW 6700   0.330   5.980   4.750
 1934SOL    HW1 6701   0.324   6.023   4.660
 1934SOL    HW2 6702   0.335   5.880   4.739
 1935SOL     OW 6703   2.375   1.207   3.831
 1935SOL    HW1 6704   2.422   1.289   3.798
 1935SOL    HW2 6705   2.314   1.172   3.759
 1936SOL     OW 6706   6.598   6.080   5.581
 1936SOL    HW1 6707   6.637   5.999   5.625
 1936SOL    HW2 6708   6.665   6.119   5.518
 1937SOL     OW 6709   4.424   0.569   3.132
 1937SOL    HW1 6710   4.509   0.546   3.086
 1937SOL    HW2 6711   4.354   0.501   3.109
 1938SOL     OW 6712   5.205   0.388   3.737
 1938SOL    HW1 6713   5.254   0.302   3.755
 1938SOL    HW2 6714   5.137   0.373   3.665
 1939SOL     OW 6715   2.696   0.479   3.210
 1939SOL    HW1 6716   2.669   0.512   3.119
 1939SOL    HW2 6717   2.684   0.380   3.214
 1940SOL     OW 6718   6.521   5.201   6.974
 1940SOL    HW1 6719   6.610   5.218   6.932
 1940SOL    HW2 6720   6.532   5.142   0.026
 1941SOL     OW 6721   5.176   4.939   2.857
 1941SOL    HW1 6722   5.093   4.889   2.880
 1941SOL    HW2 6723   5.255   4.877   2.861
 1942SOL     OW 6724   6.540   5.099   3.131
 1942SOL    HW1 6725   6.538   5.179   3.071
 1942SOL    HW2 6726   6.625   5.098   3.183
 1943SOL     OW 6727   3.212   5.664   2.412
 1943SOL    HW1 6728   3.158   5.615   2.343
 1943SOL    HW2 6729   3.243   5.751   2.375
 1944SOL     OW 6730   6.295   0.139   2.059
 1944SOL    HW1 6731   6.249   0.051   2.063
 1944SOL    HW2 6732   6.389   0.126   2.026
 1945SOL     OW 6733   3.264   4.949   3.980
 1945SOL    HW1 6734   3.169   4.922   3.995
 1945SOL    HW2 6735   3.268   5.045   3.952
 1946SOL     OW 6736   2.092   0.338   0.308
 1946SOL    HW1 6737   2.120   0.404   0.238
 1946SOL    HW2 6738   2.023   0.379   0.367
 1947SOL     OW 6739   5.288   6.867   3.856
 1947SOL    HW1 6740   5.222   6.827   3.792
 1947SOL    HW2 6741   5.264   6.839   3.949
 1948SOL     OW 6742   6.369   4.211   6.061
 1948SOL    HW1 6743   6.350   4.270   5.982
 1948SOL    HW2 6744   6.394   4.119   6.028
 1949SOL     OW 6745   5.288   3.860   6.846
 1949SOL    HW1 6746   5.302   3.774   6.797
 1949SOL    HW2 6747   5.351   3.866   6.923
 1950SOL     OW 6748   2.682   4.649   1.119
 1950SOL    HW1 6749   2.780   4.642   1.137
 1950SOL    HW2 6750   2.660   4.600   1.034
 1951SOL     OW 6751   0.026   2.352   0.150
 1951SOL    HW1 6752   0.030   2.279   0.081
 1951SOL    HW2 6753   6.968   2.346   0.200
 1952SOL     OW 6754   4.005   2.412   5.547
 1952SOL    HW1 6755   4.037   2.337   5.605
 1952SOL    HW2 6756   4.050   2.407   5.458
 1953SOL     OW 6757   0.192   3.396   5.155
 1953SOL    HW1 6758   0.118   3.446   5.200
 1953SOL    HW2 6759   0.278   3.416   5.203
 1954SOL     OW 6760   2.495   2.096   3.887
 1954SOL    HW1 6761   2.419   2.093   3.822
 1954SOL    HW2 6762   2.515   2.004   3.919
 1955SOL     OW 6763   6.440   5.927   2.222
 1955SOL    HW1 6764   6.512   5.955   2.285
 1955SOL    HW2 6765   6.479   5.864   2.154
 1956SOL     OW 6766   5.892   6.513   2.689
 1956SOL    HW1 6767   5.895   6.557   2.778
 1956SOL    HW2 6768   5.983   6.480   2.665
 1957SOL     OW 6769   0.573   6.577   5.538
 1957SOL    HW1 6770   0.658   6.590   5.588
 1957SOL    HW2 6771   0.569   6.483   5.503
 1958SOL     OW 6772   4.887   3.421   5.724
 1958SOL    HW1 6773   4.800   3.406   5.677
 1958SOL    HW2 6774   4.960   3.372   5.677
 1959SOL     OW 6775   1.799   2.302   6.512
 1959SOL    HW1 6776   1.838   2.217   6.475
 1959SOL    HW2 6777   1.724   2.280   6.575
 1960SOL     OW 6778   5.149   6.459   1.887
 1960SOL    HW1 6779   5.098   6.458   1.801
 1960SOL    HW2 6780   5.085   6.469   1.963
 1961SOL     OW 6781   5.665   5.275   4.662
 1961SOL    HW1 6782   5.604   5.321   4.727
 1961SOL    HW2 6783   5.639   5.298   4.569
 1962SOL     OW 6784   6.957   6.637   3.021
 1962SOL    HW1 6785   6.982   6.729   2.992
 1962SOL    HW2 6786   6.859   6.632   3.036
 1963SOL     OW 6787   1.756   0.110   2.628
 1963SOL    HW1 6788   1.793   0.036   2.573
 1963SOL    HW2 6789   1.760   0.085   2.725
 1964SOL     OW 6790   5.286   4.263   2.285
 1964SOL    HW1 6791   5.341   4.280   2.202
 1964SOL    HW2 6792   5.274   4.165   2.298
 1965SOL     OW 6793   2.322   5.342   3.669
 1965SOL    HW1 6794   2.373   5.268   3.626
 1965SOL    HW2 6795   2.302   5.318   3.764
 1966SOL     OW 6796   6.729   5.873   5.736
 1966SOL    HW1 6797   6.767   5.809   5.669
 1966SOL    HW2 6798   6.792   5.883   5.813
 1967SOL     OW 6799   4.794   2.934   4.177
 1967SOL    HW1 6800   4.825   2.990   4.101
 1967SOL    HW2 6801   4.696   2.916   4.168
 1968SOL     OW 6802   3.436   5.308   5.521
 1968SOL    HW1 6803   3.469   5.328   5.429
 1968SOL    HW2 6804   3.336   5.309   5.522
 1969SOL     OW 6805   6.559   2.115   1.634
 1969SOL    HW1 6806   6.527   2.153   1.721
 1969SOL    HW2 6807   6.619   2.037   1.651
 1970SOL     OW 6808   2.082   6.892   3.761
 1970SOL    HW1 6809   2.013   6.962   3.740
 1970SOL    HW2 6810   2.111   6.902   3.856
 1971SOL     OW 6811   0.383   7.010   6.197
 1971SOL    HW1 6812   0.283   7.016   6.195
 1971SOL    HW2 6813   0.422   0.063   6.155
 1972SOL     OW 6814   1.390   4.874   4.115
 1972SOL    HW1 6815   1.413   4.929   4.195
 1972SOL    HW2 6816   1.441   4.788   4.117
 1973SOL     OW 6817   2.586   3.157   0.231
 1973SOL    HW1 6818   2.680   3.187   0.243
 1973SOL    HW2 6819   2.524   3.221   0.276
 1974SOL     OW 6820   5.913   0.673   4.378
 1974SOL    HW1 6821   5.837   0.737   4.385
 1974SOL    HW2 6822   5.960   0.686   4.291
 1975SOL     OW 6823   2.926   1.032   3.581
 1975SOL    HW1 6824   2.972   1.064   3.664
 1975SOL    HW2 6825   2.830   1.057   3.585
 1976SOL     OW 6826   6.935   4.850   0.231
 1976SOL    HW1 6827   6.845   4.820   0.260
 1976SOL    HW2 6828   7.003   4.778   0.249
 1977SOL     OW 6829   2.194   2.587   5.095
 1977SOL    HW1 6830   2.171   2.631   5.182
 1977SOL    HW2 6831   2.275   2.632   5.056
 1978SOL     OW 6832   6.587   1.402   5.023
 1978SOL    HW1 6833   6.675   1.379   4.984
 1978SOL    HW2 6834   6.567   1.339   5.099
 1979SOL     OW 6835   6.023   5.042   3.206
 1979SOL    HW1 6836   5.972   4.968   3.250
 1979SOL    HW2 6837   6.115   5.047   3.245
 1980SOL     OW 6838   4.019   0.284   1.549
 1980SOL    HW1 6839   3.938   0.301   1.605
 1980SOL    HW2 6840   4.060   0.372   1.523
 1981SOL     OW 6841   4.646   3.226   1.678
 1981SOL    HW1 6842   4.621   3.175   1.761
 1981SOL    HW2 6843   4.719   3.291   1.699
 1982SOL     OW 6844   5.834   6.840   4.954
 1982SOL    HW1 6845   5.857   6.898   5.032
 1982SOL    HW2 6846   5.824   6.746   4.984
 1983SOL     OW 6847   0.893   3.817   2.696
 1983SOL    HW1 6848   0.897   3.771   2.785
 1983SOL    HW2 6849   0.819   3.778   2.641
 1984SOL     OW 6850   4.028   0.726   5.719
 1984SOL    HW1 6851   4.059   0.669   5.643
 1984SOL    HW2 6852   4.106   0.756   5.773
 1985SOL     OW 6853   1.560   0.065   1.493
 1985SOL    HW1 6854   1.540   0.063   1.396
 1985SOL    HW2 6855   1.597   0.155   1.518
 1986SOL     OW 6856   1.091   1.830   6.158
 1986SOL    HW1 6857   1.159   1.832   6.085
 1986SOL    HW2 6858   1.025   1.904   6.144
 1987SOL     OW 6859   2.348   3.332   0.003
 1987SOL    HW1 6860   2.401   3.248   0.017
 1987SOL    HW2 6861   2.398   3.410   0.041
 1988SOL     OW 6862   5.070   3.077   0.010
 1988SOL    HW1 6863   5.001   3.149   0.003
 1988SOL    HW2 6864   5.080   3.049   0.106
 1989SOL     OW 6865   2.565   0.630   4.405
 1989SOL    HW1 6866   2.663   0.643   4.392
 1989SOL    HW2 6867   2.517   0.716   4.388
 1990SOL     OW 6868   2.336   1.131   2.643
 1990SOL    HW1 6869   2.283   1.203   2.598
 1990SOL    HW2 6870   2.433   1.145   2.626
 1991SOL     OW 6871   4.008   5.609   4.475
 1991SOL    HW1 6872   4.086   5.650   4.428
 1991SOL    HW2 6873   4.040   5.550   4.549
 1992SOL     OW 6874   2.182   0.001   5.826
 1992SOL    HW1 6875   2.102   0.061   5.818
 1992SOL    HW2 6876   2.262   0.046   5.786
 1993SOL     OW 6877   3.747   3.228   4.840
 1993SOL    HW1 6878   3.810   3.150   4.848
 1993SOL    HW2 6879   3.781   3.291   4.770
 1994SOL     OW 6880   6.193   2.699   2.118
 1994SOL    HW1 6881   6.158   2.624   2.174
 1994SOL    HW2 6882   6.130   2.776   2.123
 1995SOL     OW 6883   4.929   2.511   1.194
 1995SOL    HW1 6884   4.953   2.601   1.232
 1995SOL    HW2 6885   5.013   2.460   1.175
 1996SOL     OW 6886   2.926   4.125   7.018
 1996SOL    HW1 6887   2.833   4.148   6.988
 1996SOL    HW2 6888   2.985   4.115   6.938
 1997SOL     OW 6889   5.349   0.690   3.798
 1997SOL    HW1 6890   5.290   0.609   3.803
 1997SOL    HW2 6891   5.436   0.665   3.756
 1998SOL     OW 6892   3.037   4.796   5.225
 1998SOL    HW1 6893   3.007   4.736   5.151
 1998SOL    HW2 6894   2.972   4.791   5.301
 1999SOL     OW 6895   2.002   1.215   2.439
 1999SOL    HW1 6896   1.988   1.121   2.407
 1999SOL    HW2 6897   1.949   1.278   2.382
 2000SOL     OW 6898   3.944   2.057   4.890
 2000SOL    HW1 6899   3.846   2.076   4.900
 2000SOL    HW2 6900   3.994   2.099   4.965
 2001SOL     OW 6901   3.115   2.875   0.514
 2001SOL    HW1 6902   3.133   2.908   0.421
 2001SOL    HW2 6903   3.018   2.854   0.525
 2002SOL     OW 6904   1.928   4.622   5.154
 2002SOL    HW1 6905   2.015   4.668   5.173
 2002SOL    HW2 6906   1.941   4.523   5.153
 2003SOL     OW 6907   6.298   5.703   3.706
 2003SOL    HW1 6908   6.264   5.782   3.758
 2003SOL    HW2 6909   6.368   5.656   3.760
 2004SOL     OW 6910   3.132   0.769   6.151
 2004SOL    HW1 6911   3.062   0.718   6.102
 2004SOL    HW2 6912   3.144   0.859   6.109
 2005SOL     OW 6913   2.994   6.374   6.079
 2005SOL    HW1 6914   3.058   6.405   6.149
 2005SOL    HW2 6915   3.039   6.308   6.019
 2006SOL     OW 6916   3.764   5.260   3.910
 2006SOL    HW1 6917   3.743   5.357   3.899
 2006SOL    HW2 6918   3.795   5.243   4.004
 2007SOL     OW 6919   6.142   4.992   0.543
 2007SOL    HW1 6920   6.044   4.975   0.538
 2007SOL    HW2 6921   6.168   5.012   0.638
 2008SOL     OW 6922   0.547   5.699   4.042
 2008SOL    HW1 6923   0.576   5.674   4.134
 2008SOL    HW2 6924   0.450   5.720   4.042
 2009SOL     OW 6925   0.498   0.152   1.534
 2009SOL    HW1 6926   0.462   0.225   1.476
 2009SOL    HW2 6927   0.590   0.127   1.502
 2010SOL     OW 6928   1.666   0.147   0.829
 2010SOL    HW1 6929   1.623   0.124   0.742
 2010SOL    HW2 6930   1.749   0.199   0.813
 2011SOL     OW 6931   6.768   2.730   5.236
 2011SOL    HW1 6932   6.718   2.718   5.322
 2011SOL    HW2 6933   6.711   2.697   5.160
 2012SOL     OW 6934   0.730   3.706   1.332
 2012SOL    HW1 6935   0.756   3.726   1.238
 2012SOL    HW2 6936   0.688   3.616   1.337
 2013SOL     OW 6937   4.454   1.288   2.194
 2013SOL    HW1 6938   4.418   1.206   2.241
 2013SOL    HW2 6939   4.413   1.295   2.103
 2014SOL     OW 6940   2.466   5.733   3.543
 2014SOL    HW1 6941   2.450   5.828   3.518
 2014SOL    HW2 6942   2.388   5.698   3.594
 2015SOL     OW 6943   2.952   6.777   7.006
 2015SOL    HW1 6944   3.004   6.811   6.928
 2015SOL    HW2 6945   2.885   6.846   0.005
 2016SOL     OW 6946   6.417   5.252   3.744
 2016SOL    HW1 6947   6.514   5.226   3.745
 2016SOL    HW2 6948   6.361   5.174   3.773
 2017SOL     OW 6949   2.936   5.753   2.283
 2017SOL    HW1 6950   2.989   5.764   2.199
 2017SOL    HW2 6951   2.956   5.828   2.345
 2018SOL     OW 6952   0.710   5.149   5.956
 2018SOL    HW1 6953   0.651   5.136   5.876
 2018SOL    HW2 6954   0.736   5.245   5.962
 2019SOL     OW 6955   6.097   1.735   2.275
 2019SOL    HW1 6956   6.042   1.723   2.358
 2019SOL    HW2 6957   6.169   1.665   2.272
 2020SOL     OW 6958   1.971   6.006   3.066
 2020SOL    HW1 6959   1.978   6.015   3.165
 2020SOL    HW2 6960   1.921   5.923   3.044
 2021SOL     OW 6961   0.829   6.846   1.834
 2021SOL    HW1 6962   0.914   6.813   1.873
 2021SOL    HW2 6963   0.799   6.928   1.882
 2022SOL     OW 6964   2.414   4.085   1.103
 2022SOL    HW1 6965   2.326   4.048   1.133
 2022SOL    HW2 6966   2.437   4.165   1.158
 2023SOL     OW 6967   6.600   1.075   6.144
 2023SOL    HW1 6968   6.643   1.166   6.145
 2023SOL    HW2 6969   6.513   1.081   6.096
 2024SOL     OW 6970   5.973   0.979   3.602
 2024SOL    HW1 6971   6.032   0.904   3.571
 2024SOL    HW2 6972   5.920   0.949   3.681
 2025SOL     OW 6973   0.179   1.193   1.446
 2025SOL    HW1 6974   0.096   1.249   1.445
 2025SOL    HW2 6975   0.259   1.253   1.456
 2026SOL     OW 6976   1.609   1.386   5.195
 2026SOL    HW1 6977   1.650   1.372   5.285
 2026SOL    HW2 6978   1.518   1.425   5.206
 2027SOL     OW 6979   0.345   1.737   2.754
 2027SOL    HW1 6980   0.273   1.673   2.729
 2027SOL    HW2 6981   0.419   1.732   2.687
 2028SOL     OW 6982   4.354   3.157   6.589
 2028SOL    HW1 6983   4.336   3.135   6.493
 2028SOL    HW2 6984   4.323   3.081   6.647
 2029SOL     OW 6985   1.714   0.615   0.249
 2029SOL    HW1 6986   1.725   0.521   0.216
 2029SOL    HW2 6987   1.617   0.632   0.267
 2030SOL     OW 6988   1.538   0.768   3.422
 2030SOL    HW1 6989   1.604   0.825   3.372
 2030SOL    HW2 6990   1.452   0.765   3.371
 2031SOL     OW 6991   5.091   6.948   2.444
 2031SOL    HW1 6992   5.186   6.958   2.414
 2031SOL    HW2 6993   5.077   7.001   2.527
 2032SOL     OW 6994   5.037   6.459   1.327
 2032SOL    HW1 6995   4.979   6.378   1.340
 2032SOL    HW2 6996   4.979   6.541   1.324
 2033SOL     OW 6997   5.840   5.100   0.021
 2033SOL    HW1 6998   5.786   5.157   6.987
 2033SOL    HW2 6999   5.813   5.004   0.011
 2034SOL     OW 7000   2.164   0.019   2.896
 2034SOL    HW1 7001   2.109   6.966   2.913
 2034SOL    HW2 7002   2.189   0.061   2.983
 2035SOL     OW 7003   1.040   3.035   1.899
 2035SOL    HW1 7004   1.036   3.134   1.892
 2035SOL    HW2 7005   1.089   3.009   1.982
 2036SOL     OW 7006   1.685   4.715   0.556
 2036SOL    HW1 7007   1.638   4.639   0.602
 2036SOL    HW2 7008   1.623   4.757   0.490
 2037SOL     OW 7009   0.180   1.246   6.096
 2037SOL    HW1 7010   0.168   1.317   6.026
 2037SOL    HW2 7011   0.201   1.289   6.183
 2038SOL     OW 7012   0.727   0.725   4.703
 2038SOL    HW1 7013   0.642   0.706   4.654
 2038SOL    HW2 7014   0.709   0.789   4.777
 2039SOL     OW 7015   0.876   5.936   2.433
 2039SOL    HW1 7016   0.863   5.837   2.425
 2039SOL    HW2 7017   0.959   5.964   2.384
 2040SOL     OW 7018   3.773   3.665   4.482
 2040SOL    HW1 7019   3.789   3.638   4.387
 2040SOL    HW2 7020   3.705   3.604   4.523
 2041SOL     OW 7021   5.924   4.213   6.213
 2041SOL    HW1 7022   5.980   4.150   6.159
 2041SOL    HW2 7023   5.940   4.306   6.182
 2042SOL     OW 7024   3.866   5.621   6.552
 2042SOL    HW1 7025   3.939   5.595   6.614
 2042SOL    HW2 7026   3.895   5.700   6.498
 2043SOL     OW 7027   4.710   4.513   2.397
 2043SOL    HW1 7028   4.700   4.611   2.384
 2043SOL    HW2 7029   4.802   4.485   2.367
 2044SOL     OW 7030   6.382   0.442   2.094
 2044SOL    HW1 7031   6.394   0.400   2.004
 2044SOL    HW2 7032   6.296   0.493   2.096
 2045SOL     OW 7033   1.722   5.342   6.178
 2045SOL    HW1 7034   1.706   5.248   6.209
 2045SOL    HW2 7035   1.807   5.376   6.219
 2046SOL     OW 7036   6.298   0.417   4.937
 2046SOL    HW1 7037   6.213   0.468   4.924
 2046SOL    HW2 7038   6.279   0.319   4.933
 2047SOL     OW 7039   5.687   2.559   0.096
 2047SOL    HW1 7040   5.749   2.631   0.066
 2047SOL    HW2 7041   5.621   2.598   0.161
 2048SOL     OW 7042   4.305   0.136   5.585
 2048SOL    HW1 7043   4.263   0.129   5.494
 2048SOL    HW2 7044   4.404   0.150   5.575
 2049SOL     OW 7045   5.046   0.150   0.412
 2049SOL    HW1 7046   4.997   0.203   0.481
 2049SOL    HW2 7047   5.121   0.100   0.456
 2050SOL     OW 7048   5.760   2.080   3.829
 2050SOL    HW1 7049   5.678   2.081   3.886
 2050SOL    HW2 7050   5.779   1.986   3.799
 2051SOL     OW 7051   1.902   5.119   0.712
 2051SOL    HW1 7052   1.941   5.102   0.802
 2051SOL    HW2 7053   1.802   5.120   0.719
 2052SOL     OW 7054   1.255   3.462   0.636
 2052SOL    HW1 7055   1.238   3.506   0.725
 2052SOL    HW2 7056   1.331   3.509   0.591
 2053SOL     OW 7057   5.276   0.363   0.443
 2053SOL    HW1 7058   5.233   0.359   0.352
 2053SOL    HW2 7059   5.207   0.343   0.512
 2054SOL     OW 7060   6.334   3.088   0.751
 2054SOL    HW1 7061   6.403   3.076   0.679
 2054SOL    HW2 7062   6.367   3.154   0.818
 2055SOL     OW 7063   6.245   2.888   3.963
 2055SOL    HW1 7064   6.227   2.931   4.051
 2055SOL    HW2 7065   6.344   2.875   3.952
 2056SOL     OW 7066   1.304   0.792   3.292
 2056SOL    HW1 7067   1.210   0.802   3.322
 2056SOL    HW2 7068   1.306   0.747   3.202
 2057SOL     OW 7069   7.004   2.919   4.030
 2057SOL    HW1 7070   6.947   2.862   3.971
 2057SOL    HW2 7071   0.067   2.878   4.037
 2058SOL     OW 7072   6.732   2.402   2.060
 2058SOL    HW1 7073   6.642   2.398   2.103
 2058SOL    HW2 7074   6.786   2.474   2.104
 2059SOL     OW 7075   1.773   1.504   6.733
 2059SOL    HW1 7076   1.735   1.415   6.758
 2059SOL    HW2 7077   1.800   1.554   6.816
 2060SOL     OW 7078   0.772   5.529   2.626
 2060SOL    HW1 7079   0.687   5.577   2.605
 2060SOL    HW2 7080   0.802   5.553   2.718
 2061SOL     OW 7081   6.429   1.407   1.933
 2061SOL    HW1 7082   6.408   1.374   2.025
 2061SOL    HW2 7083   6.347   1.449   1.894
 2062SOL     OW 7084   4.042   0.892   3.254
 2062SOL    HW1 7085   4.087   0.981   3.267
 2062SOL    HW2 7086   3.945   0.905   3.238
 2063SOL     OW 7087   2.028   2.418   6.650
 2063SOL    HW1 7088   1.931   2.394   6.657
 2063SOL    HW2 7089   2.037   2.515   6.630
 2064SOL     OW 7090   0.849   2.322   0.318
 2064SOL    HW1 7091   0.759   2.286   0.293
 2064SOL    HW2 7092   0.898   2.350   0.235
 2065SOL     OW 7093   6.400   3.215   2.105
 2065SOL    HW1 7094   6.469   3.216   2.177
 2065SOL    HW2 7095   6.444   3.229   2.017
 2066SOL     OW 7096   1.694   6.475   4.494
 2066SOL    HW1 7097   1.634   6.396   4.481
 2066SOL    HW2 7098   1.729   6.505   4.406
 2067SOL     OW 7099   6.802   0.194   1.057
 2067SOL    HW1 7100   6.759   0.157   1.140
 2067SOL    HW2 7101   6.900   0.205   1.072
 2068SOL     OW 7102   1.928   1.902   4.892
 2068SOL    HW1 7103   1.950   1.901   4.990
 2068SOL    HW2 7104   2.010   1.878   4.840
 2069SOL     OW 7105   0.371   1.867   1.711
 2069SOL    HW1 7106   0.356   1.945   1.771
 2069SOL    HW2 7107   0.429   1.800   1.759
 2070SOL     OW 7108   0.795   0.988   3.007
 2070SOL    HW1 7109   0.765   1.083   2.998
 2070SOL    HW2 7110   0.716   0.928   3.010
 2071SOL     OW 7111   1.430   6.656   4.433
 2071SOL    HW1 7112   1.476   6.568   4.444
 2071SOL    HW2 7113   1.381   6.678   4.517
 2072SOL     OW 7114   4.923   5.487   1.796
 2072SOL    HW1 7115   5.003   5.494   1.735
 2072SOL    HW2 7116   4.940   5.539   1.879
 2073SOL     OW 7117   2.524   0.122   5.939
 2073SOL    HW1 7118   2.549   0.153   6.031
 2073SOL    HW2 7119   2.497   0.026   5.942
 2074SOL     OW 7120   5.667   1.339   2.364
 2074SOL    HW1 7121   5.650   1.293   2.277
 2074SOL    HW2 7122   5.616   1.425   2.365
 2075SOL     OW 7123   4.521   3.652   6.419
 2075SOL    HW1 7124   4.515   3.615   6.326
 2075SOL    HW2 7125   4.447   3.717   6.434
 2076SOL     OW 7126   4.782   0.204   1.184
 2076SOL    HW1 7127   4.767   0.303   1.173
 2076SOL    HW2 7128   4.788   0.162   1.094
 2077SOL     OW 7129   5.491   0.762   2.502
 2077SOL    HW1 7130   5.395   0.790   2.501
 2077SOL    HW2 7131   5.532   0.788   2.589
 2078SOL     OW 7132   3.523   5.246   5.263
 2078SOL    HW1 7133   3.614   5.287   5.267
 2078SOL    HW2 7134   3.531   5.148   5.247
 2079SOL     OW 7135   5.566   1.445   3.946
 2079SOL    HW1 7136   5.573   1.350   3.976
 2079SOL    HW2 7137   5.469   1.470   3.939
 2080SOL     OW 7138   2.709   2.454   4.231
 2080SOL    HW1 7139   2.745   2.495   4.147
 2080SOL    HW2 7140   2.774   2.386   4.265
 2081SOL     OW 7141   0.460   6.375   5.049
 2081SOL    HW1 7142   0.505   6.454   5.008
 2081SOL    HW2 7143   0.361   6.387   5.043
 2082SOL     OW 7144   5.360   0.627   1.141
 2082SOL    HW1 7145   5.295   0.600   1.212
 2082SOL    HW2 7146   5.329   0.594   1.052
 2083SOL     OW 7147   3.063   5.641   5.548
 2083SOL    HW1 7148   2.990   5.605   5.606
 2083SOL    HW2 7149   3.061   5.741   5.551
 2084SOL     OW 7150   0.157   3.096   3.096
 2084SOL    HW1 7151   0.253   3.089   3.068
 2084SOL    HW2 7152   0.145   3.050   3.184
 2085SOL     OW 7153   5.462   6.935   5.953
 2085SOL    HW1 7154   5.519   6.964   6.030
 2085SOL    HW2 7155   5.468   7.004   5.880
 2086SOL     OW 7156   3.078   5.167   0.526
 2086SOL    HW1 7157   3.052   5.258   0.557
 2086SOL    HW2 7158   2.996   5.111   0.514
 2087SOL     OW 7159   5.073   6.726   3.721
 2087SOL    HW1 7160   4.990   6.769   3.756
 2087SOL    HW2 7161   5.079   6.741   3.622
 2088SOL     OW 7162   3.308   7.017   0.241
 2088SOL    HW1 7163   3.406   6.996   0.233
 2088SOL    HW2 7164   3.255   6.936   0.219
 2089SOL     OW 7165   3.594   0.463   6.959
 2089SOL    HW1 7166   3.532   0.460   6.881
 2089SOL    HW2 7167   3.689   0.468   6.926
 2090SOL     OW 7168   3.364   3.367   4.268
 2090SOL    HW1 7169   3.447   3.352   4.323
 2090SOL    HW2 7170   3.325   3.456   4.291
 2091SOL     OW 7171   2.142   4.729   0.787
 2091SOL    HW1 7172   2.149   4.631   0.808
 2091SOL    HW2 7173   2.072   4.743   0.717
 2092SOL     OW 7174   6.298   5.962   0.781
 2092SOL    HW1 7175   6.265   6.005   0.865
 2092SOL    HW2 7176   6.395   5.982   0.770
 2093SOL     OW 7177   1.210   2.479   1.885
 2093SOL    HW1 7178   1.143   2.419   1.842
 2093SOL    HW2 7179   1.239   2.550   1.820
 2094SOL     OW 7180   5.913   6.841   2.317
 2094SOL    HW1 7181   5.973   6.900   2.372
 2094SOL    HW2 7182   5.955   6.751   2.308
 2095SOL     OW 7183   6.225   5.021   4.795
 2095SOL    HW1 7184   6.294   5.027   4.723
 2095SOL    HW2 7185   6.212   5.111   4.836
 2096SOL     OW 7186   4.583   4.405   2.918
 2096SOL    HW1 7187   4.590   4.472   2.844
 2096SOL    HW2 7188   4.608   4.314   2.884
 2097SOL     OW 7189   0.137   2.779   0.140
 2097SOL    HW1 7190   0.147   2.754   0.236
 2097SOL    HW2 7191   0.113   2.876   0.133
 2098SOL     OW 7192   4.224   0.690   4.358
 2098SOL    HW1 7193   4.164   0.763   4.323
 2098SOL    HW2 7194   4.189   0.601   4.330
 2099SOL     OW 7195   3.287   1.901   4.237
 2099SOL    HW1 7196   3.351   1.863   4.171
 2099SOL    HW2 7197   3.193   1.886   4.204
 2100SOL     OW 7198   4.336   3.918   6.711
 2100SOL    HW1 7199   4.304   4.013   6.712
 2100SOL    HW2 7200   4.318   3.877   6.622
 2101SOL     OW 7201   0.053   0.040   3.664
 2101SOL    HW1 7202   0.138   0.089   3.681
 2101SOL    HW2 7203   7.010   0.105   3.638
 2102SOL     OW 7204   0.033   4.992   2.201
 2102SOL    HW1 7205   0.031   4.906   2.252
 2102SOL    HW2 7206   7.013   5.063   2.252
 2103SOL     OW 7207   3.454   4.142   6.514
 2103SOL    HW1 7208   3.432   4.113   6.607
 2103SOL    HW2 7209   3.407   4.082   6.448
 2104SOL     OW 7210   1.097   3.654   5.408
 2104SOL    HW1 7211   1.132   3.687   5.320
 2104SOL    HW2 7212   1.069   3.732   5.464
 2105SOL     OW 7213   5.813   5.582   1.813
 2105SOL    HW1 7214   5.736   5.637   1.782
 2105SOL    HW2 7215   5.898   5.625   1.786
 2106SOL     OW 7216   5.057   5.593   6.877
 2106SOL    HW1 7217   5.023   5.516   6.823
 2106SOL    HW2 7218   4.991   5.613   6.950
 2107SOL     OW 7219   4.167   4.016   6.293
 2107SOL    HW1 7220   4.255   4.047   6.257
 2107SOL    HW2 7221   4.100   4.013   6.219
 2108SOL     OW 7222   5.274   5.058   6.055
 2108SOL    HW1 7223   5.193   5.013   6.094
 2108SOL    HW2 7224   5.317   4.997   5.988
 2109SOL     OW 7225   5.552   0.059   2.955
 2109SOL    HW1 7226   5.477   7.022   2.947
 2109SOL    HW2 7227   5.603   0.042   3.040
 2110SOL     OW 7228   2.339   4.672   6.299
 2110SOL    HW1 7229   2.359   4.590   6.246
 2110SOL    HW2 7230   2.252   4.710   6.270
 2111SOL     OW 7231   1.090   2.831   6.866
 2111SOL    HW1 7232   1.036   2.912   6.847
 2111SOL    HW2 7233   1.185   2.846   6.839
 2112SOL     OW 7234   4.671   3.204   1.417
 2112SOL    HW1 7235   4.648   3.218   1.513
 2112SOL    HW2 7236   4.587   3.193   1.364
 2113SOL     OW 7237   6.782   0.867   2.640
 2113SOL    HW1 7238   6.824   0.958   2.642
 2113SOL    HW2 7239   6.751   0.843   2.732
 2114SOL     OW 7240   2.285   4.117   6.796
 2114SOL    HW1 7241   2.347   4.070   6.858
 2114SOL    HW2 7242   2.249   4.052   6.729
 2115SOL     OW 7243   2.501   4.734   2.488
 2115SOL    HW1 7244   2.510   4.796   2.566
 2115SOL    HW2 7245   2.538   4.778   2.406
 2116SOL     OW 7246   0.105   4.168   3.287
 2116SOL    HW1 7247   0.047   4.242   3.321
 2116SOL    HW2 7248   0.139   4.191   3.196
 2117SOL     OW 7249   0.186   4.715   1.076
 2117SOL    HW1 7250   0.104   4.749   1.029
 2117SOL    HW2 7251   0.166   4.703   1.173
 2118SOL     OW 7252   6.749   3.887   2.198
 2118SOL    HW1 7253   6.840   3.864   2.232
 2118SOL    HW2 7254   6.756   3.953   2.123
 2119SOL     OW 7255   2.944   6.264   1.459
 2119SOL    HW1 7256   2.850   6.233   1.444
 2119SOL    HW2 7257   2.968   6.331   1.389
 2120SOL     OW 7258   6.931   5.225   2.231
 2120SOL    HW1 7259   6.873   5.282   2.290
 2120SOL    HW2 7260   6.888   5.213   2.142
 2121SOL     OW 7261   0.932   4.921   4.728
 2121SOL    HW1 7262   0.843   4.891   4.693
 2121SOL    HW2 7263   0.920   4.998   4.790
 2122SOL     OW 7264   4.761   4.147   4.963
 2122SOL    HW1 7265   4.717   4.089   5.033
 2122SOL    HW2 7266   4.710   4.232   4.953
 2123SOL     OW 7267   6.185   4.924   3.527
 2123SOL    HW1 7268   6.140   4.847   3.483
 2123SOL    HW2 7269   6.210   4.992   3.458
 2124SOL     OW 7270   2.182   2.039   0.596
 2124SOL    HW1 7271   2.167   1.942   0.620
 2124SOL    HW2 7272   2.128   2.096   0.658
 2125SOL     OW 7273   3.100   6.977   0.568
 2125SOL    HW1 7274   3.192   6.952   0.597
 2125SOL    HW2 7275   3.067   6.910   0.501
 2126SOL     OW 7276   2.864   0.755   0.887
 2126SOL    HW1 7277   2.899   0.816   0.958
 2126SOL    HW2 7278   2.940   0.720   0.832
 2127SOL     OW 7279   5.340   3.475   5.048
 2127SOL    HW1 7280   5.265   3.410   5.039
 2127SOL    HW2 7281   5.308   3.557   5.095
 2128SOL     OW 7282   0.548   4.995   4.267
 2128SOL    HW1 7283   0.533   5.076   4.324
 2128SOL    HW2 7284   0.635   4.953   4.291
 2129SOL     OW 7285   3.798   1.978   5.780
 2129SOL    HW1 7286   3.834   1.986   5.873
 2129SOL    HW2 7287   3.863   1.927   5.723
 2130SOL     OW 7288   4.316   6.347   2.932
 2130SOL    HW1 7289   4.244   6.414   2.949
 2130SOL    HW2 7290   4.401   6.395   2.909
 2131SOL     OW 7291   6.715   1.995   0.120
 2131SOL    HW1 7292   6.688   2.033   0.031
 2131SOL    HW2 7293   6.725   1.896   0.112
 2132SOL     OW 7294   2.280   3.241   0.668
 2132SOL    HW1 7295   2.286   3.141   0.671
 2132SOL    HW2 7296   2.205   3.272   0.727
 2133SOL     OW 7297   3.051   2.606   5.606
 2133SOL    HW1 7298   3.065   2.542   5.682
 2133SOL    HW2 7299   2.965   2.655   5.620
 2134SOL     OW 7300   1.020   0.071   0.736
 2134SOL    HW1 7301   0.989   0.069   0.641
 2134SOL    HW2 7302   1.101   0.014   0.747
 2135SOL     OW 7303   0.549   3.747   4.124
 2135SOL    HW1 7304   0.524   3.803   4.045
 2135SOL    HW2 7305   0.627   3.690   4.102
 2136SOL     OW 7306   1.962   5.344   1.934
 2136SOL    HW1 7307   1.960   5.361   2.032
 2136SOL    HW2 7308   1.932   5.426   1.885
 2137SOL     OW 7309   2.147   5.531   4.501
 2137SOL    HW1 7310   2.190   5.488   4.580
 2137SOL    HW2 7311   2.175   5.626   4.495
 2138SOL     OW 7312   4.963   1.520   1.853
 2138SOL    HW1 7313   5.052   1.562   1.833
 2138SOL    HW2 7314   4.900   1.540   1.778
 2139SOL     OW 7315   2.582   0.832   5.446
 2139SOL    HW1 7316   2.550   0.868   5.359
 2139SOL    HW2 7317   2.515   0.853   5.517
 2140SOL     OW 7318   2.395   1.190   5.407
 2140SOL    HW1 7319   2.415   1.182   5.505
 2140SOL    HW2 7320   2.453   1.126   5.356
 2141SOL     OW 7321   6.486   4.419   2.517
 2141SOL    HW1 7322   6.572   4.413   2.465
 2141SOL    HW2 7323   6.501   4.471   2.601
 2142SOL     OW 7324   1.607   1.750   2.972
 2142SOL    HW1 7325   1.660   1.835   2.977
 2142SOL    HW2 7326   1.516   1.769   2.935
 2143SOL     OW 7327   1.649   4.801   0.014
 2143SOL    HW1 7328   1.749   4.795   0.009
 2143SOL    HW2 7329   1.622   4.891   0.049
 2144SOL     OW 7330   5.780   5.721   4.270
 2144SOL    HW1 7331   5.833   5.652   4.319
 2144SOL    HW2 7332   5.765   5.691   4.176
 2145SOL     OW 7333   4.133   0.013   3.592
 2145SOL    HW1 7334   4.222   0.018   3.638
 2145SOL    HW2 7335   4.068   0.071   3.640
 2146SOL     OW 7336   2.117   2.821   0.611
 2146SOL    HW1 7337   2.018   2.827   0.606
 2146SOL    HW2 7338   2.149   2.745   0.554
 2147SOL     OW 7339   6.034   0.827   4.695
 2147SOL    HW1 7340   6.037   0.878   4.609
 2147SOL    HW2 7341   5.955   0.766   4.695
 2148SOL     OW 7342   0.450   3.614   6.640
 2148SOL    HW1 7343   0.368   3.599   6.584
 2148SOL    HW2 7344   0.530   3.580   6.591
 2149SOL     OW 7345   0.491   0.199   0.304
 2149SOL    HW1 7346   0.394   0.185   0.324
 2149SOL    HW2 7347   0.503   0.289   0.261
 2150SOL     OW 7348   1.829   3.252   1.107
 2150SOL    HW1 7349   1.819   3.219   1.200
 2150SOL    HW2 7350   1.926   3.264   1.085
 2151SOL     OW 7351   1.203   5.585   0.434
 2151SOL    HW1 7352   1.170   5.680   0.432
 2151SOL    HW2 7353   1.125   5.523   0.426
 2152SOL     OW 7354   4.278   5.984   4.095
 2152SOL    HW1 7355   4.334   5.935   4.027
 2152SOL    HW2 7356   4.333   6.001   4.177
 2153SOL     OW 7357   4.373   1.169   3.348
 2153SOL    HW1 7358   4.438   1.125   3.286
 2153SOL    HW2 7359   4.398   1.148   3.442
 2154SOL     OW 7360   2.966   0.151   3.167
 2154SOL    HW1 7361   3.037   0.106   3.221
 2154SOL    HW2 7362   3.000   0.167   3.074
 2155SOL     OW 7363   4.751   6.849   1.275
 2155SOL    HW1 7364   4.686   6.905   1.224
 2155SOL    HW2 7365   4.844   6.878   1.253
 2156SOL     OW 7366   5.553   1.648   4.188
 2156SOL    HW1 7367   5.480   1.700   4.144
 2156SOL    HW2 7368   5.598   1.591   4.119
 2157SOL     OW 7369   3.426   5.988   3.951
 2157SOL    HW1 7370   3.377   5.903   3.967
 2157SOL    HW2 7371   3.473   5.984   3.863
 2158SOL     OW 7372   3.675   0.273   0.376
 2158SOL    HW1 7373   3.617   0.353   0.394
 2158SOL    HW2 7374   3.771   0.300   0.382
 2159SOL     OW 7375   0.777   0.706   5.597
 2159SOL    HW1 7376   0.875   0.726   5.592
 2159SOL    HW2 7377   0.761   0.611   5.570
 2160SOL     OW 7378   5.739   6.453   0.140
 2160SOL    HW1 7379   5.747   6.366   0.092
 2160SOL    HW2 7380   5.753   6.528   0.075
 2161SOL     OW 7381   0.977   2.421   2.213
 2161SOL    HW1 7382   1.070   2.459   2.210
 2161SOL    HW2 7383   0.926   2.463   2.288
 2162SOL     OW 7384   0.991   0.127   1.893
 2162SOL    HW1 7385   0.921   0.198   1.891
 2162SOL    HW2 7386   1.015   0.101   1.800
 2163SOL     OW 7387   1.650   3.495   2.294
 2163SOL    HW1 7388   1.594   3.413   2.311
 2163SOL    HW2 7389   1.688   3.491   2.201
 2164SOL     OW 7390   1.939   2.741   2.723
 2164SOL    HW1 7391   1.976   2.828   2.756
 2164SOL    HW2 7392   2.000   2.667   2.750
 2165SOL     OW 7393   6.967   1.525   3.813
 2165SOL    HW1 7394   6.872   1.548   3.791
 2165SOL    HW2 7395   7.025   1.604   3.795
 2166SOL     OW 7396   7.028   3.928   2.702
 2166SOL    HW1 7397   6.969   3.859   2.743
 2166SOL    HW2 7398   7.024   4.012   2.755
 2167SOL     OW 7399   3.142   1.829   3.576
 2167SOL    HW1 7400   3.187   1.848   3.663
 2167SOL    HW2 7401   3.098   1.739   3.581
 2168SOL     OW 7402   1.570   2.147   3.042
 2168SOL    HW1 7403   1.567   2.086   2.963
 2168SOL    HW2 7404   1.507   2.223   3.027
 2169SOL     OW 7405   0.549   0.187   1.828
 2169SOL    HW1 7406   0.577   0.098   1.862
 2169SOL    HW2 7407   0.540   0.183   1.728
 2170SOL     OW 7408   0.720   3.608   5.527
 2170SOL    HW1 7409   0.722   3.699   5.486
 2170SOL    HW2 7410   0.791   3.551   5.486
 2171SOL     OW 7411   0.696   5.380   1.448
 2171SOL    HW1 7412   0.795   5.369   1.458
 2171SOL    HW2 7413   0.662   5.440   1.521
 2172SOL     OW 7414   1.237   1.642   4.696
 2172SOL    HW1 7415   1.274   1.613   4.608
 2172SOL    HW2 7416   1.262   1.575   4.766
 2173SOL     OW 7417   6.025   0.184   5.101
 2173SOL    HW1 7418   5.954   0.254   5.098
 2173SOL    HW2 7419   6.095   0.210   5.168
 2174SOL     OW 7420   6.738   6.599   5.831
 2174SOL    HW1 7421   6.729   6.634   5.738
 2174SOL    HW2 7422   6.820   6.636   5.874
 2175SOL     OW 7423   2.821   3.858   5.239
 2175SOL    HW1 7424   2.727   3.852   5.274
 2175SOL    HW2 7425   2.820   3.859   5.139
 2176SOL     OW 7426   5.531   2.447   1.459
 2176SOL    HW1 7427   5.528   2.370   1.522
 2176SOL    HW2 7428   5.604   2.432   1.392
 2177SOL     OW 7429   0.304   0.225   3.689
 2177SOL    HW1 7430   0.284   0.209   3.786
 2177SOL    HW2 7431   0.401   0.248   3.679
 2178SOL     OW 7432   0.642   1.925   2.848
 2178SOL    HW1 7433   0.549   1.953   2.870
 2178SOL    HW2 7434   0.640   1.835   2.804
 2179SOL     OW 7435   1.421   4.142   6.045
 2179SOL    HW1 7436   1.329   4.181   6.037
 2179SOL    HW2 7437   1.421   4.070   6.115
 2180SOL     OW 7438   0.871   6.393   2.242
 2180SOL    HW1 7439   0.970   6.384   2.252
 2180SOL    HW2 7440   0.825   6.332   2.308
 2181SOL     OW 7441   3.986   4.975   4.354
 2181SOL    HW1 7442   4.012   5.025   4.272
 2181SOL    HW2 7443   3.887   4.959   4.354
 2182SOL     OW 7444   0.189   5.523   2.445
 2182SOL    HW1 7445   0.164   5.445   2.387
 2182SOL    HW2 7446   0.241   5.490   2.524
 2183SOL     OW 7447   3.280   2.854   0.185
 2183SOL    HW1 7448   3.194   2.805   0.183
 2183SOL    HW2 7449   3.263   2.952   0.170
 2184SOL     OW 7450   6.009   1.262   6.653
 2184SOL    HW1 7451   5.954   1.322   6.712
 2184SOL    HW2 7452   6.099   1.249   6.694
 2185SOL     OW 7453   0.739   0.376   6.815
 2185SOL    HW1 7454   0.662   0.412   6.867
 2185SOL    HW2 7455   0.727   0.277   6.802
 2186SOL     OW 7456   6.758   4.706   5.325
 2186SOL    HW1 7457   6.749   4.616   5.283
 2186SOL    HW2 7458   6.838   4.706   5.385
 2187SOL     OW 7459   0.572   5.698   3.252
 2187SOL    HW1 7460   0.624   5.748   3.322
 2187SOL    HW2 7461   0.598   5.730   3.161
 2188SOL     OW 7462   2.324   0.533   1.031
 2188SOL    HW1 7463   2.279   0.474   0.963
 2188SOL    HW2 7464   2.263   0.609   1.053
 2189SOL     OW 7465   2.586   1.516   1.213
 2189SOL    HW1 7466   2.534   1.600   1.199
 2189SOL    HW2 7467   2.678   1.539   1.247
 2190SOL     OW 7468   6.497   3.870   2.285
 2190SOL    HW1 7469   6.580   3.869   2.230
 2190SOL    HW2 7470   6.418   3.858   2.225
 2191SOL     OW 7471   2.801   6.883   0.317
 2191SOL    HW1 7472   2.701   6.879   0.319
 2191SOL    HW2 7473   2.831   6.978   0.321
 2192SOL     OW 7474   4.661   1.308   0.868
 2192SOL    HW1 7475   4.605   1.391   0.867
 2192SOL    HW2 7476   4.607   1.231   0.834
 2193SOL     OW 7477   1.558   6.202   6.263
 2193SOL    HW1 7478   1.637   6.213   6.324
 2193SOL    HW2 7479   1.520   6.292   6.241
 2194SOL     OW 7480   0.992   3.543   6.080
 2194SOL    HW1 7481   0.963   3.638   6.077
 2194SOL    HW2 7482   0.950   3.493   6.003
 2195SOL     OW 7483   0.418   3.727   6.302
 2195SOL    HW1 7484   0.400   3.671   6.382
 2195SOL    HW2 7485   0.515   3.751   6.299
 2196SOL     OW 7486   2.769   6.801   5.762
 2196SOL    HW1 7487   2.855   6.797   5.813
 2196SOL    HW2 7488   2.696   6.757   5.815
 2197SOL     OW 7489   3.000   5.113   5.716
 2197SOL    HW1 7490   2.905   5.086   5.733
 2197SOL    HW2 7491   3.055   5.098   5.798
 2198SOL     OW 7492   0.423   0.578   6.922
 2198SOL    HW1 7493   0.436   0.577   6.822
 2198SOL    HW2 7494   0.500   0.626   6.964
 2199SOL     OW 7495   4.485   6.486   4.757
 2199SOL    HW1 7496   4.491   6.583   4.732
 2199SOL    HW2 7497   4.541   6.469   4.838
 2200SOL     OW 7498   2.854   2.198   4.076
 2200SOL    HW1 7499   2.895   2.237   4.159
 2200SOL    HW2 7500   2.803   2.116   4.099
 2201SOL     OW 7501   6.086   4.193   3.634
 2201SOL    HW1 7502   6.143   4.113   3.654
 2201SOL    HW2 7503   6.093   4.258   3.710
 2202SOL     OW 7504   4.028   5.935   2.473
 2202SOL    HW1 7505   4.077   6.012   2.433
 2202SOL    HW2 7506   3.930   5.945   2.456
 2203SOL     OW 7507   1.975   3.255   0.661
 2203SOL    HW1 7508   1.999   3.189   0.590
 2203SOL    HW2 7509   1.900   3.218   0.717
 2204SOL     OW 7510   5.452   3.225   0.999
 2204SOL    HW1 7511   5.472   3.160   0.925
 2204SOL    HW2 7512   5.499   3.195   1.082
 2205SOL     OW 7513   0.642   4.946   0.321
 2205SOL    HW1 7514   0.580   4.903   0.387
 2205SOL    HW2 7515   0.644   4.891   0.238
 2206SOL     OW 7516   2.988   2.478   5.901
 2206SOL    HW1 7517   2.911   2.475   5.964
 2206SOL    HW2 7518   3.038   2.391   5.906
 2207SOL     OW 7519   4.971   6.050   0.860
 2207SOL    HW1 7520   5.051   6.076   0.806
 2207SOL    HW2 7521   4.895   6.029   0.799
 2208SOL     OW 7522   0.642   5.869   4.423
 2208SOL    HW1 7523   0.721   5.927   4.446
 2208SOL    HW2 7524   0.621   5.809   4.500
 2209SOL     OW 7525   3.029   5.810   4.151
 2209SOL    HW1 7526   3.025   5.839   4.246
 2209SOL    HW2 7527   2.998   5.885   4.092
 2210SOL     OW 7528   4.587   6.623   1.147
 2210SOL    HW1 7529   4.637   6.637   1.233
 2210SOL    HW2 7530   4.627   6.547   1.097
 2211SOL     OW 7531   6.758   1.475   0.967
 2211SOL    HW1 7532   6.757   1.514   1.060
 2211SOL    HW2 7533   6.750   1.376   0.973
 2212SOL     OW 7534   2.461   6.214   6.617
 2212SOL    HW1 7535   2.537   6.165   6.575
 2212SOL    HW2 7536   2.374   6.172   6.589
 2213SOL     OW 7537   3.583   2.110   4.502
 2213SOL    HW1 7538   3.543   2.106   4.593
 2213SOL    HW2 7539   3.511   2.123   4.434
 2214SOL     OW 7540   4.164   3.657   6.693
 2214SOL    HW1 7541   4.175   3.754   6.717
 2214SOL    HW2 7542   4.220   3.601   6.755
 2215SOL     OW 7543   4.402   7.016   6.882
 2215SOL    HW1 7544   4.400   0.031   6.971
 2215SOL    HW2 7545   4.425   6.919   6.893
 2216SOL     OW 7546   0.795   6.791   6.344
 2216SOL    HW1 7547   0.730   6.794   6.268
 2216SOL    HW2 7548   0.761   6.728   6.414
 2217SOL     OW 7549   4.122   0.593   3.514
 2217SOL    HW1 7550   4.067   0.570   3.434
 2217SOL    HW2 7551   4.107   0.688   3.539
 2218SOL     OW 7552   0.727   5.649   5.879
 2218SOL    HW1 7553   0.719   5.638   5.979
 2218SOL    HW2 7554   0.659   5.592   5.834
 2219SOL     OW 7555   5.720   1.064   0.656
 2219SOL    HW1 7556   5.736   1.091   0.751
 2219SOL    HW2 7557   5.682   1.141   0.605
 2220SOL     OW 7558   1.028   5.908   5.625
 2220SOL    HW1 7559   0.995   5.989   5.576
 2220SOL    HW2 7560   1.024   5.829   5.564
 2221SOL     OW 7561   6.878   1.094   4.090
 2221SOL    HW1 7562   6.919   1.124   4.176
 2221SOL    HW2 7563   6.929   1.015   4.056
 2222SOL     OW 7564   4.718   5.995   1.890
 2222SOL    HW1 7565   4.628   5.995   1.846
 2222SOL    HW2 7566   4.781   6.052   1.838
 2223SOL     OW 7567   6.763   6.124   5.370
 2223SOL    HW1 7568   6.810   6.054   5.315
 2223SOL    HW2 7569   6.815   6.210   5.364
 2224SOL     OW 7570   5.506   3.879   0.707
 2224SOL    HW1 7571   5.511   3.817   0.786
 2224SOL    HW2 7572   5.509   3.974   0.738
 2225SOL     OW 7573   0.749   6.903   3.029
 2225SOL    HW1 7574   0.677   6.949   2.978
 2225SOL    HW2 7575   0.711   6.865   3.113
 2226SOL     OW 7576   2.137   5.287   0.610
 2226SOL    HW1 7577   2.218   5.276   0.667
 2226SOL    HW2 7578   2.060   5.239   0.652
 2227SOL     OW 7579   4.041   1.994   1.784
 2227SOL    HW1 7580   3.964   1.940   1.816
 2227SOL    HW2 7581   4.008   2.074   1.733
 2228SOL     OW 7582   5.397   4.653   6.973
 2228SOL    HW1 7583   5.464   4.619   0.010
 2228SOL    HW2 7584   5.440   4.719   6.912
 2229SOL     OW 7585   3.787   3.547   4.242
 2229SOL    HW1 7586   3.690   3.525   4.232
 2229SOL    HW2 7587   3.836   3.466   4.274
 2230SOL     OW 7588   5.523   7.009   0.830
 2230SOL    HW1 7589   5.569   0.069   0.822
 2230SOL    HW2 7590   5.469   6.992   0.748
 2231SOL     OW 7591   1.307   0.375   6.841
 2231SOL    HW1 7592   1.333   0.471   6.845
 2231SOL    HW2 7593   1.243   0.354   6.914
 2232SOL     OW 7594   1.387   0.881   5.600
 2232SOL    HW1 7595   1.356   0.812   5.535
 2232SOL    HW2 7596   1.387   0.843   5.692
 2233SOL     OW 7597   2.948   4.018   0.826
 2233SOL    HW1 7598   2.955   4.004   0.925
 2233SOL    HW2 7599   2.867   4.074   0.807
 2234SOL     OW 7600   4.504   1.527   0.876
 2234SOL    HW1 7601   4.436   1.457   0.858
 2234SOL    HW2 7602   4.499   1.598   0.805
 2235SOL     OW 7603   1.746   1.477   3.203
 2235SOL    HW1 7604   1.732   1.575   3.218
 2235SOL    HW2 7605   1.830   1.462   3.151
 2236SOL     OW 7606   1.930   4.145   5.283
 2236SOL    HW1 7607   2.023   4.145   5.247
 2236SOL    HW2 7608   1.877   4.074   5.237
 2237SOL     OW 7609   6.640   5.080   5.270
 2237SOL    HW1 7610   6.632   5.175   5.243
 2237SOL    HW2 7611   6.690   5.029   5.201
 2238SOL     OW 7612   4.998   4.324   2.076
 2238SOL    HW1 7613   4.921   4.326   2.011
 2238SOL    HW2 7614   5.068   4.262   2.042
 2239SOL     OW 7615   3.869   6.847   3.517
 2239SOL    HW1 7616   3.887   6.774   3.451
 2239SOL    HW2 7617   3.947   6.910   3.519
 2240SOL     OW 7618   4.514   5.076   3.523
 2240SOL    HW1 7619   4.578   5.006   3.556
 2240SOL    HW2 7620   4.420   5.046   3.537
 2241SOL     OW 7621   0.434   0.476   1.822
 2241SOL    HW1 7622   0.498   0.399   1.831
 2241SOL    HW2 7623   0.347   0.444   1.786
 2242SOL     OW 7624   4.919   3.194   3.013
 2242SOL    HW1 7625   4.905   3.288   2.982
 2242SOL    HW2 7626   5.012   3.184   3.048
 2243SOL     OW 7627   1.241   6.192   0.860
 2243SOL    HW1 7628   1.320   6.170   0.803
 2243SOL    HW2 7629   1.259   6.277   0.910
 2244SOL     OW 7630   2.561   0.137   0.381
 2244SOL    HW1 7631   2.615   0.176   0.455
 2244SOL    HW2 7632   2.492   0.076   0.419
 2245SOL     OW 7633   0.497   0.453   0.225
 2245SOL    HW1 7634   0.413   0.479   0.274
 2245SOL    HW2 7635   0.509   0.513   0.146
 2246SOL     OW 7636   2.132   0.895   5.461
 2246SOL    HW1 7637   2.156   0.960   5.388
 2246SOL    HW2 7638   2.107   0.807   5.420
 2247SOL     OW 7639   3.211   3.936   2.707
 2247SOL    HW1 7640   3.139   3.874   2.676
 2247SOL    HW2 7641   3.231   4.003   2.636
 2248SOL     OW 7642   5.308   4.380   5.170
 2248SOL    HW1 7643   5.262   4.304   5.125
 2248SOL    HW2 7644   5.267   4.466   5.141
 2249SOL     OW 7645   2.208   6.908   3.993
 2249SOL    HW1 7646   2.188   6.820   4.036
 2249SOL    HW2 7647   2.257   6.966   4.057
 2250SOL     OW 7648   4.453   4.204   6.490
 2250SOL    HW1 7649   4.386   4.251   6.432
 2250SOL    HW2 7650   4.415   4.189   6.581
 2251SOL     OW 7651   5.048   6.935   5.654
 2251SOL    HW1 7652   5.134   6.976   5.624
 2251SOL    HW2 7653   5.039   6.844   5.615
 2252SOL     OW 7654   4.497   1.632   2.455
 2252SOL    HW1 7655   4.560   1.572   2.504
 2252SOL    HW2 7656   4.421   1.578   2.419
 2253SOL     OW 7657   1.013   3.633   0.569
 2253SOL    HW1 7658   1.062   3.546   0.560
 2253SOL    HW2 7659   1.079   3.707   0.586
 2254SOL     OW 7660   3.786   3.395   2.930
 2254SOL    HW1 7661   3.885   3.381   2.923
 2254SOL    HW2 7662   3.751   3.347   3.009
 2255SOL     OW 7663   3.387   3.803   5.753
 2255SOL    HW1 7664   3.319   3.877   5.746
 2255SOL    HW2 7665   3.352   3.722   5.707
 2256SOL     OW 7666   5.018   6.762   2.034
 2256SOL    HW1 7667   5.021   6.818   1.951
 2256SOL    HW2 7668   4.955   6.686   2.021
 2257SOL     OW 7669   0.084   1.316   4.758
 2257SOL    HW1 7670   0.047   1.409   4.763
 2257SOL    HW2 7671   0.063   1.268   4.843
 2258SOL     OW 7672   2.592   6.229   3.823
 2258SOL    HW1 7673   2.682   6.273   3.829
 2258SOL    HW2 7674   2.527   6.279   3.879
 2259SOL     OW 7675   6.175   1.884   4.347
 2259SOL    HW1 7676   6.255   1.872   4.289
 2259SOL    HW2 7677   6.198   1.858   4.441
 2260SOL     OW 7678   1.160   3.718   1.809
 2260SOL    HW1 7679   1.116   3.628   1.802
 2260SOL    HW2 7680   1.173   3.756   1.718
 2261SOL     OW 7681   5.715   3.832   6.743
 2261SOL    HW1 7682   5.799   3.779   6.744
 2261SOL    HW2 7683   5.721   3.907   6.809
 2262SOL     OW 7684   6.625   0.285   4.352
 2262SOL    HW1 7685   6.566   0.268   4.431
 2262SOL    HW2 7686   6.628   0.383   4.332
 2263SOL     OW 7687   1.462   4.610   0.047
 2263SOL    HW1 7688   1.536   4.675   0.033
 2263SOL    HW2 7689   1.374   4.657   0.042
 2264SOL     OW 7690   1.747   6.954   5.823
 2264SOL    HW1 7691   1.678   6.984   5.757
 2264SOL    HW2 7692   1.830   7.008   5.812
 2265SOL     OW 7693   0.670   6.240   4.416
 2265SOL    HW1 7694   0.596   6.188   4.374
 2265SOL    HW2 7695   0.632   6.306   4.481
 2266SOL     OW 7696   4.577   1.898   6.565
 2266SOL    HW1 7697   4.554   1.934   6.475
 2266SOL    HW2 7698   4.525   1.814   6.581
 2267SOL     OW 7699   4.893   3.064   3.959
 2267SOL    HW1 7700   4.953   3.134   3.997
 2267SOL    HW2 7701   4.885   3.076   3.860
 2268SOL     OW 7702   0.036   4.698   5.855
 2268SOL    HW1 7703   0.002   4.711   5.948
 2268SOL    HW2 7704   6.986   4.688   5.793
 2269SOL     OW 7705   1.930   3.023   5.081
 2269SOL    HW1 7706   1.934   2.939   5.027
 2269SOL    HW2 7707   2.014   3.075   5.068
 2270SOL     OW 7708   4.744   1.790   6.212
 2270SOL    HW1 7709   4.760   1.797   6.113
 2270SOL    HW2 7710   4.818   1.835   6.261
 2271SOL     OW 7711   5.770   4.901   5.866
 2271SOL    HW1 7712   5.775   4.831   5.938
 2271SOL    HW2 7713   5.719   4.980   5.900
 2272SOL     OW 7714   5.831   0.898   6.030
 2272SOL    HW1 7715   5.797   0.929   6.119
 2272SOL    HW2 7716   5.843   0.799   6.032
 2273SOL     OW 7717   1.753   2.593   1.978
 2273SOL    HW1 7718   1.720   2.501   1.998
 2273SOL    HW2 7719   1.849   2.589   1.950
 2274SOL     OW 7720   0.635   0.660   0.051
 2274SOL    HW1 7721   0.651   0.751   0.012
 2274SOL    HW2 7722   0.713   0.600   0.030
 2275SOL     OW 7723   5.646   5.058   2.344
 2275SOL    HW1 7724   5.668   4.968   2.380
 2275SOL    HW2 7725   5.554   5.057   2.305
 2276SOL     OW 7726   1.360   1.437   1.378
 2276SOL    HW1 7727   1.321   1.472   1.292
 2276SOL    HW2 7728   1.362   1.338   1.376
 2277SOL     OW 7729   3.364   4.152   3.318
 2277SOL    HW1 7730   3.305   4.104   3.382
 2277SOL    HW2 7731   3.460   4.136   3.342
 2278SOL     OW 7732   0.846   2.192   4.094
 2278SOL    HW1 7733   0.826   2.286   4.120
 2278SOL    HW2 7734   0.903   2.191   4.012
 2279SOL     OW 7735   0.356   5.772   5.185
 2279SOL    HW1 7736   0.454   5.767   5.163
 2279SOL    HW2 7737   0.344   5.768   5.284
 2280SOL     OW 7738   4.818   1.717   4.740
 2280SOL    HW1 7739   4.822   1.659   4.821
 2280SOL    HW2 7740   4.891   1.690   4.677
 2281SOL     OW 7741   5.037   6.687   2.514
 2281SOL    HW1 7742   5.022   6.625   2.438
 2281SOL    HW2 7743   5.065   6.777   2.480
 2282SOL     OW 7744   4.077   5.591   5.811
 2282SOL    HW1 7745   4.141   5.514   5.814
 2282SOL    HW2 7746   4.064   5.620   5.716
 2283SOL     OW 7747   0.903   0.694   3.671
 2283SOL    HW1 7748   0.993   0.653   3.658
 2283SOL    HW2 7749   0.908   0.792   3.650
 2284SOL     OW 7750   1.119   3.168   6.318
 2284SOL    HW1 7751   1.205   3.215   6.294
 2284SOL    HW2 7752   1.106   3.172   6.417
 2285SOL     OW 7753   1.633   4.195   6.907
 2285SOL    HW1 7754   1.720   4.166   6.867
 2285SOL    HW2 7755   1.559   4.140   6.871
 2286SOL     OW 7756   4.784   6.132   4.201
 2286SOL    HW1 7757   4.880   6.158   4.191
 2286SOL    HW2 7758   4.742   6.125   4.110
 2287SOL     OW 7759   1.702   0.921   3.189
 2287SOL    HW1 7760   1.647   0.848   3.148
 2287SOL    HW2 7761   1.669   1.010   3.156
 2288SOL     OW 7762   0.288   5.919   3.782
 2288SOL    HW1 7763   0.324   5.838   3.735
 2288SOL    HW2 7764   0.297   5.999   3.722
 2289SOL     OW 7765   0.895   6.344   1.768
 2289SOL    HW1 7766   0.839   6.273   1.812
 2289SOL    HW2 7767   0.987   6.307   1.750
 2290SOL     OW 7768   1.036   5.318   1.124
 2290SOL    HW1 7769   1.033   5.389   1.195
 2290SOL    HW2 7770   1.089   5.351   1.046
 2291SOL     OW 7771   2.979   1.583   5.792
 2291SOL    HW1 7772   2.942   1.673   5.817
 2291SOL    HW2 7773   2.954   1.562   5.697
 2292SOL     OW 7774   1.319   0.797   4.714
 2292SOL    HW1 7775   1.291   0.705   4.741
 2292SOL    HW2 7776   1.352   0.846   4.794
 2293SOL     OW 7777   5.250   5.455   1.968
 2293SOL    HW1 7778   5.169   5.412   2.007
 2293SOL    HW2 7779   5.224   5.540   1.922
 2294SOL     OW 7780   4.340   6.470   6.599
 2294SOL    HW1 7781   4.253   6.520   6.595
 2294SOL    HW2 7782   4.392   6.487   6.516
 2295SOL     OW 7783   0.413   2.146   1.131
 2295SOL    HW1 7784   0.331   2.127   1.184
 2295SOL    HW2 7785   0.423   2.245   1.119
 2296SOL     OW 7786   3.144   6.789   0.184
 2296SOL    HW1 7787   3.080   6.786   0.106
 2296SOL    HW2 7788   3.193   6.702   0.189
 2297SOL     OW 7789   4.208   4.881   5.503
 2297SOL    HW1 7790   4.120   4.920   5.530
 2297SOL    HW2 7791   4.200   4.782   5.497
 2298SOL     OW 7792   3.712   2.155   1.229
 2298SOL    HW1 7793   3.739   2.097   1.306
 2298SOL    HW2 7794   3.661   2.234   1.264
 2299SOL     OW 7795   5.224   6.133   6.835
 2299SOL    HW1 7796   5.321   6.139   6.812
 2299SOL    HW2 7797   5.198   6.037   6.848
 2300SOL     OW 7798   1.776   5.181   1.290
 2300SOL    HW1 7799   1.767   5.243   1.212
 2300SOL    HW2 7800   1.772   5.233   1.375
 2301SOL     OW 7801   4.062   3.394   2.671
 2301SOL    HW1 7802   3.999   3.334   2.623
 2301SOL    HW2 7803   4.104   3.458   2.607
 2302SOL     OW 7804   3.210   5.727   2.864
 2302SOL    HW1 7805   3.219   5.814   2.815
 2302SOL    HW2 7806   3.242   5.737   2.958
 2303SOL     OW 7807   1.253   2.881   4.413
 2303SOL    HW1 7808   1.285   2.835   4.496
 2303SOL    HW2 7809   1.161   2.915   4.428
 2304SOL     OW 7810   2.213   0.982   3.537
 2304SOL    HW1 7811   2.165   0.898   3.511
 2304SOL    HW2 7812   2.156   1.033   3.602
 2305SOL     OW 7813   3.427   5.328   2.257
 2305SOL    HW1 7814   3.381   5.397   2.200
 2305SOL    HW2 7815   3.404   5.237   2.224
 2306SOL     OW 7816   1.686   4.316   1.577
 2306SOL    HW1 7817   1.754   4.308   1.650
 2306SOL    HW2 7818   1.635   4.231   1.570
 2307SOL     OW 7819   0.554   2.274   3.042
 2307SOL    HW1 7820   0.559   2.255   3.140
 2307SOL    HW2 7821   0.637   2.241   2.998
 2308SOL     OW 7822   0.459   0.306   6.918
 2308SOL    HW1 7823   0.447   0.399   6.884
 2308SOL    HW2 7824   0.440   0.241   6.843
 2309SOL     OW 7825   3.577   5.653   6.626
 2309SOL    HW1 7826   3.502   5.586   6.618
 2309SOL    HW2 7827   3.661   5.612   6.592
 2310SOL     OW 7828   5.520   0.957   1.649
 2310SOL    HW1 7829   5.454   0.926   1.581
 2310SOL    HW2 7830   5.571   0.879   1.685
 2311SOL     OW 7831   2.601   0.552   2.930
 2311SOL    HW1 7832   2.511   0.558   2.886
 2311SOL    HW2 7833   2.621   0.638   2.976
 2312SOL     OW 7834   4.119   0.179   2.835
 2312SOL    HW1 7835   4.077   0.148   2.749
 2312SOL    HW2 7836   4.068   0.258   2.870
 2313SOL     OW 7837   4.800   4.155   2.209
 2313SOL    HW1 7838   4.860   4.234   2.203
 2313SOL    HW2 7839   4.711   4.182   2.246
 2314SOL     OW 7840   6.296   0.601   3.673
 2314SOL    HW1 7841   6.313   0.689   3.719
 2314SOL    HW2 7842   6.358   0.592   3.595
 2315SOL     OW 7843   4.554   4.284   6.107
 2315SOL    HW1 7844   4.490   4.211   6.131
 2315SOL    HW2 7845   4.529   4.367   6.158
 2316SOL     OW 7846   2.847   1.239   6.033
 2316SOL    HW1 7847   2.877   1.241   5.938
 2316SOL    HW2 7848   2.888   1.315   6.083
 2317SOL     OW 7849   6.058   6.719   4.237
 2317SOL    HW1 7850   6.043   6.751   4.143
 2317SOL    HW2 7851   6.007   6.635   4.253
 2318SOL     OW 7852   2.348   4.298   4.612
 2318SOL    HW1 7853   2.394   4.320   4.698
 2318SOL    HW2 7854   2.415   4.296   4.538
 2319SOL     OW 7855   1.983   5.353   4.977
 2319SOL    HW1 7856   2.060   5.290   4.991
 2319SOL    HW2 7857   1.957   5.352   4.880
 2320SOL     OW 7858   1.236   3.240   5.403
 2320SOL    HW1 7859   1.264   3.147   5.427
 2320SOL    HW2 7860   1.315   3.291   5.370
 2321SOL     OW 7861   2.832   4.930   6.043
 2321SOL    HW1 7862   2.809   4.962   5.951
 2321SOL    HW2 7863   2.922   4.887   6.041
 2322SOL     OW 7864   2.090   3.534   2.433
 2322SOL    HW1 7865   2.079   3.576   2.343
 2322SOL    HW2 7866   2.170   3.475   2.433
 2323SOL     OW 7867   2.661   4.468   1.353
 2323SOL    HW1 7868   2.742   4.460   1.295
 2323SOL    HW2 7869   2.658   4.560   1.394
 2324SOL     OW 7870   0.378   5.633   2.210
 2324SOL    HW1 7871   0.353   5.714   2.262
 2324SOL    HW2 7872   0.458   5.590   2.251
 2325SOL     OW 7873   6.822   5.054   1.752
 2325SOL    HW1 7874   6.777   4.987   1.694
 2325SOL    HW2 7875   6.849   5.134   1.697
 2326SOL     OW 7876   1.204   6.839   6.990
 2326SOL    HW1 7877   1.246   6.877   6.908
 2326SOL    HW2 7878   1.275   6.803   0.022
 2327SOL     OW 7879   6.904   0.455   2.881
 2327SOL    HW1 7880   6.931   0.543   2.921
 2327SOL    HW2 7881   6.926   0.454   2.784
 2328SOL     OW 7882   1.600   1.955   2.069
 2328SOL    HW1 7883   1.577   1.858   2.070
 2328SOL    HW2 7884   1.669   1.974   2.139
 2329SOL     OW 7885   0.899   4.386   3.849
 2329SOL    HW1 7886   0.929   4.454   3.915
 2329SOL    HW2 7887   0.890   4.297   3.894
 2330SOL     OW 7888   6.767   3.125   0.388
 2330SOL    HW1 7889   6.738   3.212   0.347
 2330SOL    HW2 7890   6.799   3.142   0.481
 2331SOL     OW 7891   3.559   6.109   6.915
 2331SOL    HW1 7892   3.572   6.045   6.839
 2331SOL    HW2 7893   3.633   6.177   6.913
 2332SOL     OW 7894   6.164   6.952   6.171
 2332SOL    HW1 7895   6.113   6.949   6.257
 2332SOL    HW2 7896   6.261   6.938   6.189
 2333SOL     OW 7897   7.015   4.876   2.835
 2333SOL    HW1 7898   7.006   4.870   2.935
 2333SOL    HW2 7899   6.966   4.957   2.802
 2334SOL     OW 7900   2.050   1.454   6.264
 2334SOL    HW1 7901   2.135   1.402   6.263
 2334SOL    HW2 7902   2.050   1.515   6.343
 2335SOL     OW 7903   6.176   1.541   4.173
 2335SOL    HW1 7904   6.242   1.587   4.232
 2335SOL    HW2 7905   6.225   1.480   4.110
 2336SOL     OW 7906   2.597   1.825   3.948
 2336SOL    HW1 7907   2.516   1.770   3.967
 2336SOL    HW2 7908   2.673   1.765   3.924
 2337SOL     OW 7909   4.127   1.766   1.359
 2337SOL    HW1 7910   4.172   1.692   1.409
 2337SOL    HW2 7911   4.194   1.812   1.300
 2338SOL     OW 7912   0.999   3.483   4.134
 2338SOL    HW1 7913   1.081   3.514   4.183
 2338SOL    HW2 7914   0.976   3.390   4.162
 2339SOL     OW 7915   3.203   3.308   2.943
 2339SOL    HW1 7916   3.287   3.292   2.891
 2339SOL    HW2 7917   3.226   3.354   3.029
 2340SOL     OW 7918   0.839   5.202   6.682
 2340SOL    HW1 7919   0.854   5.236   6.775
 2340SOL    HW2 7920   0.916   5.145   6.655
 2341SOL     OW 7921   2.416   4.401   2.980
 2341SOL    HW1 7922   2.437   4.369   2.888
 2341SOL    HW2 7923   2.321   4.376   3.002
 2342SOL     OW 7924   2.881   6.611   4.226
 2342SOL    HW1 7925   2.843   6.518   4.221
 2342SOL    HW2 7926   2.810   6.678   4.207
 2343SOL     OW 7927   2.414   6.211   3.148
 2343SOL    HW1 7928   2.343   6.154   3.191
 2343SOL    HW2 7929   2.502   6.163   3.153
 2344SOL     OW 7930   6.824   5.189   0.816
 2344SOL    HW1 7931   6.881   5.107   0.810
 2344SOL    HW2 7932   6.728   5.163   0.825
 2345SOL     OW 7933   2.382   5.482   5.053
 2345SOL    HW1 7934   2.390   5.440   5.144
 2345SOL    HW2 7935   2.290   5.465   5.017
 2346SOL     OW 7936   4.256   3.300   5.790
 2346SOL    HW1 7937   4.204   3.226   5.832
 2346SOL    HW2 7938   4.352   3.295   5.821
 2347SOL     OW 7939   1.430   2.050   1.023
 2347SOL    HW1 7940   1.425   1.999   1.109
 2347SOL    HW2 7941   1.465   2.141   1.040
 2348SOL     OW 7942   1.862   6.313   3.593
 2348SOL    HW1 7943   1.775   6.308   3.545
 2348SOL    HW2 7944   1.862   6.248   3.669
 2349SOL     OW 7945   1.051   4.218   6.566
 2349SOL    HW1 7946   1.032   4.131   6.612
 2349SOL    HW2 7947   1.064   4.290   6.635
 2350SOL     OW 7948   5.704   3.629   5.830
 2350SOL    HW1 7949   5.626   3.595   5.882
 2350SOL    HW2 7950   5.672   3.676   5.748
 2351SOL     OW 7951   3.246   4.957   2.972
 2351SOL    HW1 7952   3.303   5.034   2.944
 2351SOL    HW2 7953   3.173   4.943   2.905
 2352SOL     OW 7954   6.618   2.978   3.786
 2352SOL    HW1 7955   6.598   2.895   3.837
 2352SOL    HW2 7956   6.709   3.011   3.809
 2353SOL     OW 7957   4.405   5.059   5.530
 2353SOL    HW1 7958   4.347   4.980   5.510
 2353SOL    HW2 7959   4.350   5.142   5.528
 2354SOL     OW 7960   2.615   2.474   4.534
 2354SOL    HW1 7961   2.644   2.472   4.630
 2354SOL    HW2 7962   2.693   2.456   4.475
 2355SOL     OW 7963   2.097   5.942   5.167
 2355SOL    HW1 7964   2.040   5.883   5.110
 2355SOL    HW2 7965   2.173   5.889   5.204
 2356SOL     OW 7966   0.973   3.169   6.968
 2356SOL    HW1 7967   0.968   3.230   6.889
 2356SOL    HW2 7968   1.064   3.172   7.008
 2357SOL     OW 7969   3.534   1.372   1.512
 2357SOL    HW1 7970   3.438   1.399   1.498
 2357SOL    HW2 7971   3.553   1.290   1.458
 2358SOL     OW 7972   2.599   4.778   5.749
 2358SOL    HW1 7973   2.566   4.712   5.816
 2358SOL    HW2 7974   2.522   4.834   5.717
 2359SOL     OW 7975   0.739   0.059   5.277
 2359SOL    HW1 7976   0.668   0.092   5.339
 2359SOL    HW2 7977   0.731   0.107   5.189
 2360SOL     OW 7978   6.621   3.657   0.781
 2360SOL    HW1 7979   6.718   3.636   0.763
 2360SOL    HW2 7980   6.564   3.586   0.741
 2361SOL     OW 7981   2.894   1.238   6.554
 2361SOL    HW1 7982   2.947   1.323   6.551
 2361SOL    HW2 7983   2.928   1.175   6.484
 2362SOL     OW 7984   3.364   4.921   3.658
 2362SOL    HW1 7985   3.446   4.914   3.715
 2362SOL    HW2 7986   3.291   4.868   3.700
 2363SOL     OW 7987   3.597   1.966   3.570
 2363SOL    HW1 7988   3.631   1.997   3.658
 2363SOL    HW2 7989   3.636   2.022   3.497
 2364SOL     OW 7990   1.234   2.510   2.168
 2364SOL    HW1 7991   1.295   2.573   2.216
 2364SOL    HW2 7992   1.239   2.526   2.070
 2365SOL     OW 7993   6.541   2.042   6.569
 2365SOL    HW1 7994   6.445   2.015   6.577
 2365SOL    HW2 7995   6.587   1.984   6.502
 2366SOL     OW 7996   3.392   5.255   0.927
 2366SOL    HW1 7997   3.434   5.164   0.920
 2366SOL    HW2 7998   3.448   5.312   0.987
 2367SOL     OW 7999   1.969   3.235   0.216
 2367SOL    HW1 8000   2.049   3.274   0.261
 2367SOL    HW2 8001   1.895   3.225   0.282
 2368SOL     OW 8002   5.572   0.197   3.871
 2368SOL    HW1 8003   5.549   0.266   3.940
 2368SOL    HW2 8004   5.585   0.108   3.915
 2369SOL     OW 8005   2.117   6.820   4.292
 2369SOL    HW1 8006   2.191   6.883   4.270
 2369SOL    HW2 8007   2.154   6.734   4.325
 2370SOL     OW 8008   5.779   2.895   6.803
 2370SOL    HW1 8009   5.707   2.850   6.751
 2370SOL    HW2 8010   5.785   2.991   6.774
 2371SOL     OW 8011   2.447   6.661   2.172
 2371SOL    HW1 8012   2.412   6.669   2.265
 2371SOL    HW2 8013   2.395   6.721   2.111
 2372SOL     OW 8014   6.946   2.724   2.215
 2372SOL    HW1 8015   7.006   2.679   2.149
 2372SOL    HW2 8016   6.970   2.695   2.308
 2373SOL     OW 8017   1.704   3.794   5.705
 2373SOL    HW1 8018   1.646   3.746   5.770
 2373SOL    HW2 8019   1.706   3.891   5.726
 2374SOL     OW 8020   6.398   1.796   5.213
 2374SOL    HW1 8021   6.328   1.762   5.150
 2374SOL    HW2 8022   6.488   1.781   5.174
 2375SOL     OW 8023   3.146   5.516   5.795
 2375SOL    HW1 8024   3.187   5.482   5.880
 2375SOL    HW2 8025   3.180   5.463   5.718
 2376SOL     OW 8026   5.866   3.717   3.857
 2376SOL    HW1 8027   5.853   3.816   3.858
 2376SOL    HW2 8028   5.780   3.672   3.878
 2377SOL     OW 8029   3.056   3.886   3.686
 2377SOL    HW1 8030   3.032   3.894   3.783
 2377SOL    HW2 8031   3.005   3.810   3.646
 2378SOL     OW 8032   5.085   2.103   6.854
 2378SOL    HW1 8033   5.100   2.159   6.772
 2378SOL    HW2 8034   4.988   2.078   6.859
 2379SOL     OW 8035   6.694   1.245   0.243
 2379SOL    HW1 8036   6.652   1.256   0.153
 2379SOL    HW2 8037   6.736   1.155   0.250
 2380SOL     OW 8038   6.987   2.717   0.407
 2380SOL    HW1 8039   6.914   2.694   0.472
 2380SOL    HW2 8040   0.015   2.637   0.390
 2381SOL     OW 8041   2.123   5.904   3.626
 2381SOL    HW1 8042   2.079   5.848   3.555
 2381SOL    HW2 8043   2.165   5.845   3.695
 2382SOL     OW 8044   1.861   3.371   4.414
 2382SOL    HW1 8045   1.847   3.287   4.362
 2382SOL    HW2 8046   1.952   3.371   4.455
 2383SOL     OW 8047   6.555   6.505   1.052
 2383SOL    HW1 8048   6.468   6.531   1.092
 2383SOL    HW2 8049   6.610   6.456   1.120
 2384SOL     OW 8050   4.958   2.073   2.145
 2384SOL    HW1 8051   5.038   2.084   2.203
 2384SOL    HW2 8052   4.930   2.162   2.109
 2385SOL     OW 8053   0.021   0.665   0.142
 2385SOL    HW1 8054   6.970   0.726   0.141
 2385SOL    HW2 8055   0.102   0.717   0.114
 2386SOL     OW 8056   5.120   5.864   4.535
 2386SOL    HW1 8057   5.065   5.902   4.610
 2386SOL    HW2 8058   5.203   5.919   4.524
 2387SOL     OW 8059   1.819   1.136   4.577
 2387SOL    HW1 8060   1.754   1.121   4.651
 2387SOL    HW2 8061   1.912   1.121   4.609
 2388SOL     OW 8062   6.563   3.248   4.057
 2388SOL    HW1 8063   6.494   3.271   3.989
 2388SOL    HW2 8064   6.533   3.169   4.109
 2389SOL     OW 8065   4.511   4.545   3.582
 2389SOL    HW1 8066   4.554   4.458   3.559
 2389SOL    HW2 8067   4.498   4.551   3.681
 2390SOL     OW 8068   4.072   3.777   2.755
 2390SOL    HW1 8069   4.076   3.730   2.843
 2390SOL    HW2 8070   4.087   3.711   2.682
 2391SOL     OW 8071   5.135   4.449   5.997
 2391SOL    HW1 8072   5.230   4.447   5.968
 2391SOL    HW2 8073   5.123   4.523   6.064
 2392SOL     OW 8074   2.275   0.116   6.627
 2392SOL    HW1 8075   2.352   0.131   6.689
 2392SOL    HW2 8076   2.190   0.113   6.679
 2393SOL     OW 8077   4.789   4.528   6.183
 2393SOL    HW1 8078   4.844   4.537   6.266
 2393SOL    HW2 8079   4.694   4.508   6.208
 2394SOL     OW 8080   6.937   4.031   4.917
 2394SOL    HW1 8081   6.879   3.985   4.850
 2394SOL    HW2 8082   6.922   4.130   4.911
 2395SOL     OW 8083   4.571   6.994   5.767
 2395SOL    HW1 8084   4.497   7.018   5.829
 2395SOL    HW2 8085   4.655   0.014   5.793
 2396SOL     OW 8086   3.886   5.526   0.884
 2396SOL    HW1 8087   3.870   5.431   0.910
 2396SOL    HW2 8088   3.980   5.536   0.850
 2397SOL     OW 8089   0.058   4.277   4.340
 2397SOL    HW1 8090   0.113   4.357   4.365
 2397SOL    HW2 8091   0.036   4.224   4.422
 2398SOL     OW 8092   5.165   4.035   7.025
 2398SOL    HW1 8093   5.204   3.976   6.954
 2398SOL    HW2 8094   5.172   3.989   0.085
 2399SOL     OW 8095   4.117   1.123   1.211
 2399SOL    HW1 8096   4.168   1.062   1.150
 2399SOL    HW2 8097   4.144   1.106   1.306
 2400SOL     OW 8098   2.308   4.231   0.872
 2400SOL    HW1 8099   2.247   4.161   0.835
 2400SOL    HW2 8100   2.367   4.191   0.941
 2401SOL     OW 8101   6.047   5.916   6.589
 2401SOL    HW1 8102   6.121   5.911   6.656
 2401SOL    HW2 8103   5.964   5.949   6.634
 2402SOL     OW 8104   0.928   0.125   4.050
 2402SOL    HW1 8105   0.904   0.130   3.953
 2402SOL    HW2 8106   0.850   0.091   4.102
 2403SOL     OW 8107   0.797   2.616   5.597
 2403SOL    HW1 8108   0.862   2.607   5.672
 2403SOL    HW2 8109   0.791   2.712   5.569
 2404SOL     OW 8110   2.042   0.919   1.207
 2404SOL    HW1 8111   2.079   0.856   1.138
 2404SOL    HW2 8112   2.090   1.006   1.201
 2405SOL     OW 8113   3.197   4.085   2.461
 2405SOL    HW1 8114   3.246   4.147   2.400
 2405SOL    HW2 8115   3.111   4.056   2.418
 2406SOL     OW 8116   3.825   1.345   1.119
 2406SOL    HW1 8117   3.839   1.252   1.084
 2406SOL    HW2 8118   3.728   1.358   1.139
 2407SOL     OW 8119   5.675   1.989   3.549
 2407SOL    HW1 8120   5.740   2.037   3.489
 2407SOL    HW2 8121   5.678   2.030   3.640
 2408SOL     OW 8122   4.480   4.491   2.255
 2408SOL    HW1 8123   4.558   4.476   2.316
 2408SOL    HW2 8124   4.484   4.426   2.179
 2409SOL     OW 8125   2.274   3.888   1.385
 2409SOL    HW1 8126   2.344   3.958   1.372
 2409SOL    HW2 8127   2.317   3.805   1.420
 2410SOL     OW 8128   4.132   3.378   4.007
 2410SOL    HW1 8129   4.203   3.387   4.077
 2410SOL    HW2 8130   4.077   3.296   4.026
 2411SOL     OW 8131   5.145   6.577   4.933
 2411SOL    HW1 8132   5.097   6.489   4.934
 2411SOL    HW2 8133   5.188   6.592   5.022
 2412SOL     OW 8134   5.539   3.769   1.458
 2412SOL    HW1 8135   5.530   3.863   1.491
 2412SOL    HW2 8136   5.522   3.766   1.359
 2413SOL     OW 8137   5.435   0.347   1.634
 2413SOL    HW1 8138   5.399   0.402   1.559
 2413SOL    HW2 8139   5.435   0.250   1.608
 2414SOL     OW 8140   4.842   3.989   3.643
 2414SOL    HW1 8141   4.842   3.991   3.543
 2414SOL    HW2 8142   4.813   4.078   3.678
 2415SOL     OW 8143   6.015   1.664   2.548
 2415SOL    HW1 8144   6.111   1.637   2.558
 2415SOL    HW2 8145   5.959   1.583   2.536
 2416SOL     OW 8146   5.303   1.841   5.822
 2416SOL    HW1 8147   5.289   1.876   5.914
 2416SOL    HW2 8148   5.222   1.861   5.766
 2417SOL     OW 8149   2.951   3.163   4.898
 2417SOL    HW1 8150   2.960   3.263   4.898
 2417SOL    HW2 8151   2.899   3.135   4.817
 2418SOL     OW 8152   3.559   3.501   4.097
 2418SOL    HW1 8153   3.563   3.542   4.006
 2418SOL    HW2 8154   3.465   3.473   4.117
 2419SOL     OW 8155   0.664   6.432   3.299
 2419SOL    HW1 8156   0.577   6.478   3.281
 2419SOL    HW2 8157   0.736   6.473   3.243
 2420SOL     OW 8158   2.657   0.038   1.729
 2420SOL    HW1 8159   2.682   0.132   1.750
 2420SOL    HW2 8160   2.606   7.027   1.806
 2421SOL     OW 8161   1.635   2.968   4.673
 2421SOL    HW1 8162   1.674   2.936   4.760
 2421SOL    HW2 8163   1.593   3.057   4.686
 2422SOL     OW 8164   5.040   1.982   0.936
 2422SOL    HW1 8165   5.125   2.022   0.970
 2422SOL    HW2 8166   5.060   1.905   0.876
 2423SOL     OW 8167   2.616   6.073   2.450
 2423SOL    HW1 8168   2.547   6.003   2.435
 2423SOL    HW2 8169   2.696   6.033   2.495
 2424SOL     OW 8170   5.617   1.377   0.245
 2424SOL    HW1 8171   5.593   1.439   0.170
 2424SOL    HW2 8172   5.699   1.326   0.220
 2425SOL     OW 8173   6.290   0.259   4.149
 2425SOL    HW1 8174   6.292   0.220   4.057
 2425SOL    HW2 8175   6.291   0.186   4.216
 2426SOL     OW 8176   2.539   5.050   4.652
 2426SOL    HW1 8177   2.626   5.070   4.697
 2426SOL    HW2 8178   2.519   4.952   4.660
 2427SOL     OW 8179   6.012   6.472   5.331
 2427SOL    HW1 8180   5.949   6.517   5.267
 2427SOL    HW2 8181   5.972   6.386   5.362
 2428SOL     OW 8182   0.802   0.575   1.588
 2428SOL    HW1 8183   0.706   0.594   1.608
 2428SOL    HW2 8184   0.859   0.649   1.624
 2429SOL     OW 8185   5.378   5.566   1.294
 2429SOL    HW1 8186   5.450   5.496   1.292
 2429SOL    HW2 8187   5.293   5.524   1.328
 2430SOL     OW 8188   5.800   0.991   2.408
 2430SOL    HW1 8189   5.789   0.934   2.490
 2430SOL    HW2 8190   5.713   1.037   2.388
 2431SOL     OW 8191   4.121   0.557   2.229
 2431SOL    HW1 8192   4.034   0.519   2.195
 2431SOL    HW2 8193   4.133   0.649   2.194
 2432SOL     OW 8194   4.350   6.417   2.465
 2432SOL    HW1 8195   4.348   6.349   2.538
 2432SOL    HW2 8196   4.269   6.476   2.472
 2433SOL     OW 8197   4.311   0.447   6.692
 2433SOL    HW1 8198   4.398   0.451   6.741
 2433SOL    HW2 8199   4.292   0.537   6.652
 2434SOL     OW 8200   3.715   1.369   6.182
 2434SOL    HW1 8201   3.743   1.369   6.086
 2434SOL    HW2 8202   3.781   1.318   6.236
 2435SOL     OW 8203   6.362   5.608   5.017
 2435SOL    HW1 8204   6.278   5.573   4.975
 2435SOL    HW2 8205   6.347   5.623   5.115
 2436SOL     OW 8206   2.745   5.613   0.005
 2436SOL    HW1 8207   2.824   5.559   7.003
 2436SOL    HW2 8208   2.763   5.648   0.097
 2437SOL     OW 8209   0.065   6.305   5.909
 2437SOL    HW1 8210   7.000   6.288   5.940
 2437SOL    HW2 8211   0.104   6.381   5.960
 2438SOL     OW 8212   3.102   2.376   0.772
 2438SOL    HW1 8213   3.014   2.339   0.743
 2438SOL    HW2 8214   3.090   2.471   0.802
 2439SOL     OW 8215   5.819   4.050   5.331
 2439SOL    HW1 8216   5.798   4.112   5.256
 2439SOL    HW2 8217   5.826   4.101   5.417
 2440SOL     OW 8218   5.832   5.244   6.152
 2440SOL    HW1 8219   5.850   5.288   6.064
 2440SOL    HW2 8220   5.860   5.148   6.148
 2441SOL     OW 8221   5.982   2.307   0.884
 2441SOL    HW1 8222   6.012   2.379   0.823
 2441SOL    HW2 8223   5.895   2.332   0.926
 2442SOL     OW 8224   1.032   3.588   4.901
 2442SOL    HW1 8225   1.092   3.608   4.823
 2442SOL    HW2 8226   1.030   3.489   4.916
 2443SOL     OW 8227   2.409   4.406   6.165
 2443SOL    HW1 8228   2.409   4.366   6.257
 2443SOL    HW2 8229   2.465   4.349   6.104
 2444SOL     OW 8230   2.589   3.299   5.989
 2444SOL    HW1 8231   2.584   3.343   5.900
 2444SOL    HW2 8232   2.631   3.209   5.980
 2445SOL     OW 8233   0.445   0.676   0.994
 2445SOL    HW1 8234   0.394   0.668   0.909
 2445SOL    HW2 8235   0.453   0.772   1.020
 2446SOL     OW 8236   6.208   4.430   5.319
 2446SOL    HW1 8237   6.292   4.478   5.343
 2446SOL    HW2 8238   6.154   4.487   5.257
 2447SOL     OW 8239   0.492   1.301   0.014
 2447SOL    HW1 8240   0.400   1.321   7.009
 2447SOL    HW2 8241   0.523   1.375   0.073
 2448SOL     OW 8242   1.302   0.072   4.440
 2448SOL    HW1 8243   1.401   0.082   4.429
 2448SOL    HW2 8244   1.271   7.019   4.392
 2449SOL     OW 8245   0.431   3.421   5.280
 2449SOL    HW1 8246   0.445   3.376   5.368
 2449SOL    HW2 8247   0.478   3.510   5.280
 2450SOL     OW 8248   2.204   3.792   3.007
 2450SOL    HW1 8249   2.163   3.721   2.951
 2450SOL    HW2 8250   2.197   3.767   3.104
 2451SOL     OW 8251   1.987   6.079   4.046
 2451SOL    HW1 8252   2.034   5.999   4.084
 2451SOL    HW2 8253   1.960   6.140   4.121
 2452SOL     OW 8254   0.944   2.178   4.360
 2452SOL    HW1 8255   0.917   2.175   4.264
 2452SOL    HW2 8256   1.025   2.236   4.371
 2453SOL     OW 8257   0.218   4.062   1.854
 2453SOL    HW1 8258   0.152   4.137   1.863
 2453SOL    HW2 8259   0.190   4.002   1.779
 2454SOL     OW 8260   2.552   1.069   2.342
 2454SOL    HW1 8261   2.621   1.050   2.271
 2454SOL    HW2 8262   2.593   1.123   2.415
 2455SOL     OW 8263   5.734   6.093   0.275
 2455SOL    HW1 8264   5.659   6.075   0.212
 2455SOL    HW2 8265   5.797   6.015   0.274
 2456SOL     OW 8266   4.079   6.961   1.410
 2456SOL    HW1 8267   4.035   6.993   1.494
 2456SOL    HW2 8268   4.027   6.884   1.373
 2457SOL     OW 8269   5.329   6.401   1.475
 2457SOL    HW1 8270   5.248   6.346   1.492
 2457SOL    HW2 8271   5.344   6.409   1.376
 2458SOL     OW 8272   0.444   5.354   3.653
 2458SOL    HW1 8273   0.515   5.407   3.700
 2458SOL    HW2 8274   0.416   5.403   3.571
 2459SOL     OW 8275   2.217   0.347   0.840
 2459SOL    HW1 8276   2.182   0.403   0.764
 2459SOL    HW2 8277   2.219   0.251   0.813
 2460SOL     OW 8278   3.369   5.630   1.511
 2460SOL    HW1 8279   3.398   5.604   1.419
 2460SOL    HW2 8280   3.272   5.654   1.510
 2461SOL     OW 8281   5.498   1.301   2.722
 2461SOL    HW1 8282   5.448   1.304   2.808
 2461SOL    HW2 8283   5.576   1.363   2.727
 2462SOL     OW 8284   2.076   4.720   6.209
 2462SOL    HW1 8285   2.087   4.723   6.110
 2462SOL    HW2 8286   2.091   4.627   6.242
 2463SOL     OW 8287   6.842   1.679   4.051
 2463SOL    HW1 8288   6.795   1.664   3.964
 2463SOL    HW2 8289   6.880   1.593   4.084
 2464SOL     OW 8290   1.459   3.127   1.145
 2464SOL    HW1 8291   1.382   3.152   1.203
 2464SOL    HW2 8292   1.444   3.163   1.053
 2465SOL     OW 8293   6.230   5.546   3.512
 2465SOL    HW1 8294   6.257   5.604   3.589
 2465SOL    HW2 8295   6.283   5.461   3.514
 2466SOL     OW 8296   3.473   1.533   2.245
 2466SOL    HW1 8297   3.550   1.554   2.306
 2466SOL    HW2 8298   3.468   1.603   2.174
 2467SOL     OW 8299   6.845   1.133   5.749
 2467SOL    HW1 8300   6.842   1.034   5.739
 2467SOL    HW2 8301   6.893   1.173   5.671
 2468SOL     OW 8302   0.328   4.281   0.753
 2468SOL    HW1 8303   0.311   4.210   0.685
 2468SOL    HW2 8304   0.387   4.245   0.825
 2469SOL     OW 8305   2.689   3.079   5.578
 2469SOL    HW1 8306   2.699   3.086   5.478
 2469SOL    HW2 8307   2.593   3.062   5.600
 2470SOL     OW 8308   5.568   3.007   6.978
 2470SOL    HW1 8309   5.538   2.914   6.955
 2470SOL    HW2 8310   5.647   3.031   6.923
 2471SOL     OW 8311   1.142   0.628   3.579
 2471SOL    HW1 8312   1.193   0.714   3.589
 2471SOL    HW2 8313   1.126   0.609   3.482
 2472SOL     OW 8314   5.923   1.517   2.975
 2472SOL    HW1 8315   5.932   1.491   3.071
 2472SOL    HW2 8316   5.912   1.616   2.969
 2473SOL     OW 8317   0.720   6.629   5.116
 2473SOL    HW1 8318   0.705   6.665   5.209
 2473SOL    HW2 8319   0.660   6.677   5.052
 2474SOL     OW 8320   5.580   5.543   4.781
 2474SOL    HW1 8321   5.540   5.569   4.869
 2474SOL    HW2 8322   5.533   5.591   4.707
 2475SOL     OW 8323   4.187   2.442   6.936
 2475SOL    HW1 8324   4.142   2.453   7.025
 2475SOL    HW2 8325   4.141   2.499   6.869
 2476SOL     OW 8326   0.307   2.264   4.122
 2476SOL    HW1 8327   0.391   2.213   4.103
 2476SOL    HW2 8328   0.270   2.236   4.211
 2477SOL     OW 8329   4.240   4.838   1.769
 2477SOL    HW1 8330   4.319   4.793   1.726
 2477SOL    HW2 8331   4.160   4.779   1.759
 2478SOL     OW 8332   6.481   0.060   3.601
 2478SOL    HW1 8333   6.499   6.992   3.588
 2478SOL    HW2 8334   6.478   0.106   3.512
 2479SOL     OW 8335   0.694   3.701   0.213
 2479SOL    HW1 8336   0.761   3.631   0.188
 2479SOL    HW2 8337   0.702   3.720   0.311
 2480SOL     OW 8338   0.913   3.787   1.537
 2480SOL    HW1 8339   0.877   3.846   1.610
 2480SOL    HW2 8340   0.856   3.796   1.455
 2481SOL     OW 8341   4.365   5.335   2.751
 2481SOL    HW1 8342   4.406   5.264   2.808
 2481SOL    HW2 8343   4.300   5.294   2.688
 2482SOL     OW 8344   4.625   2.516   4.174
 2482SOL    HW1 8345   4.610   2.555   4.083
 2482SOL    HW2 8346   4.581   2.427   4.179
 2483SOL     OW 8347   0.799   1.700   6.513
 2483SOL    HW1 8348   0.878   1.722   6.455
 2483SOL    HW2 8349   0.800   1.603   6.535
 2484SOL     OW 8350   3.135   2.076   6.155
 2484SOL    HW1 8351   3.177   2.023   6.082
 2484SOL    HW2 8352   3.158   2.173   6.144
 2485SOL     OW 8353   0.706   6.164   2.131
 2485SOL    HW1 8354   0.631   6.228   2.146
 2485SOL    HW2 8355   0.792   6.207   2.161
 2486SOL     OW 8356   0.764   4.770   3.292
 2486SOL    HW1 8357   0.836   4.838   3.307
 2486SOL    HW2 8358   0.778   4.692   3.353
 2487SOL     OW 8359   2.935   0.867   1.140
 2487SOL    HW1 8360   2.934   0.791   1.204
 2487SOL    HW2 8361   2.994   0.940   1.176
 2488SOL     OW 8362   3.469   6.409   6.399
 2488SOL    HW1 8363   3.448   6.391   6.303
 2488SOL    HW2 8364   3.488   6.506   6.411
 2489SOL     OW 8365   0.136   5.591   4.335
 2489SOL    HW1 8366   0.050   5.554   4.299
 2489SOL    HW2 8367   0.124   5.688   4.357
 2490SOL     OW 8368   5.282   3.747   1.580
 2490SOL    HW1 8369   5.371   3.763   1.538
 2490SOL    HW2 8370   5.213   3.734   1.509
 2491SOL     OW 8371   0.862   4.670   3.034
 2491SOL    HW1 8372   0.917   4.587   3.047
 2491SOL    HW2 8373   0.819   4.695   3.121
 2492SOL     OW 8374   4.598   2.640   5.910
 2492SOL    HW1 8375   4.670   2.696   5.952
 2492SOL    HW2 8376   4.632   2.601   5.825
 2493SOL     OW 8377   6.400   1.542   3.947
 2493SOL    HW1 8378   6.446   1.629   3.964
 2493SOL    HW2 8379   6.465   1.467   3.961
 2494SOL     OW 8380   4.820   4.165   1.437
 2494SOL    HW1 8381   4.799   4.084   1.381
 2494SOL    HW2 8382   4.914   4.159   1.470
 2495SOL     OW 8383   6.104   1.256   3.895
 2495SOL    HW1 8384   6.012   1.225   3.874
 2495SOL    HW2 8385   6.117   1.348   3.858
 2496SOL     OW 8386   1.399   5.718   6.731
 2496SOL    HW1 8387   1.302   5.727   6.754
 2496SOL    HW2 8388   1.409   5.703   6.633
 2497SOL     OW 8389   5.434   1.991   6.136
 2497SOL    HW1 8390   5.527   1.995   6.101
 2497SOL    HW2 8391   5.427   1.920   6.206
 2498SOL     OW 8392   1.170   3.688   4.688
 2498SOL    HW1 8393   1.242   3.735   4.739
 2498SOL    HW2 8394   1.210   3.615   4.633
 2499SOL     OW 8395   6.100   0.168   6.096
 2499SOL    HW1 8396   6.116   0.194   6.000
 2499SOL    HW2 8397   6.105   0.069   6.105
 2500SOL     OW 8398   4.773   3.371   6.465
 2500SOL    HW1 8399   4.727   3.424   6.395
 2500SOL    HW2 8400   4.706   3.341   6.534
 2501SOL     OW 8401   6.190   4.656   0.673
 2501SOL    HW1 8402   6.272   4.600   0.684
 2501SOL    HW2 8403   6.201   4.717   0.595
 2502SOL     OW 8404   2.047   6.614   3.185
 2502SOL    HW1 8405   2.132   6.665   3.193
 2502SOL    HW2 8406   2.050   6.555   3.105
 2503SOL     OW 8407   4.929   6.273   4.712
 2503SOL    HW1 8408   4.926   6.266   4.612
 2503SOL    HW2 8409   4.935   6.369   4.738
 2504SOL     OW 8410   1.917   4.072   3.210
 2504SOL    HW1 8411   1.818   4.069   3.222
 2504SOL    HW2 8412   1.938   4.078   3.112
 2505SOL     OW 8413   4.582   4.777   4.061
 2505SOL    HW1 8414   4.538   4.840   3.998
 2505SOL    HW2 8415   4.645   4.718   4.010
 2506SOL     OW 8416   0.230   1.912   0.928
 2506SOL    HW1 8417   0.224   1.930   0.829
 2506SOL    HW2 8418   0.138   1.910   0.967
 2507SOL     OW 8419   6.186   5.746   1.248
 2507SOL    HW1 8420   6.203   5.796   1.163
 2507SOL    HW2 8421   6.261   5.763   1.312
 2508SOL     OW 8422   2.520   2.528   2.066
 2508SOL    HW1 8423   2.490   2.455   2.006
 2508SOL    HW2 8424   2.588   2.493   2.131
 2509SOL     OW 8425   5.176   1.719   3.154
 2509SOL    HW1 8426   5.227   1.657   3.214
 2509SOL    HW2 8427   5.237   1.755   3.084
 2510SOL     OW 8428   3.792   5.860   0.734
 2510SOL    HW1 8429   3.709   5.824   0.691
 2510SOL    HW2 8430   3.873   5.826   0.687
 2511SOL     OW 8431   0.757   6.539   4.353
 2511SOL    HW1 8432   0.834   6.603   4.355
 2511SOL    HW2 8433   0.740   6.504   4.445
 2512SOL     OW 8434   5.377   2.878   4.083
 2512SOL    HW1 8435   5.460   2.837   4.122
 2512SOL    HW2 8436   5.393   2.976   4.069
 2513SOL     OW 8437   0.240   4.863   1.513
 2513SOL    HW1 8438   0.339   4.879   1.506
 2513SOL    HW2 8439   0.203   4.922   1.585
 2514SOL     OW 8440   1.034   1.815   4.179
 2514SOL    HW1 8441   1.054   1.765   4.095
 2514SOL    HW2 8442   1.067   1.763   4.257
 2515SOL     OW 8443   0.893   4.951   0.225
 2515SOL    HW1 8444   0.815   4.956   0.288
 2515SOL    HW2 8445   0.945   5.036   0.230
 2516SOL     OW 8446   5.084   6.130   4.201
 2516SOL    HW1 8447   5.107   6.141   4.298
 2516SOL    HW2 8448   5.104   6.215   4.152
 2517SOL     OW 8449   2.781   5.136   0.734
 2517SOL    HW1 8450   2.754   5.124   0.639
 2517SOL    HW2 8451   2.703   5.117   0.794
 2518SOL     OW 8452   2.748   2.282   5.896
 2518SOL    HW1 8453   2.686   2.264   5.973
 2518SOL    HW2 8454   2.834   2.233   5.910
 2519SOL     OW 8455   5.124   4.145   4.647
 2519SOL    HW1 8456   5.046   4.101   4.692
 2519SOL    HW2 8457   5.099   4.238   4.621
 2520SOL     OW 8458   2.778   4.968   2.252
 2520SOL    HW1 8459   2.727   5.015   2.324
 2520SOL    HW2 8460   2.772   4.869   2.266
 2521SOL     OW 8461   5.998   6.918   5.913
 2521SOL    HW1 8462   6.045   6.883   5.832
 2521SOL    HW2 8463   6.052   6.897   5.995
 2522SOL     OW 8464   0.953   3.028   5.049
 2522SOL    HW1 8465   0.962   3.125   5.069
 2522SOL    HW2 8466   1.009   3.005   4.969
 2523SOL     OW 8467   6.531   2.763   6.427
 2523SOL    HW1 8468   6.584   2.781   6.344
 2523SOL    HW2 8469   6.515   2.664   6.435
 2524SOL     OW 8470   0.593   0.137   5.052
 2524SOL    HW1 8471   0.568   0.147   4.956
 2524SOL    HW2 8472   0.531   0.072   5.096
 2525SOL     OW 8473   1.674   4.480   2.973
 2525SOL    HW1 8474   1.667   4.461   3.071
 2525SOL    HW2 8475   1.739   4.417   2.931
 2526SOL     OW 8476   0.422   2.334   5.764
 2526SOL    HW1 8477   0.441   2.336   5.666
 2526SOL    HW2 8478   0.483   2.268   5.809
 2527SOL     OW 8479   5.712   6.948   3.593
 2527SOL    HW1 8480   5.619   6.915   3.613
 2527SOL    HW2 8481   5.757   6.975   3.679
 2528SOL     OW 8482   5.999   5.371   0.673
 2528SOL    HW1 8483   5.923   5.332   0.622
 2528SOL    HW2 8484   5.982   5.362   0.771
 2529SOL     OW 8485   5.537   3.911   5.066
 2529SOL    HW1 8486   5.468   3.916   5.138
 2529SOL    HW2 8487   5.510   3.842   4.998
 2530SOL     OW 8488   1.498   6.462   3.965
 2530SOL    HW1 8489   1.576   6.494   3.912
 2530SOL    HW2 8490   1.421   6.525   3.953
 2531SOL     OW 8491   5.138   1.328   0.798
 2531SOL    HW1 8492   5.074   1.260   0.836
 2531SOL    HW2 8493   5.087   1.395   0.744
 2532SOL     OW 8494   1.529   4.241   5.801
 2532SOL    HW1 8495   1.493   4.321   5.752
 2532SOL    HW2 8496   1.458   4.205   5.861
 2533SOL     OW 8497   5.862   6.619   5.167
 2533SOL    HW1 8498   5.851   6.687   5.240
 2533SOL    HW2 8499   5.772   6.596   5.130
 2534SOL     OW 8500   6.748   2.198   3.693
 2534SOL    HW1 8501   6.820   2.261   3.665
 2534SOL    HW2 8502   6.761   2.110   3.649
 2535SOL     OW 8503   1.962   1.132   3.057
 2535SOL    HW1 8504   1.871   1.117   3.019
 2535SOL    HW2 8505   1.953   1.168   3.150
 2536SOL     OW 8506   6.669   0.609   3.871
 2536SOL    HW1 8507   6.646   0.512   3.875
 2536SOL    HW2 8508   6.610   0.660   3.933
 2537SOL     OW 8509   4.347   5.275   1.618
 2537SOL    HW1 8510   4.247   5.274   1.621
 2537SOL    HW2 8511   4.380   5.369   1.633
 2538SOL     OW 8512   1.651   4.258   5.083
 2538SOL    HW1 8513   1.619   4.336   5.030
 2538SOL    HW2 8514   1.730   4.285   5.139
 2539SOL     OW 8515   2.548   0.616   6.016
 2539SOL    HW1 8516   2.601   0.572   5.943
 2539SOL    HW2 8517   2.505   0.699   5.980
 2540SOL     OW 8518   5.545   1.978   2.351
 2540SOL    HW1 8519   5.531   1.950   2.446
 2540SOL    HW2 8520   5.626   2.036   2.345
 2541SOL     OW 8521   0.098   6.845   5.847
 2541SOL    HW1 8522   0.170   6.826   5.914
 2541SOL    HW2 8523   0.133   6.910   5.779
 2542SOL     OW 8524   3.644   1.483   3.956
 2542SOL    HW1 8525   3.627   1.416   3.884
 2542SOL    HW2 8526   3.613   1.446   4.044
 2543SOL     OW 8527   0.269   2.262   4.677
 2543SOL    HW1 8528   0.360   2.239   4.641
 2543SOL    HW2 8529   0.241   2.351   4.643
 2544SOL     OW 8530   6.406   6.104   2.674
 2544SOL    HW1 8531   6.434   6.172   2.742
 2544SOL    HW2 8532   6.421   6.012   2.710
 2545SOL     OW 8533   6.705   1.704   0.006
 2545SOL    HW1 8534   6.660   1.618   0.029
 2545SOL    HW2 8535   6.638   1.767   6.995
 2546SOL     OW 8536   6.582   3.886   2.557
 2546SOL    HW1 8537   6.555   3.970   2.604
 2546SOL    HW2 8538   6.582   3.903   2.458
 2547SOL     OW 8539   5.523   3.712   0.940
 2547SOL    HW1 8540   5.596   3.779   0.955
 2547SOL    HW2 8541   5.547   3.625   0.983
 2548SOL     OW 8542   6.751   6.412   5.535
 2548SOL    HW1 8543   6.683   6.389   5.605
 2548SOL    HW2 8544   6.780   6.507   5.547
 2549SOL     OW 8545   2.829   3.231   0.307
 2549SOL    HW1 8546   2.860   3.312   0.259
 2549SOL    HW2 8547   2.836   3.246   0.406
 2550SOL     OW 8548   4.085   6.401   6.801
 2550SOL    HW1 8549   4.162   6.429   6.744
 2550SOL    HW2 8550   4.109   6.410   6.897
 2551SOL     OW 8551   3.589   5.067   0.931
 2551SOL    HW1 8552   3.645   5.100   1.006
 2551SOL    HW2 8553   3.601   4.968   0.921
 2552SOL     OW 8554   2.517   5.461   1.704
 2552SOL    HW1 8555   2.568   5.428   1.624
 2552SOL    HW2 8556   2.579   5.506   1.767
 2553SOL     OW 8557   4.218   1.615   0.040
 2553SOL    HW1 8558   4.266   1.701   0.023
 2553SOL    HW2 8559   4.160   1.625   0.121
 2554SOL     OW 8560   1.530   5.711   1.726
 2554SOL    HW1 8561   1.436   5.683   1.749
 2554SOL    HW2 8562   1.587   5.630   1.716
 2555SOL     OW 8563   5.849   6.858   4.540
 2555SOL    HW1 8564   5.801   6.860   4.628
 2555SOL    HW2 8565   5.947   6.850   4.555
 2556SOL     OW 8566   3.543   6.891   0.213
 2556SOL    HW1 8567   3.526   6.808   0.159
 2556SOL    HW2 8568   3.641   6.906   0.221
 2557SOL     OW 8569   2.797   0.620   0.024
 2557SOL    HW1 8570   2.812   0.570   0.109
 2557SOL    HW2 8571   2.880   0.668   7.026
 2558SOL     OW 8572   5.070   3.440   1.511
 2558SOL    HW1 8573   5.140   3.384   1.468
 2558SOL    HW2 8574   4.987   3.439   1.455
 2559SOL     OW 8575   0.687   4.553   3.790
 2559SOL    HW1 8576   0.756   4.481   3.797
 2559SOL    HW2 8577   0.606   4.517   3.743
 2560SOL     OW 8578   4.724   2.284   3.290
 2560SOL    HW1 8579   4.789   2.271   3.216
 2560SOL    HW2 8580   4.698   2.195   3.328
 2561SOL     OW 8581   3.831   0.245   4.532
 2561SOL    HW1 8582   3.735   0.255   4.506
 2561SOL    HW2 8583   3.887   0.239   4.450
 2562SOL     OW 8584   2.061   6.547   4.498
 2562SOL    HW1 8585   2.012   6.519   4.580
 2562SOL    HW2 8586   2.143   6.600   4.524
 2563SOL     OW 8587   3.650   2.738   6.219
 2563SOL    HW1 8588   3.609   2.824   6.191
 2563SOL    HW2 8589   3.713   2.755   6.295
 2564SOL     OW 8590   1.259   1.716   0.059
 2564SOL    HW1 8591   1.354   1.741   0.036
 2564SOL    HW2 8592   1.197   1.754   7.018
 2565SOL     OW 8593   1.185   1.560   0.509
 2565SOL    HW1 8594   1.166   1.622   0.433
 2565SOL    HW2 8595   1.284   1.549   0.519
 2566SOL     OW 8596   2.740   0.594   1.441
 2566SOL    HW1 8597   2.663   0.532   1.450
 2566SOL    HW2 8598   2.710   0.688   1.460
 2567SOL     OW 8599   1.992   1.184   6.983
 2567SOL    HW1 8600   1.958   1.154   6.894
 2567SOL    HW2 8601   2.073   1.130   7.008
 2568SOL     OW 8602   2.760   6.298   0.338
 2568SOL    HW1 8603   2.781   6.200   0.332
 2568SOL    HW2 8604   2.843   6.350   0.316
 2569SOL     OW 8605   2.047   0.303   1.067
 2569SOL    HW1 8606   1.979   0.376   1.075
 2569SOL    HW2 8607   2.116   0.328   0.999
 2570SOL     OW 8608   0.104   5.999   4.907
 2570SOL    HW1 8609   0.127   6.004   5.004
 2570SOL    HW2 8610   0.188   6.005   4.853
 2571SOL     OW 8611   3.229   3.672   4.017
 2571SOL    HW1 8612   3.152   3.733   3.998
 2571SOL    HW2 8613   3.313   3.714   3.982
 2572SOL     OW 8614   1.714   5.354   2.173
 2572SOL    HW1 8615   1.639   5.421   2.174
 2572SOL    HW2 8616   1.683   5.270   2.128
 2573SOL     OW 8617   0.182   1.906   4.349
 2573SOL    HW1 8618   0.239   1.943   4.275
 2573SOL    HW2 8619   0.222   1.820   4.381
 2574SOL     OW 8620   0.833   3.930   1.760
 2574SOL    HW1 8621   0.734   3.914   1.759
 2574SOL    HW2 8622   0.874   3.881   1.837
 2575SOL     OW 8623   5.815   3.332   6.319
 2575SOL    HW1 8624   5.887   3.353   6.253
 2575SOL    HW2 8625   5.730   3.377   6.292
 2576SOL     OW 8626   1.831   0.214   3.841
 2576SOL    HW1 8627   1.816   0.167   3.928
 2576SOL    HW2 8628   1.845   0.312   3.858
 2577SOL     OW 8629   2.194   5.942   1.717
 2577SOL    HW1 8630   2.271   5.884   1.689
 2577SOL    HW2 8631   2.108   5.893   1.700
 2578SOL     OW 8632   4.917   2.112   3.952
 2578SOL    HW1 8633   4.948   2.180   3.885
 2578SOL    HW2 8634   4.903   2.025   3.906
 2579SOL     OW 8635   6.717   1.321   6.137
 2579SOL    HW1 8636   6.760   1.330   6.227
 2579SOL    HW2 8637   6.680   1.409   6.108
 2580SOL     OW 8638   1.563   1.831   6.135
 2580SOL    HW1 8639   1.622   1.892   6.082
 2580SOL    HW2 8640   1.613   1.797   6.215
 2581SOL     OW 8641   6.552   6.823   4.534
 2581SOL    HW1 8642   6.480   6.771   4.579
 2581SOL    HW2 8643   6.544   6.812   4.435
 2582SOL     OW 8644   0.178   5.348   2.857
 2582SOL    HW1 8645   0.107   5.293   2.902
 2582SOL    HW2 8646   0.255   5.362   2.920
 2583SOL     OW 8647   1.961   1.104   6.740
 2583SOL    HW1 8648   2.005   1.015   6.732
 2583SOL    HW2 8649   1.976   1.156   6.655
 2584SOL     OW 8650   5.219   6.935   2.095
 2584SOL    HW1 8651   5.272   6.906   2.174
 2584SOL    HW2 8652   5.154   6.862   2.071
 2585SOL     OW 8653   4.452   1.037   1.609
 2585SOL    HW1 8654   4.435   1.110   1.675
 2585SOL    HW2 8655   4.543   1.050   1.568
 2586SOL     OW 8656   6.720   1.772   4.524
 2586SOL    HW1 8657   6.723   1.672   4.518
 2586SOL    HW2 8658   6.788   1.811   4.462
 2587SOL     OW 8659   6.530   6.674   2.285
 2587SOL    HW1 8660   6.589   6.701   2.209
 2587SOL    HW2 8661   6.478   6.753   2.317
 2588SOL     OW 8662   5.109   0.634   1.725
 2588SOL    HW1 8663   5.097   0.538   1.750
 2588SOL    HW2 8664   5.063   0.652   1.638
 2589SOL     OW 8665   5.642   6.229   0.492
 2589SOL    HW1 8666   5.673   6.185   0.408
 2589SOL    HW2 8667   5.684   6.184   0.571
 2590SOL     OW 8668   3.964   6.725   2.724
 2590SOL    HW1 8669   3.887   6.789   2.717
 2590SOL    HW2 8670   4.036   6.767   2.779
 2591SOL     OW 8671   5.612   0.328   1.842
 2591SOL    HW1 8672   5.530   0.334   1.785
 2591SOL    HW2 8673   5.585   0.328   1.938
 2592SOL     OW 8674   3.298   5.057   1.681
 2592SOL    HW1 8675   3.275   5.154   1.688
 2592SOL    HW2 8676   3.343   5.028   1.766
 2593SOL     OW 8677   3.343   6.770   2.862
 2593SOL    HW1 8678   3.420   6.795   2.804
 2593SOL    HW2 8679   3.303   6.683   2.830
 2594SOL     OW 8680   1.135   6.308   5.906
 2594SOL    HW1 8681   1.158   6.311   6.003
 2594SOL    HW2 8682   1.176   6.227   5.864
 2595SOL     OW 8683   6.067   3.328   4.007
 2595SOL    HW1 8684   6.016   3.384   4.072
 2595SOL    HW2 8685   6.161   3.359   4.002
 2596SOL     OW 8686   4.344   1.955   1.693
 2596SOL    HW1 8687   4.248   1.979   1.679
 2596SOL    HW2 8688   4.382   1.917   1.608
 2597SOL     OW 8689   1.974   2.698   6.609
 2597SOL    HW1 8690   1.959   2.734   6.701
 2597SOL    HW2 8691   1.887   2.696   6.560
 2598SOL     OW 8692   5.674   2.779   2.814
 2598SOL    HW1 8693   5.594   2.823   2.773
 2598SOL    HW2 8694   5.647   2.726   2.894
 2599SOL     OW 8695   4.572   3.999   6.774
 2599SOL    HW1 8696   4.631   3.970   6.699
 2599SOL    HW2 8697   4.480   3.962   6.760
 2600SOL     OW 8698   6.652   3.582   3.582
 2600SOL    HW1 8699   6.735   3.552   3.628
 2600SOL    HW2 8700   6.595   3.503   3.560
 2601SOL     OW 8701   3.462   3.300   5.716
 2601SOL    HW1 8702   3.390   3.269   5.778
 2601SOL    HW2 8703   3.550   3.299   5.764
 2602SOL     OW 8704   5.876   5.979   5.636
 2602SOL    HW1 8705   5.912   5.903   5.582
 2602SOL    HW2 8706   5.942   6.055   5.634
 2603SOL     OW 8707   2.247   2.892   0.050
 2603SOL    HW1 8708   2.313   2.960   0.016
 2603SOL    HW2 8709   2.228   2.825   7.006
 2604SOL     OW 8710   5.508   1.331   1.493
 2604SOL    HW1 8711   5.606   1.335   1.507
 2604SOL    HW2 8712   5.463   1.299   1.576
 2605SOL     OW 8713   5.005   4.247   3.817
 2605SOL    HW1 8714   4.916   4.240   3.772
 2605SOL    HW2 8715   4.998   4.213   3.910
 2606SOL     OW 8716   0.027   4.636   1.735
 2606SOL    HW1 8717   7.028   4.726   1.769
 2606SOL    HW2 8718   0.067   4.583   1.809
 2607SOL     OW 8719   0.583   1.935   4.958
 2607SOL    HW1 8720   0.587   2.024   4.911
 2607SOL    HW2 8721   0.626   1.865   4.901
 2608SOL     OW 8722   4.930   0.268   0.617
 2608SOL    HW1 8723   4.849   0.210   0.629
 2608SOL    HW2 8724   4.901   0.364   0.611
 2609SOL     OW 8725   0.424   2.389   4.426
 2609SOL    HW1 8726   0.333   2.354   4.404
 2609SOL    HW2 8727   0.440   2.474   4.375
 2610SOL     OW 8728   5.965   5.919   4.891
 2610SOL    HW1 8729   6.024   5.876   4.823
 2610SOL    HW2 8730   5.870   5.917   4.858
 2611SOL     OW 8731   3.194   6.101   1.794
 2611SOL    HW1 8732   3.267   6.133   1.854
 2611SOL    HW2 8733   3.205   6.142   1.704
 2612SOL     OW 8734   6.291   6.864   4.659
 2612SOL    HW1 8735   6.270   6.962   4.662
 2612SOL    HW2 8736   6.225   6.818   4.598
 2613SOL     OW 8737   3.902   1.106   0.980
 2613SOL    HW1 8738   3.980   1.110   0.917
 2613SOL    HW2 8739   3.929   1.057   1.063
 2614SOL     OW 8740   0.345   5.903   6.411
 2614SOL    HW1 8741   0.370   5.865   6.321
 2614SOL    HW2 8742   0.421   5.955   6.448
 2615SOL     OW 8743   5.560   5.139   1.871
 2615SOL    HW1 8744   5.462   5.143   1.891
 2615SOL    HW2 8745   5.591   5.044   1.873
 2616SOL     OW 8746   3.615   3.397   2.720
 2616SOL    HW1 8747   3.653   3.464   2.656
 2616SOL    HW2 8748   3.666   3.400   2.805
 2617SOL     OW 8749   3.524   0.076   1.510
 2617SOL    HW1 8750   3.504   7.014   1.471
 2617SOL    HW2 8751   3.537   0.067   1.609
 2618SOL     OW 8752   0.893   0.499   0.512
 2618SOL    HW1 8753   0.835   0.487   0.431
 2618SOL    HW2 8754   0.847   0.459   0.592
 2619SOL     OW 8755   5.467   1.589   1.383
 2619SOL    HW1 8756   5.439   1.518   1.319
 2619SOL    HW2 8757   5.566   1.583   1.397
 2620SOL     OW 8758   1.526   4.496   4.483
 2620SOL    HW1 8759   1.592   4.563   4.518
 2620SOL    HW2 8760   1.444   4.543   4.451
 2621SOL     OW 8761   1.362   4.571   3.974
 2621SOL    HW1 8762   1.366   4.472   3.961
 2621SOL    HW2 8763   1.305   4.612   3.902
 2622SOL     OW 8764   2.823   3.204   6.353
 2622SOL    HW1 8765   2.870   3.283   6.312
 2622SOL    HW2 8766   2.789   3.144   6.281
 2623SOL     OW 8767   3.184   1.012   5.967
 2623SOL    HW1 8768   3.090   1.008   6.001
 2623SOL    HW2 8769   3.225   1.099   5.994
 2624SOL     OW 8770   6.544   2.103   4.242
 2624SOL    HW1 8771   6.641   2.096   4.265
 2624SOL    HW2 8772   6.506   2.011   4.231
 2625SOL     OW 8773   4.731   0.480   5.187
 2625SOL    HW1 8774   4.751   0.557   5.127
 2625SOL    HW2 8775   4.735   0.511   5.282
 2626SOL     OW 8776   2.229   6.650   2.334
 2626SOL    HW1 8777   2.234   6.716   2.409
 2626SOL    HW2 8778   2.206   6.560   2.371
 2627SOL     OW 8779   0.176   0.123   4.752
 2627SOL    HW1 8780   0.085   0.164   4.741
 2627SOL    HW2 8781   0.212   0.147   4.842
 2628SOL     OW 8782   3.338   5.733   5.547
 2628SOL    HW1 8783   3.246   5.693   5.543
 2628SOL    HW2 8784   3.397   5.677   5.605
 2629SOL     OW 8785   3.574   4.255   1.164
 2629SOL    HW1 8786   3.574   4.292   1.257
 2629SOL    HW2 8787   3.644   4.184   1.156
 2630SOL     OW 8788   2.730   2.324   2.447
 2630SOL    HW1 8789   2.818   2.294   2.484
 2630SOL    HW2 8790   2.667   2.344   2.522
 2631SOL     OW 8791   4.540   6.815   4.489
 2631SOL    HW1 8792   4.631   6.776   4.497
 2631SOL    HW2 8793   4.482   6.756   4.432
 2632SOL     OW 8794   5.665   1.742   0.842
 2632SOL    HW1 8795   5.671   1.724   0.744
 2632SOL    HW2 8796   5.581   1.701   0.879
 2633SOL     OW 8797   6.582   2.605   6.751
 2633SOL    HW1 8798   6.499   2.633   6.799
 2633SOL    HW2 8799   6.592   2.505   6.757
 2634SOL     OW 8800   2.606   5.561   1.090
 2634SOL    HW1 8801   2.673   5.514   1.032
 2634SOL    HW2 8802   2.519   5.512   1.088
 2635SOL     OW 8803   5.306   4.760   3.578
 2635SOL    HW1 8804   5.313   4.671   3.532
 2635SOL    HW2 8805   5.286   4.745   3.675
 2636SOL     OW 8806   6.039   0.595   5.298
 2636SOL    HW1 8807   6.115   0.633   5.350
 2636SOL    HW2 8808   6.000   0.665   5.239
 2637SOL     OW 8809   4.773   6.562   2.520
 2637SOL    HW1 8810   4.821   6.625   2.581
 2637SOL    HW2 8811   4.713   6.613   2.459
 2638SOL     OW 8812   5.794   5.594   1.259
 2638SOL    HW1 8813   5.719   5.632   1.313
 2638SOL    HW2 8814   5.881   5.631   1.293
 2639SOL     OW 8815   6.778   6.451   0.269
 2639SOL    HW1 8816   6.802   6.440   0.172
 2639SOL    HW2 8817   6.839   6.394   0.324
 2640SOL     OW 8818   6.609   6.795   6.370
 2640SOL    HW1 8819   6.539   6.866   6.366
 2640SOL    HW2 8820   6.657   6.792   6.282
 2641SOL     OW 8821   5.816   5.065   0.517
 2641SOL    HW1 8822   5.764   4.981   0.507
 2641SOL    HW2 8823   5.810   5.097   0.611
 2642SOL     OW 8824   6.365   0.227   3.812
 2642SOL    HW1 8825   6.437   0.210   3.880
 2642SOL    HW2 8826   6.393   0.191   3.724
 2643SOL     OW 8827   0.926   0.499   2.686
 2643SOL    HW1 8828   0.917   0.487   2.785
 2643SOL    HW2 8829   1.015   0.465   2.656
 2644SOL     OW 8830   0.343   5.363   6.224
 2644SOL    HW1 8831   0.384   5.275   6.200
 2644SOL    HW2 8832   0.321   5.413   6.140
 2645SOL     OW 8833   5.934   5.230   5.654
 2645SOL    HW1 8834   5.971   5.280   5.576
 2645SOL    HW2 8835   5.835   5.246   5.660
 2646SOL     OW 8836   6.511   6.290   6.801
 2646SOL    HW1 8837   6.520   6.194   6.773
 2646SOL    HW2 8838   6.426   6.302   6.852
 2647SOL     OW 8839   3.547   2.260   0.756
 2647SOL    HW1 8840   3.612   2.259   0.680
 2647SOL    HW2 8841   3.455   2.281   0.722
 2648SOL     OW 8842   3.330   0.646   2.501
 2648SOL    HW1 8843   3.308   0.728   2.554
 2648SOL    HW2 8844   3.296   0.565   2.548
 2649SOL     OW 8845   3.713   2.523   5.709
 2649SOL    HW1 8846   3.615   2.533   5.726
 2649SOL    HW2 8847   3.760   2.504   5.795
 2650SOL     OW 8848   0.287   6.550   1.776
 2650SOL    HW1 8849   0.325   6.458   1.773
 2650SOL    HW2 8850   0.333   6.602   1.848
 2651SOL     OW 8851   0.900   0.242   3.572
 2651SOL    HW1 8852   0.900   0.282   3.663
 2651SOL    HW2 8853   0.984   0.267   3.524
 2652SOL     OW 8854   3.142   3.429   2.514
 2652SOL    HW1 8855   3.206   3.437   2.437
 2652SOL    HW2 8856   3.178   3.477   2.593
 2653SOL     OW 8857   6.723   5.703   6.343
 2653SOL    HW1 8858   6.707   5.647   6.262
 2653SOL    HW2 8859   6.702   5.650   6.425
 2654SOL     OW 8860   5.530   2.259   6.128
 2654SOL    HW1 8861   5.477   2.331   6.173
 2654SOL    HW2 8862   5.487   2.170   6.146
 2655SOL     OW 8863   5.135   5.936   4.919
 2655SOL    HW1 8864   5.207   6.006   4.925
 2655SOL    HW2 8865   5.069   5.963   4.849
 2656SOL     OW 8866   5.605   3.568   3.910
 2656SOL    HW1 8867   5.614   3.492   3.846
 2656SOL    HW2 8868   5.591   3.532   4.002
 2657SOL     OW 8869   2.111   2.591   5.950
 2657SOL    HW1 8870   2.098   2.688   5.930
 2657SOL    HW2 8871   2.209   2.570   5.948
 2658SOL     OW 8872   5.842   4.617   5.663
 2658SOL    HW1 8873   5.888   4.529   5.644
 2658SOL    HW2 8874   5.896   4.691   5.622
 2659SOL     OW 8875   6.688   2.772   3.208
 2659SOL    HW1 8876   6.769   2.791   3.151
 2659SOL    HW2 8877   6.674   2.673   3.212
 2660SOL     OW 8878   6.791   1.991   3.500
 2660SOL    HW1 8879   6.869   2.017   3.442
 2660SOL    HW2 8880   6.712   1.972   3.442
 2661SOL     OW 8881   4.553   6.085   1.224
 2661SOL    HW1 8882   4.511   6.074   1.133
 2661SOL    HW2 8883   4.483   6.114   1.289
 2662SOL     OW 8884   3.140   6.816   3.822
 2662SOL    HW1 8885   3.096   6.868   3.895
 2662SOL    HW2 8886   3.233   6.791   3.850
 2663SOL     OW 8887   0.776   4.508   2.673
 2663SOL    HW1 8888   0.759   4.502   2.575
 2663SOL    HW2 8889   0.809   4.419   2.706
 2664SOL     OW 8890   4.131   3.632   1.937
 2664SOL    HW1 8891   4.112   3.629   2.035
 2664SOL    HW2 8892   4.209   3.693   1.920
 2665SOL     OW 8893   4.060   1.108   4.412
 2665SOL    HW1 8894   4.156   1.121   4.387
 2665SOL    HW2 8895   4.038   1.164   4.492
 2666SOL     OW 8896   5.478   6.061   1.389
 2666SOL    HW1 8897   5.500   6.100   1.299
 2666SOL    HW2 8898   5.544   6.094   1.456
 2667SOL     OW 8899   1.443   4.919   3.622
 2667SOL    HW1 8900   1.505   4.981   3.574
 2667SOL    HW2 8901   1.408   4.964   3.704
 2668SOL     OW 8902   0.212   2.418   6.009
 2668SOL    HW1 8903   0.275   2.354   6.054
 2668SOL    HW2 8904   0.265   2.482   5.952
 2669SOL     OW 8905   4.488   4.778   5.722
 2669SOL    HW1 8906   4.551   4.843   5.764
 2669SOL    HW2 8907   4.498   4.781   5.622
 2670SOL     OW 8908   1.474   0.416   6.413
 2670SOL    HW1 8909   1.412   0.355   6.463
 2670SOL    HW2 8910   1.550   0.363   6.375
 2671SOL     OW 8911   2.919   3.703   5.694
 2671SOL    HW1 8912   2.992   3.638   5.716
 2671SOL    HW2 8913   2.870   3.672   5.612
 2672SOL     OW 8914   0.497   4.420   0.593
 2672SOL    HW1 8915   0.578   4.390   0.643
 2672SOL    HW2 8916   0.415   4.389   0.641
 2673SOL     OW 8917   4.772   1.867   3.109
 2673SOL    HW1 8918   4.770   1.962   3.079
 2673SOL    HW2 8919   4.679   1.839   3.135
 2674SOL     OW 8920   5.031   5.453   5.439
 2674SOL    HW1 8921   5.040   5.553   5.434
 2674SOL    HW2 8922   4.980   5.428   5.521
 2675SOL     OW 8923   0.507   3.843   5.837
 2675SOL    HW1 8924   0.585   3.787   5.867
 2675SOL    HW2 8925   0.524   3.877   5.745
 2676SOL     OW 8926   4.236   0.344   2.034
 2676SOL    HW1 8927   4.222   0.414   2.105
 2676SOL    HW2 8928   4.156   0.342   1.973
 2677SOL     OW 8929   2.357   5.069   2.563
 2677SOL    HW1 8930   2.306   5.148   2.598
 2677SOL    HW2 8931   2.295   5.008   2.514
 2678SOL     OW 8932   0.441   5.107   6.184
 2678SOL    HW1 8933   0.418   5.034   6.248
 2678SOL    HW2 8934   0.540   5.117   6.179
 2679SOL     OW 8935   2.484   4.335   1.203
 2679SOL    HW1 8936   2.554   4.369   1.266
 2679SOL    HW2 8937   2.395   4.374   1.227
 2680SOL     OW 8938   0.955   2.084   2.033
 2680SOL    HW1 8939   0.863   2.124   2.028
 2680SOL    HW2 8940   1.014   2.125   1.964
 2681SOL     OW 8941   1.045   1.681   2.655
 2681SOL    HW1 8942   0.997   1.640   2.733
 2681SOL    HW2 8943   1.129   1.630   2.638
 2682SOL     OW 8944   6.272   2.493   3.316
 2682SOL    HW1 8945   6.352   2.519   3.370
 2682SOL    HW2 8946   6.295   2.414   3.259
 2683SOL     OW 8947   1.069   0.079   1.607
 2683SOL    HW1 8948   1.103   7.017   1.633
 2683SOL    HW2 8949   1.144   0.135   1.573
 2684SOL     OW 8950   2.640   6.015   3.199
 2684SOL    HW1 8951   2.677   6.087   3.258
 2684SOL    HW2 8952   2.678   5.927   3.226
 2685SOL     OW 8953   5.560   5.681   5.135
 2685SOL    HW1 8954   5.528   5.588   5.156
 2685SOL    HW2 8955   5.511   5.717   5.056
 2686SOL     OW 8956   1.566   2.797   4.242
 2686SOL    HW1 8957   1.645   2.850   4.210
 2686SOL    HW2 8958   1.562   2.711   4.191
 2687SOL     OW 8959   4.869   5.587   3.152
 2687SOL    HW1 8960   4.914   5.499   3.168
 2687SOL    HW2 8961   4.818   5.584   3.066
 2688SOL     OW 8962   3.925   5.152   6.270
 2688SOL    HW1 8963   3.950   5.208   6.191
 2688SOL    HW2 8964   3.961   5.059   6.258
 2689SOL     OW 8965   6.527   3.181   4.410
 2689SOL    HW1 8966   6.473   3.098   4.425
 2689SOL    HW2 8967   6.601   3.161   4.346
 2690SOL     OW 8968   3.363   3.633   3.545
 2690SOL    HW1 8969   3.316   3.643   3.457
 2690SOL    HW2 8970   3.314   3.566   3.601
 2691SOL     OW 8971   1.019   5.894   1.721
 2691SOL    HW1 8972   1.019   5.993   1.731
 2691SOL    HW2 8973   1.036   5.870   1.626
 2692SOL     OW 8974   0.095   6.251   3.334
 2692SOL    HW1 8975   0.036   6.265   3.255
 2692SOL    HW2 8976   0.158   6.328   3.343
 2693SOL     OW 8977   1.597   3.974   2.982
 2693SOL    HW1 8978   1.600   3.892   3.039
 2693SOL    HW2 8979   1.673   3.973   2.918
 2694SOL     OW 8980   2.514   7.003   3.437
 2694SOL    HW1 8981   2.496   0.073   3.448
 2694SOL    HW2 8982   2.507   6.979   3.340
 2695SOL     OW 8983   3.801   1.844   2.825
 2695SOL    HW1 8984   3.760   1.928   2.861
 2695SOL    HW2 8985   3.895   1.862   2.795
 2696SOL     OW 8986   4.118   3.881   5.574
 2696SOL    HW1 8987   4.023   3.860   5.551
 2696SOL    HW2 8988   4.136   3.858   5.669
 2697SOL     OW 8989   2.752   2.133   4.477
 2697SOL    HW1 8990   2.733   2.105   4.571
 2697SOL    HW2 8991   2.668   2.132   4.424
 2698SOL     OW 8992   2.152   3.484   0.142
 2698SOL    HW1 8993   2.193   3.572   0.117
 2698SOL    HW2 8994   2.200   3.410   0.094
 2699SOL     OW 8995   4.018   5.708   1.586
 2699SOL    HW1 8996   3.952   5.687   1.658
 2699SOL    HW2 8997   3.971   5.753   1.510
 2700SOL     OW 8998   2.109   3.561   2.871
 2700SOL    HW1 8999   2.135   3.465   2.856
 2700SOL    HW2 9000   2.010   3.569   2.861
 2701SOL     OW 9001   2.998   0.009   6.007
 2701SOL    HW1 9002   2.987   6.939   6.003
 2701SOL    HW2 9003   3.079   0.036   5.955
 2702SOL     OW 9004   0.220   0.294   3.089
 2702SOL    HW1 9005   0.146   0.281   3.023
 2702SOL    HW2 9006   0.278   0.212   3.091
 2703SOL     OW 9007   2.012   1.521   2.690
 2703SOL    HW1 9008   1.941   1.471   2.641
 2703SOL    HW2 9009   1.970   1.587   2.753
 2704SOL     OW 9010   1.829   5.614   0.567
 2704SOL    HW1 9011   1.899   5.602   0.496
 2704SOL    HW2 9012   1.823   5.711   0.592
 2705SOL     OW 9013   0.337   4.867   2.997
 2705SOL    HW1 9014   0.392   4.811   3.059
 2705SOL    HW2 9015   0.360   4.963   3.009
 2706SOL     OW 9016   0.219   1.997   1.902
 2706SOL    HW1 9017   0.249   2.092   1.896
 2706SOL    HW2 9018   0.126   1.989   1.865
 2707SOL     OW 9019   2.018   1.462   5.751
 2707SOL    HW1 9020   2.092   1.413   5.797
 2707SOL    HW2 9021   2.006   1.552   5.794
 2708SOL     OW 9022   1.954   2.397   1.106
 2708SOL    HW1 9023   2.038   2.380   1.055
 2708SOL    HW2 9024   1.939   2.496   1.112
 2709SOL     OW 9025   4.728   6.432   0.993
 2709SOL    HW1 9026   4.732   6.415   0.894
 2709SOL    HW2 9027   4.817   6.414   1.034
 2710SOL     OW 9028   5.433   4.034   2.437
 2710SOL    HW1 9029   5.335   4.044   2.422
 2710SOL    HW2 9030   5.458   3.937   2.428
 2711SOL     OW 9031   1.284   0.197   1.984
 2711SOL    HW1 9032   1.219   0.124   1.963
 2711SOL    HW2 9033   1.242   0.286   1.962
 2712SOL     OW 9034   3.037   4.777   0.618
 2712SOL    HW1 9035   3.088   4.842   0.674
 2712SOL    HW2 9036   3.015   4.696   0.672
 2713SOL     OW 9037   2.144   3.148   4.968
 2713SOL    HW1 9038   2.217   3.080   4.975
 2713SOL    HW2 9039   2.151   3.196   4.880
 2714SOL     OW 9040   5.024   0.157   5.247
 2714SOL    HW1 9041   4.942   0.103   5.269
 2714SOL    HW2 9042   5.103   0.096   5.241
 2715SOL     OW 9043   6.843   0.925   6.810
 2715SOL    HW1 9044   6.781   0.867   6.757
 2715SOL    HW2 9045   6.919   0.869   6.844
 2716SOL     OW 9046   0.173   6.838   2.609
 2716SOL    HW1 9047   0.077   6.818   2.628
 2716SOL    HW2 9048   0.194   6.931   2.638
 2717SOL     OW 9049   1.181   0.672   3.048
 2717SOL    HW1 9050   1.123   0.735   2.996
 2717SOL    HW2 9051   1.209   0.596   2.989
 2718SOL     OW 9052   1.564   4.510   3.407
 2718SOL    HW1 9053   1.582   4.489   3.503
 2718SOL    HW2 9054   1.629   4.460   3.350
 2719SOL     OW 9055   4.102   5.150   1.685
 2719SOL    HW1 9056   4.090   5.248   1.669
 2719SOL    HW2 9057   4.074   5.099   1.603
 2720SOL     OW 9058   1.176   6.101   4.277
 2720SOL    HW1 9059   1.100   6.048   4.241
 2720SOL    HW2 9060   1.156   6.199   4.267
 2721SOL     OW 9061   4.373   0.315   4.268
 2721SOL    HW1 9062   4.466   0.319   4.302
 2721SOL    HW2 9063   4.330   0.228   4.296
 2722SOL     OW 9064   1.597   5.960   1.808
 2722SOL    HW1 9065   1.575   5.965   1.905
 2722SOL    HW2 9066   1.577   5.868   1.774
 2723SOL     OW 9067   1.153   1.290   5.069
 2723SOL    HW1 9068   1.245   1.250   5.069
 2723SOL    HW2 9069   1.110   1.274   4.980
 2724SOL     OW 9070   3.618   5.569   6.242
 2724SOL    HW1 9071   3.551   5.632   6.281
 2724SOL    HW2 9072   3.638   5.496   6.307
 2725SOL     OW 9073   3.133   5.040   3.188
 2725SOL    HW1 9074   3.186   5.003   3.264
 2725SOL    HW2 9075   3.181   5.022   3.102
 2726SOL     OW 9076   5.172   5.721   1.917
 2726SOL    HW1 9077   5.222   5.729   1.831
 2726SOL    HW2 9078   5.075   5.743   1.902
 2727SOL     OW 9079   2.067   5.407   3.088
 2727SOL    HW1 9080   2.007   5.480   3.123
 2727SOL    HW2 9081   2.160   5.443   3.077
 2728SOL     OW 9082   3.408   0.260   5.902
 2728SOL    HW1 9083   3.346   0.182   5.900
 2728SOL    HW2 9084   3.387   0.318   5.980
 2729SOL     OW 9085   6.127   5.329   2.889
 2729SOL    HW1 9086   6.177   5.250   2.923
 2729SOL    HW2 9087   6.099   5.312   2.794
 2730SOL     OW 9088   2.316   5.061   1.466
 2730SOL    HW1 9089   2.272   5.008   1.393
 2730SOL    HW2 9090   2.391   5.006   1.505
 2731SOL     OW 9091   3.008   3.762   1.611
 2731SOL    HW1 9092   3.008   3.702   1.691
 2731SOL    HW2 9093   3.088   3.821   1.613
 2732SOL     OW 9094   6.015   2.231   2.809
 2732SOL    HW1 9095   6.016   2.276   2.898
 2732SOL    HW2 9096   6.102   2.185   2.793
 2733SOL     OW 9097   1.441   0.475   5.486
 2733SOL    HW1 9098   1.529   0.522   5.491
 2733SOL    HW2 9099   1.422   0.429   5.573
 2734SOL     OW 9100   2.204   6.055   4.321
 2734SOL    HW1 9101   2.175   5.991   4.250
 2734SOL    HW2 9102   2.301   6.078   4.307
 2735SOL     OW 9103   1.717   4.424   2.095
 2735SOL    HW1 9104   1.781   4.397   2.167
 2735SOL    HW2 9105   1.627   4.383   2.114
 2736SOL     OW 9106   4.223   0.339   5.733
 2736SOL    HW1 9107   4.252   0.261   5.678
 2736SOL    HW2 9108   4.195   0.414   5.673
 2737SOL     OW 9109   4.537   3.257   5.863
 2737SOL    HW1 9110   4.615   3.214   5.907
 2737SOL    HW2 9111   4.555   3.354   5.849
 2738SOL     OW 9112   5.668   4.908   4.012
 2738SOL    HW1 9113   5.616   4.829   4.043
 2738SOL    HW2 9114   5.618   4.953   3.937
 2739SOL     OW 9115   6.251   3.406   1.144
 2739SOL    HW1 9116   6.316   3.330   1.145
 2739SOL    HW2 9117   6.210   3.415   1.235
 2740SOL     OW 9118   6.274   2.321   2.951
 2740SOL    HW1 9119   6.185   2.330   2.996
 2740SOL    HW2 9120   6.308   2.227   2.962
 2741SOL     OW 9121   0.754   2.310   6.044
 2741SOL    HW1 9122   0.852   2.310   6.027
 2741SOL    HW2 9123   0.717   2.402   6.028
 2742SOL     OW 9124   1.852   6.728   5.961
 2742SOL    HW1 9125   1.867   6.805   6.022
 2742SOL    HW2 9126   1.815   6.761   5.874
 2743SOL     OW 9127   4.956   4.538   0.721
 2743SOL    HW1 9128   5.036   4.548   0.662
 2743SOL    HW2 9129   4.907   4.454   0.697
 2744SOL     OW 9130   3.883   1.495   6.671
 2744SOL    HW1 9131   3.966   1.455   6.630
 2744SOL    HW2 9132   3.895   1.503   6.770
 2745SOL     OW 9133   2.203   6.054   0.622
 2745SOL    HW1 9134   2.239   5.972   0.667
 2745SOL    HW2 9135   2.242   6.136   0.665
 2746SOL     OW 9136   1.383   2.138   6.526
 2746SOL    HW1 9137   1.403   2.121   6.430
 2746SOL    HW2 9138   1.468   2.163   6.573
 2747SOL     OW 9139   5.144   5.924   3.898
 2747SOL    HW1 9140   5.127   5.917   3.997
 2747SOL    HW2 9141   5.235   5.962   3.883
 2748SOL     OW 9142   3.974   1.320   4.193
 2748SOL    HW1 9143   3.908   1.246   4.205
 2748SOL    HW2 9144   3.985   1.369   4.280
 2749SOL     OW 9145   4.662   5.350   4.237
 2749SOL    HW1 9146   4.663   5.439   4.191
 2749SOL    HW2 9147   4.651   5.277   4.170
 2750SOL     OW 9148   0.606   5.870   2.115
 2750SOL    HW1 9149   0.536   5.837   2.179
 2750SOL    HW2 9150   0.615   5.969   2.124
 2751SOL     OW 9151   1.099   6.589   6.922
 2751SOL    HW1 9152   1.036   6.550   6.989
 2751SOL    HW2 9153   1.147   6.666   6.964
 2752SOL     OW 9154   6.101   6.179   5.632
 2752SOL    HW1 9155   6.196   6.166   5.603
 2752SOL    HW2 9156   6.097   6.252   5.701
 2753SOL     OW 9157   2.790   5.772   5.337
 2753SOL    HW1 9158   2.724   5.798   5.267
 2753SOL    HW2 9159   2.772   5.678   5.367
 2754SOL     OW 9160   1.000   6.333   4.599
 2754SOL    HW1 9161   0.925   6.359   4.660
 2754SOL    HW2 9162   1.045   6.251   4.634
 2755SOL     OW 9163   4.074   6.193   2.343
 2755SOL    HW1 9164   4.015   6.273   2.333
 2755SOL    HW2 9165   4.125   6.201   2.429
 2756SOL     OW 9166   0.448   2.738   5.389
 2756SOL    HW1 9167   0.433   2.651   5.436
 2756SOL    HW2 9168   0.521   2.728   5.322
 2757SOL     OW 9169   4.045   3.344   6.811
 2757SOL    HW1 9170   3.982   3.417   6.840
 2757SOL    HW2 9171   4.095   3.310   6.890
 2758SOL     OW 9172   0.025   6.503   1.724
 2758SOL    HW1 9173   0.122   6.519   1.741
 2758SOL    HW2 9174   7.004   6.589   1.731
 2759SOL     OW 9175   3.562   3.529   5.915
 2759SOL    HW1 9176   3.615   3.450   5.883
 2759SOL    HW2 9177   3.559   3.598   5.843
 2760SOL     OW 9178   5.602   6.268   2.960
 2760SOL    HW1 9179   5.534   6.309   2.900
 2760SOL    HW2 9180   5.687   6.255   2.910
 2761SOL     OW 9181   1.125   2.446   3.515
 2761SOL    HW1 9182   1.057   2.400   3.572
 2761SOL    HW2 9183   1.209   2.458   3.567
 2762SOL     OW 9184   2.578   2.625   0.371
 2762SOL    HW1 9185   2.587   2.534   0.410
 2762SOL    HW2 9186   2.560   2.691   0.444
 2763SOL     OW 9187   6.662   1.586   4.255
 2763SOL    HW1 9188   6.748   1.599   4.206
 2763SOL    HW2 9189   6.658   1.493   4.292
 2764SOL     OW 9190   0.880   2.970   2.421
 2764SOL    HW1 9191   0.970   2.984   2.464
 2764SOL    HW2 9192   0.886   2.892   2.358
 2765SOL     OW 9193   6.240   6.762   6.685
 2765SOL    HW1 9194   6.183   6.799   6.758
 2765SOL    HW2 9195   6.335   6.792   6.699
 2766SOL     OW 9196   4.575   0.450   6.893
 2766SOL    HW1 9197   4.674   0.437   6.907
 2766SOL    HW2 9198   4.547   0.536   6.936
 2767SOL     OW 9199   0.363   5.246   6.684
 2767SOL    HW1 9200   0.359   5.327   6.743
 2767SOL    HW2 9201   0.337   5.165   6.736
 2768SOL     OW 9202   3.449   6.564   1.563
 2768SOL    HW1 9203   3.544   6.585   1.539
 2768SOL    HW2 9204   3.398   6.542   1.480
 2769SOL     OW 9205   0.763   4.693   5.651
 2769SOL    HW1 9206   0.856   4.660   5.634
 2769SOL    HW2 9207   0.730   4.743   5.571
 2770SOL     OW 9208   2.653   6.222   1.012
 2770SOL    HW1 9209   2.693   6.213   0.921
 2770SOL    HW2 9210   2.565   6.174   1.015
 2771SOL     OW 9211   4.732   6.935   4.856
 2771SOL    HW1 9212   4.820   6.894   4.833
 2771SOL    HW2 9213   4.716   7.015   4.798
 2772SOL     OW 9214   4.415   0.774   3.678
 2772SOL    HW1 9215   4.443   0.737   3.767
 2772SOL    HW2 9216   4.484   0.752   3.610
 2773SOL     OW 9217   5.708   2.630   4.928
 2773SOL    HW1 9218   5.624   2.663   4.971
 2773SOL    HW2 9219   5.741   2.549   4.978
 2774SOL     OW 9220   5.958   1.818   4.141
 2774SOL    HW1 9221   6.044   1.833   4.190
 2774SOL    HW2 9222   5.978   1.794   4.046
 2775SOL     OW 9223   0.093   3.601   4.126
 2775SOL    HW1 9224   0.164   3.662   4.162
 2775SOL    HW2 9225   0.116   3.573   4.033
 2776SOL     OW 9226   4.833   5.130   5.969
 2776SOL    HW1 9227   4.929   5.149   5.990
 2776SOL    HW2 9228   4.777   5.145   6.050
 2777SOL     OW 9229   2.494   2.527   6.347
 2777SOL    HW1 9230   2.436   2.457   6.389
 2777SOL    HW2 9231   2.589   2.498   6.349
 2778SOL     OW 9232   2.610   0.528   6.265
 2778SOL    HW1 9233   2.563   0.564   6.185
 2778SOL    HW2 9234   2.671   0.598   6.302
 2779SOL     OW 9235   4.705   0.924   1.154
 2779SOL    HW1 9236   4.676   1.003   1.209
 2779SOL    HW2 9237   4.803   0.909   1.166
 2780SOL     OW 9238   6.904   1.609   5.050
 2780SOL    HW1 9239   6.912   1.604   5.149
 2780SOL    HW2 9240   6.930   1.700   5.018
 2781SOL     OW 9241   5.409   1.284   3.208
 2781SOL    HW1 9242   5.366   1.260   3.295
 2781SOL    HW2 9243   5.506   1.261   3.211
 2782SOL     OW 9244   5.143   0.616   6.193
 2782SOL    HW1 9245   5.229   0.602   6.144
 2782SOL    HW2 9246   5.100   0.700   6.160
 2783SOL     OW 9247   5.868   3.609   1.887
 2783SOL    HW1 9248   5.779   3.635   1.849
 2783SOL    HW2 9249   5.854   3.565   1.976
 2784SOL     OW 9250   0.986   2.564   0.877
 2784SOL    HW1 9251   1.021   2.658   0.878
 2784SOL    HW2 9252   1.041   2.508   0.939
 2785SOL     OW 9253   6.222   3.162   2.303
 2785SOL    HW1 9254   6.284   3.197   2.233
 2785SOL    HW2 9255   6.263   3.083   2.348
 2786SOL     OW 9256   0.752   5.917   6.365
 2786SOL    HW1 9257   0.709   5.998   6.405
 2786SOL    HW2 9258   0.681   5.850   6.342
 2787SOL     OW 9259   6.931   5.307   7.024
 2787SOL    HW1 9260   6.916   5.211   0.020
 2787SOL    HW2 9261   6.891   5.325   6.934
 2788SOL     OW 9262   2.824   6.970   6.250
 2788SOL    HW1 9263   2.870   6.882   6.261
 2788SOL    HW2 9264   2.857   7.015   6.167
 2789SOL     OW 9265   0.950   1.885   5.093
 2789SOL    HW1 9266   0.871   1.835   5.058
 2789SOL    HW2 9267   1.021   1.888   5.023
 2790SOL     OW 9268   1.177   5.373   2.204
 2790SOL    HW1 9269   1.121   5.453   2.179
 2790SOL    HW2 9270   1.172   5.306   2.130
 2791SOL     OW 9271   0.754   3.290   3.294
 2791SOL    HW1 9272   0.752   3.195   3.326
 2791SOL    HW2 9273   0.800   3.347   3.362
 2792SOL     OW 9274   3.443   1.421   5.627
 2792SOL    HW1 9275   3.365   1.382   5.579
 2792SOL    HW2 9276   3.426   1.517   5.647
 2793SOL     OW 9277   3.738   3.676   0.842
 2793SOL    HW1 9278   3.670   3.608   0.870
 2793SOL    HW2 9279   3.713   3.713   0.752
 2794SOL     OW 9280   0.790   2.673   0.004
 2794SOL    HW1 9281   0.887   2.658   7.016
 2794SOL    HW2 9282   0.762   2.623   0.086
 2795SOL     OW 9283   1.015   6.297   1.459
 2795SOL    HW1 9284   1.008   6.386   1.414
 2795SOL    HW2 9285   0.925   6.255   1.466
 2796SOL     OW 9286   1.886   5.721   6.508
 2796SOL    HW1 9287   1.870   5.801   6.566
 2796SOL    HW2 9288   1.799   5.680   6.483
 2797SOL     OW 9289   4.923   4.938   3.541
 2797SOL    HW1 9290   4.934   4.974   3.449
 2797SOL    HW2 9291   4.959   5.005   3.607
 2798SOL     OW 9292   5.341   1.126   1.380
 2798SOL    HW1 9293   5.409   1.183   1.427
 2798SOL    HW2 9294   5.252   1.170   1.384
 2799SOL     OW 9295   3.768   6.459   4.481
 2799SOL    HW1 9296   3.742   6.466   4.577
 2799SOL    HW2 9297   3.820   6.375   4.466
 2800SOL     OW 9298   5.700   0.244   6.048
 2800SOL    HW1 9299   5.728   0.188   5.970
 2800SOL    HW2 9300   5.626   0.305   6.020
 2801SOL     OW 9301   6.889   4.588   4.164
 2801SOL    HW1 9302   6.952   4.618   4.092
 2801SOL    HW2 9303   6.795   4.610   4.138
 2802SOL     OW 9304   1.801   4.957   5.381
 2802SOL    HW1 9305   1.728   4.970   5.447
 2802SOL    HW2 9306   1.875   4.903   5.423
 2803SOL     OW 9307   3.981   2.036   6.076
 2803SOL    HW1 9308   4.050   2.038   6.149
 2803SOL    HW2 9309   3.890   2.053   6.116
 2804SOL     OW 9310   6.897   2.761   3.863
 2804SOL    HW1 9311   6.986   2.729   3.829
 2804SOL    HW2 9312   6.836   2.683   3.875
 2805SOL     OW 9313   3.451   3.078   0.792
 2805SOL    HW1 9314   3.472   3.111   0.884
 2805SOL    HW2 9315   3.357   3.043   0.790
 2806SOL     OW 9316   0.184   3.222   5.949
 2806SOL    HW1 9317   0.240   3.161   5.893
 2806SOL    HW2 9318   0.101   3.174   5.977
 2807SOL     OW 9319   4.085   1.168   3.582
 2807SOL    HW1 9320   4.129   1.082   3.555
 2807SOL    HW2 9321   4.154   1.231   3.617
 2808SOL     OW 9322   0.477   4.630   5.528
 2808SOL    HW1 9323   0.393   4.587   5.562
 2808SOL    HW2 9324   0.468   4.729   5.536
 2809SOL     OW 9325   0.176   5.471   2.098
 2809SOL    HW1 9326   0.082   5.484   2.131
 2809SOL    HW2 9327   0.236   5.537   2.143
 2810SOL     OW 9328   2.468   6.466   3.021
 2810SOL    HW1 9329   2.423   6.476   2.933
 2810SOL    HW2 9330   2.446   6.376   3.060
 2811SOL     OW 9331   0.945   1.074   0.965
 2811SOL    HW1 9332   0.981   1.121   0.885
 2811SOL    HW2 9333   0.846   1.067   0.958
 2812SOL     OW 9334   1.002   1.534   0.976
 2812SOL    HW1 9335   1.066   1.485   0.915
 2812SOL    HW2 9336   0.994   1.629   0.946
 2813SOL     OW 9337   0.627   3.338   1.786
 2813SOL    HW1 9338   0.706   3.307   1.733
 2813SOL    HW2 9339   0.640   3.313   1.882
 2814SOL     OW 9340   2.905   4.214   0.278
 2814SOL    HW1 9341   2.974   4.219   0.206
 2814SOL    HW2 9342   2.935   4.149   0.348
 2815SOL     OW 9343   0.301   4.897   4.831
 2815SOL    HW1 9344   0.391   4.937   4.815
 2815SOL    HW2 9345   0.238   4.927   4.759
 2816SOL     OW 9346   0.501   5.974   5.396
 2816SOL    HW1 9347   0.548   5.995   5.482
 2816SOL    HW2 9348   0.511   6.050   5.332
 2817SOL     OW 9349   3.306   0.713   2.214
 2817SOL    HW1 9350   3.341   0.676   2.300
 2817SOL    HW2 9351   3.210   0.736   2.225
 2818SOL     OW 9352   2.083   0.496   0.653
 2818SOL    HW1 9353   1.993   0.469   0.618
 2818SOL    HW2 9354   2.146   0.506   0.576
 2819SOL     OW 9355   0.817   0.213   6.586
 2819SOL    HW1 9356   0.893   0.275   6.607
 2819SOL    HW2 9357   0.785   0.230   6.493
 2820SOL     OW 9358   1.707   2.502   6.869
 2820SOL    HW1 9359   1.620   2.512   6.918
 2820SOL    HW2 9360   1.780   2.483   6.934
 2821SOL     OW 9361   3.555   3.454   6.193
 2821SOL    HW1 9362   3.567   3.480   6.097
 2821SOL    HW2 9363   3.631   3.397   6.222
 2822SOL     OW 9364   4.890   2.874   6.900
 2822SOL    HW1 9365   4.794   2.903   6.897
 2822SOL    HW2 9366   4.944   2.943   6.947
 2823SOL     OW 9367   4.684   2.745   1.309
 2823SOL    HW1 9368   4.701   2.812   1.382
 2823SOL    HW2 9369   4.699   2.653   1.345
 2824SOL     OW 9370   1.167   3.928   4.494
 2824SOL    HW1 9371   1.192   3.864   4.421
 2824SOL    HW2 9372   1.099   3.885   4.554
 2825SOL     OW 9373   5.381   1.451   6.230
 2825SOL    HW1 9374   5.296   1.431   6.277
 2825SOL    HW2 9375   5.458   1.429   6.289
 2826SOL     OW 9376   2.667   2.777   6.412
 2826SOL    HW1 9377   2.628   2.711   6.476
 2826SOL    HW2 9378   2.760   2.801   6.442
 2827SOL     OW 9379   5.992   1.200   6.386
 2827SOL    HW1 9380   6.005   1.211   6.484
 2827SOL    HW2 9381   6.070   1.153   6.346
 2828SOL     OW 9382   1.500   3.508   1.072
 2828SOL    HW1 9383   1.584   3.551   1.040
 2828SOL    HW2 9384   1.436   3.579   1.103
 2829SOL     OW 9385   3.340   3.605   2.141
 2829SOL    HW1 9386   3.433   3.569   2.139
 2829SOL    HW2 9387   3.331   3.670   2.216
 2830SOL     OW 9388   3.298   6.114   5.108
 2830SOL    HW1 9389   3.329   6.047   5.040
 2830SOL    HW2 9390   3.377   6.165   5.143
 2831SOL     OW 9391   5.789   1.691   1.712
 2831SOL    HW1 9392   5.763   1.607   1.761
 2831SOL    HW2 9393   5.715   1.758   1.720
 2832SOL     OW 9394   0.700   3.886   2.331
 2832SOL    HW1 9395   0.696   3.850   2.238
 2832SOL    HW2 9396   0.707   3.810   2.396
 2833SOL     OW 9397   1.376   2.324   2.279
 2833SOL    HW1 9398   1.442   2.397   2.298
 2833SOL    HW2 9399   1.296   2.363   2.235
 2834SOL     OW 9400   3.679   6.619   4.732
 2834SOL    HW1 9401   3.707   6.557   4.806
 2834SOL    HW2 9402   3.601   6.673   4.762
 2835SOL     OW 9403   6.444   0.664   6.774
 2835SOL    HW1 9404   6.354   0.623   6.783
 2835SOL    HW2 9405   6.507   0.620   6.838
 2836SOL     OW 9406   3.229   5.902   2.619
 2836SOL    HW1 9407   3.327   5.915   2.603
 2836SOL    HW2 9408   3.197   5.822   2.568
 2837SOL     OW 9409   5.046   4.504   1.415
 2837SOL    HW1 9410   5.069   4.416   1.374
 2837SOL    HW2 9411   5.113   4.573   1.386
 2838SOL     OW 9412   6.497   4.399   6.495
 2838SOL    HW1 9413   6.456   4.308   6.487
 2838SOL    HW2 9414   6.442   4.456   6.555
 2839SOL     OW 9415   6.114   3.457   5.137
 2839SOL    HW1 9416   6.203   3.492   5.108
 2839SOL    HW2 9417   6.043   3.524   5.115
 2840SOL     OW 9418   6.746   7.011   4.473
 2840SOL    HW1 9419   6.675   6.944   4.498
 2840SOL    HW2 9420   6.782   6.988   4.383
 2841SOL     OW 9421   5.655   4.187   2.336
 2841SOL    HW1 9422   5.598   4.108   2.356
 2841SOL    HW2 9423   5.624   4.230   2.251
 2842SOL     OW 9424   1.140   0.392   3.747
 2842SOL    HW1 9425   1.224   0.348   3.718
 2842SOL    HW2 9426   1.132   0.481   3.702
 2843SOL     OW 9427   2.276   2.510   3.630
 2843SOL    HW1 9428   2.221   2.428   3.615
 2843SOL    HW2 9429   2.224   2.576   3.685
 2844SOL     OW 9430   5.043   3.650   0.250
 2844SOL    HW1 9431   5.126   3.658   0.194
 2844SOL    HW2 9432   5.054   3.576   0.316
 2845SOL     OW 9433   2.858   1.804   2.045
 2845SOL    HW1 9434   2.821   1.858   2.120
 2845SOL    HW2 9435   2.914   1.730   2.081
 2846SOL     OW 9436   6.849   0.124   6.501
 2846SOL    HW1 9437   6.848   0.198   6.569
 2846SOL    HW2 9438   6.929   0.134   6.442
 2847SOL     OW 9439   4.454   4.938   1.449
 2847SOL    HW1 9440   4.484   4.994   1.526
 2847SOL    HW2 9441   4.438   4.845   1.480
 2848SOL     OW 9442   1.122   4.090   5.597
 2848SOL    HW1 9443   1.183   4.150   5.545
 2848SOL    HW2 9444   1.142   3.995   5.576
 2849SOL     OW 9445   5.383   0.526   2.093
 2849SOL    HW1 9446   5.347   0.453   2.035
 2849SOL    HW2 9447   5.326   0.535   2.175
 2850SOL     OW 9448   1.197   1.011   2.228
 2850SOL    HW1 9449   1.146   0.948   2.168
 2850SOL    HW2 9450   1.145   1.025   2.312
 2851SOL     OW 9451   3.235   3.041   1.596
 2851SOL    HW1 9452   3.178   3.114   1.558
 2851SOL    HW2 9453   3.312   3.080   1.646
 2852SOL     OW 9454   6.507   4.501   5.618
 2852SOL    HW1 9455   6.441   4.505   5.544
 2852SOL    HW2 9456   6.567   4.421   5.605
 2853SOL     OW 9457   0.178   4.044   5.643
 2853SOL    HW1 9458   0.115   4.027   5.718
 2853SOL    HW2 9459   0.135   4.016   5.556
 2854SOL     OW 9460   3.590   0.926   6.102
 2854SOL    HW1 9461   3.573   0.868   6.023
 2854SOL    HW2 9462   3.689   0.938   6.113
 2855SOL     OW 9463   2.423   1.696   4.865
 2855SOL    HW1 9464   2.330   1.694   4.828
 2855SOL    HW2 9465   2.479   1.758   4.810
 2856SOL     OW 9466   0.826   5.673   3.898
 2856SOL    HW1 9467   0.850   5.638   3.808
 2856SOL    HW2 9468   0.753   5.741   3.890
 2857SOL     OW 9469   0.078   4.372   1.080
 2857SOL    HW1 9470   0.173   4.394   1.059
 2857SOL    HW2 9471   0.066   4.272   1.078
 2858SOL     OW 9472   4.423   4.654   2.546
 2858SOL    HW1 9473   4.426   4.590   2.469
 2858SOL    HW2 9474   4.436   4.747   2.512
 2859SOL     OW 9475   5.388   4.857   1.679
 2859SOL    HW1 9476   5.406   4.851   1.580
 2859SOL    HW2 9477   5.326   4.933   1.697
 2860SOL     OW 9478   0.925   0.112   2.524
 2860SOL    HW1 9479   0.893   0.018   2.509
 2860SOL    HW2 9480   1.024   0.115   2.514
 2861SOL     OW 9481   4.631   4.331   5.731
 2861SOL    HW1 9482   4.532   4.346   5.744
 2861SOL    HW2 9483   4.676   4.328   5.821
 2862SOL     OW 9484   4.808   2.685   6.699
 2862SOL    HW1 9485   4.709   2.698   6.697
 2862SOL    HW2 9486   4.850   2.751   6.761
 2863SOL     OW 9487   5.903   1.526   5.200
 2863SOL    HW1 9488   5.819   1.472   5.208
 2863SOL    HW2 9489   5.898   1.605   5.261
 2864SOL     OW 9490   3.598   4.475   0.481
 2864SOL    HW1 9491   3.511   4.428   0.493
 2864SOL    HW2 9492   3.645   4.439   0.401
 2865SOL     OW 9493   5.716   4.931   4.870
 2865SOL    HW1 9494   5.763   4.986   4.939
 2865SOL    HW2 9495   5.739   4.834   4.885
 2866SOL     OW 9496   3.681   4.310   0.240
 2866SOL    HW1 9497   3.781   4.310   0.247
 2866SOL    HW2 9498   3.646   4.219   0.263
 2867SOL     OW 9499   5.693   6.262   2.544
 2867SOL    HW1 9500   5.594   6.267   2.533
 2867SOL    HW2 9501   5.737   6.332   2.487
 2868SOL     OW 9502   0.609   6.972   5.948
 2868SOL    HW1 9503   0.695   6.935   5.912
 2868SOL    HW2 9504   0.623   0.037   5.979
 2869SOL     OW 9505   5.901   5.424   4.149
 2869SOL    HW1 9506   5.969   5.383   4.210
 2869SOL    HW2 9507   5.937   5.424   4.056
 2870SOL     OW 9508   6.780   1.811   2.085
 2870SOL    HW1 9509   6.722   1.729   2.081
 2870SOL    HW2 9510   6.845   1.801   2.160
 2871SOL     OW 9511   4.469   1.313   2.755
 2871SOL    HW1 9512   4.414   1.293   2.674
 2871SOL    HW2 9513   4.422   1.281   2.837
 2872SOL     OW 9514   2.442   1.869   2.509
 2872SOL    HW1 9515   2.445   1.916   2.597
 2872SOL    HW2 9516   2.392   1.926   2.443
 2873SOL     OW 9517   0.623   6.971   1.291
 2873SOL    HW1 9518   0.590   6.882   1.319
 2873SOL    HW2 9519   0.547   7.026   1.258
 2874SOL     OW 9520   2.148   1.353   3.322
 2874SOL    HW1 9521   2.084   1.276   3.321
 2874SOL    HW2 9522   2.168   1.381   3.228
 2875SOL     OW 9523   2.143   6.875   3.162
 2875SOL    HW1 9524   2.120   6.904   3.255
 2875SOL    HW2 9525   2.062   6.883   3.104
 2876SOL     OW 9526   1.755   0.129   1.800
 2876SOL    HW1 9527   1.835   0.142   1.742
 2876SOL    HW2 9528   1.673   0.155   1.749
 2877SOL     OW 9529   1.407   2.449   6.625
 2877SOL    HW1 9530   1.361   2.409   6.545
 2877SOL    HW2 9531   1.339   2.471   6.695
 2878SOL     OW 9532   3.976   3.148   4.017
 2878SOL    HW1 9533   3.999   3.112   3.926
 2878SOL    HW2 9534   3.956   3.072   4.078
 2879SOL     OW 9535   5.177   4.254   0.186
 2879SOL    HW1 9536   5.147   4.184   0.121
 2879SOL    HW2 9537   5.271   4.234   0.215
 2880SOL     OW 9538   2.127   0.730   3.509
 2880SOL    HW1 9539   2.143   0.748   3.412
 2880SOL    HW2 9540   2.215   0.726   3.557
 2881SOL     OW 9541   5.381   6.240   0.192
 2881SOL    HW1 9542   5.432   6.245   0.278
 2881SOL    HW2 9543   5.287   6.273   0.207
 2882SOL     OW 9544   4.671   6.298   0.148
 2882SOL    HW1 9545   4.647   6.259   0.059
 2882SOL    HW2 9546   4.711   6.388   0.135
 2883SOL     OW 9547   5.946   6.592   3.936
 2883SOL    HW1 9548   5.987   6.682   3.920
 2883SOL    HW2 9549   5.848   6.597   3.916
 2884SOL     OW 9550   5.626   5.430   4.214
 2884SOL    HW1 9551   5.600   5.339   4.183
 2884SOL    HW2 9552   5.724   5.443   4.202
 2885SOL     OW 9553   1.269   2.571   3.315
 2885SOL    HW1 9554   1.187   2.541   3.363
 2885SOL    HW2 9555   1.244   2.623   3.234
 2886SOL     OW 9556   2.520   4.039   5.667
 2886SOL    HW1 9557   2.440   4.042   5.728
 2886SOL    HW2 9558   2.598   4.000   5.716
 2887SOL     OW 9559   0.319   5.914   3.059
 2887SOL    HW1 9560   0.418   5.923   3.047
 2887SOL    HW2 9561   0.300   5.862   3.142
 2888SOL     OW 9562   5.989   6.991   6.427
 2888SOL    HW1 9563   5.920   0.035   6.433
 2888SOL    HW2 9564   5.956   6.910   6.476
 2889SOL     OW 9565   3.619   6.228   2.901
 2889SOL    HW1 9566   3.631   6.320   2.938
 2889SOL    HW2 9567   3.683   6.165   2.944
 2890SOL     OW 9568   0.917   2.207   1.582
 2890SOL    HW1 9569   0.924   2.109   1.602
 2890SOL    HW2 9570   0.827   2.227   1.544
 2891SOL     OW 9571   6.762   1.941   4.958
 2891SOL    HW1 9572   6.773   2.008   5.032
 2891SOL    HW2 9573   6.721   1.985   4.878
 2892SOL     OW 9574   5.168   3.995   2.317
 2892SOL    HW1 9575   5.125   3.922   2.264
 2892SOL    HW2 9576   5.113   4.014   2.399
 2893SOL     OW 9577   6.847   5.375   4.695
 2893SOL    HW1 9578   6.916   5.447   4.694
 2893SOL    HW2 9579   6.880   5.297   4.748
 2894SOL     OW 9580   1.981   5.473   2.195
 2894SOL    HW1 9581   1.995   5.534   2.273
 2894SOL    HW2 9582   1.884   5.446   2.191
 2895SOL     OW 9583   4.313   0.058   5.851
 2895SOL    HW1 9584   4.224   0.025   5.882
 2895SOL    HW2 9585   4.310   0.074   5.753
 2896SOL     OW 9586   5.358   0.167   4.352
 2896SOL    HW1 9587   5.316   0.243   4.304
 2896SOL    HW2 9588   5.338   0.173   4.450
 2897SOL     OW 9589   4.039   4.773   3.168
 2897SOL    HW1 9590   4.027   4.839   3.094
 2897SOL    HW2 9591   3.963   4.781   3.232
 2898SOL     OW 9592   5.243   3.064   2.620
 2898SOL    HW1 9593   5.227   3.147   2.567
 2898SOL    HW2 9594   5.277   2.992   2.559
 2899SOL     OW 9595   6.922   3.682   0.873
 2899SOL    HW1 9596   6.955   3.587   0.877
 2899SOL    HW2 9597   6.920   3.721   0.965
 2900SOL     OW 9598   2.441   3.091   5.692
 2900SOL    HW1 9599   2.387   3.176   5.682
 2900SOL    HW2 9600   2.410   3.042   5.773
 2901SOL     OW 9601   0.663   3.768   3.133
 2901SOL    HW1 9602   0.569   3.799   3.140
 2901SOL    HW2 9603   0.668   3.670   3.155
 2902SOL     OW 9604   6.450   6.419   4.110
 2902SOL    HW1 9605   6.418   6.461   4.025
 2902SOL    HW2 9606   6.379   6.427   4.180
 2903SOL     OW 9607   5.152   4.572   0.523
 2903SOL    HW1 9608   5.169   4.484   0.567
 2903SOL    HW2 9609   5.098   4.557   0.440
 2904SOL     OW 9610   2.185   4.153   5.220
 2904SOL    HW1 9611   2.232   4.110   5.144
 2904SOL    HW2 9612   2.233   4.131   5.305
 2905SOL     OW 9613   1.723   6.103   1.280
 2905SOL    HW1 9614   1.722   6.195   1.319
 2905SOL    HW2 9615   1.652   6.047   1.324
 2906SOL     OW 9616   6.037   6.231   4.492
 2906SOL    HW1 9617   5.983   6.148   4.476
 2906SOL    HW2 9618   6.058   6.239   4.590
 2907SOL     OW 9619   0.402   1.009   4.642
 2907SOL    HW1 9620   0.383   1.105   4.665
 2907SOL    HW2 9621   0.476   0.975   4.700
 2908SOL     OW 9622   4.433   6.968   3.164
 2908SOL    HW1 9623   4.428   6.914   3.248
 2908SOL    HW2 9624   4.359   0.007   3.164
 2909SOL     OW 9625   6.890   6.468   1.485
 2909SOL    HW1 9626   6.817   6.521   1.530
 2909SOL    HW2 9627   6.963   6.450   1.551
 2910SOL     OW 9628   0.761   0.603   4.201
 2910SOL    HW1 9629   0.772   0.536   4.274
 2910SOL    HW2 9630   0.669   0.598   4.164
 2911SOL     OW 9631   0.215   4.258   5.413
 2911SOL    HW1 9632   0.217   4.215   5.504
 2911SOL    HW2 9633   0.161   4.201   5.351
 2912SOL     OW 9634   1.295   1.388   1.640
 2912SOL    HW1 9635   1.258   1.475   1.671
 2912SOL    HW2 9636   1.295   1.386   1.540
 2913SOL     OW 9637   3.094   6.597   2.849
 2913SOL    HW1 9638   3.125   6.555   2.935
 2913SOL    HW2 9639   3.045   6.681   2.869
 2914SOL     OW 9640   4.221   5.603   0.976
 2914SOL    HW1 9641   4.237   5.506   0.958
 2914SOL    HW2 9642   4.173   5.613   1.063
 2915SOL     OW 9643   2.672   0.191   3.244
 2915SOL    HW1 9644   2.606   0.121   3.270
 2915SOL    HW2 9645   2.763   0.151   3.238
 2916SOL     OW 9646   1.712   6.396   6.950
 2916SOL    HW1 9647   1.703   6.296   6.947
 2916SOL    HW2 9648   1.764   6.426   6.870
 2917SOL     OW 9649   2.841   6.926   3.722
 2917SOL    HW1 9650   2.872   7.016   3.753
 2917SOL    HW2 9651   2.841   6.923   3.622
 2918SOL     OW 9652   4.783   2.928   1.523
 2918SOL    HW1 9653   4.784   3.016   1.476
 2918SOL    HW2 9654   4.846   2.930   1.600
 2919SOL     OW 9655   0.649   5.773   5.158
 2919SOL    HW1 9656   0.689   5.739   5.073
 2919SOL    HW2 9657   0.689   5.861   5.182
 2920SOL     OW 9658   2.111   2.530   2.810
 2920SOL    HW1 9659   2.137   2.457   2.873
 2920SOL    HW2 9660   2.168   2.526   2.728
 2921SOL     OW 9661   1.171   6.306   3.909
 2921SOL    HW1 9662   1.111   6.323   3.988
 2921SOL    HW2 9663   1.188   6.392   3.861
 2922SOL     OW 9664   3.786   5.956   4.349
 2922SOL    HW1 9665   3.721   6.014   4.299
 2922SOL    HW2 9666   3.860   5.929   4.288
 2923SOL     OW 9667   6.597   5.328   5.160
 2923SOL    HW1 9668   6.577   5.387   5.237
 2923SOL    HW2 9669   6.583   5.378   5.074
 2924SOL     OW 9670   6.203   1.407   5.955
 2924SOL    HW1 9671   6.239   1.495   5.924
 2924SOL    HW2 9672   6.234   1.390   6.049
 2925SOL     OW 9673   5.648   6.592   5.007
 2925SOL    HW1 9674   5.654   6.536   4.925
 2925SOL    HW2 9675   5.555   6.628   5.016
 2926SOL     OW 9676   6.518   2.581   4.509
 2926SOL    HW1 9677   6.565   2.603   4.594
 2926SOL    HW2 9678   6.585   2.566   4.436
 2927SOL     OW 9679   1.197   1.967   1.747
 2927SOL    HW1 9680   1.184   1.882   1.697
 2927SOL    HW2 9681   1.260   1.953   1.823
 2928SOL     OW 9682   6.301   3.089   0.217
 2928SOL    HW1 9683   6.390   3.047   0.198
 2928SOL    HW2 9684   6.231   3.046   0.161
 2929SOL     OW 9685   2.164   2.204   4.155
 2929SOL    HW1 9686   2.221   2.281   4.127
 2929SOL    HW2 9687   2.144   2.146   4.076
 2930SOL     OW 9688   0.497   4.164   4.347
 2930SOL    HW1 9689   0.556   4.088   4.320
 2930SOL    HW2 9690   0.502   4.236   4.278
 2931SOL     OW 9691   5.263   4.289   5.723
 2931SOL    HW1 9692   5.165   4.266   5.722
 2931SOL    HW2 9693   5.282   4.345   5.804
 2932SOL     OW 9694   5.885   4.735   1.617
 2932SOL    HW1 9695   5.928   4.737   1.707
 2932SOL    HW2 9696   5.809   4.670   1.618
 2933SOL     OW 9697   1.288   6.387   6.768
 2933SOL    HW1 9698   1.300   6.483   6.744
 2933SOL    HW2 9699   1.242   6.381   6.857
 2934SOL     OW 9700   3.799   4.527   0.689
 2934SOL    HW1 9701   3.733   4.488   0.625
 2934SOL    HW2 9702   3.825   4.459   0.757
 2935SOL     OW 9703   0.634   2.325   6.302
 2935SOL    HW1 9704   0.677   2.320   6.212
 2935SOL    HW2 9705   0.694   2.376   6.364
 2936SOL     OW 9706   4.635   6.139   1.548
 2936SOL    HW1 9707   4.545   6.120   1.586
 2936SOL    HW2 9708   4.630   6.218   1.486
 2937SOL     OW 9709   5.227   4.432   2.504
 2937SOL    HW1 9710   5.292   4.494   2.548
 2937SOL    HW2 9711   5.273   4.382   2.431
 2938SOL     OW 9712   0.581   5.782   6.191
 2938SOL    HW1 9713   0.589   5.856   6.125
 2938SOL    HW2 9714   0.648   5.711   6.169
 2939SOL     OW 9715   0.330   6.166   2.019
 2939SOL    HW1 9716   0.371   6.197   1.933
 2939SOL    HW2 9717   0.360   6.226   2.093
 2940SOL     OW 9718   4.263   6.949   4.124
 2940SOL    HW1 9719   4.186   6.926   4.184
 2940SOL    HW2 9720   4.240   6.924   4.030
 2941SOL     OW 9721   2.036   4.857   2.928
 2941SOL    HW1 9722   2.128   4.831   2.957
 2941SOL    HW2 9723   1.975   4.779   2.938
 2942SOL     OW 9724   3.350   1.754   1.400
 2942SOL    HW1 9725   3.428   1.692   1.395
 2942SOL    HW2 9726   3.352   1.817   1.322
 2943SOL     OW 9727   5.804   4.042   2.793
 2943SOL    HW1 9728   5.723   4.049   2.733
 2943SOL    HW2 9729   5.868   3.975   2.754
 2944SOL     OW 9730   1.737   5.621   2.381
 2944SOL    HW1 9731   1.689   5.601   2.466
 2944SOL    HW2 9732   1.676   5.604   2.303
 2945SOL     OW 9733   4.534   4.422   0.705
 2945SOL    HW1 9734   4.609   4.487   0.709
 2945SOL    HW2 9735   4.533   4.376   0.616
 2946SOL     OW 9736   3.784   3.692   5.160
 2946SOL    HW1 9737   3.716   3.750   5.116
 2946SOL    HW2 9738   3.875   3.711   5.121
 2947SOL     OW 9739   6.662   5.984   1.093
 2947SOL    HW1 9740   6.684   5.911   1.157
 2947SOL    HW2 9741   6.594   6.045   1.133
 2948SOL     OW 9742   0.277   3.571   2.637
 2948SOL    HW1 9743   0.252   3.655   2.590
 2948SOL    HW2 9744   0.376   3.560   2.636
 2949SOL     OW 9745   1.698   6.330   0.573
 2949SOL    HW1 9746   1.741   6.280   0.648
 2949SOL    HW2 9747   1.738   6.422   0.568
 2950SOL     OW 9748   6.221   5.660   2.442
 2950SOL    HW1 9749   6.225   5.644   2.344
 2950SOL    HW2 9750   6.219   5.758   2.460
 2951SOL     OW 9751   6.830   1.138   1.855
 2951SOL    HW1 9752   6.798   1.052   1.816
 2951SOL    HW2 9753   6.765   1.211   1.833
 2952SOL     OW 9754   7.020   1.681   5.347
 2952SOL    HW1 9755   0.050   1.743   5.295
 2952SOL    HW2 9756   7.010   1.714   5.440
 2953SOL     OW 9757   1.372   4.687   3.528
 2953SOL    HW1 9758   1.451   4.666   3.470
 2953SOL    HW2 9759   1.382   4.779   3.565
 2954SOL     OW 9760   0.116   4.294   6.282
 2954SOL    HW1 9761   0.164   4.208   6.262
 2954SOL    HW2 9762   0.080   4.291   6.375
 2955SOL     OW 9763   1.740   4.763   5.709
 2955SOL    HW1 9764   1.685   4.826   5.654
 2955SOL    HW2 9765   1.824   4.809   5.738
 2956SOL     OW 9766   5.495   4.672   4.046
 2956SOL    HW1 9767   5.516   4.691   3.950
 2956SOL    HW2 9768   5.486   4.573   4.058
 2957SOL     OW 9769   2.384   5.406   1.107
 2957SOL    HW1 9770   2.290   5.428   1.135
 2957SOL    HW2 9771   2.426   5.347   1.176
 2958SOL     OW 9772   2.255   4.642   2.755
 2958SOL    HW1 9773   2.331   4.666   2.694
 2958SOL    HW2 9774   2.178   4.704   2.739
 2959SOL     OW 9775   7.020   3.927   3.144
 2959SOL    HW1 9776   0.005   3.828   3.148
 2959SOL    HW2 9777   0.049   3.971   3.212
 2960SOL     OW 9778   5.109   6.983   1.021
 2960SOL    HW1 9779   5.120   6.981   1.121
 2960SOL    HW2 9780   5.163   0.029   0.983
 2961SOL     OW 9781   5.834   3.175   2.109
 2961SOL    HW1 9782   5.826   3.119   2.191
 2961SOL    HW2 9783   5.931   3.198   2.094
 2962SOL     OW 9784   0.280   0.536   3.642
 2962SOL    HW1 9785   0.279   0.506   3.546
 2962SOL    HW2 9786   0.186   0.543   3.676
 2963SOL     OW 9787   1.501   0.632   4.888
 2963SOL    HW1 9788   1.468   0.670   4.974
 2963SOL    HW2 9789   1.570   0.692   4.849
 2964SOL     OW 9790   1.736   1.127   6.482
 2964SOL    HW1 9791   1.828   1.129   6.442
 2964SOL    HW2 9792   1.696   1.219   6.476
 2965SOL     OW 9793   6.781   6.692   5.560
 2965SOL    HW1 9794   6.753   6.784   5.585
 2965SOL    HW2 9795   6.820   6.692   5.468
 2966SOL     OW 9796   2.751   5.790   2.063
 2966SOL    HW1 9797   2.830   5.749   2.107
 2966SOL    HW2 9798   2.679   5.806   2.131
 2967SOL     OW 9799   5.334   0.418   4.791
 2967SOL    HW1 9800   5.426   0.390   4.819
 2967SOL    HW2 9801   5.266   0.362   4.838
 2968SOL     OW 9802   0.949   3.519   1.498
 2968SOL    HW1 9803   0.930   3.615   1.478
 2968SOL    HW2 9804   0.879   3.462   1.455
 2969SOL     OW 9805   4.918   3.102   5.317
 2969SOL    HW1 9806   4.821   3.080   5.310
 2969SOL    HW2 9807   4.929   3.200   5.334
 2970SOL     OW 9808   2.623   2.397   5.532
 2970SOL    HW1 9809   2.666   2.311   5.505
 2970SOL    HW2 9810   2.693   2.467   5.543
 2971SOL     OW 9811   5.184   2.824   5.832
 2971SOL    HW1 9812   5.189   2.923   5.849
 2971SOL    HW2 9813   5.226   2.804   5.743
 2972SOL     OW 9814   6.636   5.054   6.321
 2972SOL    HW1 9815   6.668   5.009   6.404
 2972SOL    HW2 9816   6.679   5.144   6.313
 2973SOL     OW 9817   4.815   1.042   3.775
 2973SOL    HW1 9818   4.727   1.082   3.752
 2973SOL    HW2 9819   4.885   1.077   3.712
 2974SOL     OW 9820   4.275   6.744   1.955
 2974SOL    HW1 9821   4.332   6.768   2.033
 2974SOL    HW2 9822   4.280   6.645   1.939
 2975SOL     OW 9823   5.236   3.387   4.411
 2975SOL    HW1 9824   5.196   3.312   4.464
 2975SOL    HW2 9825   5.285   3.449   4.472
 2976SOL     OW 9826   4.208   0.811   2.155
 2976SOL    HW1 9827   4.150   0.875   2.106
 2976SOL    HW2 9828   4.304   0.831   2.135
 2977SOL     OW 9829   1.020   0.367   1.630
 2977SOL    HW1 9830   1.002   0.269   1.632
 2977SOL    HW2 9831   0.937   0.416   1.604
 2978SOL     OW 9832   4.508   5.539   6.924
 2978SOL    HW1 9833   4.554   5.542   7.013
 2978SOL    HW2 9834   4.517   5.627   6.878
 2979SOL     OW 9835   2.852   1.055   4.687
 2979SOL    HW1 9836   2.778   1.095   4.740
 2979SOL    HW2 9837   2.940   1.083   4.726
 2980SOL     OW 9838   3.203   3.495   4.579
 2980SOL    HW1 9839   3.130   3.492   4.647
 2980SOL    HW2 9840   3.167   3.529   4.492
 2981SOL     OW 9841   2.457   0.586   1.539
 2981SOL    HW1 9842   2.425   0.646   1.466
 2981SOL    HW2 9843   2.385   0.519   1.561
 2982SOL     OW 9844   1.887   0.518   1.168
 2982SOL    HW1 9845   1.802   0.567   1.147
 2982SOL    HW2 9846   1.940   0.572   1.234
 2983SOL     OW 9847   6.262   2.939   5.644
 2983SOL    HW1 9848   6.289   2.843   5.634
 2983SOL    HW2 9849   6.265   2.984   5.555
 2984SOL     OW 9850   0.302   5.777   1.425
 2984SOL    HW1 9851   0.359   5.732   1.493
 2984SOL    HW2 9852   0.328   5.746   1.333
 2985SOL     OW 9853   6.431   0.326   5.924
 2985SOL    HW1 9854   6.387   0.396   5.981
 2985SOL    HW2 9855   6.528   0.320   5.948
 2986SOL     OW 9856   3.589   3.540   2.165
 2986SOL    HW1 9857   3.682   3.515   2.138
 2986SOL    HW2 9858   3.592   3.591   2.252
 2987SOL     OW 9859   2.185   5.808   5.505
 2987SOL    HW1 9860   2.258   5.826   5.439
 2987SOL    HW2 9861   2.124   5.887   5.510
 2988SOL     OW 9862   0.072   1.590   6.453
 2988SOL    HW1 9863   0.123   1.614   6.370
 2988SOL    HW2 9864   7.003   1.607   6.438
 2989SOL     OW 9865   5.142   3.157   4.535
 2989SOL    HW1 9866   5.174   3.212   4.612
 2989SOL    HW2 9867   5.042   3.163   4.529
 2990SOL     OW 9868   5.381   1.838   4.421
 2990SOL    HW1 9869   5.358   1.876   4.510
 2990SOL    HW2 9870   5.472   1.796   4.425
 2991SOL     OW 9871   0.271   3.412   0.441
 2991SOL    HW1 9872   0.270   3.368   0.531
 2991SOL    HW2 9873   0.214   3.360   0.378
 2992SOL     OW 9874   0.461   3.694   5.005
 2992SOL    HW1 9875   0.505   3.737   5.084
 2992SOL    HW2 9876   0.522   3.625   4.966
 2993SOL     OW 9877   2.036   3.850   0.643
 2993SOL    HW1 9878   1.992   3.764   0.670
 2993SOL    HW2 9879   2.013   3.870   0.548
 2994SOL     OW 9880   3.381   5.970   5.666
 2994SOL    HW1 9881   3.345   5.978   5.759
 2994SOL    HW2 9882   3.343   5.889   5.622
 2995SOL     OW 9883   4.489   0.549   1.175
 2995SOL    HW1 9884   4.465   0.453   1.187
 2995SOL    HW2 9885   4.571   0.569   1.230
 2996SOL     OW 9886   6.925   0.544   4.175
 2996SOL    HW1 9887   6.970   0.601   4.243
 2996SOL    HW2 9888   6.828   0.536   4.197
 2997SOL     OW 9889   5.315   6.537   4.532
 2997SOL    HW1 9890   5.383   6.586   4.477
 2997SOL    HW2 9891   5.345   6.442   4.544
 2998SOL     OW 9892   2.743   0.883   1.400
 2998SOL    HW1 9893   2.734   0.882   1.500
 2998SOL    HW2 9894   2.786   0.968   1.372
 2999SOL     OW 9895   2.628   5.079   0.931
 2999SOL    HW1 9896   2.699   5.091   1.000
 2999SOL    HW2 9897   2.572   5.000   0.955
 3000SOL     OW 9898   2.669   4.137   5.477
 3000SOL    HW1 9899   2.614   4.126   5.560
 3000SOL    HW2 9900   2.766   4.124   5.500
 3001SOL     OW 9901   5.593   0.662   6.503
 3001SOL    HW1 9902   5.529   0.726   6.545
 3001SOL    HW2 9903   5.556   0.569   6.509
 3002SOL     OW 9904   1.614   1.766   1.709
 3002SOL    HW1 9905   1.707   1.801   1.710
 3002SOL    HW2 9906   1.613   1.674   1.750
 3003SOL     OW 9907   1.776   6.600   0.320
 3003SOL    HW1 9908   1.712   6.590   0.396
 3003SOL    HW2 9909   1.866   6.625   0.356
 3004SOL     OW 9910   2.815   6.407   3.799
 3004SOL    HW1 9911   2.887   6.370   3.858
 3004SOL    HW2 9912   2.819   6.506   3.800
 3005SOL     OW 9913   1.269   2.319   0.274
 3005SOL    HW1 9914   1.219   2.300   0.190
 3005SOL    HW2 9915   1.207   2.312   0.353
 3006SOL     OW 9916   5.026   1.537   6.144
 3006SOL    HW1 9917   5.046   1.634   6.159
 3006SOL    HW2 9918   4.986   1.498   6.227
 3007SOL     OW 9919   6.182   5.548   6.833
 3007SOL    HW1 9920   6.144   5.556   6.925
 3007SOL    HW2 9921   6.107   5.543   6.767
 3008SOL     OW 9922   4.422   3.710   5.625
 3008SOL    HW1 9923   4.515   3.736   5.649
 3008SOL    HW2 9924   4.394   3.759   5.542
 3009SOL     OW 9925   6.667   3.474   2.173
 3009SOL    HW1 9926   6.693   3.411   2.246
 3009SOL    HW2 9927   6.653   3.565   2.211
 3010SOL     OW 9928   4.526   5.564   1.035
 3010SOL    HW1 9929   4.528   5.497   1.109
 3010SOL    HW2 9930   4.433   5.571   0.998
 3011SOL     OW 9931   6.622   0.624   0.667
 3011SOL    HW1 9932   6.634   0.525   0.670
 3011SOL    HW2 9933   6.635   0.657   0.573
 3012SOL     OW 9934   2.332   2.424   4.804
 3012SOL    HW1 9935   2.308   2.414   4.901
 3012SOL    HW2 9936   2.326   2.335   4.759
 3013SOL     OW 9937   6.754   4.883   5.107
 3013SOL    HW1 9938   6.749   4.824   5.187
 3013SOL    HW2 9939   6.714   4.836   5.028
 3014SOL     OW 9940   5.548   0.409   6.367
 3014SOL    HW1 9941   5.605   0.328   6.356
 3014SOL    HW2 9942   5.456   0.382   6.393
 3015SOL     OW 9943   1.317   0.823   6.406
 3015SOL    HW1 9944   1.317   0.909   6.355
 3015SOL    HW2 9945   1.388   0.763   6.370
 3016SOL     OW 9946   2.398   6.258   4.250
 3016SOL    HW1 9947   2.482   6.307   4.231
 3016SOL    HW2 9948   2.377   6.264   4.348
 3017SOL     OW 9949   1.320   5.394   6.986
 3017SOL    HW1 9950   1.329   5.331   6.909
 3017SOL    HW2 9951   1.384   5.369   0.029
 3018SOL     OW 9952   3.499   0.853   1.365
 3018SOL    HW1 9953   3.452   0.816   1.285
 3018SOL    HW2 9954   3.432   0.880   1.434
 3019SOL     OW 9955   1.818   0.549   5.707
 3019SOL    HW1 9956   1.881   0.481   5.745
 3019SOL    HW2 9957   1.866   0.636   5.694
 3020SOL     OW 9958   6.338   4.376   0.017
 3020SOL    HW1 9959   6.302   4.335   6.962
 3020SOL    HW2 9960   6.292   4.463   0.035
 3021SOL     OW 9961   3.806   0.701   4.535
 3021SOL    HW1 9962   3.718   0.689   4.580
 3021SOL    HW2 9963   3.876   0.650   4.586
 3022SOL     OW 9964   4.417   6.022   3.717
 3022SOL    HW1 9965   4.502   5.983   3.682
 3022SOL    HW2 9966   4.343   6.002   3.652
 3023SOL     OW 9967   5.865   4.705   4.240
 3023SOL    HW1 9968   5.918   4.721   4.324
 3023SOL    HW2 9969   5.773   4.743   4.251
 3024SOL     OW 9970   0.428   0.812   0.548
 3024SOL    HW1 9971   0.360   0.862   0.495
 3024SOL    HW2 9972   0.513   0.864   0.551
 3025SOL     OW 9973   4.146   5.759   0.072
 3025SOL    HW1 9974   4.116   5.854   0.057
 3025SOL    HW2 9975   4.240   5.749   0.041
 3026SOL     OW 9976   0.292   0.678   1.949
 3026SOL    HW1 9977   0.282   0.692   2.047
 3026SOL    HW2 9978   0.347   0.596   1.932
 3027SOL     OW 9979   4.336   0.737   0.384
 3027SOL    HW1 9980   4.432   0.725   0.412
 3027SOL    HW2 9981   4.306   0.657   0.332
 3028SOL     OW 9982   3.104   3.155   5.605
 3028SOL    HW1 9983   3.181   3.184   5.662
 3028SOL    HW2 9984   3.128   3.166   5.508
 3029SOL     OW 9985   6.492   3.420   4.526
 3029SOL    HW1 9986   6.472   3.413   4.624
 3029SOL    HW2 9987   6.522   3.331   4.492
 3030SOL     OW 9988   2.357   2.585   6.114
 3030SOL    HW1 9989   2.412   2.560   6.195
 3030SOL    HW2 9990   2.280   2.642   6.143
 3031SOL     OW 9991   1.156   5.514   0.936
 3031SOL    HW1 9992   1.134   5.610   0.955
 3031SOL    HW2 9993   1.212   5.508   0.853
 3032SOL     OW 9994   2.406   6.948   3.150
 3032SOL    HW1 9995   2.436   6.854   3.165
 3032SOL    HW2 9996   2.312   6.947   3.114
 3033SOL     OW 9997   0.796   1.731   5.418
 3033SOL    HW1 9998   0.804   1.753   5.515
 3033SOL    HW2 9999   0.729   1.792   5.376
 3034SOL     OW10000   6.269   4.293   3.213
 3034SOL    HW110001   6.286   4.241   3.129
 3034SOL    HW210002   6.314   4.249   3.290
 3035SOL     OW10003   0.673   3.348   0.497
 3035SOL    HW110004   0.768   3.379   0.494
 3035SOL    HW210005   0.642   3.327   0.405
 3036SOL     OW10006   3.120   2.034   5.372
 3036SOL    HW110007   3.200   2.018   5.429
 3036SOL    HW210008   3.111   2.132   5.353
 3037SOL     OW10009   0.876   5.685   6.477
 3037SOL    HW110010   0.971   5.690   6.506
 3037SOL    HW210011   0.844   5.777   6.452
 3038SOL     OW10012   5.878   4.950   6.174
 3038SOL    HW110013   5.843   4.870   6.223
 3038SOL    HW210014   5.978   4.947   6.172
 3039SOL     OW10015   6.871   3.792   6.171
 3039SOL    HW110016   6.931   3.843   6.232
 3039SOL    HW210017   6.779   3.833   6.173
 3040SOL     OW10018   5.519   5.116   6.716
 3040SOL    HW110019   5.544   5.213   6.712
 3040SOL    HW210020   5.520   5.077   6.624
 3041SOL     OW10021   1.436   4.478   5.717
 3041SOL    HW110022   1.339   4.473   5.741
 3041SOL    HW210023   1.457   4.569   5.682
 3042SOL     OW10024   0.430   4.890   4.533
 3042SOL    HW110025   0.459   4.913   4.626
 3042SOL    HW210026   0.332   4.909   4.523
 3043SOL     OW10027   2.613   5.810   1.205
 3043SOL    HW110028   2.521   5.849   1.209
 3043SOL    HW210029   2.612   5.728   1.148
 3044SOL     OW10030   3.971   3.968   4.786
 3044SOL    HW110031   3.952   3.989   4.882
 3044SOL    HW210032   3.948   4.046   4.729
 3045SOL     OW10033   4.624   2.016   1.767
 3045SOL    HW110034   4.534   1.981   1.743
 3045SOL    HW210035   4.667   1.955   1.833
 3046SOL     OW10036   5.017   6.745   0.929
 3046SOL    HW110037   4.919   6.760   0.937
 3046SOL    HW210038   5.065   6.832   0.937
 3047SOL     OW10039   5.858   1.391   4.669
 3047SOL    HW110040   5.893   1.413   4.579
 3047SOL    HW210041   5.935   1.369   4.730
 3048SOL     OW10042   3.767   4.929   1.270
 3048SOL    HW110043   3.771   4.983   1.354
 3048SOL    HW210044   3.695   4.860   1.279
 3049SOL     OW10045   1.013   1.695   2.285
 3049SOL    HW110046   1.056   1.760   2.222
 3049SOL    HW210047   0.915   1.714   2.290
 3050SOL     OW10048   3.641   2.312   6.539
 3050SOL    HW110049   3.591   2.393   6.571
 3050SOL    HW210050   3.707   2.339   6.469
 3051SOL     OW10051   2.607   5.212   5.484
 3051SOL    HW110052   2.540   5.150   5.442
 3051SOL    HW210053   2.597   5.210   5.583
 3052SOL     OW10054   6.940   0.048   2.273
 3052SOL    HW110055   6.872   7.010   2.304
 3052SOL    HW210056   7.013   0.056   2.341
 3053SOL     OW10057   0.954   4.159   0.605
 3053SOL    HW110058   1.013   4.113   0.538
 3053SOL    HW210059   0.890   4.218   0.557
 3054SOL     OW10060   4.898   0.696   2.737
 3054SOL    HW110061   4.949   0.635   2.798
 3054SOL    HW210062   4.920   0.791   2.759
 3055SOL     OW10063   5.840   6.198   0.007
 3055SOL    HW110064   5.789   6.166   6.956
 3055SOL    HW210065   5.819   6.141   0.087
 3056SOL     OW10066   4.225   1.500   5.825
 3056SOL    HW110067   4.204   1.542   5.737
 3056SOL    HW210068   4.227   1.401   5.814
 3057SOL     OW10069   5.142   4.095   2.812
 3057SOL    HW110070   5.239   4.075   2.826
 3057SOL    HW210071   5.125   4.109   2.715
 3058SOL     OW10072   0.439   4.338   6.051
 3058SOL    HW110073   0.359   4.281   6.030
 3058SOL    HW210074   0.413   4.434   6.045
 3059SOL     OW10075   1.342   1.797   2.926
 3059SOL    HW110076   1.262   1.857   2.936
 3059SOL    HW210077   1.313   1.706   2.900
 3060SOL     OW10078   5.585   4.178   4.145
 3060SOL    HW110079   5.636   4.241   4.086
 3060SOL    HW210080   5.637   4.162   4.229
 3061SOL     OW10081   5.651   0.365   3.686
 3061SOL    HW110082   5.601   0.316   3.757
 3061SOL    HW210083   5.747   0.374   3.714
 3062SOL     OW10084   4.154   4.280   0.941
 3062SOL    HW110085   4.233   4.333   0.972
 3062SOL    HW210086   4.182   4.186   0.923
 3063SOL     OW10087   0.343   4.774   2.501
 3063SOL    HW110088   0.263   4.753   2.557
 3063SOL    HW210089   0.369   4.694   2.447
 3064SOL     OW10090   5.149   2.481   6.660
 3064SOL    HW110091   5.054   2.451   6.663
 3064SOL    HW210092   5.186   2.465   6.569
 3065SOL     OW10093   5.697   1.620   6.841
 3065SOL    HW110094   5.715   1.589   6.748
 3065SOL    HW210095   5.771   1.679   6.872
 3066SOL     OW10096   5.478   0.139   4.868
 3066SOL    HW110097   5.555   0.187   4.828
 3066SOL    HW210098   5.428   0.089   4.797
 3067SOL     OW10099   1.188   2.575   5.386
 3067SOL    HW110100   1.139   2.645   5.439
 3067SOL    HW210101   1.285   2.576   5.411
 3068SOL     OW10102   6.967   0.524   0.680
 3068SOL    HW110103   6.871   0.537   0.653
 3068SOL    HW210104   7.017   0.479   0.606
 3069SOL     OW10105   4.893   6.422   3.895
 3069SOL    HW110106   4.966   6.400   3.830
 3069SOL    HW210107   4.933   6.440   3.985
 3070SOL     OW10108   2.206   0.774   0.771
 3070SOL    HW110109   2.299   0.799   0.745
 3070SOL    HW210110   2.177   0.693   0.720
 3071SOL     OW10111   5.685   4.767   5.170
 3071SOL    HW110112   5.619   4.717   5.115
 3071SOL    HW210113   5.668   4.865   5.161
 3072SOL     OW10114   1.941   6.823   6.698
 3072SOL    HW110115   1.906   6.767   6.624
 3072SOL    HW210116   1.877   6.821   6.775
 3073SOL     OW10117   0.682   5.500   1.695
 3073SOL    HW110118   0.662   5.418   1.749
 3073SOL    HW210119   0.707   5.574   1.757
 3074SOL     OW10120   3.246   2.797   1.893
 3074SOL    HW110121   3.290   2.765   1.809
 3074SOL    HW210122   3.165   2.741   1.911
 3075SOL     OW10123   2.870   4.886   1.384
 3075SOL    HW110124   2.828   4.947   1.452
 3075SOL    HW210125   2.868   4.930   1.294
 3076SOL     OW10126   0.943   0.600   5.152
 3076SOL    HW110127   0.943   0.687   5.201
 3076SOL    HW210128   0.967   0.615   5.057
 3077SOL     OW10129   0.182   4.178   2.312
 3077SOL    HW110130   0.144   4.090   2.343
 3077SOL    HW210131   0.267   4.161   2.261
 3078SOL     OW10132   0.066   3.401   1.845
 3078SOL    HW110133   0.031   3.373   1.935
 3078SOL    HW210134   0.162   3.376   1.837
 3079SOL     OW10135   2.229   3.722   5.213
 3079SOL    HW110136   2.273   3.652   5.269
 3079SOL    HW210137   2.297   3.786   5.179
 3080SOL     OW10138   3.606   4.481   1.044
 3080SOL    HW110139   3.591   4.393   1.091
 3080SOL    HW210140   3.520   4.512   1.004
 3081SOL     OW10141   1.558   3.800   0.512
 3081SOL    HW110142   1.556   3.747   0.597
 3081SOL    HW210143   1.596   3.891   0.531
 3082SOL     OW10144   5.204   5.435   4.872
 3082SOL    HW110145   5.212   5.459   4.776
 3082SOL    HW210146   5.188   5.517   4.927
 3083SOL     OW10147   3.954   5.653   1.901
 3083SOL    HW110148   4.047   5.676   1.871
 3083SOL    HW210149   3.941   5.554   1.895
 3084SOL     OW10150   6.980   4.869   3.911
 3084SOL    HW110151   0.023   4.908   3.852
 3084SOL    HW210152   6.916   4.816   3.855
 3085SOL     OW10153   5.943   5.360   0.256
 3085SOL    HW110154   5.875   5.289   0.272
 3085SOL    HW210155   6.026   5.339   0.306
 3086SOL     OW10156   6.030   6.329   6.353
 3086SOL    HW110157   5.959   6.267   6.388
 3086SOL    HW210158   6.069   6.381   6.429
 3087SOL     OW10159   3.819   0.070   2.225
 3087SOL    HW110160   3.889   0.008   2.259
 3087SOL    HW210161   3.846   0.165   2.245
 3088SOL     OW10162   2.092   3.246   5.866
 3088SOL    HW110163   2.163   3.202   5.921
 3088SOL    HW210164   2.002   3.224   5.906
 3089SOL     OW10165   4.527   4.953   6.072
 3089SOL    HW110166   4.499   5.000   5.988
 3089SOL    HW210167   4.591   4.879   6.049
 3090SOL     OW10168   0.269   2.614   2.258
 3090SOL    HW110169   0.364   2.642   2.242
 3090SOL    HW210170   0.214   2.693   2.283
 3091SOL     OW10171   0.568   3.163   1.022
 3091SOL    HW110172   0.545   3.195   0.930
 3091SOL    HW210173   0.580   3.064   1.022
 3092SOL     OW10174   5.907   1.328   2.142
 3092SOL    HW110175   5.848   1.269   2.086
 3092SOL    HW210176   5.856   1.409   2.170
 3093SOL     OW10177   6.420   5.547   0.013
 3093SOL    HW110178   6.464   5.604   6.973
 3093SOL    HW210179   6.352   5.488   6.998
 3094SOL     OW10180   2.064   1.659   0.117
 3094SOL    HW110181   2.145   1.609   0.148
 3094SOL    HW210182   2.093   1.745   0.075
 3095SOL     OW10183   1.882   4.227   5.860
 3095SOL    HW110184   1.797   4.181   5.887
 3095SOL    HW210185   1.867   4.325   5.858
 3096SOL     OW10186   0.661   2.856   4.163
 3096SOL    HW110187   0.578   2.908   4.186
 3096SOL    HW210188   0.634   2.769   4.120
 3097SOL     OW10189   5.452   3.188   4.863
 3097SOL    HW110190   5.547   3.197   4.892
 3097SOL    HW210191   5.391   3.227   4.932
 3098SOL     OW10192   2.146   3.283   3.328
 3098SOL    HW110193   2.128   3.314   3.234
 3098SOL    HW210194   2.136   3.359   3.391
 3099SOL     OW10195   0.254   6.319   4.763
 3099SOL    HW110196   0.261   6.267   4.677
 3099SOL    HW210197   0.287   6.412   4.749
 3100SOL     OW10198   5.506   4.739   1.903
 3100SOL    HW110199   5.485   4.799   1.826
 3100SOL    HW210200   5.596   4.763   1.941
 3101SOL     OW10201   4.639   6.731   5.038
 3101SOL    HW110202   4.647   6.638   5.002
 3101SOL    HW210203   4.668   6.797   4.969
 3102SOL     OW10204   6.546   5.050   2.022
 3102SOL    HW110205   6.510   4.990   1.951
 3102SOL    HW210206   6.535   5.145   1.994
 3103SOL     OW10207   3.107   1.457   1.524
 3103SOL    HW110208   3.061   1.501   1.601
 3103SOL    HW210209   3.185   1.403   1.558
 3104SOL     OW10210   5.151   1.763   4.786
 3104SOL    HW110211   5.221   1.811   4.732
 3104SOL    HW210212   5.117   1.685   4.734
 3105SOL     OW10213   5.940   3.646   6.791
 3105SOL    HW110214   5.885   3.659   6.873
 3105SOL    HW210215   6.035   3.671   6.810
 3106SOL     OW10216   5.503   1.419   5.732
 3106SOL    HW110217   5.538   1.405   5.825
 3106SOL    HW210218   5.416   1.468   5.736
 3107SOL     OW10219   2.718   1.905   5.074
 3107SOL    HW110220   2.730   1.819   5.026
 3107SOL    HW210221   2.713   1.980   5.008
 3108SOL     OW10222   2.284   4.312   3.312
 3108SOL    HW110223   2.352   4.386   3.312
 3108SOL    HW210224   2.231   4.315   3.227
 3109SOL     OW10225   6.715   6.432   4.214
 3109SOL    HW110226   6.725   6.344   4.261
 3109SOL    HW210227   6.621   6.442   4.181
 3110SOL     OW10228   1.030   5.334   3.013
 3110SOL    HW110229   0.932   5.320   2.997
 3110SOL    HW210230   1.075   5.354   2.926
 3111SOL     OW10231   5.636   4.329   3.574
 3111SOL    HW110232   5.701   4.293   3.641
 3111SOL    HW210233   5.565   4.381   3.622
 3112SOL     OW10234   3.454   1.375   6.191
 3112SOL    HW110235   3.552   1.366   6.172
 3112SOL    HW210236   3.441   1.427   6.275
 3113SOL     OW10237   1.873   6.377   3.176
 3113SOL    HW110238   1.807   6.450   3.194
 3113SOL    HW210239   1.911   6.343   3.262
 3114SOL     OW10240   4.364   1.526   6.071
 3114SOL    HW110241   4.349   1.499   5.976
 3114SOL    HW210242   4.288   1.496   6.127
 3115SOL     OW10243   4.761   5.413   5.309
 3115SOL    HW110244   4.852   5.421   5.351
 3115SOL    HW210245   4.766   5.351   5.231
 3116SOL     OW10246   0.932   0.572   0.065
 3116SOL    HW110247   0.992   0.493   0.058
 3116SOL    HW210248   0.978   0.644   0.118
 3117SOL     OW10249   4.560   0.438   6.431
 3117SOL    HW110250   4.549   0.369   6.502
 3117SOL    HW210251   4.655   0.440   6.401
 3118SOL     OW10252   1.244   1.629   3.625
 3118SOL    HW110253   1.167   1.685   3.657
 3118SOL    HW210254   1.329   1.678   3.639
 3119SOL     OW10255   4.866   5.613   4.944
 3119SOL    HW110256   4.839   5.629   4.849
 3119SOL    HW210257   4.803   5.659   5.006
 3120SOL     OW10258   2.574   6.157   6.256
 3120SOL    HW110259   2.607   6.143   6.349
 3120SOL    HW210260   2.555   6.069   6.213
 3121SOL     OW10261   3.682   1.784   4.245
 3121SOL    HW110262   3.670   1.792   4.344
 3121SOL    HW210263   3.592   1.781   4.201
 3122SOL     OW10264   5.189   5.079   5.085
 3122SOL    HW110265   5.282   5.115   5.082
 3122SOL    HW210266   5.147   5.088   4.995
 3123SOL     OW10267   1.344   1.354   3.241
 3123SOL    HW110268   1.386   1.433   3.197
 3123SOL    HW210269   1.351   1.363   3.340
 3124SOL     OW10270   4.691   0.469   4.579
 3124SOL    HW110271   4.706   0.403   4.652
 3124SOL    HW210272   4.600   0.508   4.587
 3125SOL     OW10273   1.675   1.189   5.021
 3125SOL    HW110274   1.702   1.123   5.092
 3125SOL    HW210275   1.687   1.282   5.056
 3126SOL     OW10276   5.261   4.903   5.342
 3126SOL    HW110277   5.245   4.989   5.294
 3126SOL    HW210278   5.174   4.871   5.380
 3127SOL     OW10279   0.258   0.989   5.112
 3127SOL    HW110280   0.279   0.892   5.126
 3127SOL    HW210281   0.205   1.023   5.189
 3128SOL     OW10282   3.353   0.733   0.619
 3128SOL    HW110283   3.414   0.728   0.698
 3128SOL    HW210284   3.265   0.771   0.647
 3129SOL     OW10285   4.338   3.501   0.390
 3129SOL    HW110286   4.316   3.429   0.456
 3129SOL    HW210287   4.287   3.584   0.413
 3130SOL     OW10288   6.670   5.587   1.845
 3130SOL    HW110289   6.604   5.647   1.890
 3130SOL    HW210290   6.628   5.498   1.828
 3131SOL     OW10291   6.321   4.517   2.913
 3131SOL    HW110292   6.367   4.555   2.833
 3131SOL    HW210293   6.334   4.578   2.991
 3132SOL     OW10294   4.460   3.925   0.545
 3132SOL    HW110295   4.514   3.941   0.463
 3132SOL    HW210296   4.516   3.879   0.614
 3133SOL     OW10297   4.646   0.280   4.291
 3133SOL    HW110298   4.648   0.271   4.191
 3133SOL    HW210299   4.727   0.329   4.322
 3134SOL     OW10300   6.032   5.315   2.639
 3134SOL    HW110301   5.932   5.318   2.638
 3134SOL    HW210302   6.066   5.301   2.546
 3135SOL     OW10303   4.072   5.626   6.790
 3135SOL    HW110304   4.060   5.707   6.847
 3135SOL    HW210305   4.133   5.646   6.714
 3136SOL     OW10306   6.789   1.532   3.438
 3136SOL    HW110307   6.786   1.572   3.346
 3136SOL    HW210308   6.822   1.601   3.503
 3137SOL     OW10309   5.672   6.581   6.574
 3137SOL    HW110310   5.675   6.502   6.513
 3137SOL    HW210311   5.628   6.556   6.660
 3138SOL     OW10312   5.946   6.165   5.056
 3138SOL    HW110313   5.956   6.092   4.988
 3138SOL    HW210314   6.035   6.182   5.099
 3139SOL     OW10315   2.770   5.148   1.551
 3139SOL    HW110316   2.835   5.224   1.558
 3139SOL    HW210317   2.699   5.157   1.620
 3140SOL     OW10318   0.131   6.374   0.101
 3140SOL    HW110319   0.052   6.346   0.156
 3140SOL    HW210320   0.100   6.434   0.027
 3141SOL     OW10321   6.563   1.614   6.560
 3141SOL    HW110322   6.471   1.618   6.599
 3141SOL    HW210323   6.630   1.601   6.634
 3142SOL     OW10324   4.250   0.534   3.854
 3142SOL    HW110325   4.243   0.622   3.901
 3142SOL    HW210326   4.310   0.544   3.774
 3143SOL     OW10327   6.477   1.473   0.657
 3143SOL    HW110328   6.432   1.552   0.616
 3143SOL    HW210329   6.452   1.467   0.754
 3144SOL     OW10330   4.067   3.939   0.322
 3144SOL    HW110331   4.110   4.029   0.318
 3144SOL    HW210332   3.981   3.941   0.271
 3145SOL     OW10333   0.533   6.183   0.283
 3145SOL    HW110334   0.547   6.163   0.186
 3145SOL    HW210335   0.538   6.282   0.298
 3146SOL     OW10336   6.543   1.065   4.893
 3146SOL    HW110337   6.634   1.046   4.854
 3146SOL    HW210338   6.505   0.980   4.931
 3147SOL     OW10339   3.469   5.835   0.163
 3147SOL    HW110340   3.557   5.881   0.168
 3147SOL    HW210341   3.404   5.892   0.113
 3148SOL     OW10342   6.463   5.279   1.640
 3148SOL    HW110343   6.364   5.286   1.629
 3148SOL    HW210344   6.503   5.239   1.557
 3149SOL     OW10345   3.001   2.245   6.882
 3149SOL    HW110346   2.924   2.186   6.856
 3149SOL    HW210347   3.079   2.188   6.909
 3150SOL     OW10348   6.386   5.794   5.624
 3150SOL    HW110349   6.435   5.850   5.689
 3150SOL    HW210350   6.326   5.730   5.673
 3151SOL     OW10351   0.159   0.395   5.552
 3151SOL    HW110352   0.138   0.460   5.624
 3151SOL    HW210353   0.235   0.337   5.581
 3152SOL     OW10354   1.284   3.358   5.856
 3152SOL    HW110355   1.239   3.361   5.767
 3152SOL    HW210356   1.238   3.420   5.919
 3153SOL     OW10357   6.251   5.044   1.686
 3153SOL    HW110358   6.250   5.126   1.629
 3153SOL    HW210359   6.219   4.966   1.631
 3154SOL     OW10360   4.492   1.095   6.894
 3154SOL    HW110361   4.471   1.008   6.851
 3154SOL    HW210362   4.429   1.111   6.969
 3155SOL     OW10363   1.028   4.502   0.293
 3155SOL    HW110364   0.991   4.586   0.333
 3155SOL    HW210365   0.992   4.491   0.200
 3156SOL     OW10366   3.686   4.219   1.799
 3156SOL    HW110367   3.752   4.181   1.863
 3156SOL    HW210368   3.597   4.173   1.811
 3157SOL     OW10369   1.040   1.110   5.402
 3157SOL    HW110370   1.049   1.188   5.464
 3157SOL    HW210371   1.018   1.143   5.310
 3158SOL     OW10372   1.573   1.078   6.026
 3158SOL    HW110373   1.576   1.142   6.102
 3158SOL    HW210374   1.569   0.985   6.061
 3159SOL     OW10375   5.752   0.312   6.688
 3159SOL    HW110376   5.812   0.354   6.619
 3159SOL    HW210377   5.700   0.383   6.735
 3160SOL     OW10378   1.611   0.476   5.879
 3160SOL    HW110379   1.669   0.520   5.810
 3160SOL    HW210380   1.665   0.410   5.931
 3161SOL     OW10381   1.999   2.532   1.857
 3161SOL    HW110382   2.082   2.587   1.869
 3161SOL    HW210383   2.020   2.436   1.878
 3162SOL     OW10384   1.946   5.940   1.254
 3162SOL    HW110385   1.894   5.880   1.193
 3162SOL    HW210386   1.887   6.012   1.288
 3163SOL     OW10387   3.936   4.303   0.298
 3163SOL    HW110388   4.013   4.322   0.236
 3163SOL    HW210389   3.970   4.290   0.391
 3164SOL     OW10390   2.523   6.386   3.350
 3164SOL    HW110391   2.463   6.430   3.417
 3164SOL    HW210392   2.469   6.353   3.273
 3165SOL     OW10393   0.732   6.696   6.613
 3165SOL    HW110394   0.728   6.644   6.698
 3165SOL    HW210395   0.754   6.791   6.633
 3166SOL     OW10396   5.121   1.124   5.072
 3166SOL    HW110397   5.106   1.217   5.106
 3166SOL    HW210398   5.217   1.100   5.081
 3167SOL     OW10399   5.267   2.986   0.537
 3167SOL    HW110400   5.282   3.068   0.482
 3167SOL    HW210401   5.187   3.000   0.596
 3168SOL     OW10402   4.626   1.904   0.577
 3168SOL    HW110403   4.704   1.963   0.600
 3168SOL    HW210404   4.636   1.871   0.483
 3169SOL     OW10405   2.399   4.507   1.865
 3169SOL    HW110406   2.487   4.504   1.817
 3169SOL    HW210407   2.415   4.510   1.963
 3170SOL     OW10408   2.125   3.692   3.292
 3170SOL    HW110409   2.185   3.642   3.354
 3170SOL    HW210410   2.092   3.775   3.336
 3171SOL     OW10411   5.865   2.479   3.667
 3171SOL    HW110412   5.936   2.483   3.597
 3171SOL    HW210413   5.800   2.406   3.646
 3172SOL     OW10414   6.102   3.762   1.834
 3172SOL    HW110415   6.097   3.838   1.897
 3172SOL    HW210416   6.031   3.695   1.856
 3173SOL     OW10417   4.439   3.144   0.208
 3173SOL    HW110418   4.458   3.047   0.189
 3173SOL    HW210419   4.351   3.152   0.255
 3174SOL     OW10420   3.085   3.413   6.525
 3174SOL    HW110421   3.155   3.421   6.454
 3174SOL    HW210422   3.116   3.352   6.597
 3175SOL     OW10423   5.566   0.871   4.950
 3175SOL    HW110424   5.508   0.927   5.009
 3175SOL    HW210425   5.526   0.781   4.938
 3176SOL     OW10426   0.565   4.657   4.374
 3176SOL    HW110427   0.503   4.734   4.390
 3176SOL    HW210428   0.603   4.626   4.461
 3177SOL     OW10429   5.372   4.013   3.712
 3177SOL    HW110430   5.305   4.000   3.785
 3177SOL    HW210431   5.374   4.110   3.686
 3178SOL     OW10432   6.487   0.770   2.142
 3178SOL    HW110433   6.433   0.851   2.164
 3178SOL    HW210434   6.475   0.746   2.046
 3179SOL     OW10435   1.398   2.262   1.887
 3179SOL    HW110436   1.338   2.190   1.920
 3179SOL    HW210437   1.352   2.351   1.895
 3180SOL     OW10438   0.191   5.965   0.421
 3180SOL    HW110439   0.155   5.926   0.506
 3180SOL    HW210440   0.197   6.064   0.430
 3181SOL     OW10441   1.763   6.652   4.903
 3181SOL    HW110442   1.822   6.668   4.982
 3181SOL    HW210443   1.673   6.693   4.919
 3182SOL     OW10444   2.148   1.227   0.859
 3182SOL    HW110445   2.147   1.131   0.830
 3182SOL    HW210446   2.094   1.282   0.795
 3183SOL     OW10447   3.814   3.790   1.071
 3183SOL    HW110448   3.772   3.729   1.138
 3183SOL    HW210449   3.785   3.763   0.979
 3184SOL     OW10450   0.441   2.429   4.849
 3184SOL    HW110451   0.367   2.372   4.812
 3184SOL    HW210452   0.426   2.524   4.821
 3185SOL     OW10453   0.701   5.582   6.666
 3185SOL    HW110454   0.735   5.619   6.580
 3185SOL    HW210455   0.629   5.515   6.647
 3186SOL     OW10456   0.245   1.776   6.550
 3186SOL    HW110457   0.286   1.816   6.468
 3186SOL    HW210458   0.171   1.714   6.524
 3187SOL     OW10459   5.015   6.168   2.605
 3187SOL    HW110460   5.101   6.209   2.573
 3187SOL    HW210461   5.035   6.087   2.660
 3188SOL     OW10462   2.114   5.528   6.839
 3188SOL    HW110463   2.103   5.627   6.831
 3188SOL    HW210464   2.108   5.486   6.749
 3189SOL     OW10465   3.478   1.584   5.364
 3189SOL    HW110466   3.449   1.671   5.322
 3189SOL    HW210467   3.419   1.510   5.330
 3190SOL     OW10468   5.656   6.211   4.384
 3190SOL    HW110469   5.621   6.280   4.321
 3190SOL    HW210470   5.701   6.138   4.332
 3191SOL     OW10471   3.491   5.606   1.260
 3191SOL    HW110472   3.431   5.674   1.217
 3191SOL    HW210473   3.583   5.644   1.268
 3192SOL     OW10474   5.516   1.920   2.616
 3192SOL    HW110475   5.455   1.969   2.677
 3192SOL    HW210476   5.539   1.831   2.656
 3193SOL     OW10477   3.465   0.022   4.872
 3193SOL    HW110478   3.387   0.074   4.907
 3193SOL    HW210479   3.490   0.054   4.781
 3194SOL     OW10480   1.575   0.289   6.924
 3194SOL    HW110481   1.663   0.308   6.881
 3194SOL    HW210482   1.502   0.337   6.874
 3195SOL     OW10483   0.307   1.554   1.619
 3195SOL    HW110484   0.375   1.582   1.552
 3195SOL    HW210485   0.318   1.456   1.639
 3196SOL     OW10486   6.060   0.136   3.463
 3196SOL    HW110487   6.100   0.221   3.497
 3196SOL    HW210488   6.112   0.103   3.385
 3197SOL     OW10489   1.933   0.688   6.537
 3197SOL    HW110490   1.855   0.749   6.528
 3197SOL    HW210491   1.923   0.611   6.474
 3198SOL     OW10492   5.320   2.850   3.489
 3198SOL    HW110493   5.283   2.763   3.524
 3198SOL    HW210494   5.410   2.866   3.529
 3199SOL     OW10495   5.583   4.335   2.838
 3199SOL    HW110496   5.556   4.282   2.757
 3199SOL    HW210497   5.615   4.272   2.909
 3200SOL     OW10498   5.252   4.072   3.341
 3200SOL    HW110499   5.189   4.136   3.385
 3200SOL    HW210500   5.336   4.067   3.395
 3201SOL     OW10501   6.167   4.761   2.414
 3201SOL    HW110502   6.114   4.783   2.332
 3201SOL    HW210503   6.134   4.816   2.491
 3202SOL     OW10504   1.849   3.447   0.077
 3202SOL    HW110505   1.770   3.423   0.133
 3202SOL    HW210506   1.932   3.414   0.122
 3203SOL     OW10507   3.605   6.787   1.128
 3203SOL    HW110508   3.685   6.843   1.150
 3203SOL    HW210509   3.568   6.816   1.039
 3204SOL     OW10510   3.249   1.273   3.000
 3204SOL    HW110511   3.228   1.177   3.016
 3204SOL    HW210512   3.199   1.330   3.065
 3205SOL     OW10513   4.575   3.520   5.812
 3205SOL    HW110514   4.486   3.545   5.772
 3205SOL    HW210515   4.624   3.603   5.838
 3206SOL     OW10516   3.205   3.320   0.994
 3206SOL    HW110517   3.242   3.388   1.058
 3206SOL    HW210518   3.278   3.258   0.965
 3207SOL     OW10519   1.818   5.317   5.938
 3207SOL    HW110520   1.899   5.373   5.956
 3207SOL    HW210521   1.756   5.322   6.017
 3208SOL     OW10522   6.401   4.885   6.286
 3208SOL    HW110523   6.410   4.793   6.323
 3208SOL    HW210524   6.460   4.948   6.337
 3209SOL     OW10525   4.965   5.772   6.496
 3209SOL    HW110526   4.957   5.673   6.510
 3209SOL    HW210527   5.034   5.791   6.426
 3210SOL     OW10528   5.794   5.953   1.947
 3210SOL    HW110529   5.745   5.916   2.026
 3210SOL    HW210530   5.776   5.896   1.867
 3211SOL     OW10531   1.299   5.600   6.261
 3211SOL    HW110532   1.368   5.528   6.253
 3211SOL    HW210533   1.209   5.558   6.276
 3212SOL     OW10534   1.830   0.637   3.069
 3212SOL    HW110535   1.742   0.630   3.022
 3212SOL    HW210536   1.815   0.651   3.167
 3213SOL     OW10537   1.078   0.301   6.330
 3213SOL    HW110538   1.010   0.233   6.303
 3213SOL    HW210539   1.147   0.258   6.388
 3214SOL     OW10540   3.182   1.103   2.480
 3214SOL    HW110541   3.163   1.171   2.552
 3214SOL    HW210542   3.246   1.142   2.414
 3215SOL     OW10543   1.934   3.387   1.550
 3215SOL    HW110544   1.862   3.401   1.618
 3215SOL    HW210545   1.991   3.469   1.544
 3216SOL     OW10546   5.987   4.755   1.112
 3216SOL    HW110547   5.969   4.733   1.207
 3216SOL    HW210548   5.912   4.724   1.055
 3217SOL     OW10549   7.023   5.944   2.555
 3217SOL    HW110550   6.998   5.932   2.459
 3217SOL    HW210551   6.987   6.031   2.589
 3218SOL     OW10552   4.976   1.239   2.944
 3218SOL    HW110553   4.957   1.291   3.027
 3218SOL    HW210554   5.014   1.299   2.875
 3219SOL     OW10555   5.903   1.268   5.410
 3219SOL    HW110556   5.808   1.301   5.414
 3219SOL    HW210557   5.965   1.341   5.437
 3220SOL     OW10558   6.852   4.539   6.121
 3220SOL    HW110559   6.928   4.490   6.080
 3220SOL    HW210560   6.767   4.487   6.108
 3221SOL     OW10561   3.664   0.908   1.073
 3221SOL    HW110562   3.631   0.994   1.033
 3221SOL    HW210563   3.679   0.920   1.171
 3222SOL     OW10564   3.210   1.694   2.857
 3222SOL    HW110565   3.191   1.742   2.771
 3222SOL    HW210566   3.252   1.605   2.837
 3223SOL     OW10567   1.517   6.027   0.461
 3223SOL    HW110568   1.466   6.113   0.466
 3223SOL    HW210569   1.456   5.951   0.480
 3224SOL     OW10570   3.330   2.147   3.367
 3224SOL    HW110571   3.353   2.234   3.412
 3224SOL    HW210572   3.337   2.073   3.433
 3225SOL     OW10573   3.816   1.131   3.931
 3225SOL    HW110574   3.799   1.116   4.028
 3225SOL    HW210575   3.890   1.071   3.901
 3226SOL     OW10576   6.236   0.439   0.485
 3226SOL    HW110577   6.272   0.388   0.407
 3226SOL    HW210578   6.226   0.535   0.460
 3227SOL     OW10579   5.348   4.812   5.043
 3227SOL    HW110580   5.308   4.883   5.102
 3227SOL    HW210581   5.291   4.730   5.047
 3228SOL     OW10582   2.673   4.126   0.158
 3228SOL    HW110583   2.662   4.037   0.201
 3228SOL    HW210584   2.749   4.175   0.201
 3229SOL     OW10585   1.501   1.457   0.255
 3229SOL    HW110586   1.471   1.533   0.311
 3229SOL    HW210587   1.563   1.399   0.307
 3230SOL     OW10588   2.995   6.210   5.700
 3230SOL    HW110589   2.994   6.126   5.755
 3230SOL    HW210590   3.067   6.270   5.734
 3231SOL     OW10591   2.039   2.099   2.404
 3231SOL    HW110592   2.080   2.175   2.454
 3231SOL    HW210593   1.981   2.046   2.466
 3232SOL     OW10594   3.705   5.310   4.377
 3232SOL    HW110595   3.632   5.288   4.313
 3232SOL    HW210596   3.739   5.402   4.359
 3233SOL     OW10597   0.574   1.849   0.569
 3233SOL    HW110598   0.578   1.752   0.593
 3233SOL    HW210599   0.662   1.876   0.528
 3234SOL     OW10600   2.467   2.578   0.724
 3234SOL    HW110601   2.452   2.671   0.689
 3234SOL    HW210602   2.397   2.556   0.791
 3235SOL     OW10603   0.901   0.104   3.082
 3235SOL    HW110604   0.961   0.145   3.012
 3235SOL    HW210605   0.848   0.031   3.041
 3236SOL     OW10606   3.809   2.282   0.157
 3236SOL    HW110607   3.817   2.224   0.077
 3236SOL    HW210608   3.730   2.255   0.211
 3237SOL     OW10609   6.319   2.020   5.334
 3237SOL    HW110610   6.360   1.932   5.309
 3237SOL    HW210611   6.252   2.047   5.264
 3238SOL     OW10612   6.584   4.674   1.770
 3238SOL    HW110613   6.514   4.742   1.792
 3238SOL    HW210614   6.548   4.610   1.703
 3239SOL     OW10615   6.923   0.032   4.668
 3239SOL    HW110616   6.853   0.025   4.597
 3239SOL    HW210617   6.938   0.128   4.691
 3240SOL     OW10618   0.303   0.530   0.383
 3240SOL    HW110619   0.221   0.524   0.440
 3240SOL    HW210620   0.384   0.514   0.439
 3241SOL     OW10621   5.996   1.950   5.848
 3241SOL    HW110622   5.931   2.026   5.846
 3241SOL    HW210623   6.089   1.984   5.832
 3242SOL     OW10624   5.887   3.910   4.510
 3242SOL    HW110625   5.934   3.919   4.598
 3242SOL    HW210626   5.855   4.000   4.480
 3243SOL     OW10627   5.962   4.781   4.493
 3243SOL    HW110628   5.881   4.836   4.515
 3243SOL    HW210629   6.039   4.841   4.471
 3244SOL     OW10630   5.359   0.268   6.720
 3244SOL    HW110631   5.432   0.205   6.747
 3244SOL    HW210632   5.354   0.274   6.621
 3245SOL     OW10633   4.098   0.951   5.315
 3245SOL    HW110634   4.156   0.876   5.284
 3245SOL    HW210635   4.133   1.037   5.278
 3246SOL     OW10636   7.006   0.180   2.996
 3246SOL    HW110637   6.968   0.268   2.966
 3246SOL    HW210638   6.997   0.113   2.922
 3247SOL     OW10639   0.420   4.291   3.313
 3247SOL    HW110640   0.393   4.379   3.272
 3247SOL    HW210641   0.408   4.218   3.245
 3248SOL     OW10642   5.407   2.054   3.539
 3248SOL    HW110643   5.336   2.007   3.488
 3248SOL    HW210644   5.493   2.002   3.533
 3249SOL     OW10645   2.910   3.690   3.899
 3249SOL    HW110646   2.908   3.725   3.993
 3249SOL    HW210647   2.895   3.591   3.900
 3250SOL     OW10648   4.926   5.332   2.759
 3250SOL    HW110649   4.994   5.297   2.694
 3250SOL    HW210650   4.838   5.343   2.713
 3251SOL     OW10651   2.289   1.837   2.942
 3251SOL    HW110652   2.373   1.875   2.981
 3251SOL    HW210653   2.311   1.755   2.889
 3252SOL     OW10654   1.831   0.906   3.440
 3252SOL    HW110655   1.879   0.821   3.417
 3252SOL    HW210656   1.773   0.933   3.363
 3253SOL     OW10657   6.816   3.884   0.321
 3253SOL    HW110658   6.819   3.940   0.404
 3253SOL    HW210659   6.899   3.828   0.315
 3254SOL     OW10660   6.400   0.281   0.666
 3254SOL    HW110661   6.334   0.355   0.659
 3254SOL    HW210662   6.361   0.207   0.720
 3255SOL     OW10663   4.934   5.761   1.282
 3255SOL    HW110664   4.899   5.821   1.354
 3255SOL    HW210665   4.957   5.816   1.202
 3256SOL     OW10666   4.779   2.205   1.310
 3256SOL    HW110667   4.797   2.299   1.282
 3256SOL    HW210668   4.788   2.144   1.231
 3257SOL     OW10669   2.621   2.388   3.156
 3257SOL    HW110670   2.577   2.311   3.203
 3257SOL    HW210671   2.720   2.384   3.171
 3258SOL     OW10672   2.480   5.513   3.366
 3258SOL    HW110673   2.479   5.578   3.442
 3258SOL    HW210674   2.571   5.471   3.359
 3259SOL     OW10675   5.409   4.505   3.652
 3259SOL    HW110676   5.459   4.586   3.682
 3259SOL    HW210677   5.312   4.516   3.671
 3260SOL     OW10678   1.024   4.102   2.942
 3260SOL    HW110679   1.100   4.126   3.002
 3260SOL    HW210680   0.976   4.023   2.980
 3261SOL     OW10681   5.467   6.871   3.650
 3261SOL    HW110682   5.428   6.828   3.732
 3261SOL    HW210683   5.396   6.922   3.602
 3262SOL     OW10684   2.876   2.298   3.123
 3262SOL    HW110685   2.923   2.320   3.209
 3262SOL    HW210686   2.892   2.202   3.101
 3263SOL     OW10687   0.184   1.295   2.405
 3263SOL    HW110688   0.118   1.232   2.447
 3263SOL    HW210689   0.200   1.267   2.310
 3264SOL     OW10690   1.632   4.797   6.746
 3264SOL    HW110691   1.614   4.712   6.697
 3264SOL    HW210692   1.614   4.784   6.844
 3265SOL     OW10693   5.994   5.271   6.397
 3265SOL    HW110694   5.963   5.195   6.453
 3265SOL    HW210695   6.033   5.342   6.456
 3266SOL     OW10696   3.139   5.654   6.554
 3266SOL    HW110697   3.143   5.669   6.455
 3266SOL    HW210698   3.184   5.730   6.601
 3267SOL     OW10699   3.857   0.160   0.640
 3267SOL    HW110700   3.785   0.103   0.599
 3267SOL    HW210701   3.946   0.130   0.606
 3268SOL     OW10702   6.373   5.611   1.573
 3268SOL    HW110703   6.357   5.572   1.482
 3268SOL    HW210704   6.339   5.547   1.642
 3269SOL     OW10705   1.680   5.023   1.556
 3269SOL    HW110706   1.762   5.072   1.587
 3269SOL    HW210707   1.613   5.089   1.522
 3270SOL     OW10708   0.636   2.970   5.257
 3270SOL    HW110709   0.724   2.927   5.281
 3270SOL    HW210710   0.566   2.939   5.321
 3271SOL     OW10711   0.620   2.551   2.469
 3271SOL    HW110712   0.578   2.497   2.396
 3271SOL    HW210713   0.554   2.619   2.502
 3272SOL     OW10714   4.401   6.245   0.580
 3272SOL    HW110715   4.322   6.185   0.566
 3272SOL    HW210716   4.376   6.320   0.640
 3273SOL     OW10717   4.849   2.691   6.112
 3273SOL    HW110718   4.906   2.610   6.121
 3273SOL    HW210719   4.851   2.743   6.198
 3274SOL     OW10720   6.021   0.141   1.011
 3274SOL    HW110721   5.960   0.212   1.045
 3274SOL    HW210722   6.040   0.156   0.914
 3275SOL     OW10723   4.795   0.409   1.727
 3275SOL    HW110724   4.737   0.452   1.658
 3275SOL    HW210725   4.803   0.311   1.707
 3276SOL     OW10726   4.862   0.553   0.593
 3276SOL    HW110727   4.939   0.611   0.565
 3276SOL    HW210728   4.784   0.571   0.533
 3277SOL     OW10729   3.434   2.064   2.128
 3277SOL    HW110730   3.517   2.111   2.098
 3277SOL    HW210731   3.459   1.978   2.173
 3278SOL     OW10732   6.385   0.565   0.052
 3278SOL    HW110733   6.354   0.475   0.082
 3278SOL    HW210734   6.312   0.609   7.027
 3279SOL     OW10735   3.237   0.105   1.769
 3279SOL    HW110736   3.189   0.192   1.756
 3279SOL    HW210737   3.176   0.030   1.745
 3280SOL     OW10738   6.012   4.333   3.407
 3280SOL    HW110739   6.095   4.372   3.368
 3280SOL    HW210740   6.033   4.294   3.497
 3281SOL     OW10741   6.185   3.431   1.407
 3281SOL    HW110742   6.202   3.523   1.442
 3281SOL    HW210743   6.268   3.376   1.416
 3282SOL     OW10744   0.219   4.932   4.397
 3282SOL    HW110745   0.125   4.926   4.431
 3282SOL    HW210746   0.233   5.021   4.353
 3283SOL     OW10747   3.599   1.942   0.552
 3283SOL    HW110748   3.503   1.917   0.560
 3283SOL    HW210749   3.609   2.040   0.567
 3284SOL     OW10750   1.859   6.238   4.554
 3284SOL    HW110751   1.824   6.312   4.611
 3284SOL    HW210752   1.824   6.151   4.587
 3285SOL     OW10753   3.684   2.031   4.928
 3285SOL    HW110754   3.621   2.044   4.851
 3285SOL    HW210755   3.681   1.936   4.959
 3286SOL     OW10756   2.474   1.772   1.693
 3286SOL    HW110757   2.557   1.734   1.734
 3286SOL    HW210758   2.419   1.815   1.764
 3287SOL     OW10759   2.738   0.257   6.944
 3287SOL    HW110760   2.731   0.180   6.880
 3287SOL    HW210761   2.669   0.247   7.016
 3288SOL     OW10762   2.241   6.234   1.587
 3288SOL    HW110763   2.141   6.234   1.577
 3288SOL    HW210764   2.265   6.242   1.683
 3289SOL     OW10765   4.107   1.373   6.485
 3289SOL    HW110766   4.148   1.283   6.497
 3289SOL    HW210767   4.176   1.437   6.450
 3290SOL     OW10768   0.146   5.498   0.500
 3290SOL    HW110769   0.081   5.538   0.564
 3290SOL    HW210770   0.103   5.422   0.452
 3291SOL     OW10771   4.865   6.818   5.204
 3291SOL    HW110772   4.813   6.797   5.121
 3291SOL    HW210773   4.899   6.733   5.244
 3292SOL     OW10774   6.887   1.992   0.756
 3292SOL    HW110775   6.937   2.011   0.671
 3292SOL    HW210776   6.847   1.900   0.751
 3293SOL     OW10777   5.841   5.876   3.405
 3293SOL    HW110778   5.749   5.878   3.367
 3293SOL    HW210779   5.866   5.782   3.427
 3294SOL     OW10780   5.375   2.800   4.740
 3294SOL    HW110781   5.447   2.790   4.671
 3294SOL    HW210782   5.392   2.882   4.795
 3295SOL     OW10783   1.052   2.753   2.555
 3295SOL    HW110784   1.014   2.671   2.511
 3295SOL    HW210785   1.151   2.751   2.546
 3296SOL     OW10786   1.416   0.574   6.081
 3296SOL    HW110787   1.485   0.522   6.030
 3296SOL    HW210788   1.454   0.600   6.170
 3297SOL     OW10789   3.066   1.440   4.904
 3297SOL    HW110790   3.027   1.412   4.816
 3297SOL    HW210791   3.016   1.394   4.978
 3298SOL     OW10792   5.240   3.848   5.902
 3298SOL    HW110793   5.233   3.850   6.002
 3298SOL    HW210794   5.324   3.893   5.873
 3299SOL     OW10795   2.548   4.576   4.132
 3299SOL    HW110796   2.636   4.583   4.083
 3299SOL    HW210797   2.477   4.545   4.069
 3300SOL     OW10798   1.959   7.008   4.505
 3300SOL    HW110799   2.011   0.051   4.552
 3300SOL    HW210800   2.017   6.965   4.436
 3301SOL     OW10801   0.715   1.415   3.149
 3301SOL    HW110802   0.789   1.425   3.082
 3301SOL    HW210803   0.741   1.460   3.234
 3302SOL     OW10804   2.414   4.998   5.639
 3302SOL    HW110805   2.318   5.011   5.663
 3302SOL    HW210806   2.421   4.934   5.563
 3303SOL     OW10807   3.672   2.712   0.217
 3303SOL    HW110808   3.617   2.760   0.286
 3303SOL    HW210809   3.740   2.775   0.180
 3304SOL     OW10810   3.243   5.403   6.587
 3304SOL    HW110811   3.192   5.488   6.579
 3304SOL    HW210812   3.281   5.395   6.679
 3305SOL     OW10813   3.312   2.753   0.931
 3305SOL    HW110814   3.277   2.770   1.023
 3305SOL    HW210815   3.411   2.737   0.935
 3306SOL     OW10816   2.178   1.004   0.091
 3306SOL    HW110817   2.113   0.931   0.110
 3306SOL    HW210818   2.249   1.005   0.162
 3307SOL     OW10819   1.710   6.779   5.563
 3307SOL    HW110820   1.620   6.820   5.580
 3307SOL    HW210821   1.713   6.688   5.605
 3308SOL     OW10822   3.984   4.265   1.175
 3308SOL    HW110823   3.954   4.171   1.161
 3308SOL    HW210824   4.047   4.291   1.102
 3309SOL     OW10825   5.704   3.379   3.743
 3309SOL    HW110826   5.795   3.342   3.765
 3309SOL    HW210827   5.644   3.304   3.716
 3310SOL     OW10828   6.433   4.885   5.775
 3310SOL    HW110829   6.350   4.918   5.729
 3310SOL    HW210830   6.485   4.827   5.713
 3311SOL     OW10831   2.734   3.716   0.469
 3311SOL    HW110832   2.657   3.652   0.467
 3311SOL    HW210833   2.733   3.766   0.556
 3312SOL     OW10834   4.828   2.346   5.695
 3312SOL    HW110835   4.779   2.433   5.688
 3312SOL    HW210836   4.844   2.309   5.604
 3313SOL     OW10837   0.905   0.960   3.648
 3313SOL    HW110838   0.990   0.995   3.608
 3313SOL    HW210839   0.827   0.991   3.593
 3314SOL     OW10840   2.791   5.705   2.567
 3314SOL    HW110841   2.864   5.649   2.608
 3314SOL    HW210842   2.832   5.776   2.510
 3315SOL     OW10843   0.247   5.115   5.104
 3315SOL    HW110844   0.255   5.198   5.048
 3315SOL    HW210845   0.150   5.090   5.111
 3316SOL     OW10846   3.880   2.760   6.380
 3316SOL    HW110847   3.884   2.760   6.480
 3316SOL    HW210848   3.962   2.803   6.343
 3317SOL     OW10849   4.890   2.485   2.643
 3317SOL    HW110850   4.796   2.489   2.679
 3317SOL    HW210851   4.946   2.428   2.703
 3318SOL     OW10852   3.282   2.482   1.098
 3318SOL    HW110853   3.293   2.497   0.999
 3318SOL    HW210854   3.369   2.502   1.144
 3319SOL     OW10855   6.453   5.835   3.420
 3319SOL    HW110856   6.426   5.797   3.508
 3319SOL    HW210857   6.494   5.925   3.434
 3320SOL     OW10858   6.322   6.904   1.547
 3320SOL    HW110859   6.350   6.946   1.460
 3320SOL    HW210860   6.230   6.937   1.571
 3321SOL     OW10861   4.882   1.395   0.715
 3321SOL    HW110862   4.844   1.456   0.645
 3321SOL    HW210863   4.810   1.368   0.779
 3322SOL     OW10864   6.629   3.814   0.987
 3322SOL    HW110865   6.717   3.862   0.989
 3322SOL    HW210866   6.630   3.746   0.914
 3323SOL     OW10867   1.517   2.547   1.522
 3323SOL    HW110868   1.535   2.645   1.525
 3323SOL    HW210869   1.600   2.498   1.496
 3324SOL     OW10870   5.043   6.110   5.950
 3324SOL    HW110871   4.971   6.092   6.017
 3324SOL    HW210872   5.062   6.027   5.897
 3325SOL     OW10873   2.369   3.921   6.081
 3325SOL    HW110874   2.331   3.851   6.021
 3325SOL    HW210875   2.468   3.907   6.090
 3326SOL     OW10876   4.080   1.020   2.092
 3326SOL    HW110877   4.071   1.104   2.146
 3326SOL    HW210878   3.994   1.002   2.043
 3327SOL     OW10879   0.376   5.024   0.060
 3327SOL    HW110880   0.328   5.026   0.148
 3327SOL    HW210881   0.373   4.932   0.022
 3328SOL     OW10882   4.727   2.151   6.428
 3328SOL    HW110883   4.651   2.167   6.491
 3328SOL    HW210884   4.783   2.233   6.421
 3329SOL     OW10885   6.995   5.986   5.910
 3329SOL    HW110886   7.015   5.901   5.958
 3329SOL    HW210887   6.958   6.053   5.974
 3330SOL     OW10888   6.612   3.399   3.023
 3330SOL    HW110889   6.652   3.431   2.937
 3330SOL    HW210890   6.513   3.391   3.013
 3331SOL     OW10891   2.095   3.141   1.521
 3331SOL    HW110892   2.022   3.159   1.455
 3331SOL    HW210893   2.077   3.192   1.605
 3332SOL     OW10894   6.255   4.874   1.493
 3332SOL    HW110895   6.328   4.939   1.476
 3332SOL    HW210896   6.282   4.784   1.458
 3333SOL     OW10897   4.503   5.685   5.763
 3333SOL    HW110898   4.501   5.712   5.667
 3333SOL    HW210899   4.519   5.586   5.769
 3334SOL     OW10900   2.341   4.192   1.789
 3334SOL    HW110901   2.350   4.277   1.840
 3334SOL    HW210902   2.245   4.165   1.785
 3335SOL     OW10903   5.882   4.346   4.631
 3335SOL    HW110904   5.825   4.264   4.633
 3335SOL    HW210905   5.973   4.323   4.597
 3336SOL     OW10906   3.074   5.767   5.876
 3336SOL    HW110907   3.092   5.674   5.845
 3336SOL    HW210908   3.023   5.765   5.962
 3337SOL     OW10909   3.427   2.046   0.916
 3337SOL    HW110910   3.375   2.097   0.984
 3337SOL    HW210911   3.517   2.088   0.905
 3338SOL     OW10912   0.210   4.540   0.727
 3338SOL    HW110913   0.251   4.450   0.744
 3338SOL    HW210914   0.273   4.612   0.755
 3339SOL     OW10915   0.026   5.654   6.486
 3339SOL    HW110916   6.998   5.595   6.429
 3339SOL    HW210917   0.097   5.599   6.531
 3340SOL     OW10918   3.586   6.321   1.919
 3340SOL    HW110919   3.681   6.295   1.934
 3340SOL    HW210920   3.563   6.307   1.822
 3341SOL     OW10921   1.123   0.428   1.948
 3341SOL    HW110922   1.079   0.470   2.027
 3341SOL    HW210923   1.054   0.384   1.890
 3342SOL     OW10924   2.489   6.817   4.307
 3342SOL    HW110925   2.425   6.888   4.277
 3342SOL    HW210926   2.466   6.789   4.400
 3343SOL     OW10927   6.118   2.467   1.220
 3343SOL    HW110928   6.084   2.378   1.191
 3343SOL    HW210929   6.132   2.525   1.139
 3344SOL     OW10930   0.063   3.282   5.511
 3344SOL    HW110931   0.118   3.296   5.594
 3344SOL    HW210932   7.012   3.344   5.513
 3345SOL     OW10933   2.861   3.178   5.741
 3345SOL    HW110934   2.789   3.154   5.675
 3345SOL    HW210935   2.945   3.201   5.691
 3346SOL     OW10936   1.135   6.024   2.376
 3346SOL    HW110937   1.231   6.008   2.398
 3346SOL    HW210938   1.105   6.110   2.419
 3347SOL     OW10939   5.502   4.185   4.834
 3347SOL    HW110940   5.565   4.170   4.910
 3347SOL    HW210941   5.410   4.200   4.870
 3348SOL     OW10942   3.547   2.847   3.601
 3348SOL    HW110943   3.620   2.887   3.546
 3348SOL    HW210944   3.465   2.836   3.544
 3349SOL     OW10945   6.306   3.790   5.252
 3349SOL    HW110946   6.212   3.820   5.272
 3349SOL    HW210947   6.308   3.742   5.165
 3350SOL     OW10948   0.844   1.370   1.136
 3350SOL    HW110949   0.871   1.295   1.076
 3350SOL    HW210950   0.888   1.455   1.107
 3351SOL     OW10951   5.179   1.601   1.733
 3351SOL    HW110952   5.255   1.581   1.670
 3351SOL    HW210953   5.191   1.693   1.771
 3352SOL     OW10954   0.516   3.963   0.748
 3352SOL    HW110955   0.437   3.927   0.699
 3352SOL    HW210956   0.494   4.053   0.785
 3353SOL     OW10957   1.810   6.907   6.252
 3353SOL    HW110958   1.882   6.962   6.210
 3353SOL    HW210959   1.721   6.937   6.218
 3354SOL     OW10960   0.657   1.651   2.813
 3354SOL    HW110961   0.748   1.612   2.826
 3354SOL    HW210962   0.588   1.579   2.822
 3355SOL     OW10963   6.516   1.709   2.828
 3355SOL    HW110964   6.458   1.636   2.864
 3355SOL    HW210965   6.575   1.673   2.755
 3356SOL     OW10966   2.896   2.909   6.459
 3356SOL    HW110967   2.877   3.003   6.433
 3356SOL    HW210968   2.977   2.906   6.517
 3357SOL     OW10969   2.659   4.822   1.911
 3357SOL    HW110970   2.713   4.859   1.835
 3357SOL    HW210971   2.696   4.732   1.936
 3358SOL     OW10972   5.346   4.754   3.181
 3358SOL    HW110973   5.386   4.795   3.099
 3358SOL    HW210974   5.351   4.654   3.174
 3359SOL     OW10975   0.824   1.079   2.202
 3359SOL    HW110976   0.873   0.998   2.168
 3359SOL    HW210977   0.872   1.115   2.282
 3360SOL     OW10978   1.493   0.577   6.679
 3360SOL    HW110979   1.521   0.528   6.597
 3360SOL    HW210980   1.399   0.607   6.670
 3361SOL     OW10981   5.471   6.649   2.434
 3361SOL    HW110982   5.531   6.630   2.512
 3361SOL    HW210983   5.449   6.564   2.387
 3362SOL     OW10984   2.483   1.456   5.428
 3362SOL    HW110985   2.408   1.517   5.401
 3362SOL    HW210986   2.451   1.362   5.429
 3363SOL     OW10987   0.608   0.905   6.957
 3363SOL    HW110988   0.513   0.930   6.938
 3363SOL    HW210989   0.667   0.941   6.885
 3364SOL     OW10990   2.134   4.847   6.456
 3364SOL    HW110991   2.135   4.789   6.375
 3364SOL    HW210992   2.061   4.914   6.448
 3365SOL     OW10993   6.507   2.048   5.696
 3365SOL    HW110994   6.571   2.092   5.633
 3365SOL    HW210995   6.543   2.054   5.789
 3366SOL     OW10996   5.424   1.159   5.715
 3366SOL    HW110997   5.418   1.134   5.811
 3366SOL    HW210998   5.459   1.253   5.707
 3367SOL     OW10999   0.824   0.586   1.987
 3367SOL    HW111000   0.779   0.514   1.935
 3367SOL    HW211001   0.759   0.660   2.004
 3368SOL     OW11002   6.989   6.282   5.487
 3368SOL    HW111003   6.995   6.201   5.545
 3368SOL    HW211004   6.904   6.330   5.506
 3369SOL     OW11005   4.018   0.081   6.503
 3369SOL    HW111006   3.926   0.119   6.500
 3369SOL    HW211007   4.014   7.013   6.530
 3370SOL     OW11008   5.706   0.041   5.124
 3370SOL    HW111009   5.741   0.124   5.168
 3370SOL    HW211010   5.714   0.050   5.025
 3371SOL     OW11011   6.806   5.200   1.977
 3371SOL    HW111012   6.716   5.235   1.950
 3371SOL    HW211013   6.836   5.131   1.912
 3372SOL     OW11014   0.408   1.323   2.564
 3372SOL    HW111015   0.367   1.294   2.650
 3372SOL    HW211016   0.337   1.341   2.496
 3373SOL     OW11017   6.730   1.780   5.300
 3373SOL    HW111018   6.825   1.788   5.329
 3373SOL    HW211019   6.680   1.721   5.364
 3374SOL     OW11020   3.229   5.115   4.983
 3374SOL    HW111021   3.309   5.056   4.991
 3374SOL    HW211022   3.184   5.122   5.072
 3375SOL     OW11023   4.500   4.515   5.442
 3375SOL    HW111024   4.586   4.471   5.470
 3375SOL    HW211025   4.512   4.614   5.442
 3376SOL     OW11026   3.279   3.773   2.404
 3376SOL    HW111027   3.331   3.842   2.454
 3376SOL    HW211028   3.188   3.807   2.384
 3377SOL     OW11029   2.063   6.062   5.515
 3377SOL    HW111030   2.108   6.117   5.585
 3377SOL    HW211031   2.079   6.102   5.425
 3378SOL     OW11032   0.431   1.458   1.014
 3378SOL    HW111033   0.495   1.504   1.075
 3378SOL    HW211034   0.464   1.465   0.919
 3379SOL     OW11035   0.911   4.977   6.055
 3379SOL    HW111036   0.841   5.010   5.992
 3379SOL    HW211037   0.899   4.879   6.070
 3380SOL     OW11038   0.452   4.264   6.309
 3380SOL    HW111039   0.380   4.205   6.345
 3380SOL    HW211040   0.435   4.284   6.213
 3381SOL     OW11041   2.872   2.533   0.435
 3381SOL    HW111042   2.840   2.484   0.354
 3381SOL    HW211043   2.849   2.481   0.517
 3382SOL     OW11044   6.671   0.360   0.662
 3382SOL    HW111045   6.585   0.311   0.656
 3382SOL    HW211046   6.727   0.341   0.581
 3383SOL     OW11047   6.533   4.902   2.836
 3383SOL    HW111048   6.611   4.887   2.774
 3383SOL    HW211049   6.477   4.819   2.838
 3384SOL     OW11050   3.999   3.248   4.731
 3384SOL    HW111051   4.085   3.212   4.767
 3384SOL    HW211052   4.002   3.348   4.732
 3385SOL     OW11053   6.488   3.602   3.223
 3385SOL    HW111054   6.414   3.535   3.225
 3385SOL    HW211055   6.485   3.653   3.137
 3386SOL     OW11056   5.979   4.471   4.860
 3386SOL    HW111057   6.053   4.531   4.830
 3386SOL    HW211058   5.951   4.412   4.784
 3387SOL     OW11059   2.536   2.347   2.636
 3387SOL    HW111060   2.457   2.409   2.637
 3387SOL    HW211061   2.539   2.294   2.721
 3388SOL     OW11062   5.928   2.961   1.797
 3388SOL    HW111063   5.872   2.880   1.781
 3388SOL    HW211064   5.870   3.042   1.794
 3389SOL     OW11065   5.622   4.564   2.995
 3389SOL    HW111066   5.607   4.487   2.932
 3389SOL    HW211067   5.611   4.532   3.089
 3390SOL     OW11068   5.216   2.525   5.154
 3390SOL    HW111069   5.242   2.541   5.250
 3390SOL    HW211070   5.156   2.445   5.148
 3391SOL     OW11071   3.236   1.985   4.686
 3391SOL    HW111072   3.287   2.059   4.730
 3391SOL    HW211073   3.295   1.940   4.619
 3392SOL     OW11074   4.190   6.570   3.879
 3392SOL    HW111075   4.103   6.594   3.922
 3392SOL    HW211076   4.191   6.603   3.785
 3393SOL     OW11077   6.578   0.047   6.823
 3393SOL    HW111078   6.534   7.018   6.892
 3393SOL    HW211079   6.514   0.115   6.789
 3394SOL     OW11080   6.179   2.915   1.707
 3394SOL    HW111081   6.083   2.897   1.727
 3394SOL    HW211082   6.226   2.944   1.791
 3395SOL     OW11083   1.472   3.380   5.348
 3395SOL    HW111084   1.473   3.450   5.420
 3395SOL    HW211085   1.566   3.350   5.330
 3396SOL     OW11086   0.289   4.134   3.853
 3396SOL    HW111087   0.243   4.222   3.853
 3396SOL    HW211088   0.386   4.146   3.830
 3397SOL     OW11089   3.853   6.141   6.124
 3397SOL    HW111090   3.872   6.199   6.045
 3397SOL    HW211091   3.916   6.064   6.124
 3398SOL     OW11092   0.803   6.633   3.863
 3398SOL    HW111093   0.784   6.569   3.937
 3398SOL    HW211094   0.719   6.649   3.810
 3399SOL     OW11095   4.599   4.639   4.457
 3399SOL    HW111096   4.590   4.726   4.409
 3399SOL    HW211097   4.519   4.582   4.440
 3400SOL     OW11098   5.163   2.169   6.588
 3400SOL    HW111099   5.132   2.183   6.494
 3400SOL    HW211100   5.262   2.180   6.592
 3401SOL     OW11101   5.810   4.629   0.368
 3401SOL    HW111102   5.764   4.717   0.378
 3401SOL    HW211103   5.855   4.605   0.454
 3402SOL     OW11104   5.284   5.666   1.650
 3402SOL    HW111105   5.281   5.725   1.569
 3402SOL    HW211106   5.240   5.579   1.629
 3403SOL     OW11107   3.654   1.158   5.099
 3403SOL    HW111108   3.713   1.156   5.179
 3403SOL    HW211109   3.565   1.118   5.122
 3404SOL     OW11110   4.732   0.933   0.435
 3404SOL    HW111111   4.677   0.853   0.458
 3404SOL    HW211112   4.692   0.980   0.357
 3405SOL     OW11113   7.006   3.881   6.946
 3405SOL    HW111114   6.976   3.786   6.934
 3405SOL    HW211115   6.947   3.941   6.892
 3406SOL     OW11116   1.508   3.975   2.289
 3406SOL    HW111117   1.427   3.951   2.236
 3406SOL    HW211118   1.554   3.891   2.318
 3407SOL     OW11119   1.447   5.812   2.683
 3407SOL    HW111120   1.399   5.828   2.769
 3407SOL    HW211121   1.541   5.847   2.691
 3408SOL     OW11122   5.325   4.483   2.884
 3408SOL    HW111123   5.299   4.472   2.980
 3408SOL    HW211124   5.386   4.408   2.857
 3409SOL     OW11125   3.865   0.532   5.799
 3409SOL    HW111126   3.857   0.487   5.710
 3409SOL    HW211127   3.932   0.607   5.793
 3410SOL     OW11128   6.474   0.220   0.295
 3410SOL    HW111129   6.518   0.159   0.229
 3410SOL    HW211130   6.532   0.231   0.375
 3411SOL     OW11131   4.867   2.121   2.519
 3411SOL    HW111132   4.800   2.102   2.591
 3411SOL    HW211133   4.834   2.196   2.461
 3412SOL     OW11134   3.918   4.732   0.164
 3412SOL    HW111135   3.875   4.673   0.095
 3412SOL    HW211136   3.876   4.822   0.162
 3413SOL     OW11137   3.918   2.174   2.728
 3413SOL    HW111138   4.006   2.164   2.681
 3413SOL    HW211139   3.844   2.149   2.665
 3414SOL     OW11140   2.618   2.487   5.071
 3414SOL    HW111141   2.644   2.527   4.983
 3414SOL    HW211142   2.654   2.543   5.145
 3415SOL     OW11143   0.603   4.804   4.084
 3415SOL    HW111144   0.559   4.732   4.139
 3415SOL    HW211145   0.576   4.894   4.119
 3416SOL     OW11146   1.273   5.305   5.743
 3416SOL    HW111147   1.283   5.338   5.837
 3416SOL    HW211148   1.209   5.228   5.742
 3417SOL     OW11149   6.136   7.013   2.439
 3417SOL    HW111150   6.202   0.059   2.428
 3417SOL    HW211151   6.123   6.994   2.537
 3418SOL     OW11152   3.241   1.550   5.839
 3418SOL    HW111153   3.149   1.572   5.809
 3418SOL    HW211154   3.250   1.451   5.850
 3419SOL     OW11155   4.196   4.355   0.195
 3419SOL    HW111156   4.263   4.280   0.198
 3419SOL    HW211157   4.236   4.433   0.148
 3420SOL     OW11158   4.013   2.209   3.691
 3420SOL    HW111159   3.931   2.172   3.648
 3420SOL    HW211160   3.992   2.237   3.785
 3421SOL     OW11161   0.203   5.591   4.983
 3421SOL    HW111162   0.257   5.638   5.052
 3421SOL    HW211163   0.107   5.587   5.012
 3422SOL     OW11164   3.242   1.475   1.914
 3422SOL    HW111165   3.161   1.468   1.856
 3422SOL    HW211166   3.324   1.459   1.859
 3423SOL     OW11167   2.772   0.506   1.190
 3423SOL    HW111168   2.689   0.457   1.164
 3423SOL    HW211169   2.762   0.540   1.284
 3424SOL     OW11170   4.379   1.276   3.050
 3424SOL    HW111171   4.347   1.273   3.144
 3424SOL    HW211172   4.435   1.196   3.031
 3425SOL     OW11173   4.493   4.352   1.616
 3425SOL    HW111174   4.551   4.433   1.628
 3425SOL    HW211175   4.473   4.311   1.705
 3426SOL     OW11176   4.226   3.660   0.710
 3426SOL    HW111177   4.259   3.565   0.712
 3426SOL    HW211178   4.247   3.704   0.797
 3427SOL     OW11179   0.817   1.349   0.217
 3427SOL    HW111180   0.795   1.346   0.315
 3427SOL    HW211181   0.803   1.259   0.177
 3428SOL     OW11182   4.030   4.907   2.617
 3428SOL    HW111183   3.934   4.924   2.598
 3428SOL    HW211184   4.074   4.866   2.537
 3429SOL     OW11185   1.343   2.887   6.816
 3429SOL    HW111186   1.376   2.978   6.792
 3429SOL    HW211187   1.365   2.867   6.911
 3430SOL     OW11188   1.422   6.863   0.170
 3430SOL    HW111189   1.462   6.795   0.109
 3430SOL    HW211190   1.462   6.953   0.151
 3431SOL     OW11191   0.842   5.702   1.062
 3431SOL    HW111192   0.797   5.701   0.972
 3431SOL    HW211193   0.787   5.649   1.127
 3432SOL     OW11194   3.259   1.655   6.094
 3432SOL    HW111195   3.256   1.603   6.009
 3432SOL    HW211196   3.232   1.750   6.076
 3433SOL     OW11197   3.620   1.223   4.835
 3433SOL    HW111198   3.606   1.237   4.933
 3433SOL    HW211199   3.671   1.138   4.820
 3434SOL     OW11200   4.793   2.809   2.370
 3434SOL    HW111201   4.782   2.836   2.274
 3434SOL    HW211202   4.710   2.831   2.421
 3435SOL     OW11203   0.424   1.297   1.635
 3435SOL    HW111204   0.371   1.244   1.700
 3435SOL    HW211205   0.463   1.236   1.565
 3436SOL     OW11206   4.096   6.880   4.503
 3436SOL    HW111207   4.094   6.965   4.556
 3436SOL    HW211208   4.056   6.806   4.558
 3437SOL     OW11209   3.971   0.065   6.094
 3437SOL    HW111210   3.945   0.143   6.037
 3437SOL    HW211211   3.890   0.030   6.140
 3438SOL     OW11212   0.736   2.771   6.296
 3438SOL    HW111213   0.658   2.716   6.267
 3438SOL    HW211214   0.714   2.819   6.380
 3439SOL     OW11215   2.483   5.929   3.927
 3439SOL    HW111216   2.566   5.874   3.918
 3439SOL    HW211217   2.494   6.014   3.875
 3440SOL     OW11218   5.164   3.264   0.920
 3440SOL    HW111219   5.254   3.244   0.959
 3440SOL    HW211220   5.127   3.183   0.876
 3441SOL     OW11221   2.674   0.393   3.501
 3441SOL    HW111222   2.658   0.430   3.409
 3441SOL    HW211223   2.600   0.331   3.526
 3442SOL     OW11224   2.193   4.643   3.544
 3442SOL    HW111225   2.153   4.561   3.586
 3442SOL    HW211226   2.120   4.707   3.522
 3443SOL     OW11227   5.295   1.038   2.834
 3443SOL    HW111228   5.372   0.994   2.789
 3443SOL    HW211229   5.240   0.970   2.882
 3444SOL     OW11230   4.607   5.566   0.193
 3444SOL    HW111231   4.622   5.492   0.259
 3444SOL    HW211232   4.529   5.622   0.223
 3445SOL     OW11233   6.516   4.443   3.898
 3445SOL    HW111234   6.573   4.384   3.956
 3445SOL    HW211235   6.534   4.421   3.802
 3446SOL     OW11236   3.631   6.870   2.777
 3446SOL    HW111237   3.686   6.846   2.857
 3446SOL    HW211238   3.598   6.964   2.787
 3447SOL     OW11239   5.463   6.198   6.734
 3447SOL    HW111240   5.480   6.241   6.822
 3447SOL    HW211241   5.532   6.129   6.715
 3448SOL     OW11242   3.464   1.961   1.228
 3448SOL    HW111243   3.435   2.015   1.149
 3448SOL    HW211244   3.562   1.940   1.220
 3449SOL     OW11245   0.106   6.548   3.227
 3449SOL    HW111246   0.029   6.564   3.165
 3449SOL    HW211247   0.074   6.548   3.321
 3450SOL     OW11248   1.188   1.755   1.515
 3450SOL    HW111249   1.285   1.777   1.517
 3450SOL    HW211250   1.165   1.713   1.427
 3451SOL     OW11251   0.916   5.788   4.602
 3451SOL    HW111252   0.912   5.887   4.592
 3451SOL    HW211253   1.008   5.760   4.626
 3452SOL     OW11254   5.973   1.269   0.782
 3452SOL    HW111255   5.905   1.337   0.756
 3452SOL    HW211256   5.943   1.221   0.864
 3453SOL     OW11257   5.487   5.794   4.628
 3453SOL    HW111258   5.567   5.854   4.620
 3453SOL    HW211259   5.446   5.782   4.537
 3454SOL     OW11260   1.053   0.923   0.644
 3454SOL    HW111261   1.060   0.935   0.545
 3454SOL    HW211262   0.990   0.848   0.665
 3455SOL     OW11263   1.930   2.597   4.270
 3455SOL    HW111264   1.924   2.632   4.363
 3455SOL    HW211265   2.011   2.635   4.225
 3456SOL     OW11266   5.779   6.933   1.742
 3456SOL    HW111267   5.783   6.863   1.813
 3456SOL    HW211268   5.870   6.945   1.701
 3457SOL     OW11269   2.535   5.040   3.577
 3457SOL    HW111270   2.467   4.976   3.614
 3457SOL    HW211271   2.569   5.006   3.490
 3458SOL     OW11272   5.844   6.500   0.606
 3458SOL    HW111273   5.754   6.526   0.640
 3458SOL    HW211274   5.856   6.533   0.512
 3459SOL     OW11275   0.196   5.376   4.037
 3459SOL    HW111276   0.116   5.319   4.020
 3459SOL    HW211277   0.168   5.460   4.084
 3460SOL     OW11278   4.564   3.310   6.676
 3460SOL    HW111279   4.562   3.307   6.776
 3460SOL    HW211280   4.487   3.259   6.639
 3461SOL     OW11281   4.090   6.419   3.551
 3461SOL    HW111282   4.167   6.405   3.613
 3461SOL    HW211283   4.096   6.353   3.476
 3462SOL     OW11284   4.894   3.653   3.047
 3462SOL    HW111285   4.888   3.733   2.987
 3462SOL    HW211286   4.872   3.680   3.141
 3463SOL     OW11287   2.171   2.715   1.476
 3463SOL    HW111288   2.225   2.792   1.442
 3463SOL    HW211289   2.166   2.719   1.576
 3464SOL     OW11290   5.173   2.746   6.463
 3464SOL    HW111291   5.215   2.829   6.427
 3464SOL    HW211292   5.223   2.666   6.429
 3465SOL     OW11293   2.083   3.678   2.151
 3465SOL    HW111294   2.118   3.593   2.111
 3465SOL    HW211295   1.983   3.676   2.151
 3466SOL     OW11296   6.115   5.282   4.268
 3466SOL    HW111297   6.169   5.257   4.187
 3466SOL    HW211298   6.123   5.209   4.336
 3467SOL     OW11299   2.792   2.413   0.660
 3467SOL    HW111300   2.788   2.412   0.760
 3467SOL    HW211301   2.700   2.406   0.622
 3468SOL     OW11302   4.292   1.611   1.135
 3468SOL    HW111303   4.388   1.635   1.153
 3468SOL    HW211304   4.259   1.662   1.056
 3469SOL     OW11305   4.035   6.518   5.566
 3469SOL    HW111306   4.128   6.550   5.589
 3469SOL    HW211307   4.008   6.556   5.478
 3470SOL     OW11308   0.536   3.050   1.863
 3470SOL    HW111309   0.462   3.078   1.924
 3470SOL    HW211310   0.621   3.092   1.893
 3471SOL     OW11311   5.101   3.900   3.744
 3471SOL    HW111312   5.096   3.918   3.842
 3471SOL    HW211313   5.015   3.926   3.701
 3472SOL     OW11314   4.339   1.785   3.531
 3472SOL    HW111315   4.315   1.693   3.500
 3472SOL    HW211316   4.256   1.834   3.557
 3473SOL     OW11317   0.073   4.204   2.556
 3473SOL    HW111318   0.063   4.220   2.458
 3473SOL    HW211319   0.167   4.174   2.575
 3474SOL     OW11320   6.436   5.352   4.141
 3474SOL    HW111321   6.355   5.309   4.103
 3474SOL    HW211322   6.505   5.361   4.069
 3475SOL     OW11323   6.736   4.099   4.580
 3475SOL    HW111324   6.791   4.181   4.567
 3475SOL    HW211325   6.795   4.022   4.605
 3476SOL     OW11326   1.080   1.613   3.386
 3476SOL    HW111327   1.142   1.648   3.317
 3476SOL    HW211328   1.127   1.610   3.475
 3477SOL     OW11329   0.408   3.543   1.657
 3477SOL    HW111330   0.465   3.490   1.719
 3477SOL    HW211331   0.339   3.484   1.615
 3478SOL     OW11332   2.429   0.426   0.030
 3478SOL    HW111333   2.474   0.367   0.097
 3478SOL    HW211334   2.492   0.443   6.983
 3479SOL     OW11335   0.839   3.100   3.934
 3479SOL    HW111336   0.878   3.115   3.843
 3479SOL    HW211337   0.895   3.034   3.984
 3480SOL     OW11338   0.901   5.684   6.840
 3480SOL    HW111339   0.861   5.673   6.931
 3480SOL    HW211340   0.859   5.619   6.777
 3481SOL     OW11341   6.685   0.199   6.265
 3481SOL    HW111342   6.676   0.164   6.359
 3481SOL    HW211343   6.630   0.282   6.256
 3482SOL     OW11344   6.184   3.680   4.789
 3482SOL    HW111345   6.120   3.754   4.770
 3482SOL    HW211346   6.276   3.708   4.762
 3483SOL     OW11347   4.623   2.057   3.395
 3483SOL    HW111348   4.622   1.981   3.459
 3483SOL    HW211349   4.532   2.069   3.355
 3484SOL     OW11350   1.837   3.220   5.984
 3484SOL    HW111351   1.792   3.309   5.982
 3484SOL    HW211352   1.772   3.149   5.957
 3485SOL     OW11353   0.582   1.654   5.996
 3485SOL    HW111354   0.539   1.671   6.085
 3485SOL    HW211355   0.512   1.627   5.930
 3486SOL     OW11356   2.621   0.252   4.910
 3486SOL    HW111357   2.531   0.256   4.953
 3486SOL    HW211358   2.619   0.187   4.835
 3487SOL     OW11359   5.308   1.058   6.679
 3487SOL    HW111360   5.377   1.109   6.628
 3487SOL    HW211361   5.227   1.046   6.622
 3488SOL     OW11362   6.300   0.857   4.347
 3488SOL    HW111363   6.315   0.815   4.437
 3488SOL    HW211364   6.203   0.879   4.337
 3489SOL     OW11365   3.137   0.297   0.290
 3489SOL    HW111366   3.161   0.271   0.197
 3489SOL    HW211367   3.220   0.297   0.347
 3490SOL     OW11368   3.950   5.145   0.776
 3490SOL    HW111369   3.999   5.230   0.758
 3490SOL    HW211370   3.853   5.158   0.757
 3491SOL     OW11371   4.601   3.972   0.296
 3491SOL    HW111372   4.616   4.020   0.210
 3491SOL    HW211373   4.549   3.888   0.280
 3492SOL     OW11374   6.235   4.351   2.483
 3492SOL    HW111375   6.213   4.374   2.578
 3492SOL    HW211376   6.330   4.375   2.464
 3493SOL     OW11377   6.121   2.995   4.544
 3493SOL    HW111378   6.083   3.083   4.513
 3493SOL    HW211379   6.059   2.921   4.519
 3494SOL     OW11380   4.025   1.693   1.959
 3494SOL    HW111381   3.955   1.677   1.889
 3494SOL    HW211382   4.113   1.711   1.914
 3495SOL     OW11383   1.764   3.487   2.062
 3495SOL    HW111384   1.766   3.578   2.020
 3495SOL    HW211385   1.829   3.428   2.015
 3496SOL     OW11386   6.682   5.547   1.156
 3496SOL    HW111387   6.693   5.623   1.221
 3496SOL    HW211388   6.644   5.581   1.070
 3497SOL     OW11389   3.572   0.567   2.397
 3497SOL    HW111390   3.484   0.578   2.444
 3497SOL    HW211391   3.580   0.637   2.326
 3498SOL     OW11392   1.969   1.966   1.371
 3498SOL    HW111393   2.032   2.044   1.364
 3498SOL    HW211394   1.883   1.990   1.327
 3499SOL     OW11395   6.153   5.234   5.849
 3499SOL    HW111396   6.129   5.258   5.943
 3499SOL    HW211397   6.070   5.219   5.795
 3500SOL     OW11398   1.657   2.548   3.825
 3500SOL    HW111399   1.652   2.519   3.729
 3500SOL    HW211400   1.571   2.592   3.851
 3501SOL     OW11401   1.471   6.731   6.157
 3501SOL    HW111402   1.390   6.732   6.098
 3501SOL    HW211403   1.498   6.637   6.176
 3502SOL     OW11404   4.881   3.400   1.745
 3502SOL    HW111405   4.894   3.333   1.818
 3502SOL    HW211406   4.962   3.403   1.687
 3503SOL     OW11407   6.477   6.010   6.815
 3503SOL    HW111408   6.409   5.946   6.778
 3503SOL    HW211409   6.569   5.978   6.793
 3504SOL     OW11410   1.346   0.532   1.892
 3504SOL    HW111411   1.271   0.473   1.921
 3504SOL    HW211412   1.432   0.481   1.893
 3505SOL     OW11413   6.115   5.236   6.139
 3505SOL    HW111414   6.214   5.233   6.155
 3505SOL    HW211415   6.067   5.234   6.227
 3506SOL     OW11416   4.988   4.365   4.541
 3506SOL    HW111417   5.009   4.380   4.444
 3506SOL    HW211418   4.991   4.452   4.590
 3507SOL     OW11419   2.747   6.755   0.690
 3507SOL    HW111420   2.817   6.698   0.646
 3507SOL    HW211421   2.669   6.697   0.716
 3508SOL     OW11422   3.376   2.621   5.431
 3508SOL    HW111423   3.316   2.571   5.369
 3508SOL    HW211424   3.325   2.697   5.472
 3509SOL     OW11425   4.317   5.971   6.804
 3509SOL    HW111426   4.271   6.035   6.864
 3509SOL    HW211427   4.334   6.014   6.715
 3510SOL     OW11428   2.625   0.596   0.815
 3510SOL    HW111429   2.586   0.537   0.885
 3510SOL    HW211430   2.709   0.638   0.850
 3511SOL     OW11431   2.581   4.904   1.230
 3511SOL    HW111432   2.487   4.897   1.197
 3511SOL    HW211433   2.640   4.844   1.176
 3512SOL     OW11434   1.134   4.250   6.880
 3512SOL    HW111435   1.063   4.303   6.925
 3512SOL    HW211436   1.100   4.157   6.862
 3513SOL     OW11437   5.758   2.354   0.332
 3513SOL    HW111438   5.742   2.439   0.281
 3513SOL    HW211439   5.688   2.286   0.308
 3514SOL     OW11440   4.169   1.149   2.949
 3514SOL    HW111441   4.158   1.168   2.851
 3514SOL    HW211442   4.249   1.198   2.983
 3515SOL     OW11443   6.102   5.737   4.643
 3515SOL    HW111444   6.167   5.772   4.710
 3515SOL    HW211445   6.144   5.662   4.592
 3516SOL     OW11446   5.235   0.170   0.960
 3516SOL    HW111447   5.176   0.250   0.977
 3516SOL    HW211448   5.330   0.200   0.953
 3517SOL     OW11449   6.490   1.328   0.407
 3517SOL    HW111450   6.550   1.306   0.330
 3517SOL    HW211451   6.539   1.387   0.472
 3518SOL     OW11452   5.632   1.343   5.343
 3518SOL    HW111453   5.667   1.404   5.414
 3518SOL    HW211454   5.540   1.313   5.368
 3519SOL     OW11455   3.524   0.480   0.451
 3519SOL    HW111456   3.435   0.449   0.486
 3519SOL    HW211457   3.554   0.560   0.503
 3520SOL     OW11458   2.995   6.128   4.981
 3520SOL    HW111459   2.949   6.047   4.946
 3520SOL    HW211460   3.093   6.121   4.963
 3521SOL     OW11461   3.035   2.905   6.675
 3521SOL    HW111462   3.088   2.848   6.738
 3521SOL    HW211463   3.032   2.999   6.710
 3522SOL     OW11464   6.770   5.637   0.173
 3522SOL    HW111465   6.702   5.668   0.106
 3522SOL    HW211466   6.860   5.632   0.129
 3523SOL     OW11467   0.783   5.145   6.347
 3523SOL    HW111468   0.743   5.232   6.322
 3523SOL    HW211469   0.875   5.138   6.310
 3524SOL     OW11470   6.903   1.324   3.225
 3524SOL    HW111471   6.870   1.370   3.143
 3524SOL    HW211472   6.867   1.370   3.306
 3525SOL     OW11473   6.264   5.048   3.839
 3525SOL    HW111474   6.204   5.013   3.911
 3525SOL    HW211475   6.300   4.972   3.784
 3526SOL     OW11476   1.067   5.921   3.451
 3526SOL    HW111477   0.998   5.992   3.465
 3526SOL    HW211478   1.135   5.926   3.524
 3527SOL     OW11479   6.813   2.620   6.106
 3527SOL    HW111480   6.792   2.702   6.053
 3527SOL    HW211481   6.877   2.562   6.054
 3528SOL     OW11482   2.633   6.575   5.360
 3528SOL    HW111483   2.620   6.657   5.415
 3528SOL    HW211484   2.731   6.561   5.345
 3529SOL     OW11485   4.822   6.096   6.938
 3529SOL    HW111486   4.889   6.092   7.012
 3529SOL    HW211487   4.813   6.006   6.895
 3530SOL     OW11488   0.460   0.140   2.099
 3530SOL    HW111489   0.433   0.122   2.005
 3530SOL    HW211490   0.396   0.204   2.141
 3531SOL     OW11491   4.914   1.749   1.294
 3531SOL    HW111492   5.007   1.714   1.308
 3531SOL    HW211493   4.892   1.747   1.197
 3532SOL     OW11494   2.096   1.178   2.068
 3532SOL    HW111495   2.071   1.271   2.096
 3532SOL    HW211496   2.042   1.151   1.988
 3533SOL     OW11497   6.854   1.356   2.474
 3533SOL    HW111498   6.766   1.330   2.433
 3533SOL    HW211499   6.920   1.373   2.401
 3534SOL     OW11500   0.015   1.643   1.529
 3534SOL    HW111501   0.053   1.586   1.602
 3534SOL    HW211502   0.041   1.738   1.545
 3535SOL     OW11503   2.756   5.061   4.795
 3535SOL    HW111504   2.793   4.969   4.790
 3535SOL    HW211505   2.830   5.128   4.783
 3536SOL     OW11506   3.285   2.136   2.356
 3536SOL    HW111507   3.351   2.142   2.430
 3536SOL    HW211508   3.328   2.164   2.270
 3537SOL     OW11509   1.698   5.547   2.642
 3537SOL    HW111510   1.743   5.543   2.731
 3537SOL    HW211511   1.626   5.478   2.637
 3538SOL     OW11512   3.072   5.458   4.770
 3538SOL    HW111513   3.059   5.503   4.682
 3538SOL    HW211514   3.163   5.415   4.772
 3539SOL     OW11515   3.995   3.718   4.647
 3539SOL    HW111516   3.979   3.815   4.664
 3539SOL    HW211517   3.923   3.682   4.588
 3540SOL     OW11518   1.988   1.745   4.308
 3540SOL    HW111519   1.940   1.710   4.228
 3540SOL    HW211520   1.978   1.844   4.313
 3541SOL     OW11521   2.989   3.608   5.288
 3541SOL    HW111522   2.949   3.530   5.240
 3541SOL    HW211523   2.919   3.678   5.303
 3542SOL     OW11524   1.320   4.668   2.502
 3542SOL    HW111525   1.348   4.723   2.424
 3542SOL    HW211526   1.289   4.578   2.471
 3543SOL     OW11527   5.500   2.575   4.425
 3543SOL    HW111528   5.417   2.611   4.383
 3543SOL    HW211529   5.570   2.647   4.428
 3544SOL     OW11530   2.171   4.352   5.863
 3544SOL    HW111531   2.121   4.291   5.802
 3544SOL    HW211532   2.254   4.307   5.896
 3545SOL     OW11533   4.205   5.747   6.552
 3545SOL    HW111534   4.268   5.815   6.590
 3545SOL    HW211535   4.118   5.791   6.530
 3546SOL     OW11536   6.812   5.692   3.089
 3546SOL    HW111537   6.788   5.596   3.081
 3546SOL    HW211538   6.883   5.703   3.158
 3547SOL     OW11539   4.709   5.099   4.479
 3547SOL    HW111540   4.803   5.127   4.499
 3547SOL    HW211541   4.710   5.028   4.409
 3548SOL     OW11542   4.808   2.947   4.903
 3548SOL    HW111543   4.886   2.887   4.918
 3548SOL    HW211544   4.723   2.898   4.924
 3549SOL     OW11545   6.300   4.763   3.128
 3549SOL    HW111546   6.398   4.764   3.149
 3549SOL    HW211547   6.259   4.850   3.156
 3550SOL     OW11548   5.334   1.642   2.429
 3550SOL    HW111549   5.379   1.621   2.516
 3550SOL    HW211550   5.273   1.567   2.404
 3551SOL     OW11551   3.140   6.521   3.532
 3551SOL    HW111552   3.194   6.604   3.515
 3551SOL    HW211553   3.202   6.444   3.550
 3552SOL     OW11554   6.154   5.884   2.872
 3552SOL    HW111555   6.233   5.889   2.811
 3552SOL    HW211556   6.105   5.972   2.870
 3553SOL     OW11557   5.078   2.367   2.786
 3553SOL    HW111558   5.060   2.288   2.845
 3553SOL    HW211559   5.140   2.430   2.833
 3554SOL     OW11560   4.309   4.885   6.943
 3554SOL    HW111561   4.241   4.890   6.869
 3554SOL    HW211562   4.277   4.822   7.013
 3555SOL     OW11563   1.222   2.728   3.062
 3555SOL    HW111564   1.143   2.789   3.060
 3555SOL    HW211565   1.263   2.724   2.971
 3556SOL     OW11566   3.311   0.837   5.780
 3556SOL    HW111567   3.389   0.799   5.830
 3556SOL    HW211568   3.254   0.890   5.843
 3557SOL     OW11569   2.029   0.239   4.950
 3557SOL    HW111570   1.956   0.177   4.979
 3557SOL    HW211571   1.997   0.333   4.955
 3558SOL     OW11572   0.170   6.126   1.536
 3558SOL    HW111573   0.126   6.155   1.621
 3558SOL    HW211574   0.130   6.040   1.505
 3559SOL     OW11575   0.644   0.984   4.816
 3559SOL    HW111576   0.726   0.997   4.761
 3559SOL    HW211577   0.623   1.069   4.864
 3560SOL     OW11578   0.380   6.060   1.192
 3560SOL    HW111579   0.477   6.059   1.168
 3560SOL    HW211580   0.344   5.967   1.192
 3561SOL     OW11581   4.750   4.928   5.794
 3561SOL    HW111582   4.811   4.857   5.828
 3561SOL    HW211583   4.769   5.014   5.842
 3562SOL     OW11584   5.445   0.531   3.385
 3562SOL    HW111585   5.358   0.481   3.388
 3562SOL    HW211586   5.517   0.469   3.354
 3563SOL     OW11587   4.750   0.910   1.782
 3563SOL    HW111588   4.703   0.849   1.845
 3563SOL    HW211589   4.800   0.979   1.833
 3564SOL     OW11590   0.102   4.642   3.862
 3564SOL    HW111591   0.006   4.663   3.844
 3564SOL    HW211592   0.133   4.691   3.943
 3565SOL     OW11593   2.624   0.625   5.012
 3565SOL    HW111594   2.591   0.702   4.958
 3565SOL    HW211595   2.655   0.553   4.950
 3566SOL     OW11596   6.968   3.139   6.013
 3566SOL    HW111597   6.972   3.052   6.062
 3566SOL    HW211598   6.975   3.123   5.915
 3567SOL     OW11599   6.740   3.283   0.777
 3567SOL    HW111600   6.643   3.297   0.795
 3567SOL    HW211601   6.793   3.316   0.856
 3568SOL     OW11602   4.670   4.243   3.452
 3568SOL    HW111603   4.659   4.262   3.354
 3568SOL    HW211604   4.723   4.159   3.463
 3569SOL     OW11605   3.368   4.132   4.108
 3569SOL    HW111606   3.449   4.083   4.076
 3569SOL    HW211607   3.340   4.200   4.040
 3570SOL     OW11608   0.475   1.663   6.244
 3570SOL    HW111609   0.459   1.581   6.299
 3570SOL    HW211610   0.414   1.736   6.274
 3571SOL     OW11611   2.339   6.307   5.338
 3571SOL    HW111612   2.376   6.373   5.273
 3571SOL    HW211613   2.246   6.282   5.311
 3572SOL     OW11614   4.918   4.557   1.627
 3572SOL    HW111615   4.955   4.649   1.640
 3572SOL    HW211616   4.946   4.521   1.539
 3573SOL     OW11617   6.881   3.761   2.839
 3573SOL    HW111618   6.856   3.778   2.935
 3573SOL    HW211619   6.810   3.705   2.796
 3574SOL     OW11620   2.673   3.046   5.941
 3574SOL    HW111621   2.726   3.035   5.856
 3574SOL    HW211622   2.578   3.018   5.924
 3575SOL     OW11623   5.486   6.835   0.119
 3575SOL    HW111624   5.465   6.923   0.162
 3575SOL    HW211625   5.503   6.848   0.021
 3576SOL     OW11626   1.003   2.998   6.656
 3576SOL    HW111627   1.078   2.943   6.619
 3576SOL    HW211628   1.008   3.091   6.618
 3577SOL     OW11629   2.617   2.768   5.791
 3577SOL    HW111630   2.621   2.783   5.890
 3577SOL    HW211631   2.663   2.683   5.768
 3578SOL     OW11632   3.091   3.073   6.039
 3578SOL    HW111633   3.071   3.137   5.964
 3578SOL    HW211634   3.006   3.035   6.074
 3579SOL     OW11635   0.530   2.693   2.241
 3579SOL    HW111636   0.563   2.675   2.333
 3579SOL    HW211637   0.542   2.789   2.219
 3580SOL     OW11638   0.356   4.380   1.803
 3580SOL    HW111639   0.327   4.415   1.892
 3580SOL    HW211640   0.433   4.318   1.815
 3581SOL     OW11641   0.438   0.228   2.651
 3581SOL    HW111642   0.470   0.181   2.569
 3581SOL    HW211643   0.466   0.324   2.647
 3582SOL     OW11644   3.694   4.214   5.784
 3582SOL    HW111645   3.690   4.115   5.777
 3582SOL    HW211646   3.607   4.254   5.754
 3583SOL     OW11647   0.363   4.708   0.848
 3583SOL    HW111648   0.295   4.722   0.920
 3583SOL    HW211649   0.433   4.779   0.854
 3584SOL     OW11650   6.019   4.800   4.919
 3584SOL    HW111651   5.936   4.756   4.951
 3584SOL    HW211652   6.006   4.900   4.920
 3585SOL     OW11653   2.612   1.834   3.202
 3585SOL    HW111654   2.547   1.758   3.189
 3585SOL    HW211655   2.703   1.797   3.220
 3586SOL     OW11656   6.319   2.039   4.931
 3586SOL    HW111657   6.248   1.969   4.921
 3586SOL    HW211658   6.344   2.074   4.841
 3587SOL     OW11659   3.173   0.141   6.182
 3587SOL    HW111660   3.158   0.124   6.280
 3587SOL    HW211661   3.109   0.087   6.128
 3588SOL     OW11662   6.553   4.306   4.387
 3588SOL    HW111663   6.637   4.265   4.349
 3588SOL    HW211664   6.473   4.260   4.348
 3589SOL     OW11665   0.447   0.077   6.700
 3589SOL    HW111666   0.355   0.050   6.674
 3589SOL    HW211667   0.485   0.011   6.765
 3590SOL     OW11668   6.963   5.091   0.567
 3590SOL    HW111669   0.028   5.118   0.590
 3590SOL    HW211670   6.954   4.992   0.575
 3591SOL     OW11671   5.913   2.062   6.976
 3591SOL    HW111672   5.976   2.090   0.019
 3591SOL    HW211673   5.936   2.110   6.891
 3592SOL     OW11674   1.707   6.672   1.548
 3592SOL    HW111675   1.642   6.739   1.585
 3592SOL    HW211676   1.796   6.683   1.594
 3593SOL     OW11677   5.332   3.074   5.833
 3593SOL    HW111678   5.286   3.107   5.915
 3593SOL    HW211679   5.386   3.149   5.794
 3594SOL     OW11680   4.667   4.959   4.796
 3594SOL    HW111681   4.657   5.008   4.710
 3594SOL    HW211682   4.577   4.937   4.833
 3595SOL     OW11683   5.658   6.239   5.068
 3595SOL    HW111684   5.628   6.151   5.105
 3595SOL    HW211685   5.738   6.271   5.119
 3596SOL     OW11686   3.905   1.981   3.494
 3596SOL    HW111687   3.901   2.054   3.426
 3596SOL    HW211688   3.897   1.892   3.449
 3597SOL     OW11689   2.075   3.361   5.422
 3597SOL    HW111690   2.144   3.433   5.413
 3597SOL    HW211691   2.017   3.360   5.341
 3598SOL     OW11692   1.282   5.240   4.904
 3598SOL    HW111693   1.373   5.270   4.875
 3598SOL    HW211694   1.289   5.189   4.990
 3599SOL     OW11695   4.276   1.553   4.816
 3599SOL    HW111696   4.339   1.553   4.738
 3599SOL    HW211697   4.270   1.646   4.854
 3600SOL     OW11698   3.074   3.438   0.502
 3600SOL    HW111699   3.152   3.390   0.543
 3600SOL    HW211700   2.990   3.391   0.528
 3601SOL     OW11701   5.184   0.920   5.460
 3601SOL    HW111702   5.096   0.935   5.416
 3601SOL    HW211703   5.176   0.936   5.558
 3602SOL     OW11704   2.010   1.506   0.980
 3602SOL    HW111705   1.953   1.515   0.898
 3602SOL    HW211706   2.105   1.492   0.953
 3603SOL     OW11707   3.015   1.026   5.717
 3603SOL    HW111708   3.050   1.016   5.624
 3603SOL    HW211709   3.088   1.055   5.778
 3604SOL     OW11710   0.141   0.302   3.482
 3604SOL    HW111711   0.194   0.367   3.428
 3604SOL    HW211712   0.199   0.262   3.553
 3605SOL     OW11713   0.875   5.589   3.597
 3605SOL    HW111714   0.888   5.496   3.631
 3605SOL    HW211715   0.957   5.618   3.547
 3606SOL     OW11716   2.527   6.488   2.383
 3606SOL    HW111717   2.582   6.489   2.467
 3606SOL    HW211718   2.571   6.545   2.313
 3607SOL     OW11719   5.209   2.931   2.869
 3607SOL    HW111720   5.147   2.853   2.869
 3607SOL    HW211721   5.229   2.957   2.774
 3608SOL     OW11722   2.616   2.121   5.198
 3608SOL    HW111723   2.550   2.147   5.268
 3608SOL    HW211724   2.647   2.027   5.215
 3609SOL     OW11725   2.506   0.093   4.683
 3609SOL    HW111726   2.531   0.138   4.597
 3609SOL    HW211727   2.430   0.030   4.668
 3610SOL     OW11728   2.310   0.069   5.103
 3610SOL    HW111729   2.394   0.016   5.089
 3610SOL    HW211730   2.240   0.010   5.144
 3611SOL     OW11731   5.367   5.037   3.034
 3611SOL    HW111732   5.277   5.032   2.992
 3611SOL    HW211733   5.358   5.051   3.132
 3612SOL     OW11734   5.569   1.277   6.641
 3612SOL    HW111735   5.610   1.368   6.640
 3612SOL    HW211736   5.604   1.225   6.719
 3613SOL     OW11737   3.890   5.417   1.324
 3613SOL    HW111738   3.923   5.328   1.293
 3613SOL    HW211739   3.797   5.407   1.360
 3614SOL     OW11740   4.142   4.959   6.288
 3614SOL    HW111741   4.215   4.999   6.343
 3614SOL    HW211742   4.178   4.930   6.200
 3615SOL     OW11743   5.927   2.256   5.614
 3615SOL    HW111744   5.889   2.349   5.607
 3615SOL    HW211745   5.920   2.224   5.708
 3616SOL     OW11746   1.435   1.547   6.837
 3616SOL    HW111747   1.448   1.630   6.782
 3616SOL    HW211748   1.468   1.563   6.930
 3617SOL     OW11749   3.777   6.369   6.356
 3617SOL    HW111750   3.819   6.301   6.295
 3617SOL    HW211751   3.692   6.402   6.314
 3618SOL     OW11752   1.901   4.397   4.824
 3618SOL    HW111753   1.914   4.491   4.855
 3618SOL    HW211754   1.843   4.397   4.742
 3619SOL     OW11755   5.868   3.611   0.848
 3619SOL    HW111756   5.854   3.704   0.880
 3619SOL    HW211757   5.779   3.565   0.838
 3620SOL     OW11758   6.265   5.961   5.329
 3620SOL    HW111759   6.210   5.895   5.278
 3620SOL    HW211760   6.360   5.956   5.299
 3621SOL     OW11761   2.965   3.371   3.615
 3621SOL    HW111762   2.924   3.281   3.602
 3621SOL    HW211763   3.061   3.361   3.643
 3622SOL     OW11764   1.140   5.768   6.770
 3622SOL    HW111765   1.046   5.736   6.783
 3622SOL    HW211766   1.158   5.844   6.832
 3623SOL     OW11767   1.154   4.876   6.341
 3623SOL    HW111768   1.172   4.809   6.414
 3623SOL    HW211769   1.073   4.929   6.365
 3624SOL     OW11770   3.081   1.717   1.392
 3624SOL    HW111771   3.057   1.627   1.428
 3624SOL    HW211772   3.181   1.726   1.387
 3625SOL     OW11773   6.819   2.527   0.866
 3625SOL    HW111774   6.848   2.604   0.809
 3625SOL    HW211775   6.784   2.454   0.808
 3626SOL     OW11776   1.132   2.370   4.929
 3626SOL    HW111777   1.180   2.453   4.900
 3626SOL    HW211778   1.188   2.321   4.996
 3627SOL     OW11779   3.728   1.942   1.966
 3627SOL    HW111780   3.694   2.035   1.976
 3627SOL    HW211781   3.765   1.910   2.053
 3628SOL     OW11782   5.976   2.025   1.123
 3628SOL    HW111783   5.890   2.014   1.073
 3628SOL    HW211784   6.043   1.959   1.089
 3629SOL     OW11785   1.151   1.276   4.127
 3629SOL    HW111786   1.121   1.189   4.166
 3629SOL    HW211787   1.230   1.260   4.068
 3630SOL     OW11788   6.916   2.324   2.912
 3630SOL    HW111789   6.994   2.265   2.894
 3630SOL    HW211790   6.903   2.387   2.835
 3631SOL     OW11791   1.540   6.394   2.591
 3631SOL    HW111792   1.518   6.491   2.583
 3631SOL    HW211793   1.628   6.376   2.549
 3632SOL     OW11794   4.807   4.233   0.868
 3632SOL    HW111795   4.719   4.186   0.867
 3632SOL    HW211796   4.805   4.306   0.937
 3633SOL     OW11797   3.933   3.566   6.451
 3633SOL    HW111798   4.033   3.568   6.442
 3633SOL    HW211799   3.901   3.472   6.448
 3634SOL     OW11800   3.217   5.685   6.931
 3634SOL    HW111801   3.226   5.715   6.836
 3634SOL    HW211802   3.308   5.677   6.972
 3635SOL     OW11803   2.105   0.045   2.136
 3635SOL    HW111804   2.161   0.111   2.185
 3635SOL    HW211805   2.090   0.076   2.042
 3636SOL     OW11806   0.733   4.690   6.420
 3636SOL    HW111807   0.690   4.607   6.385
 3636SOL    HW211808   0.823   4.667   6.458
 3637SOL     OW11809   6.355   2.747   6.927
 3637SOL    HW111810   6.390   2.816   6.864
 3637SOL    HW211811   6.417   2.737   7.005
 3638SOL     OW11812   5.898   4.987   2.939
 3638SOL    HW111813   5.905   4.887   2.940
 3638SOL    HW211814   5.914   5.023   3.030
 3639SOL     OW11815   3.447   3.757   3.886
 3639SOL    HW111816   3.440   3.829   3.817
 3639SOL    HW211817   3.543   3.746   3.912
 3640SOL     OW11818   4.812   2.449   0.461
 3640SOL    HW111819   4.861   2.368   0.428
 3640SOL    HW211820   4.877   2.525   0.471
 3641SOL     OW11821   5.969   3.861   2.681
 3641SOL    HW111822   5.944   3.767   2.704
 3641SOL    HW211823   6.040   3.861   2.611
 3642SOL     OW11824   6.041   2.911   6.428
 3642SOL    HW111825   6.011   3.002   6.457
 3642SOL    HW211826   6.134   2.915   6.393
 3643SOL     OW11827   3.956   5.500   5.050
 3643SOL    HW111828   4.054   5.490   5.070
 3643SOL    HW211829   3.928   5.594   5.067
 3644SOL     OW11830   2.623   0.306   1.773
 3644SOL    HW111831   2.524   0.300   1.759
 3644SOL    HW211832   2.642   0.371   1.846
 3645SOL     OW11833   1.273   4.260   3.378
 3645SOL    HW111834   1.213   4.315   3.436
 3645SOL    HW211835   1.348   4.222   3.434
 3646SOL     OW11836   2.017   4.379   5.108
 3646SOL    HW111837   2.090   4.322   5.147
 3646SOL    HW211838   1.975   4.331   5.032
 3647SOL     OW11839   3.462   6.883   6.421
 3647SOL    HW111840   3.486   6.945   6.346
 3647SOL    HW211841   3.363   6.883   6.435
 3648SOL     OW11842   4.764   5.207   3.486
 3648SOL    HW111843   4.787   5.290   3.436
 3648SOL    HW211844   4.672   5.177   3.461
 3649SOL     OW11845   6.009   2.534   0.684
 3649SOL    HW111846   5.927   2.509   0.633
 3649SOL    HW211847   6.031   2.630   0.667
 3650SOL     OW11848   5.511   5.602   0.031
 3650SOL    HW111849   5.553   5.607   0.122
 3650SOL    HW211850   5.476   5.692   0.005
 3651SOL     OW11851   0.947   2.157   5.665
 3651SOL    HW111852   1.019   2.188   5.604
 3651SOL    HW211853   0.968   2.065   5.698
 3652SOL     OW11854   4.264   1.292   2.024
 3652SOL    HW111855   4.192   1.249   2.078
 3652SOL    HW211856   4.223   1.341   1.947
 3653SOL     OW11857   0.920   1.675   1.252
 3653SOL    HW111858   0.888   1.763   1.287
 3653SOL    HW211859   0.893   1.664   1.157
 3654SOL     OW11860   5.353   6.992   0.610
 3654SOL    HW111861   5.320   6.901   0.584
 3654SOL    HW211862   5.277   0.028   0.609
 3655SOL     OW11863   1.607   2.265   4.144
 3655SOL    HW111864   1.620   2.226   4.053
 3655SOL    HW211865   1.693   2.305   4.175
 3656SOL     OW11866   6.716   0.084   1.293
 3656SOL    HW111867   6.764   0.004   1.329
 3656SOL    HW211868   6.634   0.101   1.346
 3657SOL     OW11869   5.589   5.347   5.157
 3657SOL    HW111870   5.527   5.326   5.082
 3657SOL    HW211871   5.551   5.311   5.242
 3658SOL     OW11872   1.884   4.968   5.815
 3658SOL    HW111873   1.833   5.052   5.796
 3658SOL    HW211874   1.977   4.977   5.781
 3659SOL     OW11875   0.102   1.654   6.190
 3659SOL    HW111876   0.109   1.731   6.127
 3659SOL    HW211877   0.102   1.569   6.139
 3660SOL     OW11878   5.543   5.377   6.693
 3660SOL    HW111879   5.502   5.423   6.615
 3660SOL    HW211880   5.533   5.435   6.775
 3661SOL     OW11881   0.101   1.827   5.166
 3661SOL    HW111882   0.191   1.844   5.126
 3661SOL    HW211883   0.031   1.834   5.096
 3662SOL     OW11884   2.652   1.770   5.559
 3662SOL    HW111885   2.647   1.747   5.462
 3662SOL    HW211886   2.748   1.775   5.587
 3663SOL     OW11887   2.528   2.227   6.643
 3663SOL    HW111888   2.582   2.203   6.562
 3663SOL    HW211889   2.487   2.318   6.630
 3664SOL     OW11890   3.790   1.166   1.639
 3664SOL    HW111891   3.838   1.132   1.558
 3664SOL    HW211892   3.786   1.266   1.635
 3665SOL     OW11893   0.791   5.623   6.136
 3665SOL    HW111894   0.874   5.663   6.175
 3665SOL    HW211895   0.802   5.524   6.127
 3666SOL     OW11896   1.859   2.613   4.782
 3666SOL    HW111897   1.896   2.703   4.759
 3666SOL    HW211898   1.868   2.597   4.880
 3667SOL     OW11899   2.205   0.431   1.570
 3667SOL    HW111900   2.158   0.517   1.593
 3667SOL    HW211901   2.168   0.396   1.484
 3668SOL     OW11902   0.097   0.963   1.677
 3668SOL    HW111903   0.094   1.035   1.608
 3668SOL    HW211904   0.023   0.898   1.661
 3669SOL     OW11905   0.693   1.693   3.862
 3669SOL    HW111906   0.719   1.719   3.956
 3669SOL    HW211907   0.636   1.764   3.822
 3670SOL     OW11908   2.592   6.093   1.813
 3670SOL    HW111909   2.623   6.160   1.880
 3670SOL    HW211910   2.495   6.107   1.793
 3671SOL     OW11911   5.898   0.418   3.766
 3671SOL    HW111912   5.943   0.506   3.784
 3671SOL    HW211913   5.943   0.346   3.819
 3672SOL     OW11914   3.497   6.515   3.309
 3672SOL    HW111915   3.446   6.581   3.366
 3672SOL    HW211916   3.448   6.500   3.224
 3673SOL     OW11917   3.462   6.184   1.390
 3673SOL    HW111918   3.367   6.180   1.421
 3673SOL    HW211919   3.489   6.096   1.352
 3674SOL     OW11920   1.839   4.491   6.405
 3674SOL    HW111921   1.774   4.433   6.354
 3674SOL    HW211922   1.926   4.494   6.356
 3675SOL     OW11923   1.446   0.842   3.954
 3675SOL    HW111924   1.448   0.781   3.875
 3675SOL    HW211925   1.407   0.793   4.033
 3676SOL     OW11926   3.748   2.043   4.111
 3676SOL    HW111927   3.755   1.945   4.132
 3676SOL    HW211928   3.762   2.096   4.195
 3677SOL     OW11929   2.237   0.796   4.249
 3677SOL    HW111930   2.298   0.737   4.197
 3677SOL    HW211931   2.143   0.786   4.216
 3678SOL     OW11932   0.874   0.589   3.957
 3678SOL    HW111933   0.840   0.629   4.042
 3678SOL    HW211934   0.867   0.657   3.883
 3679SOL     OW11935   3.983   0.497   2.511
 3679SOL    HW111936   4.037   0.472   2.430
 3679SOL    HW211937   3.965   0.596   2.509
 3680SOL     OW11938   3.210   1.258   4.625
 3680SOL    HW111939   3.111   1.257   4.635
 3680SOL    HW211940   3.244   1.352   4.635
 3681SOL     OW11941   1.322   6.061   4.501
 3681SOL    HW111942   1.270   6.064   4.416
 3681SOL    HW211943   1.366   5.972   4.510
 3682SOL     OW11944   5.558   1.835   1.700
 3682SOL    HW111945   5.562   1.920   1.647
 3682SOL    HW211946   5.498   1.770   1.654
 3683SOL     OW11947   5.706   1.544   6.573
 3683SOL    HW111948   5.794   1.513   6.538
 3683SOL    HW211949   5.662   1.604   6.506
 3684SOL     OW11950   1.967   6.478   5.834
 3684SOL    HW111951   1.917   6.551   5.880
 3684SOL    HW211952   1.941   6.389   5.872
 3685SOL     OW11953   2.095   6.218   5.255
 3685SOL    HW111954   2.125   6.158   5.181
 3685SOL    HW211955   2.001   6.248   5.238
 3686SOL     OW11956   0.329   4.103   2.635
 3686SOL    HW111957   0.291   4.069   2.721
 3686SOL    HW211958   0.400   4.171   2.655
 3687SOL     OW11959   5.491   5.198   4.153
 3687SOL    HW111960   5.500   5.123   4.219
 3687SOL    HW211961   5.413   5.255   4.178
 3688SOL     OW11962   6.208   2.396   0.501
 3688SOL    HW111963   6.142   2.342   0.451
 3688SOL    HW211964   6.164   2.441   0.579
 3689SOL     OW11965   1.146   6.679   5.754
 3689SOL    HW111966   1.127   6.750   5.686
 3689SOL    HW211967   1.158   6.591   5.708
 3690SOL     OW11968   5.126   5.443   1.581
 3690SOL    HW111969   5.103   5.435   1.484
 3690SOL    HW211970   5.184   5.367   1.608
 3691SOL     OW11971   1.281   2.663   0.550
 3691SOL    HW111972   1.307   2.755   0.519
 3691SOL    HW211973   1.206   2.629   0.494
 3692SOL     OW11974   0.746   2.953   5.591
 3692SOL    HW111975   0.805   2.959   5.511
 3692SOL    HW211976   0.800   2.933   5.672
 3693SOL     OW11977   6.385   1.290   2.158
 3693SOL    HW111978   6.353   1.247   2.242
 3693SOL    HW211979   6.377   1.226   2.082
 3694SOL     OW11980   6.817   0.206   2.578
 3694SOL    HW111981   6.793   0.141   2.506
 3694SOL    HW211982   6.784   0.297   2.553
 3695SOL     OW11983   5.902   3.594   2.768
 3695SOL    HW111984   5.822   3.540   2.795
 3695SOL    HW211985   5.980   3.533   2.755
 3696SOL     OW11986   3.963   0.620   4.745
 3696SOL    HW111987   3.959   0.648   4.842
 3696SOL    HW211988   4.042   0.662   4.702
 3697SOL     OW11989   6.897   6.386   2.876
 3697SOL    HW111990   6.978   6.404   2.820
 3697SOL    HW211991   6.840   6.468   2.880
 3698SOL     OW11992   1.574   6.917   2.858
 3698SOL    HW111993   1.632   6.877   2.929
 3698SOL    HW211994   1.540   7.006   2.889
 3699SOL     OW11995   2.572   2.410   3.539
 3699SOL    HW111996   2.565   2.507   3.560
 3699SOL    HW211997   2.646   2.369   3.593
 3700SOL     OW11998   1.210   5.447   4.698
 3700SOL    HW111999   1.182   5.357   4.731
 3700SOL    HW212000   1.211   5.511   4.775
 3701SOL     OW12001   1.688   0.469   2.095
 3701SOL    HW112002   1.760   0.437   2.156
 3701SOL    HW212003   1.657   0.559   2.124
 3702SOL     OW12004   5.430   4.777   2.923
 3702SOL    HW112005   5.441   4.865   2.969
 3702SOL    HW212006   5.506   4.717   2.946
 3703SOL     OW12007   1.348   1.500   3.875
 3703SOL    HW112008   1.424   1.565   3.883
 3703SOL    HW212009   1.347   1.463   3.783
 3704SOL     OW12010   6.629   2.000   0.586
 3704SOL    HW112011   6.627   1.938   0.664
 3704SOL    HW212012   6.716   1.992   0.539
 3705SOL     OW12013   5.091   4.708   3.103
 3705SOL    HW112014   5.182   4.725   3.139
 3705SOL    HW212015   5.030   4.678   3.176
 3706SOL     OW12016   1.266   4.337   0.324
 3706SOL    HW112017   1.360   4.364   0.305
 3706SOL    HW212018   1.208   4.418   0.330
 3707SOL     OW12019   1.513   5.395   3.842
 3707SOL    HW112020   1.593   5.449   3.870
 3707SOL    HW212021   1.538   5.336   3.766
 3708SOL     OW12022   2.301   6.367   1.152
 3708SOL    HW112023   2.332   6.412   1.069
 3708SOL    HW212024   2.292   6.435   1.225
 3709SOL     OW12025   1.592   1.692   2.145
 3709SOL    HW112026   1.556   1.652   2.061
 3709SOL    HW212027   1.527   1.678   2.220
 3710SOL     OW12028   0.486   4.203   5.387
 3710SOL    HW112029   0.398   4.241   5.416
 3710SOL    HW212030   0.559   4.268   5.407
 3711SOL     OW12031   1.250   5.605   4.289
 3711SOL    HW112032   1.288   5.516   4.263
 3711SOL    HW212033   1.187   5.636   4.218
 3712SOL     OW12034   1.905   5.361   4.720
 3712SOL    HW112035   1.935   5.438   4.664
 3712SOL    HW212036   1.841   5.305   4.668
 3713SOL     OW12037   6.077   0.615   4.162
 3713SOL    HW112038   6.133   0.633   4.081
 3713SOL    HW212039   6.135   0.575   4.234
 3714SOL     OW12040   0.642   4.654   0.676
 3714SOL    HW112041   0.618   4.697   0.764
 3714SOL    HW212042   0.568   4.592   0.649
 3715SOL     OW12043   5.679   5.662   4.025
 3715SOL    HW112044   5.679   5.577   3.972
 3715SOL    HW212045   5.686   5.740   3.963
 3716SOL     OW12046   5.026   5.526   4.048
 3716SOL    HW112047   4.954   5.506   3.982
 3716SOL    HW212048   4.985   5.543   4.138
 3717SOL     OW12049   4.407   0.740   0.961
 3717SOL    HW112050   4.487   0.792   0.933
 3717SOL    HW212051   4.433   0.672   1.030
 3718SOL     OW12052   6.437   6.401   6.101
 3718SOL    HW112053   6.407   6.479   6.157
 3718SOL    HW212054   6.388   6.319   6.130
 3719SOL     OW12055   3.375   4.004   0.063
 3719SOL    HW112056   3.293   4.061   0.067
 3719SOL    HW212057   3.358   3.919   0.114
 3720SOL     OW12058   0.161   3.565   1.467
 3720SOL    HW112059   0.118   3.509   1.397
 3720SOL    HW212060   0.233   3.621   1.426
 3721SOL     OW12061   0.205   6.057   5.440
 3721SOL    HW112062   0.140   6.039   5.514
 3721SOL    HW212063   0.283   5.995   5.448
 3722SOL     OW12064   5.335   6.426   3.099
 3722SOL    HW112065   5.302   6.408   3.006
 3722SOL    HW212066   5.351   6.340   3.146
 3723SOL     OW12067   4.612   3.547   0.555
 3723SOL    HW112068   4.514   3.527   0.565
 3723SOL    HW212069   4.633   3.565   0.459
 3724SOL     OW12070   1.612   4.950   4.718
 3724SOL    HW112071   1.639   4.938   4.814
 3724SOL    HW212072   1.513   4.943   4.710
 3725SOL     OW12073   1.245   5.874   0.148
 3725SOL    HW112074   1.188   5.813   0.201
 3725SOL    HW212075   1.315   5.821   0.100
 3726SOL     OW12076   6.045   3.877   5.257
 3726SOL    HW112077   6.009   3.814   5.188
 3726SOL    HW212078   5.969   3.917   5.308
 3727SOL     OW12079   6.877   3.699   4.067
 3727SOL    HW112080   6.973   3.681   4.088
 3727SOL    HW212081   6.826   3.614   4.069
 3728SOL     OW12082   2.794   2.672   0.171
 3728SOL    HW112083   2.704   2.657   0.212
 3728SOL    HW212084   2.783   2.693   0.073
 3729SOL     OW12085   0.872   0.287   5.619
 3729SOL    HW112086   0.929   0.369   5.614
 3729SOL    HW212087   0.924   0.208   5.586
 3730SOL     OW12088   4.821   5.795   4.051
 3730SOL    HW112089   4.918   5.814   4.065
 3730SOL    HW212090   4.779   5.870   4.000
 3731SOL     OW12091   0.459   2.211   6.915
 3731SOL    HW112092   0.364   2.210   6.885
 3731SOL    HW212093   0.518   2.237   6.839
 3732SOL     OW12094   3.381   2.564   6.689
 3732SOL    HW112095   3.463   2.523   6.730
 3732SOL    HW212096   3.402   2.591   6.595
 3733SOL     OW12097   1.885   0.649   3.372
 3733SOL    HW112098   1.972   0.654   3.420
 3733SOL    HW212099   1.812   0.622   3.435
 3734SOL     OW12100   4.052   6.794   1.016
 3734SOL    HW112101   3.970   6.778   1.070
 3734SOL    HW212102   4.130   6.809   1.077
 3735SOL     OW12103   4.278   6.699   2.967
 3735SOL    HW112104   4.209   6.633   2.997
 3735SOL    HW212105   4.368   6.669   2.998
 3736SOL     OW12106   6.890   0.940   0.729
 3736SOL    HW112107   6.947   1.017   0.755
 3736SOL    HW212108   6.799   0.951   0.768
 3737SOL     OW12109   6.750   2.133   2.433
 3737SOL    HW112110   6.759   2.144   2.334
 3737SOL    HW212111   6.653   2.118   2.456
 3738SOL     OW12112   6.568   6.770   0.817
 3738SOL    HW112113   6.602   6.681   0.847
 3738SOL    HW212114   6.624   6.842   0.859
 3739SOL     OW12115   3.178   3.889   0.270
 3739SOL    HW112116   3.111   3.879   0.344
 3739SOL    HW212117   3.183   3.985   0.243
 3740SOL     OW12118   5.030   5.325   6.264
 3740SOL    HW112119   4.937   5.354   6.240
 3740SOL    HW212120   5.082   5.307   6.181
 3741SOL     OW12121   5.336   3.196   0.367
 3741SOL    HW112122   5.354   3.164   0.273
 3741SOL    HW212123   5.409   3.257   0.396
 3742SOL     OW12124   3.706   5.235   0.689
 3742SOL    HW112125   3.623   5.188   0.717
 3742SOL    HW212126   3.684   5.303   0.619
 3743SOL     OW12127   3.736   3.403   1.378
 3743SOL    HW112128   3.774   3.311   1.392
 3743SOL    HW212129   3.805   3.471   1.402
 3744SOL     OW12130   0.351   6.858   2.404
 3744SOL    HW112131   0.392   6.947   2.425
 3744SOL    HW212132   0.301   6.825   2.483
 3745SOL     OW12133   4.933   3.457   2.120
 3745SOL    HW112134   4.916   3.370   2.073
 3745SOL    HW212135   4.906   3.533   2.060
 3746SOL     OW12136   6.077   0.525   4.530
 3746SOL    HW112137   6.165   0.535   4.484
 3746SOL    HW212138   6.007   0.576   4.481
 3747SOL     OW12139   3.240   6.716   5.948
 3747SOL    HW112140   3.298   6.713   5.867
 3747SOL    HW212141   3.293   6.691   6.029
 3748SOL     OW12142   5.049   1.749   2.568
 3748SOL    HW112143   5.019   1.806   2.492
 3748SOL    HW212144   5.065   1.656   2.536
 3749SOL     OW12145   0.028   6.629   2.152
 3749SOL    HW112146   7.016   6.711   2.113
 3749SOL    HW212147   0.122   6.649   2.180
 3750SOL     OW12148   5.532   4.137   0.783
 3750SOL    HW112149   5.613   4.150   0.726
 3750SOL    HW212150   5.534   4.202   0.859
 3751SOL     OW12151   1.873   3.836   2.552
 3751SOL    HW112152   1.967   3.801   2.543
 3751SOL    HW212153   1.819   3.805   2.474
 3752SOL     OW12154   0.892   6.313   6.678
 3752SOL    HW112155   0.924   6.332   6.771
 3752SOL    HW212156   0.822   6.379   6.652
 3753SOL     OW12157   6.610   6.800   5.088
 3753SOL    HW112158   6.513   6.820   5.072
 3753SOL    HW212159   6.640   6.732   5.022
 3754SOL     OW12160   6.653   6.792   1.185
 3754SOL    HW112161   6.687   6.869   1.131
 3754SOL    HW212162   6.569   6.819   1.233
 3755SOL     OW12163   5.154   3.383   3.104
 3755SOL    HW112164   5.153   3.401   3.202
 3755SOL    HW212165   5.185   3.290   3.087
 3756SOL     OW12166   3.045   0.525   6.415
 3756SOL    HW112167   3.037   0.439   6.466
 3756SOL    HW212168   3.054   0.506   6.318
 3757SOL     OW12169   3.343   5.478   6.337
 3757SOL    HW112170   3.301   5.566   6.316
 3757SOL    HW212171   3.288   5.431   6.407
 3758SOL     OW12172   1.746   0.986   4.321
 3758SOL    HW112173   1.755   1.048   4.399
 3758SOL    HW212174   1.831   0.936   4.308
 3759SOL     OW12175   4.700   4.357   6.590
 3759SOL    HW112176   4.634   4.292   6.551
 3759SOL    HW212177   4.660   4.448   6.592
 3760SOL     OW12178   1.646   2.461   5.200
 3760SOL    HW112179   1.586   2.383   5.215
 3760SOL    HW212180   1.730   2.449   5.252
 3761SOL     OW12181   0.055   6.678   4.074
 3761SOL    HW112182   0.078   6.587   4.109
 3761SOL    HW212183   6.986   6.681   4.052
 3762SOL     OW12184   0.546   3.867   0.071
 3762SOL    HW112185   0.487   3.827   0.001
 3762SOL    HW212186   0.594   3.795   0.120
 3763SOL     OW12187   6.182   3.775   6.005
 3763SOL    HW112188   6.085   3.749   6.007
 3763SOL    HW212189   6.236   3.709   6.057
 3764SOL     OW12190   2.447   6.738   3.597
 3764SOL    HW112191   2.348   6.741   3.585
 3764SOL    HW212192   2.489   6.808   3.540
 3765SOL     OW12193   5.736   0.855   4.416
 3765SOL    HW112194   5.669   0.893   4.353
 3765SOL    HW212195   5.715   0.885   4.509
 3766SOL     OW12196   1.479   0.567   5.183
 3766SOL    HW112197   1.453   0.533   5.273
 3766SOL    HW212198   1.432   0.514   5.112
 3767SOL     OW12199   1.471   5.108   1.343
 3767SOL    HW112200   1.554   5.164   1.335
 3767SOL    HW212201   1.467   5.044   1.266
 3768SOL     OW12202   4.671   6.613   0.740
 3768SOL    HW112203   4.598   6.551   0.711
 3768SOL    HW212204   4.673   6.692   0.678
 3769SOL     OW12205   4.512   6.287   5.042
 3769SOL    HW112206   4.443   6.353   5.070
 3769SOL    HW212207   4.522   6.216   5.112
 3770SOL     OW12208   1.872   2.028   0.049
 3770SOL    HW112209   1.887   2.127   0.052
 3770SOL    HW212210   1.873   1.991   0.142
 3771SOL     OW12211   5.263   1.584   5.740
 3771SOL    HW112212   5.286   1.678   5.767
 3771SOL    HW212213   5.177   1.557   5.784
 3772SOL     OW12214   4.883   1.065   2.519
 3772SOL    HW112215   4.788   1.041   2.537
 3772SOL    HW212216   4.891   1.102   2.427
 3773SOL     OW12217   6.953   2.954   6.625
 3773SOL    HW112218   6.856   2.963   6.649
 3773SOL    HW212219   6.988   2.866   6.657
 3774SOL     OW12220   0.509   0.895   2.322
 3774SOL    HW112221   0.582   0.914   2.387
 3774SOL    HW212222   0.489   0.977   2.269
 3775SOL     OW12223   5.602   3.926   3.603
 3775SOL    HW112224   5.504   3.945   3.597
 3775SOL    HW212225   5.616   3.827   3.603
 3776SOL     OW12226   2.590   3.477   0.513
 3776SOL    HW112227   2.535   3.478   0.597
 3776SOL    HW212228   2.541   3.427   0.442
 3777SOL     OW12229   2.119   4.084   3.686
 3777SOL    HW112230   2.164   4.001   3.718
 3777SOL    HW212231   2.060   4.119   3.759
 3778SOL     OW12232   2.150   6.540   2.070
 3778SOL    HW112233   2.222   6.584   2.124
 3778SOL    HW212234   2.127   6.452   2.110
 3779SOL     OW12235   3.105   5.450   6.110
 3779SOL    HW112236   3.108   5.351   6.125
 3779SOL    HW212237   3.124   5.498   6.196
 3780SOL     OW12238   2.779   6.876   4.844
 3780SOL    HW112239   2.850   6.853   4.911
 3780SOL    HW212240   2.724   6.794   4.826
 3781SOL     OW12241   2.830   5.525   4.946
 3781SOL    HW112242   2.817   5.624   4.953
 3781SOL    HW212243   2.914   5.505   4.897
 3782SOL     OW12244   2.272   1.927   3.286
 3782SOL    HW112245   2.355   1.872   3.274
 3782SOL    HW212246   2.275   2.005   3.224
 3783SOL     OW12247   5.028   5.921   5.193
 3783SOL    HW112248   5.098   5.987   5.221
 3783SOL    HW212249   5.036   5.904   5.095
 3784SOL     OW12250   5.628   1.501   3.372
 3784SOL    HW112251   5.643   1.599   3.384
 3784SOL    HW212252   5.530   1.482   3.372
 3785SOL     OW12253   1.839   1.662   1.521
 3785SOL    HW112254   1.765   1.729   1.510
 3785SOL    HW212255   1.909   1.678   1.451
 3786SOL     OW12256   3.004   5.406   3.391
 3786SOL    HW112257   3.080   5.426   3.452
 3786SOL    HW212258   3.035   5.412   3.296
 3787SOL     OW12259   3.909   1.460   3.963
 3787SOL    HW112260   3.935   1.418   4.050
 3787SOL    HW212261   3.810   1.465   3.957
 3788SOL     OW12262   5.698   2.815   2.237
 3788SOL    HW112263   5.719   2.869   2.318
 3788SOL    HW212264   5.617   2.759   2.254
 3789SOL     OW12265   1.409   5.055   3.207
 3789SOL    HW112266   1.444   5.126   3.267
 3789SOL    HW212267   1.315   5.076   3.179
 3790SOL     OW12268   2.190   3.423   3.917
 3790SOL    HW112269   2.192   3.387   4.011
 3790SOL    HW212270   2.097   3.454   3.896
 3791SOL     OW12271   4.935   0.198   1.948
 3791SOL    HW112272   4.841   0.164   1.946
 3791SOL    HW212273   4.934   0.295   1.975
 3792SOL     OW12274   0.183   6.673   5.583
 3792SOL    HW112275   0.116   6.715   5.644
 3792SOL    HW212276   0.204   6.581   5.616
 3793SOL     OW12277   1.928   0.587   2.537
 3793SOL    HW112278   1.873   0.505   2.521
 3793SOL    HW212279   1.876   0.668   2.507
 3794SOL     OW12280   4.120   6.240   1.515
 3794SOL    HW112281   4.021   6.226   1.516
 3794SOL    HW212282   4.161   6.191   1.592
 3795SOL     OW12283   5.074   0.023   6.510
 3795SOL    HW112284   5.089   6.985   6.436
 3795SOL    HW212285   5.036   0.107   6.472
 3796SOL     OW12286   1.470   3.054   2.220
 3796SOL    HW112287   1.459   3.035   2.318
 3796SOL    HW212288   1.425   2.982   2.167
 3797SOL     OW12289   0.585   4.908   2.589
 3797SOL    HW112290   0.602   4.966   2.509
 3797SOL    HW212291   0.503   4.854   2.574
 3798SOL     OW12292   1.586   5.131   2.106
 3798SOL    HW112293   1.516   5.165   2.169
 3798SOL    HW212294   1.590   5.032   2.110
 3799SOL     OW12295   1.971   0.052   5.510
 3799SOL    HW112296   1.906   7.027   5.456
 3799SOL    HW212297   1.921   0.102   5.581
 3800SOL     OW12298   4.883   2.657   4.846
 3800SOL    HW112299   4.946   2.718   4.894
 3800SOL    HW212300   4.864   2.694   4.755
 3801SOL     OW12301   6.953   6.662   5.962
 3801SOL    HW112302   6.994   6.742   5.918
 3801SOL    HW212303   7.025   6.597   5.986
 3802SOL     OW12304   1.564   1.825   5.267
 3802SOL    HW112305   1.490   1.759   5.277
 3802SOL    HW212306   1.580   1.843   5.170
 3803SOL     OW12307   3.564   1.595   1.012
 3803SOL    HW112308   3.644   1.649   1.038
 3803SOL    HW212309   3.525   1.552   1.094
 3804SOL     OW12310   4.888   2.375   4.430
 3804SOL    HW112311   4.866   2.465   4.392
 3804SOL    HW212312   4.896   2.309   4.355
 3805SOL     OW12313   2.387   4.451   1.511
 3805SOL    HW112314   2.475   4.405   1.520
 3805SOL    HW212315   2.382   4.526   1.577
 3806SOL     OW12316   2.513   1.793   0.174
 3806SOL    HW112317   2.606   1.799   0.138
 3806SOL    HW212318   2.500   1.861   0.246
 3807SOL     OW12319   1.676   6.678   3.521
 3807SOL    HW112320   1.690   6.762   3.573
 3807SOL    HW212321   1.602   6.626   3.563
 3808SOL     OW12322   2.964   0.215   1.340
 3808SOL    HW112323   2.994   0.288   1.278
 3808SOL    HW212324   3.011   0.130   1.317
 3809SOL     OW12325   4.225   0.960   6.122
 3809SOL    HW112326   4.153   0.935   6.187
 3809SOL    HW212327   4.213   1.055   6.093
 3810SOL     OW12328   2.666   3.121   5.313
 3810SOL    HW112329   2.754   3.120   5.265
 3810SOL    HW212330   2.604   3.055   5.270
 3811SOL     OW12331   0.913   5.286   5.705
 3811SOL    HW112332   0.838   5.258   5.644
 3811SOL    HW212333   0.877   5.299   5.797
 3812SOL     OW12334   5.422   1.516   5.152
 3812SOL    HW112335   5.492   1.524   5.223
 3812SOL    HW212336   5.394   1.608   5.122
 3813SOL     OW12337   3.285   5.170   1.211
 3813SOL    HW112338   3.281   5.216   1.122
 3813SOL    HW212339   3.252   5.076   1.201
 3814SOL     OW12340   0.530   6.906   2.164
 3814SOL    HW112341   0.501   6.990   2.211
 3814SOL    HW212342   0.523   6.829   2.227
 3815SOL     OW12343   5.123   2.300   1.362
 3815SOL    HW112344   5.068   2.297   1.445
 3815SOL    HW212345   5.187   2.376   1.366
 3816SOL     OW12346   1.052   6.555   1.351
 3816SOL    HW112347   1.036   6.584   1.257
 3816SOL    HW212348   1.141   6.589   1.382
 3817SOL     OW12349   5.219   2.003   5.521
 3817SOL    HW112350   5.148   1.957   5.575
 3817SOL    HW212351   5.279   1.934   5.480
 3818SOL     OW12352   4.854   5.556   2.111
 3818SOL    HW112353   4.773   5.499   2.098
 3818SOL    HW212354   4.923   5.504   2.162
 3819SOL     OW12355   5.368   4.329   6.916
 3819SOL    HW112356   5.301   4.265   6.877
 3819SOL    HW212357   5.320   4.398   6.969
 3820SOL     OW12358   5.185   6.309   4.032
 3820SOL    HW112359   5.182   6.271   3.939
 3820SOL    HW212360   5.172   6.408   4.028
 3821SOL     OW12361   1.090   4.030   2.148
 3821SOL    HW112362   1.163   4.083   2.105
 3821SOL    HW212363   1.058   3.960   2.084
 3822SOL     OW12364   2.580   4.956   1.498
 3822SOL    HW112365   2.594   4.944   1.400
 3822SOL    HW212366   2.644   5.024   1.533
 3823SOL     OW12367   3.573   2.757   5.344
 3823SOL    HW112368   3.561   2.824   5.270
 3823SOL    HW212369   3.491   2.702   5.354
 3824SOL     OW12370   0.220   2.264   6.803
 3824SOL    HW112371   0.141   2.213   6.840
 3824SOL    HW212372   0.192   2.358   6.783
 3825SOL     OW12373   6.902   6.595   6.329
 3825SOL    HW112374   6.976   6.528   6.333
 3825SOL    HW212375   6.839   6.571   6.256
 3826SOL     OW12376   6.824   2.709   1.283
 3826SOL    HW112377   6.730   2.679   1.298
 3826SOL    HW212378   6.871   2.643   1.224
 3827SOL     OW12379   4.232   3.206   0.459
 3827SOL    HW112380   4.148   3.234   0.413
 3827SOL    HW212381   4.234   3.244   0.551
 3828SOL     OW12382   3.887   0.824   2.497
 3828SOL    HW112383   3.833   0.892   2.447
 3828SOL    HW212384   3.867   0.831   2.595
 3829SOL     OW12385   2.041   5.347   3.541
 3829SOL    HW112386   2.119   5.346   3.603
 3829SOL    HW212387   1.959   5.316   3.589
 3830SOL     OW12388   3.126   0.658   4.632
 3830SOL    HW112389   3.108   0.567   4.594
 3830SOL    HW212390   3.040   0.708   4.640
 3831SOL     OW12391   3.692   1.184   1.964
 3831SOL    HW112392   3.746   1.101   1.976
 3831SOL    HW212393   3.751   1.258   1.932
 3832SOL     OW12394   6.315   0.408   2.638
 3832SOL    HW112395   6.395   0.353   2.662
 3832SOL    HW212396   6.287   0.461   2.718
 3833SOL     OW12397   1.262   4.780   7.026
 3833SOL    HW112398   1.299   4.844   0.064
 3833SOL    HW212399   1.171   4.750   0.028
 3834SOL     OW12400   2.466   2.138   6.879
 3834SOL    HW112401   2.381   2.087   6.865
 3834SOL    HW212402   2.511   2.152   6.790
 3835SOL     OW12403   3.531   5.887   5.090
 3835SOL    HW112404   3.465   5.890   5.166
 3835SOL    HW212405   3.503   5.818   5.024
 3836SOL     OW12406   0.958   3.426   5.762
 3836SOL    HW112407   0.884   3.361   5.740
 3836SOL    HW212408   1.023   3.428   5.685
 3837SOL     OW12409   3.342   3.587   0.275
 3837SOL    HW112410   3.407   3.514   0.297
 3837SOL    HW212411   3.340   3.653   0.349
 3838SOL     OW12412   6.152   3.389   5.393
 3838SOL    HW112413   6.079   3.322   5.402
 3838SOL    HW212414   6.146   3.435   5.305
 3839SOL     OW12415   5.975   6.310   6.088
 3839SOL    HW112416   5.944   6.215   6.086
 3839SOL    HW212417   6.014   6.331   6.178
 3840SOL     OW12418   1.865   0.957   4.005
 3840SOL    HW112419   1.796   1.019   4.042
 3840SOL    HW212420   1.819   0.882   3.956
 3841SOL     OW12421   0.333   3.869   4.848
 3841SOL    HW112422   0.353   3.789   4.903
 3841SOL    HW212423   0.417   3.917   4.825
 3842SOL     OW12424   0.920   5.277   6.941
 3842SOL    HW112425   0.982   5.206   6.909
 3842SOL    HW212426   0.969   5.340   7.002
 3843SOL     OW12427   5.922   3.897   0.536
 3843SOL    HW112428   5.927   3.797   0.534
 3843SOL    HW212429   5.999   3.935   0.483
 3844SOL     OW12430   2.084   4.433   6.252
 3844SOL    HW112431   2.055   4.420   6.157
 3844SOL    HW212432   2.151   4.363   6.277
 3845SOL     OW12433   3.614   3.610   3.643
 3845SOL    HW112434   3.604   3.630   3.741
 3845SOL    HW212435   3.526   3.624   3.597
 3846SOL     OW12436   6.957   4.747   3.446
 3846SOL    HW112437   6.929   4.682   3.375
 3846SOL    HW212438   6.998   4.697   3.522
 3847SOL     OW12439   0.893   0.047   0.485
 3847SOL    HW112440   0.914   0.058   0.388
 3847SOL    HW212441   0.811   0.099   0.508
 3848SOL     OW12442   2.964   5.455   0.319
 3848SOL    HW112443   3.024   5.376   0.316
 3848SOL    HW212444   2.898   5.444   0.393
 3849SOL     OW12445   1.806   2.448   5.671
 3849SOL    HW112446   1.766   2.424   5.759
 3849SOL    HW212447   1.844   2.540   5.675
 3850SOL     OW12448   2.376   3.730   1.698
 3850SOL    HW112449   2.440   3.806   1.694
 3850SOL    HW212450   2.339   3.722   1.791
 3851SOL     OW12451   2.807   2.406   1.566
 3851SOL    HW112452   2.899   2.444   1.578
 3851SOL    HW212453   2.741   2.463   1.614
 3852SOL     OW12454   4.202   0.592   5.305
 3852SOL    HW112455   4.261   0.528   5.255
 3852SOL    HW212456   4.258   0.668   5.340
 3853SOL     OW12457   1.855   2.914   2.029
 3853SOL    HW112458   1.820   2.996   2.074
 3853SOL    HW212459   1.802   2.834   2.058
 3854SOL     OW12460   1.285   3.156   4.433
 3854SOL    HW112461   1.272   3.187   4.339
 3854SOL    HW212462   1.268   3.057   4.438
 3855SOL     OW12463   0.089   2.395   5.536
 3855SOL    HW112464   0.089   2.347   5.624
 3855SOL    HW212465   0.011   2.458   5.532
 3856SOL     OW12466   0.963   6.116   5.466
 3856SOL    HW112467   0.945   6.070   5.379
 3856SOL    HW212468   0.911   6.201   5.470
 3857SOL     OW12469   0.790   6.711   5.646
 3857SOL    HW112470   0.782   6.714   5.746
 3857SOL    HW212471   0.801   6.804   5.611
 3858SOL     OW12472   1.961   5.214   0.275
 3858SOL    HW112473   1.953   5.220   0.175
 3858SOL    HW212474   2.057   5.203   0.300
 3859SOL     OW12475   0.129   2.012   2.363
 3859SOL    HW112476   0.069   2.092   2.365
 3859SOL    HW212477   0.154   1.986   2.456
 3860SOL     OW12478   2.668   6.272   5.310
 3860SOL    HW112479   2.763   6.275   5.343
 3860SOL    HW212480   2.667   6.273   5.210
 3861SOL     OW12481   4.363   4.700   0.412
 3861SOL    HW112482   4.330   4.791   0.387
 3861SOL    HW212483   4.351   4.685   0.510
 3862SOL     OW12484   1.043   5.206   6.121
 3862SOL    HW112485   0.992   5.122   6.107
 3862SOL    HW212486   1.117   5.212   6.054
 3863SOL     OW12487   3.660   2.913   0.714
 3863SOL    HW112488   3.570   2.952   0.732
 3863SOL    HW212489   3.651   2.815   0.695
 3864SOL     OW12490   3.583   1.819   6.642
 3864SOL    HW112491   3.632   1.906   6.636
 3864SOL    HW212492   3.586   1.785   6.736
 3865SOL     OW12493   4.315   0.527   2.404
 3865SOL    HW112494   4.236   0.544   2.345
 3865SOL    HW212495   4.285   0.477   2.486
 3866SOL     OW12496   4.141   6.653   6.594
 3866SOL    HW112497   4.220   6.687   6.544
 3866SOL    HW212498   4.090   6.730   6.632
 3867SOL     OW12499   1.695   3.403   3.772
 3867SOL    HW112500   1.665   3.325   3.827
 3867SOL    HW212501   1.615   3.456   3.744
 3868SOL     OW12502   1.599   5.231   3.325
 3868SOL    HW112503   1.617   5.231   3.227
 3868SOL    HW212504   1.642   5.312   3.367
 3869SOL     OW12505   1.476   2.396   3.363
 3869SOL    HW112506   1.449   2.301   3.380
 3869SOL    HW212507   1.395   2.451   3.346
 3870SOL     OW12508   3.310   4.788   0.407
 3870SOL    HW112509   3.395   4.743   0.379
 3870SOL    HW212510   3.247   4.792   0.329
 3871SOL     OW12511   2.940   1.957   4.296
 3871SOL    HW112512   2.848   1.940   4.261
 3871SOL    HW212513   2.934   1.992   4.390
 3872SOL     OW12514   3.968   3.540   0.760
 3872SOL    HW112515   4.049   3.570   0.710
 3872SOL    HW212516   3.905   3.617   0.772
 3873SOL     OW12517   5.190   4.111   1.857
 3873SOL    HW112518   5.228   4.160   1.935
 3873SOL    HW212519   5.143   4.176   1.797
 3874SOL     OW12520   4.840   6.113   6.339
 3874SOL    HW112521   4.936   6.109   6.310
 3874SOL    HW212522   4.798   6.023   6.328
 3875SOL     OW12523   2.069   4.203   0.379
 3875SOL    HW112524   2.052   4.277   0.314
 3875SOL    HW212525   2.045   4.232   0.471
 3876SOL     OW12526   5.002   4.404   2.338
 3876SOL    HW112527   5.030   4.369   2.248
 3876SOL    HW212528   5.083   4.412   2.397
 3877SOL     OW12529   5.358   1.177   2.494
 3877SOL    HW112530   5.394   1.206   2.583
 3877SOL    HW212531   5.286   1.240   2.465
 3878SOL     OW12532   4.200   6.068   4.826
 3878SOL    HW112533   4.146   6.121   4.892
 3878SOL    HW212534   4.292   6.106   4.819
 3879SOL     OW12535   3.129   5.564   1.206
 3879SOL    HW112536   3.054   5.629   1.191
 3879SOL    HW212537   3.191   5.567   1.128
 3880SOL     OW12538   5.763   2.713   3.781
 3880SOL    HW112539   5.725   2.700   3.873
 3880SOL    HW212540   5.788   2.624   3.742
 3881SOL     OW12541   0.958   5.389   1.493
 3881SOL    HW112542   0.963   5.405   1.592
 3881SOL    HW212543   0.971   5.476   1.445
 3882SOL     OW12544   0.710   6.550   6.858
 3882SOL    HW112545   0.658   6.599   6.929
 3882SOL    HW212546   0.721   6.454   6.885
 3883SOL     OW12547   3.229   1.311   6.029
 3883SOL    HW112548   3.142   1.358   6.037
 3883SOL    HW212549   3.298   1.358   6.084
 3884SOL     OW12550   1.357   4.746   5.674
 3884SOL    HW112551   1.359   4.831   5.727
 3884SOL    HW212552   1.282   4.750   5.607
 3885SOL     OW12553   0.057   1.703   5.614
 3885SOL    HW112554   0.155   1.724   5.621
 3885SOL    HW212555   0.003   1.785   5.633
 3886SOL     OW12556   0.278   5.332   4.956
 3886SOL    HW112557   0.239   5.423   4.969
 3886SOL    HW212558   0.371   5.340   4.919
 3887SOL     OW12559   5.141   3.349   5.597
 3887SOL    HW112560   5.216   3.396   5.550
 3887SOL    HW212561   5.144   3.252   5.576
 3888SOL     OW12562   5.306   2.358   1.926
 3888SOL    HW112563   5.313   2.458   1.928
 3888SOL    HW212564   5.258   2.329   1.843
 3889SOL     OW12565   0.177   5.732   0.264
 3889SOL    HW112566   0.158   5.683   0.349
 3889SOL    HW212567   0.201   5.826   0.284
 3890SOL     OW12568   6.647   3.653   2.378
 3890SOL    HW112569   6.581   3.725   2.356
 3890SOL    HW212570   6.736   3.693   2.396
 3891SOL     OW12571   5.618   5.077   6.457
 3891SOL    HW112572   5.614   5.026   6.371
 3891SOL    HW212573   5.605   5.175   6.438
 3892SOL     OW12574   5.719   5.918   3.902
 3892SOL    HW112575   5.782   5.952   3.833
 3892SOL    HW212576   5.645   5.984   3.915
 3893SOL     OW12577   3.108   6.299   4.336
 3893SOL    HW112578   3.136   6.326   4.243
 3893SOL    HW212579   3.036   6.229   4.330
 3894SOL     OW12580   4.786   5.358   6.570
 3894SOL    HW112581   4.882   5.387   6.572
 3894SOL    HW212582   4.732   5.425   6.520
 3895SOL     OW12583   1.783   1.882   5.966
 3895SOL    HW112584   1.742   1.927   5.887
 3895SOL    HW212585   1.857   1.938   6.002
 3896SOL     OW12586   6.607   2.322   6.518
 3896SOL    HW112587   6.594   2.224   6.531
 3896SOL    HW212588   6.540   2.356   6.451
 3897SOL     OW12589   3.632   6.497   2.977
 3897SOL    HW112590   3.549   6.541   2.942
 3897SOL    HW212591   3.632   6.504   3.077
 3898SOL     OW12592   3.592   3.503   4.906
 3898SOL    HW112593   3.662   3.573   4.901
 3898SOL    HW212594   3.555   3.485   4.815
 3899SOL     OW12595   5.331   1.959   4.657
 3899SOL    HW112596   5.271   2.039   4.656
 3899SOL    HW212597   5.396   1.967   4.732
 3900SOL     OW12598   6.681   2.528   4.285
 3900SOL    HW112599   6.685   2.447   4.226
 3900SOL    HW212600   6.744   2.517   4.362
 3901SOL     OW12601   2.786   5.248   5.110
 3901SOL    HW112602   2.759   5.344   5.100
 3901SOL    HW212603   2.828   5.216   5.025
 3902SOL     OW12604   3.936   4.907   2.212
 3902SOL    HW112605   3.982   4.873   2.294
 3902SOL    HW212606   3.837   4.904   2.226
 3903SOL     OW12607   4.912   2.845   5.907
 3903SOL    HW112608   5.007   2.823   5.885
 3903SOL    HW212609   4.880   2.784   5.980
 3904SOL     OW12610   2.406   6.085   1.041
 3904SOL    HW112611   2.387   6.183   1.039
 3904SOL    HW212612   2.327   6.037   1.081
 3905SOL     OW12613   6.722   0.550   6.007
 3905SOL    HW112614   6.743   0.453   6.008
 3905SOL    HW212615   6.765   0.594   5.928
 3906SOL     OW12616   0.678   5.745   4.718
 3906SOL    HW112617   0.760   5.747   4.661
 3906SOL    HW212618   0.673   5.828   4.773
 3907SOL     OW12619   0.598   1.535   4.933
 3907SOL    HW112620   0.511   1.557   4.889
 3907SOL    HW212621   0.602   1.578   5.023
 3908SOL     OW12622   2.283   1.135   4.363
 3908SOL    HW112623   2.272   1.142   4.264
 3908SOL    HW212624   2.346   1.061   4.385
 3909SOL     OW12625   4.983   2.786   1.178
 3909SOL    HW112626   5.037   2.792   1.093
 3909SOL    HW212627   4.886   2.792   1.156
 3910SOL     OW12628   3.301   2.175   1.100
 3910SOL    HW112629   3.232   2.127   1.155
 3910SOL    HW212630   3.267   2.267   1.078
 3911SOL     OW12631   6.917   0.404   1.404
 3911SOL    HW112632   6.826   0.374   1.432
 3911SOL    HW212633   6.923   0.504   1.413
 3912SOL     OW12634   3.910   3.566   6.882
 3912SOL    HW112635   3.842   3.624   6.926
 3912SOL    HW212636   3.997   3.574   6.929
 3913SOL     OW12637   4.114   5.432   1.604
 3913SOL    HW112638   4.067   5.515   1.633
 3913SOL    HW212639   4.169   5.452   1.523
 3914SOL     OW12640   6.988   1.640   0.046
 3914SOL    HW112641   7.017   1.717   0.101
 3914SOL    HW212642   6.898   1.659   0.006
 3915SOL     OW12643   5.719   0.053   5.604
 3915SOL    HW112644   5.796   0.090   5.552
 3915SOL    HW212645   5.639   0.046   5.545
 3916SOL     OW12646   1.780   2.278   2.797
 3916SOL    HW112647   1.750   2.370   2.821
 3916SOL    HW212648   1.808   2.276   2.701
 3917SOL     OW12649   3.758   4.806   1.643
 3917SOL    HW112650   3.713   4.823   1.556
 3917SOL    HW212651   3.696   4.755   1.703
 3918SOL     OW12652   4.877   0.482   6.616
 3918SOL    HW112653   4.881   0.582   6.611
 3918SOL    HW212654   4.838   0.455   6.705
 3919SOL     OW12655   4.668   6.400   3.149
 3919SOL    HW112656   4.734   6.464   3.188
 3919SOL    HW212657   4.706   6.307   3.152
 3920SOL     OW12658   3.214   1.224   5.490
 3920SOL    HW112659   3.190   1.130   5.466
 3920SOL    HW212660   3.198   1.283   5.411
 3921SOL     OW12661   1.436   2.950   6.186
 3921SOL    HW112662   1.422   2.926   6.282
 3921SOL    HW212663   1.443   2.866   6.132
 3922SOL     OW12664   4.845   4.040   3.386
 3922SOL    HW112665   4.838   4.020   3.288
 3922SOL    HW212666   4.918   4.107   3.402
 3923SOL     OW12667   5.114   1.346   1.664
 3923SOL    HW112668   5.031   1.291   1.672
 3923SOL    HW212669   5.103   1.430   1.717
 3924SOL     OW12670   5.195   5.017   4.155
 3924SOL    HW112671   5.191   5.028   4.254
 3924SOL    HW212672   5.103   5.018   4.118
 3925SOL     OW12673   4.861   5.375   0.929
 3925SOL    HW112674   4.819   5.373   1.019
 3925SOL    HW212675   4.792   5.358   0.859
 3926SOL     OW12676   0.920   5.127   4.898
 3926SOL    HW112677   0.988   5.110   4.970
 3926SOL    HW212678   0.830   5.141   4.940
 3927SOL     OW12679   5.723   1.502   5.557
 3927SOL    HW112680   5.779   1.450   5.621
 3927SOL    HW212681   5.651   1.550   5.607
 3928SOL     OW12682   3.471   5.559   2.538
 3928SOL    HW112683   3.459   5.459   2.539
 3928SOL    HW212684   3.387   5.602   2.506
 3929SOL     OW12685   1.079   1.501   5.781
 3929SOL    HW112686   1.085   1.601   5.786
 3929SOL    HW212687   1.125   1.461   5.860
 3930SOL     OW12688   1.603   4.486   3.673
 3930SOL    HW112689   1.627   4.574   3.713
 3930SOL    HW212690   1.683   4.426   3.675
 3931SOL     OW12691   1.029   2.372   0.107
 3931SOL    HW112692   1.032   2.462   0.064
 3931SOL    HW212693   1.017   2.302   0.038
 3932SOL     OW12694   2.510   4.500   3.230
 3932SOL    HW112695   2.605   4.473   3.244
 3932SOL    HW212696   2.474   4.457   3.147
 3933SOL     OW12697   1.964   6.304   1.208
 3933SOL    HW112698   1.995   6.398   1.222
 3933SOL    HW212699   1.892   6.283   1.275
 3934SOL     OW12700   2.092   0.025   1.111
 3934SOL    HW112701   2.060   0.115   1.141
 3934SOL    HW212702   2.026   6.984   1.137
 3935SOL     OW12703   0.148   3.691   5.086
 3935SOL    HW112704   0.232   3.668   5.135
 3935SOL    HW212705   0.147   3.790   5.068
 3936SOL     OW12706   0.156   3.951   5.057
 3936SOL    HW112707   0.217   3.950   4.978
 3936SOL    HW212708   0.065   3.981   5.028
 3937SOL     OW12709   0.687   6.142   0.763
 3937SOL    HW112710   0.661   6.158   0.858
 3937SOL    HW212711   0.786   6.150   0.753
 3938SOL     OW12712   1.126   3.193   0.976
 3938SOL    HW112713   1.064   3.188   0.898
 3938SOL    HW212714   1.108   3.117   1.039
 3939SOL     OW12715   1.444   6.839   3.209
 3939SOL    HW112716   1.402   6.800   3.291
 3939SOL    HW212717   1.373   6.857   3.140
 3940SOL     OW12718   2.948   5.643   6.771
 3940SOL    HW112719   2.943   5.721   6.833
 3940SOL    HW212720   3.027   5.653   6.710
 3941SOL     OW12721   5.007   5.870   2.375
 3941SOL    HW112722   5.035   5.824   2.459
 3941SOL    HW212723   5.069   5.846   2.301
 3942SOL     OW12724   0.023   6.177   6.249
 3942SOL    HW112725   7.028   6.139   6.339
 3942SOL    HW212726   6.972   6.172   6.189
 3943SOL     OW12727   2.193   3.346   0.427
 3943SOL    HW112728   2.223   3.328   0.520
 3943SOL    HW212729   2.160   3.440   0.419
 3944SOL     OW12730   4.334   3.138   6.318
 3944SOL    HW112731   4.431   3.161   6.306
 3944SOL    HW212732   4.303   3.084   6.239
 3945SOL     OW12733   5.565   0.639   3.623
 3945SOL    HW112734   5.502   0.589   3.563
 3945SOL    HW212735   5.624   0.574   3.671
 3946SOL     OW12736   0.337   3.854   0.545
 3946SOL    HW112737   0.245   3.815   0.554
 3946SOL    HW212738   0.398   3.786   0.506
 3947SOL     OW12739   5.617   6.127   1.615
 3947SOL    HW112740   5.654   6.215   1.644
 3947SOL    HW212741   5.529   6.112   1.658
 3948SOL     OW12742   1.494   2.622   5.053
 3948SOL    HW112743   1.520   2.627   4.957
 3948SOL    HW212744   1.566   2.575   5.105
 3949SOL     OW12745   6.332   0.170   2.333
 3949SOL    HW112746   6.351   0.169   2.235
 3949SOL    HW212747   6.296   0.259   2.360
 3950SOL     OW12748   3.059   4.381   1.686
 3950SOL    HW112749   2.995   4.334   1.625
 3950SOL    HW212750   3.008   4.430   1.757
 3951SOL     OW12751   0.332   2.701   4.732
 3951SOL    HW112752   0.366   2.727   4.823
 3951SOL    HW212753   0.395   2.734   4.663
 3952SOL     OW12754   5.579   3.630   0.009
 3952SOL    HW112755   5.556   3.723   7.011
 3952SOL    HW212756   5.533   3.608   0.095
 3953SOL     OW12757   3.244   4.025   6.085
 3953SOL    HW112758   3.160   4.065   6.120
 3953SOL    HW212759   3.227   3.933   6.052
 3954SOL     OW12760   0.651   3.246   4.921
 3954SOL    HW112761   0.667   3.230   5.018
 3954SOL    HW212762   0.577   3.185   4.889
 3955SOL     OW12763   6.410   3.711   0.485
 3955SOL    HW112764   6.404   3.638   0.553
 3955SOL    HW212765   6.447   3.675   0.399
 3956SOL     OW12766   6.564   3.002   5.568
 3956SOL    HW112767   6.530   3.035   5.656
 3956SOL    HW212768   6.517   3.049   5.494
 3957SOL     OW12769   0.643   1.662   2.091
 3957SOL    HW112770   0.712   1.715   2.043
 3957SOL    HW212771   0.665   1.659   2.189
 3958SOL     OW12772   5.541   0.257   0.445
 3958SOL    HW112773   5.465   0.314   0.414
 3958SOL    HW212774   5.547   0.261   0.545
 3959SOL     OW12775   2.420   5.599   1.419
 3959SOL    HW112776   2.509   5.581   1.377
 3959SOL    HW212777   2.372   5.513   1.433
 3960SOL     OW12778   5.233   3.518   1.155
 3960SOL    HW112779   5.150   3.565   1.187
 3960SOL    HW212780   5.209   3.450   1.086
 3961SOL     OW12781   6.387   6.996   1.302
 3961SOL    HW112782   6.316   6.974   1.235
 3961SOL    HW212783   6.407   0.066   1.298
 3962SOL     OW12784   0.412   6.231   5.796
 3962SOL    HW112785   0.385   6.217   5.891
 3962SOL    HW212786   0.354   6.301   5.754
 3963SOL     OW12787   4.923   4.405   3.280
 3963SOL    HW112788   4.828   4.376   3.296
 3963SOL    HW212789   4.930   4.504   3.293
 3964SOL     OW12790   5.742   5.849   6.962
 3964SOL    HW112791   5.675   5.887   7.026
 3964SOL    HW212792   5.733   5.895   6.874
 3965SOL     OW12793   3.355   3.800   0.897
 3965SOL    HW112794   3.389   3.731   0.833
 3965SOL    HW212795   3.300   3.867   0.848
 3966SOL     OW12796   6.160   3.981   5.045
 3966SOL    HW112797   6.128   4.076   5.040
 3966SOL    HW212798   6.149   3.946   5.138
 3967SOL     OW12799   1.703   6.804   6.887
 3967SOL    HW112800   1.652   6.719   6.883
 3967SOL    HW212801   1.643   6.880   6.860
 3968SOL     OW12802   5.348   1.802   0.973
 3968SOL    HW112803   5.374   1.818   0.878
 3968SOL    HW212804   5.323   1.889   1.015
 3969SOL     OW12805   0.380   5.715   1.157
 3969SOL    HW112806   0.476   5.706   1.182
 3969SOL    HW212807   0.337   5.625   1.156
 3970SOL     OW12808   5.097   4.186   4.192
 3970SOL    HW112809   5.160   4.154   4.120
 3970SOL    HW212810   5.062   4.107   4.242
 3971SOL     OW12811   0.366   6.269   3.976
 3971SOL    HW112812   0.267   6.263   3.959
 3971SOL    HW212813   0.406   6.178   3.971
 3972SOL     OW12814   0.992   0.372   6.725
 3972SOL    HW112815   1.000   0.433   6.646
 3972SOL    HW212816   0.902   0.383   6.767
 3973SOL     OW12817   3.627   2.920   3.949
 3973SOL    HW112818   3.583   3.000   3.908
 3973SOL    HW212819   3.677   2.870   3.879
 3974SOL     OW12820   5.873   0.710   6.552
 3974SOL    HW112821   5.926   0.631   6.521
 3974SOL    HW212822   5.781   0.680   6.579
 3975SOL     OW12823   6.928   5.993   5.183
 3975SOL    HW112824   7.026   6.011   5.184
 3975SOL    HW212825   6.911   5.902   5.144
 3976SOL     OW12826   0.716   2.903   6.910
 3976SOL    HW112827   0.757   2.819   6.946
 3976SOL    HW212828   0.756   2.982   6.957
 3977SOL     OW12829   3.287   5.959   4.848
 3977SOL    HW112830   3.369   5.925   4.803
 3977SOL    HW212831   3.281   6.058   4.835
 3978SOL     OW12832   6.480   4.243   6.798
 3978SOL    HW112833   6.544   4.319   6.793
 3978SOL    HW212834   6.388   4.275   6.775
 3979SOL     OW12835   1.272   6.733   3.419
 3979SOL    HW112836   1.298   6.644   3.382
 3979SOL    HW212837   1.176   6.751   3.398
 3980SOL     OW12838   4.860   3.730   4.529
 3980SOL    HW112839   4.810   3.755   4.446
 3980SOL    HW212840   4.918   3.651   4.510
 3981SOL     OW12841   6.848   1.705   5.998
 3981SOL    HW112842   6.748   1.701   5.998
 3981SOL    HW212843   6.884   1.641   5.930
 3982SOL     OW12844   2.298   2.744   4.338
 3982SOL    HW112845   2.270   2.727   4.244
 3982SOL    HW212846   2.217   2.763   4.394
 3983SOL     OW12847   3.019   0.070   3.856
 3983SOL    HW112848   3.106   0.077   3.905
 3983SOL    HW212849   3.024   0.122   3.771
 3984SOL     OW12850   1.555   6.888   1.904
 3984SOL    HW112851   1.575   6.798   1.940
 3984SOL    HW212852   1.635   6.947   1.913
 3985SOL     OW12853   1.817   2.770   1.725
 3985SOL    HW112854   1.902   2.741   1.768
 3985SOL    HW212855   1.824   2.757   1.626
 3986SOL     OW12856   1.414   1.914   1.879
 3986SOL    HW112857   1.465   1.944   1.960
 3986SOL    HW212858   1.470   1.850   1.826
 3987SOL     OW12859   1.475   3.963   5.533
 3987SOL    HW112860   1.433   3.909   5.605
 3987SOL    HW212861   1.574   3.948   5.533
 3988SOL     OW12862   4.942   0.608   0.099
 3988SOL    HW112863   5.020   0.562   0.140
 3988SOL    HW212864   4.914   0.685   0.156
 3989SOL     OW12865   4.241   0.830   5.869
 3989SOL    HW112866   4.296   0.750   5.895
 3989SOL    HW212867   4.230   0.890   5.948
 3990SOL     OW12868   0.487   2.416   3.799
 3990SOL    HW112869   0.576   2.370   3.794
 3990SOL    HW212870   0.479   2.482   3.724
 3991SOL     OW12871   0.920   1.325   3.669
 3991SOL    HW112872   0.966   1.239   3.647
 3991SOL    HW212873   0.947   1.356   3.759
 3992SOL     OW12874   6.132   3.937   6.820
 3992SOL    HW112875   6.089   3.937   6.730
 3992SOL    HW212876   6.078   3.991   6.883
 3993SOL     OW12877   2.006   0.787   4.566
 3993SOL    HW112878   2.056   0.811   4.482
 3993SOL    HW212879   2.067   0.738   4.628
 3994SOL     OW12880   2.325   2.189   2.811
 3994SOL    HW112881   2.399   2.131   2.778
 3994SOL    HW212882   2.246   2.180   2.751
 3995SOL     OW12883   1.434   3.333   2.404
 3995SOL    HW112884   1.337   3.340   2.380
 3995SOL    HW212885   1.443   3.333   2.504
 3996SOL     OW12886   5.751   6.471   4.529
 3996SOL    HW112887   5.676   6.515   4.579
 3996SOL    HW212888   5.721   6.381   4.498
 3997SOL     OW12889   4.905   3.831   2.619
 3997SOL    HW112890   4.893   3.894   2.543
 3997SOL    HW212891   4.895   3.737   2.586
 3998SOL     OW12892   5.053   2.133   2.956
 3998SOL    HW112893   5.149   2.142   2.981
 3998SOL    HW212894   5.041   2.058   2.892
 3999SOL     OW12895   4.197   3.286   1.386
 3999SOL    HW112896   4.264   3.332   1.444
 3999SOL    HW212897   4.135   3.231   1.443
 4000SOL     OW12898   2.789   5.314   2.425
 4000SOL    HW112899   2.783   5.401   2.376
 4000SOL    HW212900   2.710   5.257   2.401
 4001SOL     OW12901   0.892   5.602   4.386
 4001SOL    HW112902   0.888   5.664   4.465
 4001SOL    HW212903   0.945   5.521   4.410
 4002SOL     OW12904   3.525   4.085   3.717
 4002SOL    HW112905   3.461   4.015   3.684
 4002SOL    HW212906   3.555   4.142   3.640
 4003SOL     OW12907   1.709   1.060   5.247
 4003SOL    HW112908   1.763   1.066   5.331
 4003SOL    HW212909   1.613   1.050   5.270
 4004SOL     OW12910   1.047   2.975   4.058
 4004SOL    HW112911   1.050   2.897   4.121
 4004SOL    HW212912   1.053   3.060   4.110
 4005SOL     OW12913   4.716   3.071   0.165
 4005SOL    HW112914   4.771   3.154   0.174
 4005SOL    HW212915   4.626   3.085   0.206
 4006SOL     OW12916   6.614   5.594   2.241
 4006SOL    HW112917   6.597   5.653   2.162
 4006SOL    HW212918   6.628   5.651   2.322
 4007SOL     OW12919   6.729   0.471   2.589
 4007SOL    HW112920   6.631   0.492   2.593
 4007SOL    HW212921   6.774   0.536   2.527
 4008SOL     OW12922   2.815   1.209   0.902
 4008SOL    HW112923   2.764   1.131   0.865
 4008SOL    HW212924   2.839   1.191   0.998
 4009SOL     OW12925   4.813   2.050   1.075
 4009SOL    HW112926   4.892   2.007   1.031
 4009SOL    HW212927   4.758   2.098   1.007
 4010SOL     OW12928   2.064   5.433   1.591
 4010SOL    HW112929   2.075   5.515   1.535
 4010SOL    HW212930   2.071   5.457   1.687
 4011SOL     OW12931   5.395   6.336   5.721
 4011SOL    HW112932   5.314   6.376   5.678
 4011SOL    HW212933   5.382   6.332   5.820
 4012SOL     OW12934   5.032   6.430   2.373
 4012SOL    HW112935   4.962   6.470   2.432
 4012SOL    HW212936   5.025   6.331   2.375
 4013SOL     OW12937   0.197   1.048   5.821
 4013SOL    HW112938   0.272   1.113   5.810
 4013SOL    HW212939   0.195   0.986   5.743
 4014SOL     OW12940   3.051   4.928   2.275
 4014SOL    HW112941   2.951   4.932   2.273
 4014SOL    HW212942   3.085   4.906   2.183
 4015SOL     OW12943   4.536   5.432   5.868
 4015SOL    HW112944   4.453   5.410   5.919
 4015SOL    HW212945   4.573   5.349   5.826
 4016SOL     OW12946   4.943   5.357   5.017
 4016SOL    HW112947   5.033   5.344   4.977
 4016SOL    HW212948   4.910   5.450   4.997
 4017SOL     OW12949   1.169   4.941   5.963
 4017SOL    HW112950   1.220   4.862   5.998
 4017SOL    HW212951   1.078   4.944   6.005
 4018SOL     OW12952   4.025   5.783   1.113
 4018SOL    HW112953   4.056   5.872   1.147
 4018SOL    HW212954   3.940   5.795   1.060
 4019SOL     OW12955   5.837   4.617   2.175
 4019SOL    HW112956   5.744   4.655   2.171
 4019SOL    HW212957   5.838   4.538   2.236
 4020SOL     OW12958   0.072   5.243   4.440
 4020SOL    HW112959   0.100   5.332   4.475
 4020SOL    HW212960   0.137   5.212   4.372
 4021SOL     OW12961   4.662   3.762   5.906
 4021SOL    HW112962   4.752   3.733   5.937
 4021SOL    HW212963   4.668   3.854   5.866
 4022SOL     OW12964   2.298   0.020   1.682
 4022SOL    HW112965   2.295   0.115   1.713
 4022SOL    HW212966   2.295   0.017   1.582
 4023SOL     OW12967   0.658   1.492   4.488
 4023SOL    HW112968   0.569   1.503   4.533
 4023SOL    HW212969   0.653   1.417   4.422
 4024SOL     OW12970   0.686   6.484   4.608
 4024SOL    HW112971   0.757   6.552   4.627
 4024SOL    HW212972   0.698   6.405   4.669
 4025SOL     OW12973   0.076   5.552   3.095
 4025SOL    HW112974   0.115   5.627   3.042
 4025SOL    HW212975   0.031   5.487   3.034
 4026SOL     OW12976   0.249   0.063   3.903
 4026SOL    HW112977   0.326   0.054   3.967
 4026SOL    HW212978   0.188   7.013   3.913
 4027SOL     OW12979   3.300   4.542   5.715
 4027SOL    HW112980   3.375   4.600   5.683
 4027SOL    HW212981   3.222   4.599   5.741
 4028SOL     OW12982   4.989   1.351   3.368
 4028SOL    HW112983   5.069   1.356   3.309
 4028SOL    HW212984   4.924   1.284   3.332
 4029SOL     OW12985   1.493   6.370   0.115
 4029SOL    HW112986   1.550   6.319   0.180
 4029SOL    HW212987   1.543   6.380   0.029
 4030SOL     OW12988   0.282   1.309   2.822
 4030SOL    HW112989   0.253   1.405   2.823
 4030SOL    HW212990   0.370   1.301   2.869
 4031SOL     OW12991   6.172   5.869   0.056
 4031SOL    HW112992   6.080   5.829   0.053
 4031SOL    HW212993   6.163   5.969   0.062
 4032SOL     OW12994   4.891   0.760   2.463
 4032SOL    HW112995   4.819   0.829   2.464
 4032SOL    HW212996   4.889   0.708   2.548
 4033SOL     OW12997   1.872   2.429   2.565
 4033SOL    HW112998   1.836   2.349   2.516
 4033SOL    HW212999   1.905   2.496   2.498
 4034SOL     OW13000   0.466   2.977   5.532
 4034SOL    HW113001   0.562   2.949   5.540
 4034SOL    HW213002   0.410   2.898   5.506
 4035SOL     OW13003   4.624   2.294   1.661
 4035SOL    HW113004   4.628   2.219   1.727
 4035SOL    HW213005   4.608   2.257   1.569
 4036SOL     OW13006   3.098   5.475   3.160
 4036SOL    HW113007   3.189   5.446   3.130
 4036SOL    HW213008   3.028   5.423   3.112
 4037SOL     OW13009   2.913   1.840   5.834
 4037SOL    HW113010   2.827   1.858   5.883
 4037SOL    HW213011   2.904   1.867   5.738
 4038SOL     OW13012   3.637   4.623   5.877
 4038SOL    HW113013   3.594   4.579   5.956
 4038SOL    HW213014   3.655   4.719   5.899
 4039SOL     OW13015   5.977   4.867   1.420
 4039SOL    HW113016   5.937   4.818   1.497
 4039SOL    HW213017   6.076   4.874   1.433
 4040SOL     OW13018   2.940   6.685   4.965
 4040SOL    HW113019   3.033   6.703   4.999
 4040SOL    HW213020   2.946   6.631   4.881
 4041SOL     OW13021   2.030   6.588   1.214
 4041SOL    HW113022   2.041   6.659   1.144
 4041SOL    HW213023   2.068   6.620   1.301
 4042SOL     OW13024   6.801   1.122   2.908
 4042SOL    HW113025   6.744   1.079   2.978
 4042SOL    HW213026   6.778   1.219   2.902
 4043SOL     OW13027   6.230   3.400   6.781
 4043SOL    HW113028   6.265   3.494   6.780
 4043SOL    HW213029   6.134   3.400   6.807
 4044SOL     OW13030   4.654   4.668   3.305
 4044SOL    HW113031   4.607   4.588   3.267
 4044SOL    HW213032   4.590   4.743   3.313
 4045SOL     OW13033   4.930   0.869   5.309
 4045SOL    HW113034   4.841   0.840   5.343
 4045SOL    HW213035   4.923   0.891   5.211
 4046SOL     OW13036   6.153   1.984   2.984
 4046SOL    HW113037   6.207   1.997   3.067
 4046SOL    HW213038   6.149   1.887   2.961
 4047SOL     OW13039   2.585   3.013   6.798
 4047SOL    HW113040   2.607   3.110   6.791
 4047SOL    HW213041   2.579   2.972   6.707
 4048SOL     OW13042   4.468   1.918   2.143
 4048SOL    HW113043   4.493   2.004   2.098
 4048SOL    HW213044   4.549   1.877   2.185
 4049SOL     OW13045   4.252   4.733   0.122
 4049SOL    HW113046   4.277   4.744   0.218
 4049SOL    HW213047   4.152   4.727   0.115
 4050SOL     OW13048   1.179   5.487   2.459
 4050SOL    HW113049   1.140   5.573   2.490
 4050SOL    HW213050   1.161   5.474   2.362
 4051SOL     OW13051   5.666   1.071   4.584
 4051SOL    HW113052   5.663   1.052   4.682
 4051SOL    HW213053   5.710   1.159   4.569
 4052SOL     OW13054   6.352   2.116   3.193
 4052SOL    HW113055   6.357   2.078   3.286
 4052SOL    HW213056   6.444   2.117   3.153
 4053SOL     OW13057   1.712   5.183   4.622
 4053SOL    HW113058   1.664   5.098   4.643
 4053SOL    HW213059   1.715   5.197   4.523
 4054SOL     OW13060   4.105   3.950   1.093
 4054SOL    HW113061   4.129   3.959   0.996
 4054SOL    HW213062   4.023   3.893   1.102
 4055SOL     OW13063   0.948   4.608   0.834
 4055SOL    HW113064   0.975   4.658   0.752
 4055SOL    HW213065   0.850   4.622   0.851
 4056SOL     OW13066   5.116   3.369   0.338
 4056SOL    HW113067   5.182   3.294   0.336
 4056SOL    HW213068   5.033   3.340   0.385
 4057SOL     OW13069   0.403   4.098   0.074
 4057SOL    HW113070   0.307   4.072   0.078
 4057SOL    HW213071   0.460   4.019   0.096
 4058SOL     OW13072   2.581   0.446   5.785
 4058SOL    HW113073   2.604   0.390   5.865
 4058SOL    HW213074   2.664   0.463   5.731
 4059SOL     OW13075   0.330   1.848   3.808
 4059SOL    HW113076   0.299   1.830   3.901
 4059SOL    HW213077   0.345   1.761   3.761
 4060SOL     OW13078   6.177   6.227   5.175
 4060SOL    HW113079   6.179   6.140   5.224
 4060SOL    HW213080   6.244   6.289   5.216
 4061SOL     OW13081   1.526   5.283   0.798
 4061SOL    HW113082   1.508   5.350   0.870
 4061SOL    HW213083   1.552   5.330   0.714
 4062SOL     OW13084   1.504   2.311   1.154
 4062SOL    HW113085   1.441   2.255   1.206
 4062SOL    HW213086   1.597   2.300   1.189
 4063SOL     OW13087   4.531   0.605   0.170
 4063SOL    HW113088   4.456   0.591   0.106
 4063SOL    HW213089   4.583   0.687   0.144
 4064SOL     OW13090   2.003   1.733   5.794
 4064SOL    HW113091   1.951   1.809   5.754
 4064SOL    HW213092   1.961   1.706   5.881
 4065SOL     OW13093   2.863   6.467   0.877
 4065SOL    HW113094   2.817   6.514   0.952
 4065SOL    HW213095   2.828   6.501   0.790
 4066SOL     OW13096   0.379   3.940   3.645
 4066SOL    HW113097   0.293   3.979   3.612
 4066SOL    HW213098   0.452   3.962   3.581
 4067SOL     OW13099   4.955   5.176   0.543
 4067SOL    HW113100   5.006   5.153   0.626
 4067SOL    HW213101   4.860   5.198   0.567
 4068SOL     OW13102   2.453   2.715   5.161
 4068SOL    HW113103   2.490   2.663   5.084
 4068SOL    HW213104   2.476   2.812   5.150
 4069SOL     OW13105   4.597   6.749   6.268
 4069SOL    HW113106   4.695   6.769   6.276
 4069SOL    HW213107   4.546   6.806   6.331
 4070SOL     OW13108   1.167   2.939   3.662
 4070SOL    HW113109   1.070   2.948   3.685
 4070SOL    HW213110   1.198   2.846   3.681
 4071SOL     OW13111   1.582   0.400   3.741
 4071SOL    HW113112   1.647   0.448   3.800
 4071SOL    HW213113   1.499   0.454   3.732
 4072SOL     OW13114   2.068   5.775   2.863
 4072SOL    HW113115   2.109   5.817   2.944
 4072SOL    HW213116   2.130   5.707   2.826
 4073SOL     OW13117   3.218   4.611   0.130
 4073SOL    HW113118   3.169   4.633   0.215
 4073SOL    HW213119   3.181   4.667   0.055
 4074SOL     OW13120   1.566   5.298   3.065
 4074SOL    HW113121   1.512   5.226   3.021
 4074SOL    HW213122   1.612   5.352   2.994
 4075SOL     OW13123   6.646   1.026   1.212
 4075SOL    HW113124   6.551   1.008   1.237
 4075SOL    HW213125   6.700   1.044   1.295
 4076SOL     OW13126   2.399   4.069   5.392
 4076SOL    HW113127   2.397   3.999   5.320
 4076SOL    HW213128   2.493   4.090   5.415
 4077SOL     OW13129   2.330   0.826   1.844
 4077SOL    HW113130   2.400   0.767   1.804
 4077SOL    HW213131   2.285   0.779   1.920
 4078SOL     OW13132   3.056   4.943   2.723
 4078SOL    HW113133   3.053   4.874   2.650
 4078SOL    HW213134   2.987   5.014   2.705
 4079SOL     OW13135   1.138   2.382   4.517
 4079SOL    HW113136   1.150   2.293   4.561
 4079SOL    HW213137   1.200   2.390   4.439
 4080SOL     OW13138   6.205   1.765   4.977
 4080SOL    HW113139   6.111   1.796   4.969
 4080SOL    HW213140   6.208   1.678   5.028
 4081SOL     OW13141   1.458   3.597   4.064
 4081SOL    HW113142   1.439   3.564   3.971
 4081SOL    HW213143   1.391   3.667   4.089
 4082SOL     OW13144   1.225   3.627   0.876
 4082SOL    HW113145   1.130   3.601   0.897
 4082SOL    HW213146   1.259   3.687   0.949
 4083SOL     OW13147   5.909   2.400   4.596
 4083SOL    HW113148   5.858   2.328   4.551
 4083SOL    HW213149   5.967   2.360   4.667
 4084SOL     OW13150   0.774   1.771   4.169
 4084SOL    HW113151   0.776   1.671   4.162
 4084SOL    HW213152   0.867   1.806   4.175
 4085SOL     OW13153   3.285   6.162   0.346
 4085SOL    HW113154   3.201   6.112   0.368
 4085SOL    HW213155   3.270   6.219   0.265
 4086SOL     OW13156   1.389   5.033   0.744
 4086SOL    HW113157   1.308   5.037   0.685
 4086SOL    HW213158   1.402   5.121   0.788
 4087SOL     OW13159   1.463   1.514   3.023
 4087SOL    HW113160   1.407   1.512   2.940
 4087SOL    HW213161   1.528   1.589   3.019
 4088SOL     OW13162   6.547   1.783   1.064
 4088SOL    HW113163   6.634   1.831   1.072
 4088SOL    HW213164   6.546   1.704   1.125
 4089SOL     OW13165   1.028   0.947   4.959
 4089SOL    HW113166   0.967   0.900   5.022
 4089SOL    HW213167   0.981   0.964   4.872
 4090SOL     OW13168   1.978   4.110   5.631
 4090SOL    HW113169   1.938   4.169   5.701
 4090SOL    HW213170   1.925   4.118   5.546
 4091SOL     OW13171   4.730   6.073   0.314
 4091SOL    HW113172   4.756   5.985   0.274
 4091SOL    HW213173   4.712   6.138   0.240
 4092SOL     OW13174   0.226   3.019   4.754
 4092SOL    HW113175   0.224   2.983   4.847
 4092SOL    HW213176   0.143   2.991   4.706
 4093SOL     OW13177   5.815   0.694   4.086
 4093SOL    HW113178   5.730   0.695   4.138
 4093SOL    HW213179   5.864   0.608   4.105
 4094SOL     OW13180   2.395   4.407   4.841
 4094SOL    HW113181   2.399   4.488   4.900
 4094SOL    HW213182   2.426   4.327   4.891
 4095SOL     OW13183   1.296   3.634   6.221
 4095SOL    HW113184   1.238   3.552   6.219
 4095SOL    HW213185   1.305   3.666   6.315
 4096SOL     OW13186   4.071   4.669   1.147
 4096SOL    HW113187   4.001   4.657   1.077
 4096SOL    HW213188   4.066   4.762   1.183
 4097SOL     OW13189   3.403   3.930   5.290
 4097SOL    HW113190   3.413   3.911   5.388
 4097SOL    HW213191   3.335   3.868   5.251
 4098SOL     OW13192   0.266   2.051   3.159
 4098SOL    HW113193   0.249   2.147   3.136
 4098SOL    HW213194   0.195   1.994   3.119
 4099SOL     OW13195   4.261   6.143   1.719
 4099SOL    HW113196   4.233   6.191   1.802
 4099SOL    HW213197   4.246   6.045   1.731
 4100SOL     OW13198   3.949   5.903   3.536
 4100SOL    HW113199   3.875   5.910   3.470
 4100SOL    HW213200   3.915   5.863   3.621
 4101SOL     OW13201   5.475   1.541   5.994
 4101SOL    HW113202   5.391   1.548   5.940
 4101SOL    HW213203   5.451   1.524   6.090
 4102SOL     OW13204   6.216   1.379   0.435
 4102SOL    HW113205   6.204   1.283   0.459
 4102SOL    HW213206   6.310   1.395   0.406
 4103SOL     OW13207   0.529   0.040   2.465
 4103SOL    HW113208   0.561   0.095   2.388
 4103SOL    HW213209   0.603   7.009   2.497
 4104SOL     OW13210   1.353   4.881   2.855
 4104SOL    HW113211   1.367   4.884   2.954
 4104SOL    HW213212   1.269   4.929   2.832
 4105SOL     OW13213   4.646   4.547   0.045
 4105SOL    HW113214   4.604   4.620   7.019
 4105SOL    HW213215   4.609   4.459   0.017
 4106SOL     OW13216   6.563   3.598   4.905
 4106SOL    HW113217   6.537   3.664   4.834
 4106SOL    HW213218   6.662   3.598   4.917
 4107SOL     OW13219   0.226   0.475   1.203
 4107SOL    HW113220   0.214   0.492   1.105
 4107SOL    HW213221   0.196   0.555   1.255
 4108SOL     OW13222   6.398   3.967   5.944
 4108SOL    HW113223   6.300   3.949   5.948
 4108SOL    HW213224   6.444   3.893   5.895
 4109SOL     OW13225   3.366   5.856   3.545
 4109SOL    HW113226   3.337   5.808   3.462
 4109SOL    HW213227   3.293   5.852   3.613
 4110SOL     OW13228   4.840   3.685   6.170
 4110SOL    HW113229   4.831   3.781   6.141
 4110SOL    HW213230   4.932   3.670   6.206
 4111SOL     OW13231   4.180   3.324   0.012
 4111SOL    HW113232   4.262   3.373   0.039
 4111SOL    HW213233   4.109   3.337   0.080
 4112SOL     OW13234   3.295   1.354   4.264
 4112SOL    HW113235   3.280   1.257   4.286
 4112SOL    HW213236   3.335   1.400   4.344
 4113SOL     OW13237   3.544   4.972   4.672
 4113SOL    HW113238   3.533   5.071   4.663
 4113SOL    HW213239   3.453   4.929   4.675
 4114SOL     OW13240   2.889   1.876   2.558
 4114SOL    HW113241   2.862   1.932   2.636
 4114SOL    HW213242   2.871   1.780   2.577
 4115SOL     OW13243   5.033   4.977   1.554
 4115SOL    HW113244   4.950   4.948   1.603
 4115SOL    HW213245   5.091   5.029   1.616
 4116SOL     OW13246   3.512   1.420   1.773
 4116SOL    HW113247   3.586   1.385   1.830
 4116SOL    HW213248   3.524   1.388   1.679
 4117SOL     OW13249   1.419   5.681   1.151
 4117SOL    HW113250   1.320   5.683   1.143
 4117SOL    HW213251   1.444   5.670   1.248
 4118SOL     OW13252   2.083   6.519   0.492
 4118SOL    HW113253   2.131   6.600   0.458
 4118SOL    HW213254   2.083   6.448   0.421
 4119SOL     OW13255   3.760   0.788   3.902
 4119SOL    HW113256   3.757   0.723   3.979
 4119SOL    HW213257   3.823   0.863   3.925
 4120SOL     OW13258   3.430   0.482   1.855
 4120SOL    HW113259   3.407   0.575   1.883
 4120SOL    HW213260   3.464   0.483   1.761
 4121SOL     OW13261   6.456   3.380   4.782
 4121SOL    HW113262   6.488   3.457   4.836
 4121SOL    HW213263   6.399   3.321   4.839
 4122SOL     OW13264   1.416   5.828   6.135
 4122SOL    HW113265   1.379   5.746   6.177
 4122SOL    HW213266   1.351   5.904   6.144
 4123SOL     OW13267   5.100   3.912   6.470
 4123SOL    HW113268   5.152   3.961   6.540
 4123SOL    HW213269   5.029   3.856   6.513
 4124SOL     OW13270   5.277   0.090   3.998
 4124SOL    HW113271   5.287   0.022   3.926
 4124SOL    HW213272   5.335   0.065   4.076
 4125SOL     OW13273   4.436   1.190   0.651
 4125SOL    HW113274   4.378   1.249   0.707
 4125SOL    HW213275   4.421   1.094   0.675
 4126SOL     OW13276   2.318   4.221   4.326
 4126SOL    HW113277   2.365   4.309   4.319
 4126SOL    HW213278   2.301   4.185   4.234
 4127SOL     OW13279   6.169   3.442   5.667
 4127SOL    HW113280   6.169   3.419   5.570
 4127SOL    HW213281   6.081   3.419   5.707
 4128SOL     OW13282   0.890   2.312   2.669
 4128SOL    HW113283   0.903   2.255   2.588
 4128SOL    HW213284   0.979   2.331   2.711
 4129SOL     OW13285   5.708   2.386   5.949
 4129SOL    HW113286   5.760   2.455   6.000
 4129SOL    HW213287   5.647   2.337   6.012
 4130SOL     OW13288   5.991   3.958   0.813
 4130SOL    HW113289   5.955   3.954   0.720
 4130SOL    HW213290   6.090   3.962   0.810
 4131SOL     OW13291   6.629   5.094   3.681
 4131SOL    HW113292   6.563   5.021   3.666
 4131SOL    HW213293   6.721   5.058   3.665
 4132SOL     OW13294   5.063   2.480   3.541
 4132SOL    HW113295   5.062   2.509   3.445
 4132SOL    HW213296   4.976   2.439   3.565
 4133SOL     OW13297   3.179   1.020   1.218
 4133SOL    HW113298   3.156   1.055   1.127
 4133SOL    HW213299   3.229   0.935   1.210
 4134SOL     OW13300   1.143   1.451   6.953
 4134SOL    HW113301   1.242   1.457   6.939
 4134SOL    HW213302   1.121   1.479   0.018
 4135SOL     OW13303   1.585   1.038   1.948
 4135SOL    HW113304   1.591   0.988   2.035
 4135SOL    HW213305   1.489   1.045   1.920
 4136SOL     OW13306   0.211   2.386   3.696
 4136SOL    HW113307   0.239   2.381   3.601
 4136SOL    HW213308   0.289   2.409   3.754
 4137SOL     OW13309   2.815   4.591   6.343
 4137SOL    HW113310   2.850   4.533   6.416
 4137SOL    HW213311   2.835   4.548   6.254
 4138SOL     OW13312   4.104   4.778   3.489
 4138SOL    HW113313   4.186   4.737   3.450
 4138SOL    HW213314   4.027   4.765   3.427
 4139SOL     OW13315   2.137   1.905   0.014
 4139SOL    HW113316   2.046   1.942   0.034
 4139SOL    HW213317   2.177   1.953   6.965
 4140SOL     OW13318   5.171   1.407   5.162
 4140SOL    HW113319   5.256   1.458   5.170
 4140SOL    HW213320   5.106   1.458   5.105
 4141SOL     OW13321   5.344   5.711   0.434
 4141SOL    HW113322   5.430   5.737   0.391
 4141SOL    HW213323   5.359   5.630   0.491
 4142SOL     OW13324   6.835   4.276   1.321
 4142SOL    HW113325   6.790   4.204   1.375
 4142SOL    HW213326   6.933   4.271   1.335
 4143SOL     OW13327   7.001   2.888   0.973
 4143SOL    HW113328   0.011   2.797   0.987
 4143SOL    HW213329   6.986   2.932   1.062
 4144SOL     OW13330   4.653   0.943   2.499
 4144SOL    HW113331   4.615   0.923   2.590
 4144SOL    HW213332   4.601   0.892   2.430
 4145SOL     OW13333   1.875   6.625   2.427
 4145SOL    HW113334   1.817   6.547   2.403
 4145SOL    HW213335   1.902   6.673   2.343
 4146SOL     OW13336   5.124   6.799   0.176
 4146SOL    HW113337   5.034   6.761   0.198
 4146SOL    HW213338   5.113   6.896   0.152
 4147SOL     OW13339   3.851   1.733   5.467
 4147SOL    HW113340   3.826   1.826   5.440
 4147SOL    HW213341   3.847   1.725   5.567
 4148SOL     OW13342   6.455   0.695   3.453
 4148SOL    HW113343   6.548   0.662   3.443
 4148SOL    HW213344   6.456   0.783   3.500
 4149SOL     OW13345   5.966   3.798   2.211
 4149SOL    HW113346   5.942   3.894   2.203
 4149SOL    HW213347   5.883   3.742   2.200
 4150SOL     OW13348   5.573   0.496   6.796
 4150SOL    HW113349   5.493   0.518   6.741
 4150SOL    HW213350   5.601   0.577   6.848
 4151SOL     OW13351   0.536   5.322   0.537
 4151SOL    HW113352   0.513   5.415   0.568
 4151SOL    HW213353   0.600   5.328   0.460
 4152SOL     OW13354   3.953   4.330   1.545
 4152SOL    HW113355   3.873   4.357   1.599
 4152SOL    HW213356   3.981   4.238   1.571
 4153SOL     OW13357   6.299   4.794   6.007
 4153SOL    HW113358   6.373   4.828   6.066
 4153SOL    HW213359   6.308   4.835   5.916
 4154SOL     OW13360   5.637   2.693   5.791
 4154SOL    HW113361   5.704   2.619   5.787
 4154SOL    HW213362   5.599   2.708   5.700
 4155SOL     OW13363   1.137   3.235   1.561
 4155SOL    HW113364   1.037   3.238   1.568
 4155SOL    HW213365   1.175   3.189   1.641
 4156SOL     OW13366   5.811   6.802   5.345
 4156SOL    HW113367   5.834   6.897   5.324
 4156SOL    HW213368   5.836   6.782   5.440
 4157SOL     OW13369   3.327   0.807   4.943
 4157SOL    HW113370   3.233   0.830   4.969
 4157SOL    HW213371   3.339   0.822   4.845
 4158SOL     OW13372   0.998   6.366   4.124
 4158SOL    HW113373   1.025   6.362   4.220
 4158SOL    HW213374   0.933   6.441   4.110
 4159SOL     OW13375   1.021   2.735   4.936
 4159SOL    HW113376   1.096   2.680   4.899
 4159SOL    HW213377   1.021   2.825   4.892
 4160SOL     OW13378   0.845   0.868   1.398
 4160SOL    HW113379   0.873   0.814   1.318
 4160SOL    HW213380   0.899   0.840   1.477
 4161SOL     OW13381   6.385   1.718   0.591
 4161SOL    HW113382   6.336   1.797   0.554
 4161SOL    HW213383   6.442   1.747   0.668
 4162SOL     OW13384   6.039   6.970   5.243
 4162SOL    HW113385   6.037   0.018   5.178
 4162SOL    HW213386   6.130   6.928   5.243
 4163SOL     OW13387   5.550   1.009   4.236
 4163SOL    HW113388   5.485   0.969   4.172
 4163SOL    HW213389   5.503   1.079   4.291
 4164SOL     OW13390   1.703   0.206   6.427
 4164SOL    HW113391   1.637   0.157   6.484
 4164SOL    HW213392   1.783   0.230   6.482
 4165SOL     OW13393   4.000   6.692   1.906
 4165SOL    HW113394   3.979   6.683   2.003
 4165SOL    HW213395   4.096   6.718   1.895
 4166SOL     OW13396   5.472   3.063   0.739
 4166SOL    HW113397   5.476   3.013   0.825
 4166SOL    HW213398   5.403   3.021   0.679
 4167SOL     OW13399   2.303   2.989   1.427
 4167SOL    HW113400   2.296   2.995   1.327
 4167SOL    HW213401   2.239   3.053   1.469
 4168SOL     OW13402   1.760   5.565   1.252
 4168SOL    HW113403   1.744   5.497   1.180
 4168SOL    HW213404   1.779   5.654   1.210
 4169SOL     OW13405   5.559   2.974   4.278
 4169SOL    HW113406   5.486   2.974   4.347
 4169SOL    HW213407   5.629   2.906   4.304
 4170SOL     OW13408   4.653   3.038   5.319
 4170SOL    HW113409   4.565   3.086   5.320
 4170SOL    HW213410   4.644   2.953   5.268
 4171SOL     OW13411   5.647   3.636   2.099
 4171SOL    HW113412   5.560   3.673   2.133
 4171SOL    HW213413   5.636   3.608   2.004
 4172SOL     OW13414   1.092   2.015   0.264
 4172SOL    HW113415   1.018   1.998   0.199
 4172SOL    HW213416   1.055   2.057   0.347
 4173SOL     OW13417   5.122   3.358   4.703
 4173SOL    HW113418   5.032   3.360   4.745
 4173SOL    HW213419   5.190   3.394   4.767
 4174SOL     OW13420   4.403   0.872   4.443
 4174SOL    HW113421   4.377   0.961   4.405
 4174SOL    HW213422   4.354   0.800   4.395
 4175SOL     OW13423   3.230   0.445   2.653
 4175SOL    HW113424   3.267   0.431   2.744
 4175SOL    HW213425   3.136   0.478   2.660
 4176SOL     OW13426   5.657   6.391   3.221
 4176SOL    HW113427   5.640   6.326   3.147
 4176SOL    HW213428   5.571   6.418   3.263
 4177SOL     OW13429   0.226   6.174   2.990
 4177SOL    HW113430   0.255   6.079   2.984
 4177SOL    HW213431   0.142   6.180   3.044
 4178SOL     OW13432   3.707   2.189   5.653
 4178SOL    HW113433   3.737   2.120   5.718
 4178SOL    HW213434   3.615   2.221   5.679
 4179SOL     OW13435   5.425   3.293   5.692
 4179SOL    HW113436   5.524   3.282   5.695
 4179SOL    HW213437   5.401   3.387   5.715
 4180SOL     OW13438   4.316   3.776   1.786
 4180SOL    HW113439   4.309   3.871   1.758
 4180SOL    HW213440   4.395   3.733   1.742
 4181SOL     OW13441   0.812   1.066   0.351
 4181SOL    HW113442   0.783   1.148   0.400
 4181SOL    HW213443   0.795   1.078   0.253
 4182SOL     OW13444   5.369   0.584   2.751
 4182SOL    HW113445   5.438   0.655   2.766
 4182SOL    HW213446   5.401   0.521   2.681
 4183SOL     OW13447   1.439   1.868   1.542
 4183SOL    HW113448   1.505   1.820   1.601
 4183SOL    HW213449   1.463   1.965   1.538
 4184SOL     OW13450   4.090   5.502   0.165
 4184SOL    HW113451   4.104   5.597   0.136
 4184SOL    HW213452   4.121   5.441   0.092
 4185SOL     OW13453   7.018   0.243   3.864
 4185SOL    HW113454   0.050   0.167   3.841
 4185SOL    HW213455   0.022   0.287   3.948
 4186SOL     OW13456   2.642   3.989   0.971
 4186SOL    HW113457   2.717   4.042   1.010
 4186SOL    HW213458   2.558   4.009   1.020
 4187SOL     OW13459   4.014   3.912   6.713
 4187SOL    HW113460   4.063   3.983   6.662
 4187SOL    HW213461   3.984   3.948   6.801
 4188SOL     OW13462   4.820   6.663   4.545
 4188SOL    HW113463   4.903   6.646   4.492
 4188SOL    HW213464   4.760   6.583   4.540
 4189SOL     OW13465   2.122   2.058   3.893
 4189SOL    HW113466   2.098   1.985   3.830
 4189SOL    HW213467   2.108   2.146   3.849
 4190SOL     OW13468   3.048   0.428   1.198
 4190SOL    HW113469   3.108   0.494   1.243
 4190SOL    HW213470   2.961   0.472   1.175
 4191SOL     OW13471   6.609   1.326   2.345
 4191SOL    HW113472   6.670   1.367   2.277
 4191SOL    HW213473   6.591   1.231   2.320
 4192SOL     OW13474   6.555   1.483   3.291
 4192SOL    HW113475   6.612   1.565   3.287
 4192SOL    HW213476   6.602   1.412   3.342
 4193SOL     OW13477   1.492   6.779   2.279
 4193SOL    HW113478   1.558   6.854   2.290
 4193SOL    HW213479   1.512   6.730   2.194
 4194SOL     OW13480   0.819   0.836   4.370
 4194SOL    HW113481   0.796   0.768   4.300
 4194SOL    HW213482   0.903   0.808   4.417
 4195SOL     OW13483   4.550   0.542   1.677
 4195SOL    HW113484   4.530   0.455   1.721
 4195SOL    HW213485   4.517   0.617   1.734
 4196SOL     OW13486   4.568   2.348   3.686
 4196SOL    HW113487   4.529   2.277   3.746
 4196SOL    HW213488   4.518   2.349   3.599
 4197SOL     OW13489   4.645   4.464   3.824
 4197SOL    HW113490   4.613   4.428   3.911
 4197SOL    HW213491   4.703   4.545   3.840
 4198SOL     OW13492   6.150   3.366   6.486
 4198SOL    HW113493   6.231   3.367   6.428
 4198SOL    HW213494   6.146   3.450   6.540
 4199SOL     OW13495   3.023   3.858   5.952
 4199SOL    HW113496   3.039   3.780   5.891
 4199SOL    HW213497   3.043   3.943   5.903
 4200SOL     OW13498   1.961   0.253   6.541
 4200SOL    HW113499   2.041   0.312   6.534
 4200SOL    HW213500   1.979   0.181   6.609
 4201SOL     OW13501   5.771   5.991   4.228
 4201SOL    HW113502   5.807   5.898   4.234
 4201SOL    HW213503   5.798   6.031   4.140
 4202SOL     OW13504   5.442   4.569   4.380
 4202SOL    HW113505   5.368   4.507   4.406
 4202SOL    HW213506   5.530   4.529   4.408
 4203SOL     OW13507   5.358   5.818   3.720
 4203SOL    HW113508   5.269   5.807   3.676
 4203SOL    HW213509   5.428   5.769   3.667
 4204SOL     OW13510   3.282   3.009   1.228
 4204SOL    HW113511   3.225   2.936   1.189
 4204SOL    HW213512   3.256   3.024   1.323
 4205SOL     OW13513   2.930   5.227   3.114
 4205SOL    HW113514   2.984   5.165   3.170
 4205SOL    HW213515   2.860   5.176   3.063
 4206SOL     OW13516   5.553   0.068   4.182
 4206SOL    HW113517   5.611   0.003   4.231
 4206SOL    HW213518   5.480   0.099   4.243
 4207SOL     OW13519   1.140   1.171   1.616
 4207SOL    HW113520   1.201   1.096   1.590
 4207SOL    HW213521   1.190   1.238   1.671
 4208SOL     OW13522   0.879   3.474   1.085
 4208SOL    HW113523   0.933   3.391   1.089
 4208SOL    HW213524   0.894   3.520   0.997
 4209SOL     OW13525   2.966   0.392   4.973
 4209SOL    HW113526   3.063   0.391   4.950
 4209SOL    HW213527   2.916   0.442   4.903
 4210SOL     OW13528   4.841   2.678   0.720
 4210SOL    HW113529   4.842   2.773   0.751
 4210SOL    HW213530   4.904   2.667   0.643
 4211SOL     OW13531   4.681   4.304   3.183
 4211SOL    HW113532   4.762   4.266   3.138
 4211SOL    HW213533   4.621   4.345   3.114
 4212SOL     OW13534   6.100   6.943   2.746
 4212SOL    HW113535   6.004   6.954   2.723
 4212SOL    HW213536   6.120   6.988   2.833
 4213SOL     OW13537   1.401   0.721   2.472
 4213SOL    HW113538   1.453   0.660   2.412
 4213SOL    HW213539   1.304   0.717   2.447
 4214SOL     OW13540   1.506   3.209   4.713
 4214SOL    HW113541   1.535   3.298   4.750
 4214SOL    HW213542   1.436   3.224   4.644
 4215SOL     OW13543   0.906   5.276   4.659
 4215SOL    HW113544   0.927   5.210   4.732
 4215SOL    HW213545   0.909   5.368   4.697
 4216SOL     OW13546   1.614   3.414   5.740
 4216SOL    HW113547   1.701   3.397   5.693
 4216SOL    HW213548   1.629   3.471   5.820
 4217SOL     OW13549   0.320   0.475   3.370
 4217SOL    HW113550   0.367   0.416   3.304
 4217SOL    HW213551   0.239   0.515   3.326
 4218SOL     OW13552   3.799   6.792   2.428
 4218SOL    HW113553   3.760   6.719   2.484
 4218SOL    HW213554   3.742   6.874   2.436
 4219SOL     OW13555   4.545   6.468   3.483
 4219SOL    HW113556   4.590   6.386   3.448
 4219SOL    HW213557   4.457   6.479   3.439
 4220SOL     OW13558   0.388   3.336   3.050
 4220SOL    HW113559   0.413   3.361   3.144
 4220SOL    HW213560   0.416   3.242   3.032
 4221SOL     OW13561   5.102   5.898   5.806
 4221SOL    HW113562   5.060   5.807   5.806
 4221SOL    HW213563   5.104   5.933   5.713
 4222SOL     OW13564   4.499   2.654   0.638
 4222SOL    HW113565   4.563   2.724   0.605
 4222SOL    HW213566   4.406   2.691   0.638
 4223SOL     OW13567   3.601   4.045   3.032
 4223SOL    HW113568   3.559   4.003   2.952
 4223SOL    HW213569   3.532   4.097   3.082
 4224SOL     OW13570   4.410   2.258   4.928
 4224SOL    HW113571   4.411   2.203   4.845
 4224SOL    HW213572   4.320   2.301   4.938
 4225SOL     OW13573   5.739   0.460   4.842
 4225SOL    HW113574   5.672   0.504   4.782
 4225SOL    HW213575   5.769   0.374   4.802
 4226SOL     OW13576   1.703   1.502   3.681
 4226SOL    HW113577   1.650   1.579   3.717
 4226SOL    HW213578   1.700   1.426   3.745
 4227SOL     OW13579   6.236   4.151   0.599
 4227SOL    HW113580   6.250   4.205   0.516
 4227SOL    HW213581   6.275   4.199   0.678
 4228SOL     OW13582   6.137   5.609   2.168
 4228SOL    HW113583   6.072   5.533   2.167
 4228SOL    HW213584   6.208   5.593   2.100
 4229SOL     OW13585   4.914   4.740   5.886
 4229SOL    HW113586   4.880   4.659   5.838
 4229SOL    HW213587   5.012   4.730   5.903
 4230SOL     OW13588   3.169   6.984   4.688
 4230SOL    HW113589   3.219   6.926   4.624
 4230SOL    HW213590   3.134   6.929   4.764
 4231SOL     OW13591   4.091   6.804   5.432
 4231SOL    HW113592   4.166   6.787   5.495
 4231SOL    HW213593   4.081   6.902   5.417
 4232SOL     OW13594   2.098   4.092   1.824
 4232SOL    HW113595   2.128   4.018   1.763
 4232SOL    HW213596   2.116   4.067   1.919
 4233SOL     OW13597   5.789   6.764   1.097
 4233SOL    HW113598   5.719   6.790   1.031
 4233SOL    HW213599   5.769   6.673   1.132
 4234SOL     OW13600   2.910   4.087   5.573
 4234SOL    HW113601   2.961   4.085   5.659
 4234SOL    HW213602   2.968   4.055   5.498
 4235SOL     OW13603   6.500   3.552   5.560
 4235SOL    HW113604   6.513   3.647   5.531
 4235SOL    HW213605   6.448   3.503   5.490
 4236SOL     OW13606   1.525   3.736   4.395
 4236SOL    HW113607   1.501   3.806   4.462
 4236SOL    HW213608   1.624   3.734   4.382
 4237SOL     OW13609   5.437   3.748   4.866
 4237SOL    HW113610   5.475   3.655   4.863
 4237SOL    HW213611   5.340   3.745   4.841
 4238SOL     OW13612   4.106   5.292   3.837
 4238SOL    HW113613   4.049   5.319   3.915
 4238SOL    HW213614   4.151   5.205   3.858
 4239SOL     OW13615   4.954   5.628   5.762
 4239SOL    HW113616   4.890   5.569   5.812
 4239SOL    HW213617   4.902   5.691   5.704
 4240SOL     OW13618   2.857   5.011   6.531
 4240SOL    HW113619   2.767   4.986   6.566
 4240SOL    HW213620   2.870   4.970   6.440
 4241SOL     OW13621   3.771   0.821   6.933
 4241SOL    HW113622   3.678   0.855   6.915
 4241SOL    HW213623   3.771   0.769   7.018
 4242SOL     OW13624   1.722   0.341   2.514
 4242SOL    HW113625   1.622   0.348   2.517
 4242SOL    HW213626   1.750   0.252   2.549
 4243SOL     OW13627   1.749   2.730   3.203
 4243SOL    HW113628   1.775   2.700   3.294
 4243SOL    HW213629   1.823   2.710   3.138
 4244SOL     OW13630   3.517   6.003   1.680
 4244SOL    HW113631   3.468   5.960   1.756
 4244SOL    HW213632   3.547   6.094   1.708
 4245SOL     OW13633   6.671   3.466   1.598
 4245SOL    HW113634   6.670   3.534   1.671
 4245SOL    HW213635   6.765   3.431   1.586
 4246SOL     OW13636   4.363   2.145   3.902
 4246SOL    HW113637   4.332   2.174   3.812
 4246SOL    HW213638   4.359   2.046   3.910
 4247SOL     OW13639   1.769   4.755   6.297
 4247SOL    HW113640   1.787   4.698   6.377
 4247SOL    HW213641   1.729   4.699   6.225
 4248SOL     OW13642   1.696   0.569   3.549
 4248SOL    HW113643   1.673   0.492   3.609
 4248SOL    HW213644   1.619   0.633   3.546
 4249SOL     OW13645   6.274   6.886   5.322
 4249SOL    HW113646   6.303   6.912   5.415
 4249SOL    HW213647   6.263   6.787   5.317
 4250SOL     OW13648   6.647   5.653   4.148
 4250SOL    HW113649   6.705   5.669   4.228
 4250SOL    HW213650   6.663   5.725   4.081
 4251SOL     OW13651   6.443   2.593   5.339
 4251SOL    HW113652   6.525   2.603   5.396
 4251SOL    HW213653   6.436   2.499   5.307
 4252SOL     OW13654   7.019   6.559   6.985
 4252SOL    HW113655   6.964   6.637   7.015
 4252SOL    HW213656   6.958   6.485   6.955
 4253SOL     OW13657   4.791   5.845   2.977
 4253SOL    HW113658   4.839   5.758   2.979
 4253SOL    HW213659   4.714   5.842   3.041
 4254SOL     OW13660   1.983   2.981   6.276
 4254SOL    HW113661   1.893   2.938   6.273
 4254SOL    HW213662   1.974   3.078   6.252
 4255SOL     OW13663   1.434   3.275   3.364
 4255SOL    HW113664   1.407   3.271   3.268
 4255SOL    HW213665   1.395   3.197   3.413
 4256SOL     OW13666   0.640   6.469   1.795
 4256SOL    HW113667   0.723   6.416   1.786
 4256SOL    HW213668   0.650   6.556   1.747
 4257SOL     OW13669   6.541   0.162   4.040
 4257SOL    HW113670   6.590   0.075   4.044
 4257SOL    HW213671   6.494   0.179   4.126
 4258SOL     OW13672   3.263   5.664   0.971
 4258SOL    HW113673   3.324   5.734   1.008
 4258SOL    HW213674   3.210   5.702   0.896
 4259SOL     OW13675   1.107   0.181   1.295
 4259SOL    HW113676   1.169   0.160   1.219
 4259SOL    HW213677   1.160   0.203   1.377
 4260SOL     OW13678   5.127   1.245   4.718
 4260SOL    HW113679   5.183   1.316   4.760
 4260SOL    HW213680   5.186   1.181   4.669
 4261SOL     OW13681   2.669   6.017   4.389
 4261SOL    HW113682   2.613   6.071   4.452
 4261SOL    HW213683   2.610   5.979   4.317
 4262SOL     OW13684   2.543   4.021   6.588
 4262SOL    HW113685   2.491   3.987   6.509
 4262SOL    HW213686   2.568   3.944   6.647
 4263SOL     OW13687   2.006   1.620   3.420
 4263SOL    HW113688   1.992   1.552   3.492
 4263SOL    HW213689   2.084   1.594   3.363
 4264SOL     OW13690   4.810   1.717   5.135
 4264SOL    HW113691   4.728   1.769   5.160
 4264SOL    HW213692   4.845   1.669   5.216
 4265SOL     OW13693   2.245   0.082   6.365
 4265SOL    HW113694   2.252   0.091   6.464
 4265SOL    HW213695   2.281   0.164   6.321
 4266SOL     OW13696   1.617   5.453   1.696
 4266SOL    HW113697   1.677   5.408   1.630
 4266SOL    HW213698   1.577   5.385   1.757
 4267SOL     OW13699   1.361   4.274   4.670
 4267SOL    HW113700   1.381   4.213   4.593
 4267SOL    HW213701   1.435   4.340   4.680
 4268SOL     OW13702   1.464   4.231   6.523
 4268SOL    HW113703   1.432   4.226   6.618
 4268SOL    HW213704   1.390   4.204   6.461
 4269SOL     OW13705   2.729   1.416   4.987
 4269SOL    HW113706   2.802   1.389   5.050
 4269SOL    HW213707   2.646   1.364   5.007
 4270SOL     OW13708   3.281   3.272   0.607
 4270SOL    HW113709   3.365   3.238   0.565
 4270SOL    HW213710   3.231   3.195   0.648
 4271SOL     OW13711   6.700   0.849   1.975
 4271SOL    HW113712   6.633   0.832   2.048
 4271SOL    HW213713   6.652   0.874   1.891
 4272SOL     OW13714   0.191   1.114   6.513
 4272SOL    HW113715   0.124   1.055   6.559
 4272SOL    HW213716   0.282   1.091   6.546
 4273SOL     OW13717   3.199   6.207   4.767
 4273SOL    HW113718   3.100   6.192   4.769
 4273SOL    HW213719   3.218   6.305   4.762
 4274SOL     OW13720   6.903   1.441   2.197
 4274SOL    HW113721   6.971   1.479   2.134
 4274SOL    HW213722   6.850   1.371   2.151
 4275SOL     OW13723   0.106   2.562   3.478
 4275SOL    HW113724   0.113   2.536   3.575
 4275SOL    HW213725   0.128   2.483   3.421
 4276SOL     OW13726   2.432   5.998   3.484
 4276SOL    HW113727   2.413   6.093   3.510
 4276SOL    HW213728   2.529   5.988   3.463
 4277SOL     OW13729   6.421   5.817   2.747
 4277SOL    HW113730   6.517   5.795   2.727
 4277SOL    HW213731   6.367   5.733   2.744
 4278SOL     OW13732   1.066   6.764   2.013
 4278SOL    HW113733   1.032   6.801   2.099
 4278SOL    HW213734   1.129   6.829   1.971
 4279SOL     OW13735   1.564   1.699   3.795
 4279SOL    HW113736   1.619   1.749   3.863
 4279SOL    HW213737   1.535   1.762   3.723
 4280SOL     OW13738   1.837   6.453   6.719
 4280SOL    HW113739   1.874   6.376   6.667
 4280SOL    HW213740   1.850   6.538   6.668
 4281SOL     OW13741   5.453   5.645   3.176
 4281SOL    HW113742   5.528   5.643   3.111
 4281SOL    HW213743   5.369   5.613   3.132
 4282SOL     OW13744   4.346   4.846   1.190
 4282SOL    HW113745   4.293   4.762   1.200
 4282SOL    HW213746   4.401   4.860   1.272
 4283SOL     OW13747   4.939   1.182   4.322
 4283SOL    HW113748   4.971   1.166   4.415
 4283SOL    HW213749   4.853   1.233   4.325
 4284SOL     OW13750   4.797   5.419   6.216
 4284SOL    HW113751   4.744   5.335   6.206
 4284SOL    HW213752   4.753   5.478   6.283
 4285SOL     OW13753   3.441   1.074   5.599
 4285SOL    HW113754   3.378   1.120   5.538
 4285SOL    HW213755   3.397   0.993   5.638
 4286SOL     OW13756   6.194   0.341   6.565
 4286SOL    HW113757   6.217   0.343   6.468
 4286SOL    HW213758   6.194   0.246   6.598
 4287SOL     OW13759   3.732   0.235   0.873
 4287SOL    HW113760   3.783   0.238   0.788
 4287SOL    HW213761   3.635   0.222   0.854
 4288SOL     OW13762   0.046   6.442   2.444
 4288SOL    HW113763   6.988   6.417   2.401
 4288SOL    HW213764   0.064   6.539   2.430
 4289SOL     OW13765   0.209   4.492   4.398
 4289SOL    HW113766   0.152   4.569   4.425
 4289SOL    HW213767   0.253   4.512   4.310
 4290SOL     OW13768   0.660   1.283   3.629
 4290SOL    HW113769   0.757   1.290   3.608
 4290SOL    HW213770   0.648   1.264   3.727
 4291SOL     OW13771   4.740   3.782   5.576
 4291SOL    HW113772   4.786   3.797   5.489
 4291SOL    HW213773   4.783   3.839   5.647
 4292SOL     OW13774   6.145   2.007   1.755
 4292SOL    HW113775   6.169   2.104   1.748
 4292SOL    HW213776   6.189   1.956   1.680
 4293SOL     OW13777   3.954   3.304   0.441
 4293SOL    HW113778   3.894   3.344   0.511
 4293SOL    HW213779   3.924   3.211   0.421
 4294SOL     OW13780   2.170   2.032   6.531
 4294SOL    HW113781   2.152   2.125   6.500
 4294SOL    HW213782   2.145   1.967   6.459
 4295SOL     OW13783   4.305   6.099   2.820
 4295SOL    HW113784   4.384   6.042   2.842
 4295SOL    HW213785   4.315   6.189   2.861
 4296SOL     OW13786   2.918   6.531   3.121
 4296SOL    HW113787   2.841   6.504   3.064
 4296SOL    HW213788   2.919   6.631   3.131
 4297SOL     OW13789   5.160   5.320   0.381
 4297SOL    HW113790   5.093   5.281   0.444
 4297SOL    HW213791   5.189   5.250   0.316
 4298SOL     OW13792   1.928   0.220   0.806
 4298SOL    HW113793   1.991   0.166   0.750
 4298SOL    HW213794   1.953   0.211   0.902
 4299SOL     OW13795   0.492   2.875   0.058
 4299SOL    HW113796   0.528   2.860   0.150
 4299SOL    HW213797   0.558   2.927   0.004
 4300SOL     OW13798   3.019   0.586   1.550
 4300SOL    HW113799   3.031   0.685   1.544
 4300SOL    HW213800   2.926   0.562   1.523
 4301SOL     OW13801   2.504   6.332   0.415
 4301SOL    HW113802   2.453   6.265   0.360
 4301SOL    HW213803   2.596   6.344   0.376
 4302SOL     OW13804   2.213   5.427   6.079
 4302SOL    HW113805   2.192   5.337   6.117
 4302SOL    HW213806   2.133   5.464   6.032
 4303SOL     OW13807   5.686   5.439   3.335
 4303SOL    HW113808   5.619   5.431   3.262
 4303SOL    HW213809   5.765   5.382   3.314
 4304SOL     OW13810   3.460   3.850   1.611
 4304SOL    HW113811   3.559   3.850   1.598
 4304SOL    HW213812   3.433   3.764   1.655
 4305SOL     OW13813   1.237   6.074   5.502
 4305SOL    HW113814   1.138   6.076   5.492
 4305SOL    HW213815   1.281   6.110   5.420
 4306SOL     OW13816   5.162   4.609   5.050
 4306SOL    HW113817   5.073   4.649   5.031
 4306SOL    HW213818   5.196   4.563   4.968
 4307SOL     OW13819   0.430   0.803   5.877
 4307SOL    HW113820   0.448   0.802   5.975
 4307SOL    HW213821   0.482   0.877   5.834
 4308SOL     OW13822   4.912   6.210   6.681
 4308SOL    HW113823   4.836   6.274   6.671
 4308SOL    HW213824   4.876   6.120   6.708
 4309SOL     OW13825   0.830   1.628   0.617
 4309SOL    HW113826   0.836   1.718   0.575
 4309SOL    HW213827   0.912   1.575   0.594
 4310SOL     OW13828   6.787   2.133   2.168
 4310SOL    HW113829   6.765   2.211   2.109
 4310SOL    HW213830   6.766   2.048   2.120
 4311SOL     OW13831   0.253   6.920   1.512
 4311SOL    HW113832   0.215   6.828   1.519
 4311SOL    HW213833   0.305   6.940   1.594
 4312SOL     OW13834   7.014   5.044   2.551
 4312SOL    HW113835   6.942   4.979   2.528
 4312SOL    HW213836   0.044   5.005   2.622
 4313SOL     OW13837   0.048   3.184   6.507
 4313SOL    HW113838   7.015   3.112   6.540
 4313SOL    HW213839   0.114   3.206   6.579
 4314SOL     OW13840   0.660   1.374   6.175
 4314SOL    HW113841   0.594   1.413   6.239
 4314SOL    HW213842   0.614   1.352   6.089
 4315SOL     OW13843   2.641   1.202   4.811
 4315SOL    HW113844   2.556   1.237   4.772
 4315SOL    HW213845   2.695   1.278   4.846
 4316SOL     OW13846   5.259   5.947   1.169
 4316SOL    HW113847   5.288   6.037   1.137
 4316SOL    HW213848   5.331   5.907   1.225
 4317SOL     OW13849   4.509   0.891   5.590
 4317SOL    HW113850   4.560   0.831   5.651
 4317SOL    HW213851   4.419   0.909   5.629
 4318SOL     OW13852   0.931   6.756   4.132
 4318SOL    HW113853   0.880   6.725   4.051
 4318SOL    HW213854   1.018   6.795   4.103
 4319SOL     OW13855   1.479   4.348   2.661
 4319SOL    HW113856   1.410   4.373   2.729
 4319SOL    HW213857   1.503   4.428   2.607
 4320SOL     OW13858   3.394   6.996   0.990
 4320SOL    HW113859   3.297   6.996   1.015
 4320SOL    HW213860   3.420   0.058   0.957
 4321SOL     OW13861   6.961   6.913   3.060
 4321SOL    HW113862   6.892   6.972   3.102
 4321SOL    HW213863   6.993   6.955   2.975
 4322SOL     OW13864   1.698   2.916   4.938
 4322SOL    HW113865   1.759   2.970   4.996
 4322SOL    HW213866   1.637   2.861   4.996
 4323SOL     OW13867   4.523   4.800   0.202
 4323SOL    HW113868   4.470   4.735   0.257
 4323SOL    HW213869   4.590   4.845   0.260
 4324SOL     OW13870   1.022   4.734   5.791
 4324SOL    HW113871   1.011   4.647   5.840
 4324SOL    HW213872   1.120   4.752   5.779
 4325SOL     OW13873   1.765   0.459   2.779
 4325SOL    HW113874   1.768   0.426   2.685
 4325SOL    HW213875   1.852   0.440   2.824
 4326SOL     OW13876   5.382   1.568   1.985
 4326SOL    HW113877   5.344   1.569   1.893
 4326SOL    HW213878   5.430   1.653   2.003
 4327SOL     OW13879   2.816   6.038   3.659
 4327SOL    HW113880   2.831   5.945   3.624
 4327SOL    HW213881   2.884   6.099   3.618
 4328SOL     OW13882   7.019   0.354   4.413
 4328SOL    HW113883   0.073   0.306   4.444
 4328SOL    HW213884   6.966   0.294   4.353
 4329SOL     OW13885   0.028   2.121   6.930
 4329SOL    HW113886   0.034   2.049   6.861
 4329SOL    HW213887   0.008   2.079   7.019
 4330SOL     OW13888   3.139   4.948   4.396
 4330SOL    HW113889   3.143   5.045   4.417
 4330SOL    HW213890   3.055   4.909   4.433
 4331SOL     OW13891   5.739   1.553   2.113
 4331SOL    HW113892   5.650   1.561   2.157
 4331SOL    HW213893   5.786   1.642   2.117
 4332SOL     OW13894   1.146   5.222   1.981
 4332SOL    HW113895   1.142   5.170   1.896
 4332SOL    HW213896   1.119   5.163   2.057
 4333SOL     OW13897   4.792   2.321   5.988
 4333SOL    HW113898   4.812   2.388   5.916
 4333SOL    HW213899   4.702   2.341   6.026
 4334SOL     OW13900   6.863   2.908   4.289
 4334SOL    HW113901   6.899   2.959   4.211
 4334SOL    HW213902   6.846   2.971   4.364
 4335SOL     OW13903   2.763   3.809   1.484
 4335SOL    HW113904   2.710   3.742   1.432
 4335SOL    HW213905   2.847   3.767   1.517
 4336SOL     OW13906   2.564   5.970   5.379
 4336SOL    HW113907   2.552   6.062   5.415
 4336SOL    HW213908   2.606   5.975   5.288
 4337SOL     OW13909   0.997   5.001   3.928
 4337SOL    HW113910   0.939   4.982   3.849
 4337SOL    HW213911   1.022   5.098   3.928
 4338SOL     OW13912   3.532   1.747   5.587
 4338SOL    HW113913   3.627   1.746   5.617
 4338SOL    HW213914   3.521   1.690   5.506
 4339SOL     OW13915   3.817   4.235   6.046
 4339SOL    HW113916   3.765   4.219   5.962
 4339SOL    HW213917   3.888   4.165   6.055
 4340SOL     OW13918   6.228   4.130   1.323
 4340SOL    HW113919   6.281   4.146   1.239
 4340SOL    HW213920   6.192   4.037   1.322
 4341SOL     OW13921   6.496   6.371   2.018
 4341SOL    HW113922   6.450   6.454   2.050
 4341SOL    HW213923   6.428   6.307   1.983
 4342SOL     OW13924   4.841   4.008   2.427
 4342SOL    HW113925   4.810   4.073   2.497
 4342SOL    HW213926   4.828   4.048   2.336
 4343SOL     OW13927   4.005   6.711   6.279
 4343SOL    HW113928   3.961   6.679   6.363
 4343SOL    HW213929   3.938   6.715   6.205
 4344SOL     OW13930   0.149   3.707   3.387
 4344SOL    HW113931   0.085   3.664   3.323
 4344SOL    HW213932   0.218   3.758   3.336
 4345SOL     OW13933   3.055   3.059   2.644
 4345SOL    HW113934   3.066   3.095   2.552
 4345SOL    HW213935   3.005   3.125   2.700
 4346SOL     OW13936   1.468   2.974   2.461
 4346SOL    HW113937   1.558   3.011   2.484
 4346SOL    HW213938   1.403   2.997   2.534
 4347SOL     OW13939   6.522   5.766   0.479
 4347SOL    HW113940   6.465   5.740   0.557
 4347SOL    HW213941   6.494   5.714   0.399
 4348SOL     OW13942   5.564   5.062   4.392
 4348SOL    HW113943   5.533   4.968   4.378
 4348SOL    HW213944   5.662   5.068   4.377
 4349SOL     OW13945   0.198   3.299   4.332
 4349SOL    HW113946   0.159   3.262   4.417
 4349SOL    HW213947   0.297   3.284   4.332
 4350SOL     OW13948   3.655   1.245   4.536
 4350SOL    HW113949   3.642   1.260   4.634
 4350SOL    HW213950   3.672   1.148   4.519
 4351SOL     OW13951   0.973   6.148   0.774
 4351SOL    HW113952   0.977   6.159   0.675
 4351SOL    HW213953   1.065   6.132   0.810
 4352SOL     OW13954   3.560   4.745   1.423
 4352SOL    HW113955   3.530   4.664   1.474
 4352SOL    HW213956   3.495   4.820   1.438
 4353SOL     OW13957   2.765   2.670   1.192
 4353SOL    HW113958   2.855   2.628   1.208
 4353SOL    HW213959   2.744   2.731   1.269
 4354SOL     OW13960   6.149   6.942   3.285
 4354SOL    HW113961   6.119   6.894   3.368
 4354SOL    HW213962   6.112   6.896   3.205
 4355SOL     OW13963   1.793   5.560   2.884
 4355SOL    HW113964   1.882   5.595   2.912
 4355SOL    HW213965   1.727   5.576   2.957
 4356SOL     OW13966   6.126   2.514   5.265
 4356SOL    HW113967   6.138   2.436   5.327
 4356SOL    HW213968   6.142   2.599   5.316
 4357SOL     OW13969   5.624   0.636   2.107
 4357SOL    HW113970   5.676   0.631   2.022
 4357SOL    HW213971   5.529   0.610   2.091
 4358SOL     OW13972   3.143   0.125   0.086
 4358SOL    HW113973   3.178   0.120   7.021
 4358SOL    HW213974   3.206   0.077   0.147
 4359SOL     OW13975   2.458   2.153   0.560
 4359SOL    HW113976   2.517   2.091   0.507
 4359SOL    HW213977   2.368   2.112   0.571
 4360SOL     OW13978   1.923   4.369   4.319
 4360SOL    HW113979   1.928   4.277   4.357
 4360SOL    HW213980   1.953   4.435   4.387
 4361SOL     OW13981   6.863   1.961   0.455
 4361SOL    HW113982   6.828   1.898   0.385
 4361SOL    HW213983   6.926   2.025   0.413
 4362SOL     OW13984   1.159   5.252   3.713
 4362SOL    HW113985   1.193   5.325   3.772
 4362SOL    HW213986   1.162   5.281   3.618
 4363SOL     OW13987   4.159   0.886   2.423
 4363SOL    HW113988   4.068   0.851   2.448
 4363SOL    HW213989   4.182   0.855   2.330
 4364SOL     OW13990   4.161   3.625   2.538
 4364SOL    HW113991   4.114   3.684   2.473
 4364SOL    HW213992   4.259   3.629   2.522
 4365SOL     OW13993   2.266   1.548   1.085
 4365SOL    HW113994   2.308   1.489   1.154
 4365SOL    HW213995   2.260   1.642   1.120
 4366SOL     OW13996   4.694   6.479   4.928
 4366SOL    HW113997   4.779   6.477   4.876
 4366SOL    HW213998   4.677   6.388   4.967
 4367SOL     OW13999   3.010   5.715   3.214
 4367SOL    HW114000   2.911   5.723   3.207
 4367SOL    HW214001   3.037   5.619   3.209
 4368SOL     OW14002   4.756   4.245   3.721
 4368SOL    HW114003   4.721   4.323   3.772
 4368SOL    HW214004   4.714   4.243   3.630
 4369SOL     OW14005   5.024   4.228   3.478
 4369SOL    HW114006   5.009   4.222   3.577
 4369SOL    HW214007   4.970   4.304   3.441
 4370SOL     OW14008   3.728   4.444   1.665
 4370SOL    HW114009   3.722   4.353   1.707
 4370SOL    HW214010   3.691   4.512   1.727
 4371SOL     OW14011   2.425   1.455   1.671
 4371SOL    HW114012   2.512   1.490   1.637
 4371SOL    HW214013   2.419   1.357   1.652
 4372SOL     OW14014   1.858   3.307   4.875
 4372SOL    HW114015   1.890   3.308   4.970
 4372SOL    HW214016   1.768   3.351   4.870
 4373SOL     OW14017   3.463   1.107   6.282
 4373SOL    HW114018   3.439   1.202   6.259
 4373SOL    HW214019   3.445   1.048   6.203
 4374SOL     OW14020   2.461   0.254   1.327
 4374SOL    HW114021   2.401   0.181   1.360
 4374SOL    HW214022   2.542   0.258   1.385
 4375SOL     OW14023   4.583   1.987   4.505
 4375SOL    HW114024   4.656   2.050   4.531
 4375SOL    HW214025   4.570   1.919   4.577
 4376SOL     OW14026   2.175   6.182   7.013
 4376SOL    HW114027   2.106   6.110   7.013
 4376SOL    HW214028   2.139   6.262   6.965
 4377SOL     OW14029   5.522   0.099   6.205
 4377SOL    HW114030   5.576   0.167   6.155
 4377SOL    HW214031   5.582   0.029   6.242
 4378SOL     OW14032   2.555   5.459   2.070
 4378SOL    HW114033   2.573   5.510   1.986
 4378SOL    HW214034   2.567   5.361   2.053
 4379SOL     OW14035   1.317   0.219   1.492
 4379SOL    HW114036   1.357   0.301   1.532
 4379SOL    HW214037   1.388   0.168   1.443
 4380SOL     OW14038   2.186   4.927   4.590
 4380SOL    HW114039   2.165   5.020   4.620
 4380SOL    HW214040   2.226   4.875   4.666
 4381SOL     OW14041   4.615   6.332   5.559
 4381SOL    HW114042   4.546   6.295   5.498
 4381SOL    HW214043   4.633   6.428   5.537
 4382SOL     OW14044   4.918   3.772   3.294
 4382SOL    HW114045   5.018   3.773   3.294
 4382SOL    HW214046   4.883   3.843   3.355
 4383SOL     OW14047   1.070   1.910   6.975
 4383SOL    HW114048   1.034   1.832   6.923
 4383SOL    HW214049   0.993   1.964   7.009
 4384SOL     OW14050   3.749   6.562   1.215
 4384SOL    HW114051   3.714   6.476   1.253
 4384SOL    HW214052   3.673   6.616   1.179
 4385SOL     OW14053   6.455   1.513   2.505
 4385SOL    HW114054   6.517   1.565   2.446
 4385SOL    HW214055   6.481   1.416   2.503
 4386SOL     OW14056   1.247   3.892   6.836
 4386SOL    HW114057   1.229   3.850   6.925
 4386SOL    HW214058   1.220   3.829   6.763
 4387SOL     OW14059   6.941   3.245   2.092
 4387SOL    HW114060   6.895   3.198   2.167
 4387SOL    HW214061   6.979   3.331   2.125
 4388SOL     OW14062   2.776   1.455   5.332
 4388SOL    HW114063   2.690   1.497   5.361
 4388SOL    HW214064   2.775   1.358   5.354
 4389SOL     OW14065   5.240   2.320   2.199
 4389SOL    HW114066   5.248   2.233   2.248
 4389SOL    HW214067   5.273   2.309   2.106
 4390SOL     OW14068   4.669   2.596   1.723
 4390SOL    HW114069   4.621   2.672   1.679
 4390SOL    HW214070   4.637   2.509   1.684
 4391SOL     OW14071   0.879   5.968   0.997
 4391SOL    HW114072   0.861   5.870   0.985
 4391SOL    HW214073   0.914   6.006   0.912
 4392SOL     OW14074   5.875   3.524   4.456
 4392SOL    HW114075   5.776   3.510   4.450
 4392SOL    HW214076   5.893   3.603   4.515
 4393SOL     OW14077   4.700   5.999   3.940
 4393SOL    HW114078   4.613   5.950   3.938
 4393SOL    HW214079   4.734   6.011   3.847
 4394SOL     OW14080   4.736   0.974   2.153
 4394SOL    HW114081   4.785   1.049   2.198
 4394SOL    HW214082   4.800   0.903   2.126
 4395SOL     OW14083   4.777   1.777   1.525
 4395SOL    HW114084   4.833   1.860   1.532
 4395SOL    HW214085   4.814   1.718   1.454
 4396SOL     OW14086   1.617   1.041   4.058
 4396SOL    HW114087   1.656   1.028   4.150
 4396SOL    HW214088   1.536   0.984   4.048
 4397SOL     OW14089   6.538   0.420   6.231
 4397SOL    HW114090   6.519   0.465   6.144
 4397SOL    HW214091   6.517   0.482   6.306
 4398SOL     OW14092   6.643   4.687   4.061
 4398SOL    HW114093   6.619   4.780   4.088
 4398SOL    HW214094   6.574   4.652   3.997
 4399SOL     OW14095   2.861   1.305   1.668
 4399SOL    HW114096   2.913   1.320   1.584
 4399SOL    HW214097   2.794   1.233   1.654
 4400SOL     OW14098   3.631   5.718   4.421
 4400SOL    HW114099   3.691   5.790   4.385
 4400SOL    HW214100   3.546   5.759   4.453
 4401SOL     OW14101   5.322   6.810   4.151
 4401SOL    HW114102   5.223   6.800   4.153
 4401SOL    HW214103   5.354   6.841   4.241
 4402SOL     OW14104   7.010   0.667   3.503
 4402SOL    HW114105   6.974   0.753   3.539
 4402SOL    HW214106   7.019   0.601   3.577
 4403SOL     OW14107   0.761   6.760   2.797
 4403SOL    HW114108   0.815   6.675   2.796
 4403SOL    HW214109   0.750   6.791   2.892
 4404SOL     OW14110   1.465   4.093   3.557
 4404SOL    HW114111   1.419   4.142   3.631
 4404SOL    HW214112   1.563   4.092   3.574
 4405SOL     OW14113   3.800   4.692   6.117
 4405SOL    HW114114   3.710   4.709   6.158
 4405SOL    HW214115   3.817   4.594   6.114
 4406SOL     OW14116   5.559   3.535   1.595
 4406SOL    HW114117   5.540   3.462   1.529
 4406SOL    HW214118   5.573   3.621   1.546
 4407SOL     OW14119   6.880   6.312   0.013
 4407SOL    HW114120   6.817   6.261   0.071
 4407SOL    HW214121   6.835   6.334   6.955
 4408SOL     OW14122   4.950   6.199   0.305
 4408SOL    HW114123   4.877   6.138   0.333
 4408SOL    HW214124   4.987   6.170   0.217
 4409SOL     OW14125   2.991   1.551   2.105
 4409SOL    HW114126   3.088   1.543   2.083
 4409SOL    HW214127   2.940   1.478   2.060
 4410SOL     OW14128   2.601   5.174   2.030
 4410SOL    HW114129   2.545   5.141   2.106
 4410SOL    HW214130   2.698   5.165   2.053
 4411SOL     OW14131   3.750   3.266   2.339
 4411SOL    HW114132   3.774   3.233   2.430
 4411SOL    HW214133   3.669   3.216   2.306
 4412SOL     OW14134   3.416   2.331   6.381
 4412SOL    HW114135   3.331   2.347   6.430
 4412SOL    HW214136   3.477   2.276   6.437
 4413SOL     OW14137   4.027   5.918   4.187
 4413SOL    HW114138   4.107   5.968   4.156
 4413SOL    HW214139   3.959   5.914   4.114
 4414SOL     OW14140   3.677   5.475   2.165
 4414SOL    HW114141   3.588   5.473   2.209
 4414SOL    HW214142   3.696   5.385   2.124
 4415SOL     OW14143   4.645   2.339   0.634
 4415SOL    HW114144   4.704   2.358   0.556
 4415SOL    HW214145   4.639   2.421   0.692
 4416SOL     OW14146   3.864   1.157   3.438
 4416SOL    HW114147   3.942   1.139   3.498
 4416SOL    HW214148   3.834   1.252   3.451
 4417SOL     OW14149   0.650   0.381   1.175
 4417SOL    HW114150   0.602   0.311   1.123
 4417SOL    HW214151   0.607   0.470   1.159
 4418SOL     OW14152   3.927   0.136   3.755
 4418SOL    HW114153   3.835   0.096   3.755
 4418SOL    HW214154   3.921   0.233   3.778
 4419SOL     OW14155   6.975   5.316   0.307
 4419SOL    HW114156   6.962   5.221   0.338
 4419SOL    HW214157   6.890   5.366   0.319
 4420SOL     OW14158   4.198   1.110   6.429
 4420SOL    HW114159   4.288   1.084   6.465
 4420SOL    HW214160   4.178   1.055   6.348
 4421SOL     OW14161   1.815   1.770   3.218
 4421SOL    HW114162   1.866   1.717   3.286
 4421SOL    HW214163   1.880   1.816   3.157
 4422SOL     OW14164   2.290   3.749   5.897
 4422SOL    HW114165   2.256   3.837   5.864
 4422SOL    HW214166   2.224   3.678   5.877
 4423SOL     OW14167   0.194   1.349   6.383
 4423SOL    HW114168   0.185   1.269   6.442
 4423SOL    HW214169   0.163   1.431   6.433
 4424SOL     OW14170   0.265   6.159   3.641
 4424SOL    HW114171   0.226   6.249   3.660
 4424SOL    HW214172   0.293   6.155   3.545
 4425SOL     OW14173   4.340   4.113   0.291
 4425SOL    HW114174   4.366   4.063   0.208
 4425SOL    HW214175   4.413   4.106   0.359
 4426SOL     OW14176   1.180   0.276   5.433
 4426SOL    HW114177   1.148   0.288   5.339
 4426SOL    HW214178   1.280   0.280   5.436
 4427SOL     OW14179   1.381   6.797   3.693
 4427SOL    HW114180   1.335   6.744   3.622
 4427SOL    HW214181   1.364   6.755   3.783
 4428SOL     OW14182   2.853   5.763   3.546
 4428SOL    HW114183   2.934   5.789   3.493
 4428SOL    HW214184   2.881   5.725   3.634
 4429SOL     OW14185   4.221   0.349   3.242
 4429SOL    HW114186   4.267   0.342   3.331
 4429SOL    HW214187   4.183   0.441   3.231
 4430SOL     OW14188   1.644   0.815   1.570
 4430SOL    HW114189   1.673   0.903   1.532
 4430SOL    HW214190   1.550   0.821   1.602
 4431SOL     OW14191   1.772   2.270   3.179
 4431SOL    HW114192   1.755   2.334   3.105
 4431SOL    HW214193   1.704   2.196   3.176
 4432SOL     OW14194   2.867   3.560   3.362
 4432SOL    HW114195   2.903   3.620   3.291
 4432SOL    HW214196   2.851   3.613   3.446
 4433SOL     OW14197   0.073   0.571   3.275
 4433SOL    HW114198   0.056   0.617   3.188
 4433SOL    HW214199   0.031   0.623   3.349
 4434SOL     OW14200   5.109   1.919   4.028
 4434SOL    HW114201   5.052   1.893   3.949
 4434SOL    HW214202   5.146   2.010   4.013
 4435SOL     OW14203   3.537   3.099   2.261
 4435SOL    HW114204   3.450   3.053   2.247
 4435SOL    HW214205   3.606   3.060   2.200
 4436SOL     OW14206   5.149   0.839   6.971
 4436SOL    HW114207   5.234   0.810   7.014
 4436SOL    HW214208   5.141   0.797   6.881
 4437SOL     OW14209   3.535   0.271   4.668
 4437SOL    HW114210   3.527   0.301   4.573
 4437SOL    HW214211   3.588   0.339   4.719
 4438SOL     OW14212   3.799   3.772   6.257
 4438SOL    HW114213   3.736   3.753   6.182
 4438SOL    HW214214   3.890   3.737   6.233
 4439SOL     OW14215   2.589   5.114   2.398
 4439SOL    HW114216   2.530   5.155   2.328
 4439SOL    HW214217   2.533   5.087   2.476
 4440SOL     OW14218   6.920   0.359   6.308
 4440SOL    HW114219   6.936   0.449   6.267
 4440SOL    HW214220   6.822   0.338   6.305
 4441SOL     OW14221   5.604   2.552   3.303
 4441SOL    HW114222   5.527   2.509   3.350
 4441SOL    HW214223   5.633   2.632   3.356
 4442SOL     OW14224   2.075   6.336   2.253
 4442SOL    HW114225   2.100   6.383   2.337
 4442SOL    HW214226   2.045   6.242   2.275
 4443SOL     OW14227   2.421   1.439   5.771
 4443SOL    HW114228   2.387   1.514   5.713
 4443SOL    HW214229   2.518   1.452   5.789
 4444SOL     OW14230   5.179   0.794   2.502
 4444SOL    HW114231   5.208   0.823   2.593
 4444SOL    HW214232   5.079   0.796   2.496
 4445SOL     OW14233   1.629   1.602   6.519
 4445SOL    HW114234   1.687   1.562   6.591
 4445SOL    HW214235   1.575   1.677   6.558
 4446SOL     OW14236   6.470   5.898   4.384
 4446SOL    HW114237   6.443   5.849   4.467
 4446SOL    HW214238   6.396   5.959   4.355
 4447SOL     OW14239   4.942   3.392   4.905
 4447SOL    HW114240   4.934   3.305   4.954
 4447SOL    HW214241   4.908   3.467   4.962
 4448SOL     OW14242   2.849   2.956   6.155
 4448SOL    HW114243   2.806   2.916   6.236
 4448SOL    HW214244   2.783   2.958   6.079
 4449SOL     OW14245   0.843   1.419   4.940
 4449SOL    HW114246   0.753   1.463   4.943
 4449SOL    HW214247   0.844   1.349   4.869
 4450SOL     OW14248   4.020   3.838   3.183
 4450SOL    HW114249   3.975   3.926   3.164
 4450SOL    HW214250   4.007   3.815   3.279
 4451SOL     OW14251   6.451   4.403   2.067
 4451SOL    HW114252   6.502   4.480   2.106
 4451SOL    HW214253   6.431   4.421   1.971
 4452SOL     OW14254   6.407   5.287   6.159
 4452SOL    HW114255   6.379   5.244   6.245
 4452SOL    HW214256   6.426   5.216   6.091
 4453SOL     OW14257   5.209   2.039   1.385
 4453SOL    HW114258   5.182   2.124   1.340
 4453SOL    HW214259   5.133   2.004   1.440
 4454SOL     OW14260   5.098   3.091   1.195
 4454SOL    HW114261   5.107   3.044   1.282
 4454SOL    HW214262   5.010   3.139   1.191
 4455SOL     OW14263   4.399   1.635   1.504
 4455SOL    HW114264   4.472   1.568   1.492
 4455SOL    HW214265   4.440   1.726   1.513
 4456SOL     OW14266   0.936   5.446   3.248
 4456SOL    HW114267   0.920   5.542   3.225
 4456SOL    HW214268   0.960   5.395   3.165
 4457SOL     OW14269   5.144   1.847   6.430
 4457SOL    HW114270   5.075   1.788   6.474
 4457SOL    HW214271   5.099   1.925   6.388
 4458SOL     OW14272   3.691   1.848   6.395
 4458SOL    HW114273   3.716   1.756   6.364
 4458SOL    HW214274   3.649   1.842   6.486
 4459SOL     OW14275   5.334   6.091   5.437
 4459SOL    HW114276   5.235   6.075   5.445
 4459SOL    HW214277   5.350   6.182   5.400
 4460SOL     OW14278   1.568   1.339   6.456
 4460SOL    HW114279   1.511   1.305   6.530
 4460SOL    HW214280   1.578   1.439   6.464
 4461SOL     OW14281   2.473   0.397   2.410
 4461SOL    HW114282   2.428   0.467   2.466
 4461SOL    HW214283   2.555   0.437   2.369
 4462SOL     OW14284   6.942   5.939   1.325
 4462SOL    HW114285   6.994   5.879   1.385
 4462SOL    HW214286   7.004   6.006   1.284
 4463SOL     OW14287   1.481   3.247   6.020
 4463SOL    HW114288   1.463   3.273   6.115
 4463SOL    HW214289   1.416   3.295   5.960
 4464SOL     OW14290   6.047   3.009   6.741
 4464SOL    HW114291   5.971   3.067   6.712
 4464SOL    HW214292   6.015   2.915   6.753
 4465SOL     OW14293   1.549   5.856   2.265
 4465SOL    HW114294   1.540   5.887   2.170
 4465SOL    HW214295   1.609   5.776   2.268
 4466SOL     OW14296   0.246   2.555   4.101
 4466SOL    HW114297   0.294   2.475   4.138
 4466SOL    HW214298   0.154   2.528   4.073
 4467SOL     OW14299   0.976   6.987   3.359
 4467SOL    HW114300   0.969   7.007   3.261
 4467SOL    HW214301   0.949   6.893   3.376
 4468SOL     OW14302   1.066   2.604   6.999
 4468SOL    HW114303   1.103   2.604   0.064
 4468SOL    HW214304   1.081   2.694   6.958
 4469SOL     OW14305   4.471   0.114   0.118
 4469SOL    HW114306   4.465   0.171   0.200
 4469SOL    HW214307   4.557   0.132   0.071
 4470SOL     OW14308   4.572   5.340   1.185
 4470SOL    HW114309   4.665   5.324   1.219
 4470SOL    HW214310   4.506   5.297   1.246
 4471SOL     OW14311   6.459   3.544   0.202
 4471SOL    HW114312   6.542   3.600   0.199
 4471SOL    HW214313   6.398   3.571   0.128
 4472SOL     OW14314   2.261   5.338   1.438
 4472SOL    HW114315   2.296   5.245   1.441
 4472SOL    HW214316   2.192   5.350   1.510
 4473SOL     OW14317   0.186   7.014   5.672
 4473SOL    HW114318   0.266   0.040   5.700
 4473SOL    HW214319   0.122   0.045   5.622
 4474SOL     OW14320   5.840   0.877   3.822
 4474SOL    HW114321   5.758   0.824   3.802
 4474SOL    HW214322   5.831   0.921   3.911
 4475SOL     OW14323   1.861   3.865   0.147
 4475SOL    HW114324   1.841   3.963   0.143
 4475SOL    HW214325   1.778   3.815   0.170
 4476SOL     OW14326   4.610   6.487   2.098
 4476SOL    HW114327   4.541   6.447   2.037
 4476SOL    HW214328   4.605   6.441   2.187
 4477SOL     OW14329   1.477   0.934   0.231
 4477SOL    HW114330   1.490   1.005   0.162
 4477SOL    HW214331   1.495   0.972   0.321
 4478SOL     OW14332   1.403   5.242   2.270
 4478SOL    HW114333   1.418   5.189   2.354
 4478SOL    HW214334   1.333   5.311   2.287
 4479SOL     OW14335   0.439   6.926   5.230
 4479SOL    HW114336   0.363   6.877   5.273
 4479SOL    HW214337   0.522   6.872   5.237
 4480SOL     OW14338   1.102   4.366   3.629
 4480SOL    HW114339   1.036   4.406   3.693
 4480SOL    HW214340   1.095   4.266   3.632
 4481SOL     OW14341   1.173   6.882   4.107
 4481SOL    HW114342   1.231   6.840   4.177
 4481SOL    HW214343   1.192   6.980   4.102
 4482SOL     OW14344   0.185   4.384   3.870
 4482SOL    HW114345   0.156   4.367   3.964
 4482SOL    HW214346   0.151   4.472   3.840
 4483SOL     OW14347   5.551   2.316   2.258
 4483SOL    HW114348   5.466   2.278   2.295
 4483SOL    HW214349   5.557   2.413   2.279
 4484SOL     OW14350   4.227   2.741   5.739
 4484SOL    HW114351   4.141   2.761   5.693
 4484SOL    HW214352   4.218   2.656   5.791
 4485SOL     OW14353   4.444   1.235   6.620
 4485SOL    HW114354   4.518   1.289   6.579
 4485SOL    HW214355   4.481   1.177   6.692
 4486SOL     OW14356   6.186   2.026   4.058
 4486SOL    HW114357   6.249   1.974   4.115
 4486SOL    HW214358   6.131   2.086   4.115
 4487SOL     OW14359   3.250   3.281   6.154
 4487SOL    HW114360   3.326   3.230   6.195
 4487SOL    HW214361   3.170   3.222   6.148
 4488SOL     OW14362   0.373   1.600   5.259
 4488SOL    HW114363   0.375   1.512   5.306
 4488SOL    HW214364   0.346   1.672   5.324
 4489SOL     OW14365   6.733   0.625   3.372
 4489SOL    HW114366   6.696   0.650   3.283
 4489SOL    HW214367   6.825   0.662   3.382
 4490SOL     OW14368   6.871   2.777   3.489
 4490SOL    HW114369   6.950   2.719   3.510
 4490SOL    HW214370   6.864   2.790   3.390
 4491SOL     OW14371   1.614   2.869   2.828
 4491SOL    HW114372   1.547   2.931   2.867
 4491SOL    HW214373   1.594   2.775   2.857
 4492SOL     OW14374   4.185   3.385   6.569
 4492SOL    HW114375   4.247   3.307   6.578
 4492SOL    HW214376   4.120   3.384   6.645
 4493SOL     OW14377   6.067   5.468   3.919
 4493SOL    HW114378   6.024   5.521   3.845
 4493SOL    HW214379   6.120   5.530   3.977
 4494SOL     OW14380   6.065   3.673   3.670
 4494SOL    HW114381   5.997   3.660   3.742
 4494SOL    HW214382   6.141   3.609   3.683
 4495SOL     OW14383   4.644   6.390   1.382
 4495SOL    HW114384   4.684   6.481   1.387
 4495SOL    HW214385   4.697   6.333   1.319
 4496SOL     OW14386   5.151   4.504   5.586
 4496SOL    HW114387   5.225   4.441   5.612
 4496SOL    HW214388   5.074   4.493   5.648
 4497SOL     OW14389   6.503   5.176   0.587
 4497SOL    HW114390   6.460   5.107   0.646
 4497SOL    HW214391   6.492   5.266   0.629
 4498SOL     OW14392   0.241   4.226   6.697
 4498SOL    HW114393   0.281   4.134   6.688
 4498SOL    HW214394   0.297   4.291   6.646
 4499SOL     OW14395   6.709   2.953   6.748
 4499SOL    HW114396   6.622   2.906   6.732
 4499SOL    HW214397   6.764   2.898   6.811
 4500SOL     OW14398   3.521   3.816   4.615
 4500SOL    HW114399   3.578   3.851   4.688
 4500SOL    HW214400   3.501   3.720   4.631
 4501SOL     OW14401   0.844   4.174   4.781
 4501SOL    HW114402   0.935   4.143   4.755
 4501SOL    HW214403   0.794   4.099   4.825
 4502SOL     OW14404   0.097   3.263   0.261
 4502SOL    HW114405   0.169   3.198   0.237
 4502SOL    HW214406   0.018   3.249   0.201
 4503SOL     OW14407   1.462   2.019   3.284
 4503SOL    HW114408   1.402   2.085   3.329
 4503SOL    HW214409   1.479   2.048   3.190
 4504SOL     OW14410   5.302   2.461   4.763
 4504SOL    HW114411   5.335   2.476   4.670
 4504SOL    HW214412   5.214   2.507   4.775
 4505SOL     OW14413   1.646   5.091   6.217
 4505SOL    HW114414   1.718   5.027   6.192
 4505SOL    HW214415   1.584   5.047   6.282
 4506SOL     OW14416   3.877   0.332   5.546
 4506SOL    HW114417   3.908   0.246   5.586
 4506SOL    HW214418   3.857   0.318   5.449
 4507SOL     OW14419   6.603   4.426   0.964
 4507SOL    HW114420   6.678   4.459   0.907
 4507SOL    HW214421   6.553   4.355   0.915
 4508SOL     OW14422   1.727   4.295   0.948
 4508SOL    HW114423   1.692   4.389   0.945
 4508SOL    HW214424   1.705   4.254   1.036
 4509SOL     OW14425   1.206   2.069   3.816
 4509SOL    HW114426   1.286   2.110   3.772
 4509SOL    HW214427   1.169   1.997   3.757
 4510SOL     OW14428   3.776   6.470   5.185
 4510SOL    HW114429   3.865   6.496   5.222
 4510SOL    HW214430   3.730   6.408   5.248
 4511SOL     OW14431   6.163   2.624   0.054
 4511SOL    HW114432   6.223   2.674   7.021
 4511SOL    HW214433   6.215   2.591   0.132
 4512SOL     OW14434   2.826   4.923   0.188
 4512SOL    HW114435   2.814   5.022   0.192
 4512SOL    HW214436   2.895   4.900   0.119
 4513SOL     OW14437   5.146   0.803   1.945
 4513SOL    HW114438   5.206   0.870   1.901
 4513SOL    HW214439   5.115   0.736   1.878
 4514SOL     OW14440   3.498   1.610   4.988
 4514SOL    HW114441   3.456   1.669   5.057
 4514SOL    HW214442   3.438   1.532   4.970
 4515SOL     OW14443   0.496   5.046   1.230
 4515SOL    HW114444   0.555   4.977   1.188
 4515SOL    HW214445   0.415   5.001   1.269
 4516SOL     OW14446   0.951   0.221   4.739
 4516SOL    HW114447   0.918   0.240   4.646
 4516SOL    HW214448   0.901   0.278   4.804
 4517SOL     OW14449   3.683   7.020   5.035
 4517SOL    HW114450   3.605   7.010   4.973
 4517SOL    HW214451   3.738   6.937   5.034
 4518SOL     OW14452   1.353   1.557   4.454
 4518SOL    HW114453   1.438   1.608   4.464
 4518SOL    HW214454   1.370   1.472   4.403
 4519SOL     OW14455   6.171   2.236   4.304
 4519SOL    HW114456   6.268   2.259   4.309
 4519SOL    HW214457   6.157   2.143   4.338
 4520SOL     OW14458   0.086   4.342   3.017
 4520SOL    HW114459   0.174   4.336   2.969
 4520SOL    HW214460   0.023   4.274   2.978
 4521SOL     OW14461   5.821   1.792   6.322
 4521SOL    HW114462   5.876   1.709   6.320
 4521SOL    HW214463   5.730   1.771   6.360
 4522SOL     OW14464   6.020   0.661   3.794
 4522SOL    HW114465   6.101   0.647   3.850
 4522SOL    HW214466   5.973   0.744   3.823
 4523SOL     OW14467   3.742   3.730   0.013
 4523SOL    HW114468   3.707   3.746   6.949
 4523SOL    HW214469   3.723   3.636   0.040
 4524SOL     OW14470   6.026   0.214   4.832
 4524SOL    HW114471   6.023   0.313   4.839
 4524SOL    HW214472   6.029   0.173   4.923
 4525SOL     OW14473   6.561   1.474   5.777
 4525SOL    HW114474   6.564   1.451   5.680
 4525SOL    HW214475   6.485   1.536   5.794
 4526SOL     OW14476   3.889   0.469   0.876
 4526SOL    HW114477   3.860   0.563   0.897
 4526SOL    HW214478   3.818   0.405   0.905
 4527SOL     OW14479   3.965   1.308   3.066
 4527SOL    HW114480   3.894   1.243   3.093
 4527SOL    HW214481   4.052   1.282   3.107
 4528SOL     OW14482   6.125   0.561   6.242
 4528SOL    HW114483   6.044   0.516   6.279
 4528SOL    HW214484   6.125   0.657   6.268
 4529SOL     OW14485   3.698   6.251   3.349
 4529SOL    HW114486   3.626   6.183   3.363
 4529SOL    HW214487   3.659   6.332   3.305
 4530SOL     OW14488   0.660   3.231   5.189
 4530SOL    HW114489   0.575   3.283   5.193
 4530SOL    HW214490   0.641   3.135   5.210
 4531SOL     OW14491   0.145   3.546   3.879
 4531SOL    HW114492   0.199   3.578   3.802
 4531SOL    HW214493   0.068   3.492   3.845
 4532SOL     OW14494   6.076   1.994   0.815
 4532SOL    HW114495   6.121   1.958   0.896
 4532SOL    HW214496   6.035   2.083   0.836
 4533SOL     OW14497   2.437   5.960   2.808
 4533SOL    HW114498   2.362   5.928   2.866
 4533SOL    HW214499   2.479   5.883   2.761
 4534SOL     OW14500   5.984   3.802   5.657
 4534SOL    HW114501   6.028   3.746   5.586
 4534SOL    HW214502   6.054   3.836   5.720
 4535SOL     OW14503   4.875   2.874   2.088
 4535SOL    HW114504   4.954   2.854   2.030
 4535SOL    HW214505   4.820   2.946   2.046
 4536SOL     OW14506   6.634   1.360   4.409
 4536SOL    HW114507   6.640   1.270   4.365
 4536SOL    HW214508   6.559   1.360   4.474
 4537SOL     OW14509   4.151   3.087   5.951
 4537SOL    HW114510   4.221   3.019   5.932
 4537SOL    HW214511   4.060   3.045   5.945
 4538SOL     OW14512   2.908   1.127   2.482
 4538SOL    HW114513   2.986   1.114   2.421
 4538SOL    HW214514   2.890   1.225   2.492
 4539SOL     OW14515   1.244   1.604   2.435
 4539SOL    HW114516   1.153   1.610   2.394
 4539SOL    HW214517   1.298   1.684   2.409
 4540SOL     OW14518   3.236   3.017   4.321
 4540SOL    HW114519   3.266   2.980   4.233
 4540SOL    HW214520   3.306   3.001   4.390
 4541SOL     OW14521   5.359   1.402   1.201
 4541SOL    HW114522   5.295   1.345   1.252
 4541SOL    HW214523   5.312   1.441   1.121
 4542SOL     OW14524   4.250   0.807   3.983
 4542SOL    HW114525   4.237   0.831   4.079
 4542SOL    HW214526   4.325   0.861   3.945
 4543SOL     OW14527   5.255   1.841   1.812
 4543SOL    HW114528   5.344   1.871   1.777
 4543SOL    HW214529   5.198   1.921   1.831
 4544SOL     OW14530   3.831   4.865   6.648
 4544SOL    HW114531   3.859   4.831   6.738
 4544SOL    HW214532   3.858   4.961   6.639
 4545SOL     OW14533   4.349   2.467   5.613
 4545SOL    HW114534   4.353   2.453   5.514
 4545SOL    HW214535   4.283   2.539   5.634
 4546SOL     OW14536   1.303   6.342   6.175
 4546SOL    HW114537   1.211   6.376   6.194
 4546SOL    HW214538   1.364   6.418   6.155
 4547SOL     OW14539   4.914   2.513   1.806
 4547SOL    HW114540   4.827   2.547   1.770
 4547SOL    HW214541   4.899   2.478   1.899
 4548SOL     OW14542   1.045   3.279   3.594
 4548SOL    HW114543   1.007   3.186   3.595
 4548SOL    HW214544   1.083   3.301   3.684
 4549SOL     OW14545   5.477   2.598   2.620
 4549SOL    HW114546   5.383   2.628   2.609
 4549SOL    HW214547   5.484   2.536   2.698
 4550SOL     OW14548   1.187   6.152   4.704
 4550SOL    HW114549   1.231   6.124   4.619
 4550SOL    HW214550   1.178   6.073   4.765
 4551SOL     OW14551   0.569   2.744   5.804
 4551SOL    HW114552   0.549   2.830   5.850
 4551SOL    HW214553   0.615   2.763   5.717
 4552SOL     OW14554   6.873   3.300   4.570
 4552SOL    HW114555   6.842   3.282   4.477
 4552SOL    HW214556   6.903   3.395   4.578
 4553SOL     OW14557   4.776   4.712   0.416
 4553SOL    HW114558   4.747   4.807   0.409
 4553SOL    HW214559   4.788   4.687   0.512
 4554SOL     OW14560   5.448   6.850   2.678
 4554SOL    HW114561   5.471   6.810   2.589
 4554SOL    HW214562   5.435   6.949   2.667
 4555SOL     OW14563   5.295   1.726   0.075
 4555SOL    HW114564   5.302   1.795   0.003
 4555SOL    HW214565   5.295   1.635   0.034
 4556SOL     OW14566   4.522   0.967   4.004
 4556SOL    HW114567   4.587   1.016   4.062
 4556SOL    HW214568   4.539   0.868   4.011
 4557SOL     OW14569   5.146   0.304   5.599
 4557SOL    HW114570   5.068   0.312   5.537
 4557SOL    HW214571   5.118   0.324   5.692
 4558SOL     OW14572   6.327   2.745   6.029
 4558SOL    HW114573   6.364   2.774   6.117
 4558SOL    HW214574   6.401   2.734   5.963
 4559SOL     OW14575   1.030   6.726   0.851
 4559SOL    HW114576   1.024   6.751   0.947
 4559SOL    HW214577   0.938   6.709   0.815
 4560SOL     OW14578   4.767   2.765   2.785
 4560SOL    HW114579   4.801   2.750   2.878
 4560SOL    HW214580   4.817   2.841   2.743
 4561SOL     OW14581   2.978   0.283   6.522
 4561SOL    HW114582   2.984   0.191   6.484
 4561SOL    HW214583   2.884   0.316   6.515
 4562SOL     OW14584   3.310   4.979   5.991
 4562SOL    HW114585   3.329   4.997   6.088
 4562SOL    HW214586   3.301   5.066   5.943
 4563SOL     OW14587   5.695   2.198   6.467
 4563SOL    HW114588   5.687   2.294   6.440
 4563SOL    HW214589   5.770   2.155   6.417
 4564SOL     OW14590   1.719   6.109   6.950
 4564SOL    HW114591   1.694   6.058   0.004
 4564SOL    HW214592   1.704   6.051   6.869
 4565SOL     OW14593   2.126   0.589   4.710
 4565SOL    HW114594   2.065   0.519   4.672
 4565SOL    HW214595   2.191   0.546   4.773
 4566SOL     OW14596   0.509   1.994   0.042
 4566SOL    HW114597   0.464   1.908   0.020
 4566SOL    HW214598   0.469   2.068   7.016
 4567SOL     OW14599   6.750   1.399   0.706
 4567SOL    HW114600   6.664   1.438   0.674
 4567SOL    HW214601   6.757   1.408   0.805
 4568SOL     OW14602   3.469   4.521   5.291
 4568SOL    HW114603   3.388   4.477   5.329
 4568SOL    HW214604   3.445   4.613   5.259
 4569SOL     OW14605   0.218   1.972   4.635
 4569SOL    HW114606   0.237   2.065   4.668
 4569SOL    HW214607   0.253   1.962   4.543
 4570SOL     OW14608   6.940   4.881   4.393
 4570SOL    HW114609   6.951   4.782   4.399
 4570SOL    HW214610   6.936   4.908   4.297
 4571SOL     OW14611   3.269   3.039   4.625
 4571SOL    HW114612   3.213   3.117   4.597
 4571SOL    HW214613   3.240   3.009   4.716
 4572SOL     OW14614   2.176   6.065   1.181
 4572SOL    HW114615   2.118   5.996   1.224
 4572SOL    HW214616   2.123   6.150   1.169
 4573SOL     OW14617   5.687   0.215   0.822
 4573SOL    HW114618   5.614   0.275   0.788
 4573SOL    HW214619   5.718   0.247   0.911
 4574SOL     OW14620   0.720   4.517   2.426
 4574SOL    HW114621   0.647   4.574   2.388
 4574SOL    HW214622   0.807   4.538   2.381
 4575SOL     OW14623   6.399   6.928   2.353
 4575SOL    HW114624   6.391   7.027   2.345
 4575SOL    HW214625   6.317   6.892   2.397
 4576SOL     OW14626   3.339   5.677   5.271
 4576SOL    HW114627   3.241   5.685   5.254
 4576SOL    HW214628   3.357   5.693   5.368
 4577SOL     OW14629   0.781   2.633   3.608
 4577SOL    HW114630   0.801   2.536   3.618
 4577SOL    HW214631   0.859   2.679   3.565
 4578SOL     OW14632   6.913   4.259   3.858
 4578SOL    HW114633   6.978   4.275   3.932
 4578SOL    HW214634   6.900   4.161   3.846
 4579SOL     OW14635   5.460   1.908   3.814
 4579SOL    HW114636   5.503   1.969   3.881
 4579SOL    HW214637   5.394   1.960   3.760
 4580SOL     OW14638   6.726   5.394   0.651
 4580SOL    HW114639   6.716   5.375   0.553
 4580SOL    HW214640   6.768   5.315   0.696
 4581SOL     OW14641   3.800   5.958   3.071
 4581SOL    HW114642   3.874   5.991   3.012
 4581SOL    HW214643   3.736   5.904   3.018
 4582SOL     OW14644   4.451   6.662   2.585
 4582SOL    HW114645   4.493   6.665   2.494
 4582SOL    HW214646   4.355   6.689   2.579
 4583SOL     OW14647   4.981   1.933   5.091
 4583SOL    HW114648   4.940   2.014   5.049
 4583SOL    HW214649   4.924   1.853   5.072
 4584SOL     OW14650   0.756   5.033   5.303
 4584SOL    HW114651   0.674   5.010   5.251
 4584SOL    HW214652   0.742   5.011   5.400
 4585SOL     OW14653   4.076   6.512   3.027
 4585SOL    HW114654   4.020   6.572   3.085
 4585SOL    HW214655   4.031   6.499   2.939
 4586SOL     OW14656   3.312   5.569   2.137
 4586SOL    HW114657   3.297   5.658   2.180
 4586SOL    HW214658   3.227   5.516   2.140
 4587SOL     OW14659   1.992   4.462   1.086
 4587SOL    HW114660   1.955   4.369   1.092
 4587SOL    HW214661   1.954   4.518   1.159
 4588SOL     OW14662   4.732   4.006   5.239
 4588SOL    HW114663   4.759   3.916   5.273
 4588SOL    HW214664   4.640   4.028   5.272
 4589SOL     OW14665   6.951   1.850   4.371
 4589SOL    HW114666   0.012   1.894   4.374
 4589SOL    HW214667   6.960   1.753   4.390
 4590SOL     OW14668   5.022   5.748   2.617
 4590SOL    HW114669   4.996   5.821   2.680
 4590SOL    HW214670   4.939   5.700   2.586
 4591SOL     OW14671   5.787   5.737   5.263
 4591SOL    HW114672   5.702   5.720   5.213
 4591SOL    HW214673   5.794   5.673   5.339
 4592SOL     OW14674   3.743   2.075   6.221
 4592SOL    HW114675   3.653   2.097   6.181
 4592SOL    HW214676   3.733   1.997   6.283
 4593SOL     OW14677   3.535   6.134   2.238
 4593SOL    HW114678   3.624   6.165   2.271
 4593SOL    HW214679   3.478   6.214   2.215
 4594SOL     OW14680   2.609   1.265   2.590
 4594SOL    HW114681   2.687   1.238   2.646
 4594SOL    HW214682   2.623   1.358   2.556
 4595SOL     OW14683   4.404   2.203   5.754
 4595SOL    HW114684   4.405   2.228   5.850
 4595SOL    HW214685   4.399   2.286   5.698
 4596SOL     OW14686   6.101   0.001   1.640
 4596SOL    HW114687   6.077   0.044   1.553
 4596SOL    HW214688   6.060   0.052   1.715
 4597SOL     OW14689   6.642   4.475   6.763
 4597SOL    HW114690   6.572   4.510   6.701
 4597SOL    HW214691   6.728   4.524   6.748
 4598SOL     OW14692   3.015   4.836   6.994
 4598SOL    HW114693   2.971   4.750   6.968
 4598SOL    HW214694   3.110   4.835   6.964
 4599SOL     OW14695   1.355   4.661   0.415
 4599SOL    HW114696   1.405   4.748   0.407
 4599SOL    HW214697   1.260   4.675   0.388
 4600SOL     OW14698   3.315   5.394   1.369
 4600SOL    HW114699   3.253   5.456   1.320
 4600SOL    HW214700   3.311   5.303   1.328
 4601SOL     OW14701   1.809   6.009   5.123
 4601SOL    HW114702   1.831   6.105   5.137
 4601SOL    HW214703   1.801   5.963   5.211
 4602SOL     OW14704   1.745   0.761   1.247
 4602SOL    HW114705   1.787   0.761   1.338
 4602SOL    HW214706   1.648   0.738   1.256
 4603SOL     OW14707   3.245   0.063   2.134
 4603SOL    HW114708   3.333   0.018   2.120
 4603SOL    HW214709   3.174   0.013   2.084
 4604SOL     OW14710   3.098   6.880   2.351
 4604SOL    HW114711   3.106   6.788   2.313
 4604SOL    HW214712   3.097   6.946   2.276
 4605SOL     OW14713   4.998   0.392   5.382
 4605SOL    HW114714   5.031   0.332   5.308
 4605SOL    HW214715   5.042   0.481   5.375
 4606SOL     OW14716   0.066   6.469   5.278
 4606SOL    HW114717   0.027   6.384   5.314
 4606SOL    HW214718   7.027   6.542   5.285
 4607SOL     OW14719   2.725   2.102   1.203
 4607SOL    HW114720   2.780   2.019   1.193
 4607SOL    HW214721   2.770   2.164   1.267
 4608SOL     OW14722   1.705   3.535   5.996
 4608SOL    HW114723   1.727   3.627   5.964
 4608SOL    HW214724   1.719   3.530   6.094
 4609SOL     OW14725   4.403   6.817   6.079
 4609SOL    HW114726   4.376   6.903   6.037
 4609SOL    HW214727   4.469   6.834   6.152
 4610SOL     OW14728   0.731   3.285   6.730
 4610SOL    HW114729   0.671   3.325   6.800
 4610SOL    HW214730   0.699   3.193   6.707
 4611SOL     OW14731   1.074   3.928   0.422
 4611SOL    HW114732   0.991   3.933   0.366
 4611SOL    HW214733   1.133   4.006   0.399
 4612SOL     OW14734   1.974   0.265   6.262
 4612SOL    HW114735   1.943   0.205   6.335
 4612SOL    HW214736   2.058   0.227   6.222
 4613SOL     OW14737   2.958   5.489   1.790
 4613SOL    HW114738   3.012   5.568   1.818
 4613SOL    HW214739   2.863   5.516   1.776
 4614SOL     OW14740   1.925   5.506   0.306
 4614SOL    HW114741   1.905   5.408   0.316
 4614SOL    HW214742   1.935   5.528   0.209
 4615SOL     OW14743   0.144   2.524   0.358
 4615SOL    HW114744   0.134   2.473   0.273
 4615SOL    HW214745   0.202   2.471   0.421
 4616SOL     OW14746   5.609   1.079   6.853
 4616SOL    HW114747   5.610   1.089   6.952
 4616SOL    HW214748   5.515   1.064   6.822
 4617SOL     OW14749   0.157   2.839   1.849
 4617SOL    HW114750   0.140   2.935   1.869
 4617SOL    HW214751   0.234   2.806   1.904
 4618SOL     OW14752   0.825   1.751   5.907
 4618SOL    HW114753   0.752   1.737   5.974
 4618SOL    HW214754   0.868   1.840   5.922
 4619SOL     OW14755   3.234   0.780   3.692
 4619SOL    HW114756   3.320   0.728   3.691
 4619SOL    HW214757   3.163   0.726   3.737
 4620SOL     OW14758   2.412   3.890   6.370
 4620SOL    HW114759   2.369   3.902   6.281
 4620SOL    HW214760   2.477   3.814   6.366
 4621SOL     OW14761   0.362   5.932   5.930
 4621SOL    HW114762   0.461   5.930   5.942
 4621SOL    HW214763   0.326   6.017   5.969
 4622SOL     OW14764   2.435   3.298   1.147
 4622SOL    HW114765   2.516   3.283   1.090
 4622SOL    HW214766   2.389   3.382   1.118
 4623SOL     OW14767   5.853   4.492   1.909
 4623SOL    HW114768   5.801   4.476   1.993
 4623SOL    HW214769   5.797   4.544   1.844
 4624SOL     OW14770   4.785   7.010   5.362
 4624SOL    HW114771   4.714   6.976   5.423
 4624SOL    HW214772   4.822   6.935   5.308
 4625SOL     OW14773   0.512   3.039   6.800
 4625SOL    HW114774   0.580   2.977   6.839
 4625SOL    HW214775   0.513   3.125   6.852
 4626SOL     OW14776   6.072   5.043   1.888
 4626SOL    HW114777   6.154   5.056   1.833
 4626SOL    HW214778   5.995   5.090   1.844
 4627SOL     OW14779   2.239   0.718   6.338
 4627SOL    HW114780   2.230   0.712   6.239
 4627SOL    HW214781   2.203   0.806   6.370
 4628SOL     OW14782   7.005   4.004   2.063
 4628SOL    HW114783   0.013   4.086   2.018
 4628SOL    HW214784   7.026   4.007   2.160
 4629SOL     OW14785   3.103   4.993   5.454
 4629SOL    HW114786   3.056   5.020   5.537
 4629SOL    HW214787   3.190   4.948   5.477
 4630SOL     OW14788   1.841   0.128   2.899
 4630SOL    HW114789   1.913   0.164   2.839
 4630SOL    HW214790   1.840   0.180   2.984
 4631SOL     OW14791   2.284   0.274   2.561
 4631SOL    HW114792   2.354   0.296   2.493
 4631SOL    HW214793   2.230   0.355   2.581
 4632SOL     OW14794   4.942   4.918   4.013
 4632SOL    HW114795   4.884   4.854   3.963
 4632SOL    HW214796   4.933   5.009   3.973
 4633SOL     OW14797   6.404   2.214   5.487
 4633SOL    HW114798   6.395   2.138   5.423
 4633SOL    HW214799   6.389   2.182   5.581
 4634SOL     OW14800   2.984   4.527   0.717
 4634SOL    HW114801   2.936   4.439   0.724
 4634SOL    HW214802   3.045   4.537   0.796
 4635SOL     OW14803   5.616   4.128   1.397
 4635SOL    HW114804   5.656   4.049   1.443
 4635SOL    HW214805   5.564   4.098   1.317
 4636SOL     OW14806   2.162   5.565   0.601
 4636SOL    HW114807   2.136   5.469   0.612
 4636SOL    HW214808   2.188   5.602   0.690
 4637SOL     OW14809   1.448   1.037   5.325
 4637SOL    HW114810   1.369   0.988   5.286
 4637SOL    HW214811   1.503   0.973   5.378
 4638SOL     OW14812   5.046   3.618   5.832
 4638SOL    HW114813   4.989   3.539   5.811
 4638SOL    HW214814   5.006   3.700   5.790
 4639SOL     OW14815   6.724   3.632   5.311
 4639SOL    HW114816   6.667   3.694   5.365
 4639SOL    HW214817   6.724   3.661   5.215
 4640SOL     OW14818   5.583   4.181   2.616
 4640SOL    HW114819   5.531   4.102   2.582
 4640SOL    HW214820   5.632   4.224   2.540
 4641SOL     OW14821   2.282   4.553   5.495
 4641SOL    HW114822   2.207   4.505   5.449
 4641SOL    HW214823   2.358   4.490   5.507
 4642SOL     OW14824   5.892   6.003   4.484
 4642SOL    HW114825   5.874   5.980   4.389
 4642SOL    HW214826   5.887   5.920   4.540
 4643SOL     OW14827   3.724   2.799   1.465
 4643SOL    HW114828   3.716   2.752   1.377
 4643SOL    HW214829   3.663   2.878   1.466
 4644SOL     OW14830   2.204   5.225   5.046
 4644SOL    HW114831   2.259   5.189   4.971
 4644SOL    HW214832   2.260   5.229   5.129
 4645SOL     OW14833   1.771   5.811   4.860
 4645SOL    HW114834   1.740   5.738   4.920
 4645SOL    HW214835   1.762   5.899   4.907
 4646SOL     OW14836   3.781   0.417   1.735
 4646SOL    HW114837   3.754   0.349   1.803
 4646SOL    HW214838   3.702   0.443   1.680
 4647SOL     OW14839   6.750   0.127   4.991
 4647SOL    HW114840   6.683   0.101   4.922
 4647SOL    HW214841   6.764   0.051   5.055
 4648SOL     OW14842   2.208   5.312   2.544
 4648SOL    HW114843   2.159   5.294   2.459
 4648SOL    HW214844   2.158   5.271   2.620
 4649SOL     OW14845   5.462   0.132   5.747
 4649SOL    HW114846   5.485   0.223   5.782
 4649SOL    HW214847   5.545   0.081   5.727
 4650SOL     OW14848   6.821   4.842   2.091
 4650SOL    HW114849   6.786   4.928   2.128
 4650SOL    HW214850   6.901   4.860   2.034
 4651SOL     OW14851   0.196   2.107   1.271
 4651SOL    HW114852   0.201   2.009   1.285
 4651SOL    HW214853   0.146   2.149   1.347
 4652SOL     OW14854   0.233   6.148   6.051
 4652SOL    HW114855   0.173   6.183   5.979
 4652SOL    HW214856   0.177   6.110   6.125
 4653SOL     OW14857   0.342   5.805   6.652
 4653SOL    HW114858   0.286   5.723   6.661
 4653SOL    HW214859   0.333   5.842   6.560
 4654SOL     OW14860   1.002   1.235   6.553
 4654SOL    HW114861   0.929   1.168   6.540
 4654SOL    HW214862   1.018   1.249   6.650
 4655SOL     OW14863   0.480   5.006   3.364
 4655SOL    HW114864   0.510   4.961   3.448
 4655SOL    HW214865   0.382   4.990   3.351
 4656SOL     OW14866   1.694   6.744   3.058
 4656SOL    HW114867   1.647   6.702   2.980
 4656SOL    HW214868   1.688   6.684   3.137
 4657SOL     OW14869   5.891   0.173   6.876
 4657SOL    HW114870   5.945   0.244   6.922
 4657SOL    HW214871   5.836   0.216   6.804
 4658SOL     OW14872   5.515   0.804   3.321
 4658SOL    HW114873   5.500   0.705   3.319
 4658SOL    HW214874   5.513   0.836   3.416
 4659SOL     OW14875   2.168   2.460   4.571
 4659SOL    HW114876   2.221   2.480   4.653
 4659SOL    HW214877   2.220   2.399   4.512
 4660SOL     OW14878   6.926   0.630   5.789
 4660SOL    HW114879   7.023   0.624   5.767
 4660SOL    HW214880   6.876   0.554   5.746
 4661SOL     OW14881   4.102   3.505   3.280
 4661SOL    HW114882   4.012   3.481   3.243
 4661SOL    HW214883   4.093   3.580   3.345
 4662SOL     OW14884   4.999   0.486   4.899
 4662SOL    HW114885   4.971   0.561   4.960
 4662SOL    HW214886   5.059   0.424   4.949
 4663SOL     OW14887   0.264   1.955   2.602
 4663SOL    HW114888   0.294   1.885   2.667
 4663SOL    HW214889   0.343   2.006   2.570
 4664SOL     OW14890   3.080   2.570   0.234
 4664SOL    HW114891   3.041   2.579   0.326
 4664SOL    HW214892   3.007   2.581   0.166
 4665SOL     OW14893   5.471   0.516   0.173
 4665SOL    HW114894   5.517   0.589   0.223
 4665SOL    HW214895   5.404   0.473   0.233
 4666SOL     OW14896   1.768   1.183   0.606
 4666SOL    HW114897   1.831   1.145   0.537
 4666SOL    HW214898   1.732   1.108   0.662
 4667SOL     OW14899   0.528   5.304   5.665
 4667SOL    HW114900   0.538   5.347   5.575
 4667SOL    HW214901   0.519   5.374   5.735
 4668SOL     OW14902   5.805   1.721   4.347
 4668SOL    HW114903   5.870   1.745   4.275
 4668SOL    HW214904   5.717   1.698   4.307
 4669SOL     OW14905   2.733   0.229   0.586
 4669SOL    HW114906   2.821   0.232   0.539
 4669SOL    HW214907   2.733   0.154   0.652
 4670SOL     OW14908   2.104   1.344   4.421
 4670SOL    HW114909   2.161   1.390   4.490
 4670SOL    HW214910   2.143   1.255   4.399
 4671SOL     OW14911   5.720   3.412   1.279
 4671SOL    HW114912   5.799   3.390   1.335
 4671SOL    HW214913   5.636   3.387   1.327
 4672SOL     OW14914   2.534   3.685   5.781
 4672SOL    HW114915   2.465   3.719   5.845
 4672SOL    HW214916   2.518   3.588   5.763
 4673SOL     OW14917   3.614   0.470   2.655
 4673SOL    HW114918   3.677   0.526   2.708
 4673SOL    HW214919   3.621   0.492   2.558
 4674SOL     OW14920   4.278   6.394   6.191
 4674SOL    HW114921   4.232   6.464   6.136
 4674SOL    HW214922   4.361   6.433   6.231
 4675SOL     OW14923   1.242   4.093   6.407
 4675SOL    HW114924   1.203   4.007   6.376
 4675SOL    HW214925   1.173   4.145   6.458
 4676SOL     OW14926   1.057   5.310   4.034
 4676SOL    HW114927   0.962   5.328   4.058
 4676SOL    HW214928   1.083   5.219   4.066
 4677SOL     OW14929   1.224   3.582   0.297
 4677SOL    HW114930   1.207   3.644   0.221
 4677SOL    HW214931   1.278   3.628   0.367
 4678SOL     OW14932   2.436   4.473   2.367
 4678SOL    HW114933   2.479   4.548   2.416
 4678SOL    HW214934   2.466   4.472   2.272
 4679SOL     OW14935   4.535   0.009   1.230
 4679SOL    HW114936   4.560   0.062   1.311
 4679SOL    HW214937   4.455   6.981   1.251
 4680SOL     OW14938   1.847   0.805   0.968
 4680SOL    HW114939   1.831   0.821   1.066
 4680SOL    HW214940   1.797   0.723   0.940
 4681SOL     OW14941   4.798   5.314   1.617
 4681SOL    HW114942   4.834   5.374   1.688
 4681SOL    HW214943   4.863   5.311   1.540
 4682SOL     OW14944   3.549   4.030   6.882
 4682SOL    HW114945   3.513   4.056   6.971
 4682SOL    HW214946   3.630   4.084   6.862
 4683SOL     OW14947   6.439   4.915   3.648
 4683SOL    HW114948   6.491   4.836   3.614
 4683SOL    HW214949   6.343   4.905   3.622
 4684SOL     OW14950   5.441   0.053   0.233
 4684SOL    HW114951   5.458   0.132   0.174
 4684SOL    HW214952   5.490   0.065   0.320
 4685SOL     OW14953   3.148   3.824   5.175
 4685SOL    HW114954   3.138   3.735   5.221
 4685SOL    HW214955   3.082   3.830   5.100
 4686SOL     OW14956   3.391   5.450   0.427
 4686SOL    HW114957   3.414   5.445   0.524
 4686SOL    HW214958   3.417   5.365   0.382
 4687SOL     OW14959   3.098   0.802   2.778
 4687SOL    HW114960   3.007   0.821   2.740
 4687SOL    HW214961   3.093   0.724   2.841
 4688SOL     OW14962   5.990   3.198   5.542
 4688SOL    HW114963   5.964   3.277   5.598
 4688SOL    HW214964   5.913   3.134   5.536
 4689SOL     OW14965   5.722   0.909   2.076
 4689SOL    HW114966   5.631   0.912   2.117
 4689SOL    HW214967   5.771   0.829   2.111
 4690SOL     OW14968   2.211   2.350   0.520
 4690SOL    HW114969   2.305   2.317   0.524
 4690SOL    HW214970   2.168   2.338   0.609
 4691SOL     OW14971   6.853   4.255   1.711
 4691SOL    HW114972   6.812   4.205   1.634
 4691SOL    HW214973   6.796   4.334   1.734
 4692SOL     OW14974   5.602   3.341   2.195
 4692SOL    HW114975   5.687   3.294   2.174
 4692SOL    HW214976   5.619   3.439   2.203
 4693SOL     OW14977   1.866   1.200   3.641
 4693SOL    HW114978   1.788   1.169   3.695
 4693SOL    HW214979   1.838   1.274   3.581
 4694SOL     OW14980   2.166   1.007   0.396
 4694SOL    HW114981   2.218   0.999   0.481
 4694SOL    HW214982   2.071   1.032   0.417
 4695SOL     OW14983   1.131   6.220   1.707
 4695SOL    HW114984   1.095   6.250   1.619
 4695SOL    HW214985   1.227   6.245   1.714
 4696SOL     OW14986   2.009   5.501   5.931
 4696SOL    HW114987   2.052   5.506   5.841
 4696SOL    HW214988   1.979   5.593   5.958
 4697SOL     OW14989   4.031   4.923   1.232
 4697SOL    HW114990   3.938   4.940   1.199
 4697SOL    HW214991   4.040   4.956   1.326
 4698SOL     OW14992   5.451   1.264   3.685
 4698SOL    HW114993   5.373   1.221   3.730
 4698SOL    HW214994   5.534   1.246   3.738
 4699SOL     OW14995   1.440   0.070   2.675
 4699SOL    HW114996   1.381   0.020   2.738
 4699SOL    HW214997   1.533   0.034   2.681
 4700SOL     OW14998   6.222   2.439   2.242
 4700SOL    HW114999   6.198   2.385   2.322
 4700SOL    HW215000   6.154   2.425   2.170
 4701SOL     OW15001   3.098   2.272   1.746
 4701SOL    HW115002   3.028   2.309   1.807
 4701SOL    HW215003   3.161   2.215   1.798
 4702SOL     OW15004   5.434   4.804   6.572
 4702SOL    HW115005   5.414   4.828   6.666
 4702SOL    HW215006   5.507   4.735   6.570
 4703SOL     OW15007   0.737   5.087   3.483
 4703SOL    HW115008   0.642   5.062   3.502
 4703SOL    HW215009   0.798   5.023   3.528
 4704SOL     OW15010   1.286   5.112   5.152
 4704SOL    HW115011   1.333   5.041   5.204
 4704SOL    HW215012   1.190   5.087   5.140
 4705SOL     OW15013   3.467   2.233   1.741
 4705SOL    HW115014   3.543   2.269   1.795
 4705SOL    HW215015   3.401   2.189   1.802
 4706SOL     OW15016   2.454   1.252   0.684
 4706SOL    HW115017   2.481   1.317   0.613
 4706SOL    HW215018   2.417   1.301   0.762
 4707SOL     OW15019   1.587   6.373   1.675
 4707SOL    HW115020   1.519   6.437   1.712
 4707SOL    HW215021   1.668   6.374   1.733
 4708SOL     OW15022   1.084   2.675   4.605
 4708SOL    HW115023   1.123   2.627   4.683
 4708SOL    HW215024   1.091   2.617   4.523
 4709SOL     OW15025   5.046   3.744   5.084
 4709SOL    HW115026   4.961   3.697   5.063
 4709SOL    HW215027   5.042   3.838   5.049
 4710SOL     OW15028   6.651   6.212   4.843
 4710SOL    HW115029   6.623   6.294   4.792
 4710SOL    HW215030   6.665   6.136   4.778
 4711SOL     OW15031   5.363   3.669   3.072
 4711SOL    HW115032   5.270   3.646   3.044
 4711SOL    HW215033   5.409   3.586   3.103
 4712SOL     OW15034   4.979   4.251   5.400
 4712SOL    HW115035   4.994   4.322   5.332
 4712SOL    HW215036   5.047   4.179   5.388
 4713SOL     OW15037   6.309   4.412   1.081
 4713SOL    HW115038   6.364   4.332   1.105
 4713SOL    HW215039   6.357   4.495   1.107
 4714SOL     OW15040   5.189   1.450   6.420
 4714SOL    HW115041   5.212   1.449   6.517
 4714SOL    HW215042   5.099   1.492   6.407
 4715SOL     OW15043   6.304   1.160   2.377
 4715SOL    HW115044   6.346   1.086   2.429
 4715SOL    HW215045   6.204   1.153   2.384
 4716SOL     OW15046   4.061   4.543   6.219
 4716SOL    HW115047   4.072   4.517   6.123
 4716SOL    HW215048   4.099   4.634   6.232
 4717SOL     OW15049   2.744   5.040   5.813
 4717SOL    HW115050   2.685   5.119   5.798
 4717SOL    HW215051   2.712   4.963   5.757
 4718SOL     OW15052   5.099   4.151   0.829
 4718SOL    HW115053   5.017   4.142   0.886
 4718SOL    HW215054   5.097   4.083   0.756
 4719SOL     OW15055   6.954   3.985   3.823
 4719SOL    HW115056   6.957   3.951   3.729
 4719SOL    HW215057   0.011   3.960   3.870
 4720SOL     OW15058   2.223   3.741   0.063
 4720SOL    HW115059   2.147   3.738   7.028
 4720SOL    HW215060   2.308   3.757   0.013
 4721SOL     OW15061   6.146   2.996   3.042
 4721SOL    HW115062   6.172   3.079   2.993
 4721SOL    HW215063   6.056   2.966   3.010
 4722SOL     OW15064   1.375   4.957   0.197
 4722SOL    HW115065   1.368   5.009   0.112
 4722SOL    HW215066   1.312   4.996   0.265
 4723SOL     OW15067   4.016   3.915   6.989
 4723SOL    HW115068   3.965   3.955   0.037
 4723SOL    HW215069   4.036   3.819   7.010
 4724SOL     OW15070   0.724   6.275   4.768
 4724SOL    HW115071   0.642   6.232   4.805
 4724SOL    HW215072   0.761   6.340   4.835
 4725SOL     OW15073   5.039   5.762   0.681
 4725SOL    HW115074   5.058   5.733   0.587
 4725SOL    HW215075   5.099   5.838   0.706
 4726SOL     OW15076   1.123   3.420   5.565
 4726SOL    HW115077   1.168   3.340   5.525
 4726SOL    HW215078   1.146   3.501   5.511
 4727SOL     OW15079   0.321   5.451   1.231
 4727SOL    HW115080   0.301   5.355   1.214
 4727SOL    HW215081   0.368   5.461   1.318
 4728SOL     OW15082   6.612   1.945   4.701
 4728SOL    HW115083   6.650   1.884   4.632
 4728SOL    HW215084   6.557   1.893   4.766
 4729SOL     OW15085   5.692   1.459   1.801
 4729SOL    HW115086   5.727   1.375   1.759
 4729SOL    HW215087   5.682   1.445   1.900
 4730SOL     OW15088   2.867   0.004   4.622
 4730SOL    HW115089   2.964   7.018   4.640
 4730SOL    HW215090   2.815   7.019   4.706
 4731SOL     OW15091   3.276   6.531   0.185
 4731SOL    HW115092   3.332   6.562   0.108
 4731SOL    HW215093   3.312   6.571   0.269
 4732SOL     OW15094   0.688   4.957   4.597
 4732SOL    HW115095   0.669   5.004   4.683
 4732SOL    HW215096   0.604   4.951   4.542
 4733SOL     OW15097   1.651   3.439   3.370
 4733SOL    HW115098   1.568   3.384   3.364
 4733SOL    HW215099   1.725   3.394   3.321
 4734SOL     OW15100   4.560   3.309   6.999
 4734SOL    HW115101   4.564   3.404   0.001
 4734SOL    HW215102   4.500   3.256   0.031
 4735SOL     OW15103   6.940   0.254   5.122
 4735SOL    HW115104   6.962   0.218   5.212
 4735SOL    HW215105   6.885   0.187   5.071
 4736SOL     OW15106   6.641   2.045   3.903
 4736SOL    HW115107   6.579   2.088   3.968
 4736SOL    HW215108   6.656   2.106   3.825
 4737SOL     OW15109   2.256   4.923   0.479
 4737SOL    HW115110   2.184   4.870   0.523
 4737SOL    HW215111   2.220   5.014   0.455
 4738SOL     OW15112   2.001   6.662   3.863
 4738SOL    HW115113   2.081   6.606   3.885
 4738SOL    HW215114   2.029   6.742   3.810
 4739SOL     OW15115   5.642   3.188   3.420
 4739SOL    HW115116   5.734   3.226   3.407
 4739SOL    HW215117   5.634   3.151   3.512
 4740SOL     OW15118   1.013   0.882   2.020
 4740SOL    HW115119   0.940   0.816   2.035
 4740SOL    HW215120   0.989   0.942   1.943
 4741SOL     OW15121   4.260   4.487   1.763
 4741SOL    HW115122   4.293   4.393   1.756
 4741SOL    HW215123   4.335   4.547   1.791
 4742SOL     OW15124   2.542   6.235   2.245
 4742SOL    HW115125   2.598   6.180   2.308
 4742SOL    HW215126   2.513   6.318   2.292
 4743SOL     OW15127   2.388   2.596   0.160
 4743SOL    HW115128   2.444   2.612   0.241
 4743SOL    HW215129   2.315   2.664   0.156
 4744SOL     OW15130   1.765   2.956   5.470
 4744SOL    HW115131   1.698   3.026   5.495
 4744SOL    HW215132   1.848   3.000   5.435
 4745SOL     OW15133   3.020   5.767   4.936
 4745SOL    HW115134   3.035   5.725   5.026
 4745SOL    HW215135   3.105   5.770   4.885
 4746SOL     OW15136   6.397   0.648   0.336
 4746SOL    HW115137   6.378   0.653   0.238
 4746SOL    HW215138   6.488   0.608   0.351
 4747SOL     OW15139   6.110   2.665   1.642
 4747SOL    HW115140   6.049   2.627   1.572
 4747SOL    HW215141   6.143   2.755   1.611
 4748SOL     OW15142   1.471   0.731   1.243
 4748SOL    HW115143   1.398   0.743   1.310
 4748SOL    HW215144   1.490   0.634   1.231
 4749SOL     OW15145   1.494   0.030   6.571
 4749SOL    HW115146   1.492   6.979   6.510
 4749SOL    HW215147   1.487   0.000   6.666
 4750SOL     OW15148   0.114   1.226   4.504
 4750SOL    HW115149   0.102   1.127   4.510
 4750SOL    HW215150   0.116   1.265   4.597
 4751SOL     OW15151   1.107   3.770   6.654
 4751SOL    HW115152   1.034   3.737   6.714
 4751SOL    HW215153   1.069   3.790   6.564
 4752SOL     OW15154   2.763   5.880   1.808
 4752SOL    HW115155   2.698   5.954   1.790
 4752SOL    HW215156   2.764   5.859   1.906
 4753SOL     OW15157   6.977   6.920   4.927
 4753SOL    HW115158   6.957   6.968   4.841
 4753SOL    HW215159   0.046   6.930   4.949
 4754SOL     OW15160   0.420   0.093   5.755
 4754SOL    HW115161   0.459   0.182   5.730
 4754SOL    HW215162   0.464   0.059   5.838
 4755SOL     OW15163   2.442   2.223   0.167
 4755SOL    HW115164   2.409   2.152   0.229
 4755SOL    HW215165   2.413   2.202   0.073
 4756SOL     OW15166   5.343   2.792   1.125
 4756SOL    HW115167   5.303   2.810   1.215
 4756SOL    HW215168   5.400   2.869   1.097
 4757SOL     OW15169   2.168   2.032   0.939
 4757SOL    HW115170   2.138   2.024   1.035
 4757SOL    HW215171   2.251   1.977   0.926
 4758SOL     OW15172   5.126   4.595   5.337
 4758SOL    HW115173   5.211   4.599   5.284
 4758SOL    HW215174   5.147   4.576   5.433
 4759SOL     OW15175   5.894   5.048   5.360
 4759SOL    HW115176   5.904   4.958   5.317
 4759SOL    HW215177   5.954   5.114   5.314
 4760SOL     OW15178   1.258   2.054   0.742
 4760SOL    HW115179   1.251   2.144   0.786
 4760SOL    HW215180   1.316   2.061   0.661
 4761SOL     OW15181   0.793   6.286   5.867
 4761SOL    HW115182   0.850   6.207   5.889
 4761SOL    HW215183   0.845   6.350   5.810
 4762SOL     OW15184   3.044   6.294   2.461
 4762SOL    HW115185   3.144   6.287   2.466
 4762SOL    HW215186   3.015   6.377   2.509
 4763SOL     OW15187   5.506   5.523   4.455
 4763SOL    HW115188   5.544   5.611   4.484
 4763SOL    HW215189   5.537   5.502   4.362
 4764SOL     OW15190   3.919   3.380   4.383
 4764SOL    HW115191   3.999   3.431   4.413
 4764SOL    HW215192   3.947   3.292   4.345
 4765SOL     OW15193   6.159   5.232   4.958
 4765SOL    HW115194   6.193   5.211   5.050
 4765SOL    HW215195   6.178   5.328   4.937
 4766SOL     OW15196   3.077   0.603   2.947
 4766SOL    HW115197   3.008   0.553   2.895
 4766SOL    HW215198   3.108   0.547   3.024
 4767SOL     OW15199   4.350   5.582   6.367
 4767SOL    HW115200   4.352   5.644   6.288
 4767SOL    HW215201   4.296   5.624   6.440
 4768SOL     OW15202   0.267   0.689   5.187
 4768SOL    HW115203   0.193   0.653   5.130
 4768SOL    HW215204   0.315   0.613   5.230
 4769SOL     OW15205   3.425   6.907   1.333
 4769SOL    HW115206   3.487   6.868   1.265
 4769SOL    HW215207   3.393   6.834   1.394
 4770SOL     OW15208   2.556   0.003   3.740
 4770SOL    HW115209   2.648   6.994   3.733
 4770SOL    HW215210   2.511   0.000   3.651
 4771SOL     OW15211   4.125   4.121   5.758
 4771SOL    HW115212   4.053   4.184   5.731
 4771SOL    HW215213   4.158   4.071   5.678
 4772SOL     OW15214   2.308   2.463   1.378
 4772SOL    HW115215   2.382   2.510   1.330
 4772SOL    HW215216   2.238   2.529   1.405
 4773SOL     OW15217   6.483   6.208   3.947
 4773SOL    HW115218   6.457   6.273   4.019
 4773SOL    HW215219   6.509   6.258   3.864
 4774SOL     OW15220   0.822   4.317   1.061
 4774SOL    HW115221   0.920   4.306   1.044
 4774SOL    HW215222   0.808   4.369   1.145
 4775SOL     OW15223   3.287   0.923   1.714
 4775SOL    HW115224   3.281   0.966   1.804
 4775SOL    HW215225   3.374   0.947   1.672
 4776SOL     OW15226   3.492   5.582   1.749
 4776SOL    HW115227   3.452   5.570   1.659
 4776SOL    HW215228   3.591   5.571   1.743
 4777SOL     OW15229   2.897   4.275   1.469
 4777SOL    HW115230   2.870   4.336   1.394
 4777SOL    HW215231   2.816   4.249   1.521
 4778SOL     OW15232   4.901   3.724   1.927
 4778SOL    HW115233   4.859   3.806   1.966
 4778SOL    HW215234   4.971   3.751   1.862
 4779SOL     OW15235   5.088   0.533   2.842
 4779SOL    HW115236   5.179   0.532   2.803
 4779SOL    HW215237   5.090   0.493   2.934
 4780SOL     OW15238   1.814   6.489   6.119
 4780SOL    HW115239   1.846   6.431   6.044
 4780SOL    HW215240   1.829   6.585   6.096
 4781SOL     OW15241   2.018   5.598   2.422
 4781SOL    HW115242   2.077   5.646   2.486
 4781SOL    HW215243   1.922   5.613   2.448
 4782SOL     OW15244   5.705   5.892   6.482
 4782SOL    HW115245   5.608   5.915   6.473
 4782SOL    HW215246   5.760   5.959   6.433
 4783SOL     OW15247   6.208   4.609   1.368
 4783SOL    HW115248   6.197   4.526   1.314
 4783SOL    HW215249   6.136   4.674   1.344
 4784SOL     OW15250   5.772   4.639   4.911
 4784SOL    HW115251   5.810   4.559   4.863
 4784SOL    HW215252   5.688   4.612   4.958
 4785SOL     OW15253   6.365   0.718   0.592
 4785SOL    HW115254   6.416   0.648   0.644
 4785SOL    HW215255   6.378   0.702   0.494
 4786SOL     OW15256   1.723   3.133   2.119
 4786SOL    HW115257   1.767   3.164   2.203
 4786SOL    HW215258   1.625   3.118   2.136
 4787SOL     OW15259   3.760   1.995   2.334
 4787SOL    HW115260   3.814   1.937   2.395
 4787SOL    HW215261   3.819   2.067   2.297
 4788SOL     OW15262   1.294   5.310   4.224
 4788SOL    HW115263   1.236   5.231   4.245
 4788SOL    HW215264   1.320   5.308   4.128
 4789SOL     OW15265   6.190   0.583   0.885
 4789SOL    HW115266   6.165   0.508   0.824
 4789SOL    HW215267   6.189   0.669   0.833
 4790SOL     OW15268   5.003   1.233   6.832
 4790SOL    HW115269   5.032   1.159   6.892
 4790SOL    HW215270   4.944   1.297   6.882
 4791SOL     OW15271   4.684   6.797   2.678
 4791SOL    HW115272   4.596   6.759   2.653
 4791SOL    HW215273   4.686   6.895   2.657
 4792SOL     OW15274   2.386   2.412   1.814
 4792SOL    HW115275   2.380   2.337   1.880
 4792SOL    HW215276   2.351   2.382   1.726
 4793SOL     OW15277   1.258   6.673   6.011
 4793SOL    HW115278   1.233   6.663   5.914
 4793SOL    HW215279   1.178   6.659   6.068
 4794SOL     OW15280   3.374   0.742   1.945
 4794SOL    HW115281   3.333   0.809   1.883
 4794SOL    HW215282   3.350   0.766   2.040
 4795SOL     OW15283   6.276   3.480   4.160
 4795SOL    HW115284   6.238   3.403   4.211
 4795SOL    HW215285   6.365   3.504   4.198
 4796SOL     OW15286   6.096   3.888   1.289
 4796SOL    HW115287   6.111   3.813   1.354
 4796SOL    HW215288   6.108   3.853   1.196
 4797SOL     OW15289   0.505   5.006   5.169
 4797SOL    HW115290   0.420   5.055   5.153
 4797SOL    HW215291   0.506   4.922   5.115
 4798SOL     OW15292   6.803   3.807   4.725
 4798SOL    HW115293   6.892   3.818   4.680
 4798SOL    HW215294   6.746   3.745   4.671
 4799SOL     OW15295   3.634   1.475   4.756
 4799SOL    HW115296   3.604   1.529   4.834
 4799SOL    HW215297   3.622   1.378   4.775
 4800SOL     OW15298   1.965   1.601   4.543
 4800SOL    HW115299   1.952   1.632   4.449
 4800SOL    HW215300   1.891   1.539   4.569
 4801SOL     OW15301   0.992   3.087   0.743
 4801SOL    HW115302   0.927   3.066   0.670
 4801SOL    HW215303   0.991   3.013   0.811
 4802SOL     OW15304   2.704   0.484   2.338
 4802SOL    HW115305   2.668   0.528   2.255
 4802SOL    HW215306   2.799   0.458   2.323
 4803SOL     OW15307   1.075   6.866   0.491
 4803SOL    HW115308   1.130   6.853   0.574
 4803SOL    HW215309   1.011   6.942   0.506
 4804SOL     OW15310   4.169   5.343   6.998
 4804SOL    HW115311   4.259   5.327   6.956
 4804SOL    HW215312   4.102   5.363   6.927
 4805SOL     OW15313   0.864   2.079   0.956
 4805SOL    HW115314   0.766   2.097   0.952
 4805SOL    HW215315   0.892   2.069   1.052
 4806SOL     OW15316   0.874   2.469   2.888
 4806SOL    HW115317   0.801   2.538   2.878
 4806SOL    HW215318   0.875   2.410   2.807
 4807SOL     OW15319   6.934   6.356   0.923
 4807SOL    HW115320   6.881   6.439   0.943
 4807SOL    HW215321   7.000   6.375   0.850
 4808SOL     OW15322   4.816   3.085   1.192
 4808SOL    HW115323   4.787   3.158   1.254
 4808SOL    HW215324   4.750   3.010   1.194
 4809SOL     OW15325   4.067   6.021   0.065
 4809SOL    HW115326   4.154   6.071   0.068
 4809SOL    HW215327   3.991   6.087   0.063
 4810SOL     OW15328   0.835   0.392   1.379
 4810SOL    HW115329   0.760   0.358   1.322
 4810SOL    HW215330   0.800   0.463   1.441
 4811SOL     OW15331   4.641   6.213   2.775
 4811SOL    HW115332   4.609   6.302   2.807
 4811SOL    HW215333   4.651   6.215   2.676
 4812SOL     OW15334   6.715   5.531   4.506
 4812SOL    HW115335   6.631   5.478   4.496
 4812SOL    HW215336   6.763   5.502   4.589
 4813SOL     OW15337   5.904   2.886   2.888
 4813SOL    HW115338   5.842   2.852   2.817
 4813SOL    HW215339   5.851   2.924   2.963
 4814SOL     OW15340   0.080   3.116   1.913
 4814SOL    HW115341   0.130   3.191   1.869
 4814SOL    HW215342   0.004   3.154   1.967
 4815SOL     OW15343   4.135   6.297   1.904
 4815SOL    HW115344   4.178   6.255   1.983
 4815SOL    HW215345   4.188   6.376   1.874
 4816SOL     OW15346   5.410   5.315   3.201
 4816SOL    HW115347   5.494   5.337   3.151
 4816SOL    HW215348   5.339   5.381   3.178
 4817SOL     OW15349   6.952   1.289   6.633
 4817SOL    HW115350   6.936   1.278   6.535
 4817SOL    HW215351   7.019   1.222   6.664
 4818SOL     OW15352   0.906   0.120   4.443
 4818SOL    HW115353   0.972   0.169   4.386
 4818SOL    HW215354   0.862   0.048   4.389
 4819SOL     OW15355   1.763   3.044   0.556
 4819SOL    HW115356   1.793   2.949   0.559
 4819SOL    HW215357   1.728   3.071   0.645
 4820SOL     OW15358   0.358   3.109   2.355
 4820SOL    HW115359   0.410   3.193   2.373
 4820SOL    HW215360   0.301   3.088   2.435
 4821SOL     OW15361   0.208   5.703   2.921
 4821SOL    HW115362   0.142   5.716   2.847
 4821SOL    HW215363   0.265   5.784   2.929
 4822SOL     OW15364   1.913   4.146   4.492
 4822SOL    HW115365   1.998   4.105   4.523
 4822SOL    HW215366   1.858   4.078   4.443
 4823SOL     OW15367   1.789   3.217   1.388
 4823SOL    HW115368   1.858   3.262   1.444
 4823SOL    HW215369   1.719   3.284   1.362
 4824SOL     OW15370   6.184   1.114   6.197
 4824SOL    HW115371   6.206   1.212   6.202
 4824SOL    HW215372   6.172   1.088   6.101
 4825SOL     OW15373   1.930   6.837   4.111
 4825SOL    HW115374   1.951   6.769   4.040
 4825SOL    HW215375   1.994   6.827   4.187
 4826SOL     OW15376   3.842   0.687   1.655
 4826SOL    HW115377   3.764   0.747   1.675
 4826SOL    HW215378   3.811   0.592   1.657
 4827SOL     OW15379   6.974   2.278   0.747
 4827SOL    HW115380   6.881   2.266   0.712
 4827SOL    HW215381   6.973   2.272   0.847
 4828SOL     OW15382   4.812   0.921   4.363
 4828SOL    HW115383   4.838   0.905   4.458
 4828SOL    HW215384   4.830   1.017   4.340
 4829SOL     OW15385   4.434   6.787   4.746
 4829SOL    HW115386   4.491   6.831   4.677
 4829SOL    HW215387   4.340   6.780   4.712
 4830SOL     OW15388   3.058   6.212   2.970
 4830SOL    HW115389   3.019   6.231   3.060
 4830SOL    HW215390   3.004   6.259   2.900
 4831SOL     OW15391   3.133   4.551   5.371
 4831SOL    HW115392   3.039   4.527   5.348
 4831SOL    HW215393   3.142   4.651   5.377
 4832SOL     OW15394   3.405   3.864   4.343
 4832SOL    HW115395   3.477   3.890   4.279
 4832SOL    HW215396   3.442   3.856   4.435
 4833SOL     OW15397   6.525   3.534   4.262
 4833SOL    HW115398   6.570   3.623   4.254
 4833SOL    HW215399   6.528   3.504   4.358
 4834SOL     OW15400   0.926   5.122   1.497
 4834SOL    HW115401   0.925   5.222   1.495
 4834SOL    HW215402   0.937   5.090   1.591
 4835SOL     OW15403   6.904   2.586   5.558
 4835SOL    HW115404   6.845   2.604   5.637
 4835SOL    HW215405   6.863   2.513   5.502
 4836SOL     OW15406   5.029   1.274   5.646
 4836SOL    HW115407   5.025   1.362   5.693
 4836SOL    HW215408   4.991   1.202   5.705
 4837SOL     OW15409   0.199   3.902   3.943
 4837SOL    HW115410   0.269   3.831   3.931
 4837SOL    HW215411   0.239   3.991   3.922
 4838SOL     OW15412   2.859   3.737   6.132
 4838SOL    HW115413   2.907   3.789   6.061
 4838SOL    HW215414   2.823   3.800   6.201
 4839SOL     OW15415   2.725   1.478   0.951
 4839SOL    HW115416   2.676   1.482   1.038
 4839SOL    HW215417   2.753   1.384   0.932
 4840SOL     OW15418   6.048   4.144   3.982
 4840SOL    HW115419   6.119   4.209   4.009
 4840SOL    HW215420   6.089   4.054   3.967
 4841SOL     OW15421   3.340   6.175   3.212
 4841SOL    HW115422   3.352   6.117   3.131
 4841SOL    HW215423   3.269   6.137   3.271
 4842SOL     OW15424   3.536   5.579   2.960
 4842SOL    HW115425   3.493   5.573   3.050
 4842SOL    HW215426   3.465   5.582   2.889
 4843SOL     OW15427   0.155   2.180   0.591
 4843SOL    HW115428   0.093   2.220   0.658
 4843SOL    HW215429   0.224   2.248   0.566
 4844SOL     OW15430   2.121   5.404   5.489
 4844SOL    HW115431   2.067   5.447   5.562
 4844SOL    HW215432   2.112   5.458   5.406
 4845SOL     OW15433   4.909   3.777   4.785
 4845SOL    HW115434   4.840   3.773   4.713
 4845SOL    HW215435   4.883   3.715   4.860
 4846SOL     OW15436   6.621   3.656   4.570
 4846SOL    HW115437   6.635   3.696   4.479
 4846SOL    HW215438   6.593   3.561   4.561
 4847SOL     OW15439   2.769   6.261   5.956
 4847SOL    HW115440   2.843   6.310   6.001
 4847SOL    HW215441   2.681   6.302   5.983
 4848SOL     OW15442   3.589   0.828   4.155
 4848SOL    HW115443   3.614   0.836   4.058
 4848SOL    HW215444   3.672   0.815   4.210
 4849SOL     OW15445   2.330   6.552   1.417
 4849SOL    HW115446   2.377   6.624   1.468
 4849SOL    HW215447   2.247   6.525   1.466
 4850SOL     OW15448   4.031   6.964   0.805
 4850SOL    HW115449   4.054   6.919   0.891
 4850SOL    HW215450   3.934   6.951   0.785
 4851SOL     OW15451   3.687   4.511   6.422
 4851SOL    HW115452   3.600   4.481   6.383
 4851SOL    HW215453   3.762   4.481   6.363
 4852SOL     OW15454   5.657   5.043   5.165
 4852SOL    HW115455   5.634   5.080   5.254
 4852SOL    HW215456   5.590   5.074   5.097
 4853SOL     OW15457   4.068   6.938   2.469
 4853SOL    HW115458   4.010   6.861   2.444
 4853SOL    HW215459   4.125   6.964   2.391
 4854SOL     OW15460   4.926   6.773   1.659
 4854SOL    HW115461   4.945   6.834   1.736
 4854SOL    HW215462   5.007   6.766   1.601
 4855SOL     OW15463   5.171   4.689   5.880
 4855SOL    HW115464   5.229   4.690   5.961
 4855SOL    HW215465   5.222   4.727   5.802
 4856SOL     OW15466   0.744   3.613   2.551
 4856SOL    HW115467   0.715   3.522   2.580
 4856SOL    HW215468   0.666   3.676   2.557
 4857SOL     OW15469   2.421   2.523   5.339
 4857SOL    HW115470   2.432   2.596   5.272
 4857SOL    HW215471   2.501   2.520   5.399
 4858SOL     OW15472   1.012   6.131   5.024
 4858SOL    HW115473   1.097   6.078   5.024
 4858SOL    HW215474   1.033   6.228   5.035
 4859SOL     OW15475   0.069   6.396   2.699
 4859SOL    HW115476   0.146   6.332   2.699
 4859SOL    HW215477   0.053   6.429   2.605
 4860SOL     OW15478   4.406   5.209   1.344
 4860SOL    HW115479   4.392   5.242   1.437
 4860SOL    HW215480   4.432   5.112   1.346
 4861SOL     OW15481   0.371   3.898   6.052
 4861SOL    HW115482   0.392   3.822   6.112
 4861SOL    HW215483   0.425   3.891   5.968
 4862SOL     OW15484   2.516   5.713   5.098
 4862SOL    HW115485   2.467   5.631   5.067
 4862SOL    HW215486   2.605   5.717   5.053
 4863SOL     OW15487   4.715   2.297   2.876
 4863SOL    HW115488   4.738   2.221   2.815
 4863SOL    HW215489   4.675   2.371   2.821
 4864SOL     OW15490   1.525   1.323   0.978
 4864SOL    HW115491   1.611   1.341   1.027
 4864SOL    HW215492   1.479   1.244   1.018
 4865SOL     OW15493   4.006   5.950   5.408
 4865SOL    HW115494   3.928   5.925   5.465
 4865SOL    HW215495   4.069   5.873   5.401
 4866SOL     OW15496   0.299   4.495   2.107
 4866SOL    HW115497   0.315   4.446   2.193
 4866SOL    HW215498   0.292   4.593   2.126
 4867SOL     OW15499   5.001   5.333   3.643
 4867SOL    HW115500   5.078   5.392   3.616
 4867SOL    HW215501   4.938   5.324   3.567
 4868SOL     OW15502   1.437   6.550   1.801
 4868SOL    HW115503   1.360   6.539   1.864
 4868SOL    HW215504   1.515   6.588   1.850
 4869SOL     OW15505   6.114   1.464   1.266
 4869SOL    HW115506   6.174   1.497   1.193
 4869SOL    HW215507   6.020   1.457   1.231
 4870SOL     OW15508   6.671   0.406   0.945
 4870SOL    HW115509   6.682   0.400   0.846
 4870SOL    HW215510   6.723   0.332   0.989
 4871SOL     OW15511   1.241   3.242   4.184
 4871SOL    HW115512   1.246   3.317   4.118
 4871SOL    HW215513   1.291   3.163   4.148
 4872SOL     OW15514   0.897   0.349   3.823
 4872SOL    HW115515   0.995   0.367   3.833
 4872SOL    HW215516   0.849   0.435   3.807
 4873SOL     OW15517   1.246   5.947   4.975
 4873SOL    HW115518   1.276   5.911   5.064
 4873SOL    HW215519   1.276   5.884   4.902
 4874SOL     OW15520   5.256   3.132   3.706
 4874SOL    HW115521   5.198   3.100   3.631
 4874SOL    HW215522   5.257   3.063   3.779
 4875SOL     OW15523   6.274   2.644   6.701
 4875SOL    HW115524   6.298   2.694   6.785
 4875SOL    HW215525   6.199   2.691   6.655
 4876SOL     OW15526   0.208   1.413   6.877
 4876SOL    HW115527   0.216   1.442   6.973
 4876SOL    HW215528   0.278   1.460   6.823
 4877SOL     OW15529   6.537   1.803   0.804
 4877SOL    HW115530   6.522   1.798   0.902
 4877SOL    HW215531   6.623   1.757   0.781
 4878SOL     OW15532   6.592   2.354   1.516
 4878SOL    HW115533   6.581   2.415   1.594
 4878SOL    HW215534   6.602   2.260   1.548
 4879SOL     OW15535   4.411   6.191   3.194
 4879SOL    HW115536   4.316   6.181   3.163
 4879SOL    HW215537   4.463   6.243   3.127
 4880SOL     OW15538   6.043   2.225   6.143
 4880SOL    HW115539   5.977   2.154   6.165
 4880SOL    HW215540   6.135   2.195   6.171
 4881SOL     OW15541   2.882   5.460   6.594
 4881SOL    HW115542   2.896   5.527   6.666
 4881SOL    HW215543   2.798   5.408   6.612
 4882SOL     OW15544   4.793   0.471   6.312
 4882SOL    HW115545   4.884   0.429   6.311
 4882SOL    HW215546   4.756   0.474   6.219
 4883SOL     OW15547   6.031   5.738   0.515
 4883SOL    HW115548   6.105   5.805   0.510
 4883SOL    HW215549   6.042   5.683   0.597
 4884SOL     OW15550   3.580   6.548   2.088
 4884SOL    HW115551   3.549   6.467   2.040
 4884SOL    HW215552   3.501   6.598   2.124
 4885SOL     OW15553   2.094   6.748   2.781
 4885SOL    HW115554   2.104   6.653   2.810
 4885SOL    HW215555   2.025   6.792   2.838
 4886SOL     OW15556   6.328   0.548   6.039
 4886SOL    HW115557   6.281   0.579   6.121
 4886SOL    HW215558   6.314   0.614   5.965
 4887SOL     OW15559   0.313   2.078   5.358
 4887SOL    HW115560   0.366   2.145   5.306
 4887SOL    HW215561   0.216   2.086   5.335
 4888SOL     OW15562   3.285   5.330   1.651
 4888SOL    HW115563   3.261   5.407   1.710
 4888SOL    HW215564   3.304   5.363   1.559
 4889SOL     OW15565   1.482   2.863   6.484
 4889SOL    HW115566   1.509   2.813   6.566
 4889SOL    HW215567   1.521   2.955   6.487
 4890SOL     OW15568   1.176   0.284   4.616
 4890SOL    HW115569   1.226   0.211   4.570
 4890SOL    HW215570   1.111   0.244   4.681
 4891SOL     OW15571   1.382   3.990   0.769
 4891SOL    HW115572   1.390   4.085   0.798
 4891SOL    HW215573   1.411   3.930   0.844
 4892SOL     OW15574   1.978   5.659   1.424
 4892SOL    HW115575   2.019   5.743   1.388
 4892SOL    HW215576   1.925   5.614   1.351
 4893SOL     OW15577   0.976   3.405   6.343
 4893SOL    HW115578   1.019   3.324   6.304
 4893SOL    HW215579   0.965   3.475   6.272
 4894SOL     OW15580   1.795   1.390   3.458
 4894SOL    HW115581   1.777   1.418   3.364
 4894SOL    HW215582   1.747   1.451   3.522
 4895SOL     OW15583   5.740   4.055   6.914
 4895SOL    HW115584   5.830   4.051   6.957
 4895SOL    HW215585   5.675   4.100   6.975
 4896SOL     OW15586   4.588   5.840   3.369
 4896SOL    HW115587   4.584   5.877   3.276
 4896SOL    HW215588   4.505   5.789   3.388
 4897SOL     OW15589   2.628   5.750   5.759
 4897SOL    HW115590   2.571   5.756   5.677
 4897SOL    HW215591   2.571   5.746   5.840
 4898SOL     OW15592   5.911   2.245   5.199
 4898SOL    HW115593   6.005   2.261   5.229
 4898SOL    HW215594   5.909   2.241   5.099
 4899SOL     OW15595   5.385   4.078   4.561
 4899SOL    HW115596   5.286   4.085   4.577
 4899SOL    HW215597   5.434   4.129   4.631
 4900SOL     OW15598   1.175   6.745   5.066
 4900SOL    HW115599   1.231   6.764   5.147
 4900SOL    HW215600   1.086   6.789   5.076
 4901SOL     OW15601   0.856   6.544   3.146
 4901SOL    HW115602   0.895   6.547   3.054
 4901SOL    HW215603   0.804   6.628   3.163
 4902SOL     OW15604   3.036   4.729   1.780
 4902SOL    HW115605   3.115   4.696   1.728
 4902SOL    HW215606   2.964   4.660   1.779
 4903SOL     OW15607   5.371   5.928   5.951
 4903SOL    HW115608   5.365   6.026   5.966
 4903SOL    HW215609   5.290   5.896   5.902
 4904SOL     OW15610   3.522   6.057   3.388
 4904SOL    HW115611   3.487   5.979   3.439
 4904SOL    HW215612   3.446   6.109   3.350
 4905SOL     OW15613   6.297   3.363   3.288
 4905SOL    HW115614   6.280   3.266   3.309
 4905SOL    HW215615   6.308   3.374   3.189
 4906SOL     OW15616   5.320   0.781   1.517
 4906SOL    HW115617   5.306   0.683   1.532
 4906SOL    HW215618   5.296   0.805   1.423
 4907SOL     OW15619   2.354   1.589   2.235
 4907SOL    HW115620   2.393   1.531   2.164
 4907SOL    HW215621   2.412   1.585   2.317
 4908SOL     OW15622   3.233   5.875   6.712
 4908SOL    HW115623   3.313   5.932   6.698
 4908SOL    HW215624   3.160   5.930   6.754
 4909SOL     OW15625   6.066   6.912   5.661
 4909SOL    HW115626   6.095   6.985   5.600
 4909SOL    HW215627   6.127   6.834   5.652
 4910SOL     OW15628   6.245   0.321   6.284
 4910SOL    HW115629   6.223   0.261   6.207
 4910SOL    HW215630   6.217   0.414   6.263
 4911SOL     OW15631   0.519   2.966   5.962
 4911SOL    HW115632   0.595   3.030   5.958
 4911SOL    HW215633   0.489   2.955   6.056
 4912SOL     OW15634   2.690   2.346   2.160
 4912SOL    HW115635   2.777   2.340   2.110
 4912SOL    HW215636   2.709   2.370   2.255
 4913SOL     OW15637   2.880   3.444   2.561
 4913SOL    HW115638   2.858   3.400   2.648
 4913SOL    HW215639   2.977   3.430   2.540
 4914SOL     OW15640   1.507   6.319   3.204
 4914SOL    HW115641   1.495   6.220   3.203
 4914SOL    HW215642   1.523   6.352   3.111
 4915SOL     OW15643   3.087   6.042   3.340
 4915SOL    HW115644   3.112   5.950   3.309
 4915SOL    HW215645   3.006   6.074   3.291
 4916SOL     OW15646   2.112   1.784   2.680
 4916SOL    HW115647   2.202   1.795   2.721
 4916SOL    HW215648   2.097   1.688   2.657
 4917SOL     OW15649   2.200   5.231   6.550
 4917SOL    HW115650   2.205   5.328   6.526
 4917SOL    HW215651   2.207   5.220   6.649
 4918SOL     OW15652   2.243   0.389   2.949
 4918SOL    HW115653   2.305   0.369   2.873
 4918SOL    HW215654   2.289   0.371   3.036
 4919SOL     OW15655   2.626   3.208   1.598
 4919SOL    HW115656   2.583   3.124   1.631
 4919SOL    HW215657   2.564   3.285   1.611
 4920SOL     OW15658   4.322   1.001   0.288
 4920SOL    HW115659   4.328   0.949   0.373
 4920SOL    HW215660   4.287   0.942   0.215
 4921SOL     OW15661   1.454   4.351   2.167
 4921SOL    HW115662   1.468   4.275   2.230
 4921SOL    HW215663   1.396   4.420   2.211
 4922SOL     OW15664   0.880   2.896   5.800
 4922SOL    HW115665   0.971   2.928   5.827
 4922SOL    HW215666   0.852   2.821   5.859
 4923SOL     OW15667   3.293   2.009   0.610
 4923SOL    HW115668   3.267   2.106   0.613
 4923SOL    HW215669   3.312   1.977   0.703
 4924SOL     OW15670   0.696   3.812   4.539
 4924SOL    HW115671   0.642   3.727   4.535
 4924SOL    HW215672   0.678   3.867   4.457
 4925SOL     OW15673   4.897   5.751   6.123
 4925SOL    HW115674   4.856   5.679   6.067
 4925SOL    HW215675   4.859   5.746   6.215
 4926SOL     OW15676   4.068   2.443   1.701
 4926SOL    HW115677   4.006   2.522   1.698
 4926SOL    HW215678   4.122   2.440   1.617
 4927SOL     OW15679   3.765   3.789   2.795
 4927SOL    HW115680   3.783   3.741   2.880
 4927SOL    HW215681   3.852   3.814   2.752
 4928SOL     OW15682   0.352   6.615   0.623
 4928SOL    HW115683   0.256   6.639   0.613
 4928SOL    HW215684   0.360   6.523   0.662
 4929SOL     OW15685   0.823   5.014   4.353
 4929SOL    HW115686   0.825   5.114   4.346
 4929SOL    HW215687   0.796   4.988   4.446
 4930SOL     OW15688   0.115   2.710   0.730
 4930SOL    HW115689   0.065   2.793   0.705
 4930SOL    HW215690   0.107   2.695   0.829
 4931SOL     OW15691   0.160   0.686   1.348
 4931SOL    HW115692   0.142   0.782   1.325
 4931SOL    HW215693   0.258   0.674   1.364
 4932SOL     OW15694   4.010   2.181   0.905
 4932SOL    HW115695   4.068   2.109   0.944
 4932SOL    HW215696   4.023   2.266   0.956
 4933SOL     OW15697   2.847   0.922   5.324
 4933SOL    HW115698   2.810   0.840   5.368
 4933SOL    HW215699   2.856   0.907   5.226
 4934SOL     OW15700   1.337   6.208   5.281
 4934SOL    HW115701   1.403   6.171   5.215
 4934SOL    HW215702   1.356   6.306   5.295
 4935SOL     OW15703   1.478   1.160   0.404
 4935SOL    HW115704   1.553   1.226   0.399
 4935SOL    HW215705   1.488   1.104   0.486
 4936SOL     OW15706   4.613   6.119   0.933
 4936SOL    HW115707   4.680   6.171   0.880
 4936SOL    HW215708   4.639   6.022   0.933
 4937SOL     OW15709   1.310   3.018   5.936
 4937SOL    HW115710   1.320   3.028   6.035
 4937SOL    HW215711   1.324   3.107   5.893
 4938SOL     OW15712   3.249   4.890   1.479
 4938SOL    HW115713   3.205   4.809   1.516
 4938SOL    HW215714   3.251   4.962   1.548
 4939SOL     OW15715   1.247   1.635   1.756
 4939SOL    HW115716   1.175   1.649   1.824
 4939SOL    HW215717   1.243   1.709   1.688
 4940SOL     OW15718   6.995   2.000   5.342
 4940SOL    HW115719   7.026   2.093   5.362
 4940SOL    HW215720   0.032   1.956   5.280
 4941SOL     OW15721   4.241   2.002   5.543
 4941SOL    HW115722   4.291   1.933   5.490
 4941SOL    HW215723   4.304   2.056   5.598
 4942SOL     OW15724   0.223   1.413   3.554
 4942SOL    HW115725   0.206   1.355   3.475
 4942SOL    HW215726   0.219   1.509   3.526
 4943SOL     OW15727   5.092   2.891   6.727
 4943SOL    HW115728   5.009   2.862   6.775
 4943SOL    HW215729   5.106   2.833   6.647
 4944SOL     OW15730   1.008   5.214   0.243
 4944SOL    HW115731   0.911   5.203   0.264
 4944SOL    HW215732   1.026   5.309   0.217
 4945SOL     OW15733   1.855   0.554   5.285
 4945SOL    HW115734   1.937   0.598   5.322
 4945SOL    HW215735   1.859   0.455   5.302
 4946SOL     OW15736   2.949   5.453   6.942
 4946SOL    HW115737   2.968   5.513   6.865
 4946SOL    HW215738   3.028   5.395   6.960
 4947SOL     OW15739   1.398   0.787   1.687
 4947SOL    HW115740   1.335   0.717   1.654
 4947SOL    HW215741   1.381   0.805   1.784
 4948SOL     OW15742   1.784   2.451   1.721
 4948SOL    HW115743   1.725   2.406   1.789
 4948SOL    HW215744   1.852   2.507   1.768
 4949SOL     OW15745   7.017   4.434   6.650
 4949SOL    HW115746   6.968   4.522   6.654
 4949SOL    HW215747   0.085   4.450   6.671
 4950SOL     OW15748   3.524   4.445   6.067
 4950SOL    HW115749   3.456   4.456   6.140
 4950SOL    HW215750   3.506   4.359   6.019
 4951SOL     OW15751   5.200   5.541   3.160
 4951SOL    HW115752   5.116   5.515   3.208
 4951SOL    HW215753   5.176   5.599   3.081
 4952SOL     OW15754   0.557   0.030   6.420
 4952SOL    HW115755   0.570   7.013   6.508
 4952SOL    HW215756   0.474   7.023   6.376
 4953SOL     OW15757   0.965   1.999   4.703
 4953SOL    HW115758   0.921   2.079   4.745
 4953SOL    HW215759   0.915   1.973   4.621
 4954SOL     OW15760   2.950   3.743   4.652
 4954SOL    HW115761   2.894   3.683   4.594
 4954SOL    HW215762   2.984   3.820   4.597
 4955SOL     OW15763   4.116   5.464   5.374
 4955SOL    HW115764   4.048   5.533   5.398
 4955SOL    HW215765   4.157   5.487   5.285
 4956SOL     OW15766   2.949   0.128   5.061
 4956SOL    HW115767   2.861   0.112   5.107
 4956SOL    HW215768   2.964   0.226   5.051
 4957SOL     OW15769   6.129   4.651   6.492
 4957SOL    HW115770   6.060   4.597   6.443
 4957SOL    HW215771   6.220   4.625   6.459
 4958SOL     OW15772   4.150   6.091   0.615
 4958SOL    HW115773   4.142   6.043   0.702
 4958SOL    HW215774   4.060   6.095   0.571
 4959SOL     OW15775   0.276   2.273   3.012
 4959SOL    HW115776   0.223   2.236   2.936
 4959SOL    HW215777   0.371   2.243   3.004
 4960SOL     OW15778   4.399   4.597   4.215
 4960SOL    HW115779   4.428   4.619   4.122
 4960SOL    HW215780   4.300   4.596   4.221
 4961SOL     OW15781   3.421   1.780   0.847
 4961SOL    HW115782   3.445   1.729   0.929
 4961SOL    HW215783   3.429   1.878   0.865
 4962SOL     OW15784   1.312   4.306   0.709
 4962SOL    HW115785   1.263   4.388   0.679
 4962SOL    HW215786   1.318   4.305   0.808
 4963SOL     OW15787   0.738   3.799   6.265
 4963SOL    HW115788   0.722   3.897   6.262
 4963SOL    HW215789   0.759   3.766   6.173
 4964SOL     OW15790   2.627   6.639   4.787
 4964SOL    HW115791   2.543   6.587   4.803
 4964SOL    HW215792   2.615   6.698   4.707
 4965SOL     OW15793   1.384   6.035   3.097
 4965SOL    HW115794   1.406   5.986   3.182
 4965SOL    HW215795   1.468   6.057   3.048
 4966SOL     OW15796   3.159   6.682   4.168
 4966SOL    HW115797   3.073   6.644   4.202
 4966SOL    HW215798   3.154   6.782   4.170
 4967SOL     OW15799   4.476   4.680   4.786
 4967SOL    HW115800   4.555   4.635   4.744
 4967SOL    HW215801   4.437   4.620   4.856
 4968SOL     OW15802   6.881   2.892   3.056
 4968SOL    HW115803   6.960   2.916   3.000
 4968SOL    HW215804   6.812   2.963   3.049
 4969SOL     OW15805   0.646   6.100   3.758
 4969SOL    HW115806   0.570   6.088   3.821
 4969SOL    HW215807   0.732   6.080   3.804
 4970SOL     OW15808   1.178   1.728   1.217
 4970SOL    HW115809   1.212   1.646   1.171
 4970SOL    HW215810   1.083   1.714   1.245
 4971SOL     OW15811   6.874   6.178   2.632
 4971SOL    HW115812   6.817   6.125   2.695
 4971SOL    HW215813   6.917   6.253   2.681
 4972SOL     OW15814   0.396   4.436   1.082
 4972SOL    HW115815   0.389   4.474   1.175
 4972SOL    HW215816   0.384   4.510   1.015
 4973SOL     OW15817   6.396   1.481   0.912
 4973SOL    HW115818   6.310   1.511   0.953
 4973SOL    HW215819   6.471   1.537   0.947
 4974SOL     OW15820   3.515   6.216   5.217
 4974SOL    HW115821   3.526   6.200   5.315
 4974SOL    HW215822   3.590   6.171   5.167
 4975SOL     OW15823   5.051   4.941   1.073
 4975SOL    HW115824   5.140   4.953   1.029
 4975SOL    HW215825   4.979   4.946   1.004
 4976SOL     OW15826   1.928   6.900   2.985
 4976SOL    HW115827   1.885   6.987   2.962
 4976SOL    HW215828   1.859   6.836   3.018
 4977SOL     OW15829   1.764   4.512   5.869
 4977SOL    HW115830   1.803   4.492   5.779
 4977SOL    HW215831   1.712   4.597   5.864
 4978SOL     OW15832   5.113   4.821   4.837
 4978SOL    HW115833   5.206   4.796   4.864
 4978SOL    HW215834   5.105   4.819   4.738
 4979SOL     OW15835   2.463   6.880   5.929
 4979SOL    HW115836   2.480   6.784   5.948
 4979SOL    HW215837   2.386   6.888   5.865
 4980SOL     OW15838   5.320   3.610   3.755
 4980SOL    HW115839   5.392   3.671   3.790
 4980SOL    HW215840   5.290   3.642   3.665
 4981SOL     OW15841   2.950   4.780   2.497
 4981SOL    HW115842   3.017   4.809   2.429
 4981SOL    HW215843   2.895   4.706   2.460
 4982SOL     OW15844   4.023   1.850   5.662
 4982SOL    HW115845   4.053   1.755   5.660
 4982SOL    HW215846   4.093   1.908   5.620
 4983SOL     OW15847   5.621   5.781   2.991
 4983SOL    HW115848   5.576   5.869   2.982
 4983SOL    HW215849   5.719   5.792   2.975
 4984SOL     OW15850   4.859   4.042   3.098
 4984SOL    HW115851   4.900   3.956   3.067
 4984SOL    HW215852   4.912   4.119   3.062
 4985SOL     OW15853   5.368   6.893   2.358
 4985SOL    HW115854   5.380   6.796   2.381
 4985SOL    HW215855   5.453   6.942   2.379
 4986SOL     OW15856   0.841   5.315   1.953
 4986SOL    HW115857   0.861   5.257   2.032
 4986SOL    HW215858   0.768   5.273   1.899
 4987SOL     OW15859   0.735   0.993   2.527
 4987SOL    HW115860   0.802   1.062   2.502
 4987SOL    HW215861   0.771   0.902   2.506
 4988SOL     OW15862   6.165   6.211   3.609
 4988SOL    HW115863   6.110   6.180   3.532
 4988SOL    HW215864   6.262   6.202   3.587
 4989SOL     OW15865   4.687   0.184   3.271
 4989SOL    HW115866   4.655   0.160   3.363
 4989SOL    HW215867   4.720   0.101   3.225
 4990SOL     OW15868   4.575   2.501   4.703
 4990SOL    HW115869   4.575   2.495   4.603
 4990SOL    HW215870   4.484   2.527   4.735
 4991SOL     OW15871   1.576   4.986   5.550
 4991SOL    HW115872   1.621   5.075   5.561
 4991SOL    HW215873   1.503   4.978   5.618
 4992SOL     OW15874   0.473   3.345   3.728
 4992SOL    HW115875   0.455   3.342   3.826
 4992SOL    HW215876   0.558   3.396   3.711
 4993SOL     OW15877   3.196   6.398   4.077
 4993SOL    HW115878   3.203   6.496   4.060
 4993SOL    HW215879   3.278   6.352   4.042
 4994SOL     OW15880   3.573   4.299   5.447
 4994SOL    HW115881   3.478   4.305   5.416
 4994SOL    HW215882   3.630   4.357   5.389
 4995SOL     OW15883   0.522   0.194   6.022
 4995SOL    HW115884   0.432   0.238   6.022
 4995SOL    HW215885   0.589   0.255   5.979
 4996SOL     OW15886   6.940   1.452   4.185
 4996SOL    HW115887   0.002   1.489   4.203
 4996SOL    HW215888   6.924   1.373   4.245
 4997SOL     OW15889   3.860   1.702   1.313
 4997SOL    HW115890   3.953   1.734   1.328
 4997SOL    HW215891   3.831   1.724   1.220
 4998SOL     OW15892   0.638   3.603   3.385
 4998SOL    HW115893   0.683   3.538   3.446
 4998SOL    HW215894   0.702   3.676   3.361
 4999SOL     OW15895   0.836   3.125   4.273
 4999SOL    HW115896   0.791   3.064   4.208
 4999SOL    HW215897   0.919   3.082   4.308
 5000SOL     OW15898   3.265   5.468   2.801
 5000SOL    HW115899   3.193   5.414   2.845
 5000SOL    HW215900   3.233   5.563   2.792
 5001SOL     OW15901   0.283   5.802   3.308
 5001SOL    HW115902   0.370   5.759   3.333
 5001SOL    HW215903   0.210   5.763   3.364
 5002SOL     OW15904   0.847   3.441   3.504
 5002SOL    HW115905   0.800   3.447   3.593
 5002SOL    HW215906   0.925   3.380   3.512
 5003SOL     OW15907   4.231   0.916   3.541
 5003SOL    HW115908   4.268   0.888   3.452
 5003SOL    HW215909   4.279   0.869   3.614
 5004SOL     OW15910   2.882   5.166   6.228
 5004SOL    HW115911   2.807   5.159   6.294
 5004SOL    HW215912   2.967   5.184   6.277
 5005SOL     OW15913   2.819   2.311   0.283
 5005SOL    HW115914   2.781   2.225   0.250
 5005SOL    HW215915   2.916   2.299   0.303
 5006SOL     OW15916   4.586   1.424   1.634
 5006SOL    HW115917   4.524   1.369   1.690
 5006SOL    HW215918   4.650   1.473   1.693
 5007SOL     OW15919   6.195   6.324   1.939
 5007SOL    HW115920   6.187   6.396   2.009
 5007SOL    HW215921   6.204   6.235   1.984
 5008SOL     OW15922   5.365   6.408   2.077
 5008SOL    HW115923   5.347   6.387   2.174
 5008SOL    HW215924   5.282   6.395   2.024
 5009SOL     OW15925   6.712   2.298   0.711
 5009SOL    HW115926   6.640   2.304   0.642
 5009SOL    HW215927   6.690   2.225   0.776
 5010SOL     OW15928   3.489   3.718   1.277
 5010SOL    HW115929   3.392   3.703   1.299
 5010SOL    HW215930   3.497   3.800   1.219
 5011SOL     OW15931   2.215   3.424   6.788
 5011SOL    HW115932   2.244   3.387   6.876
 5011SOL    HW215933   2.198   3.522   6.797
 5012SOL     OW15934   6.393   1.661   5.890
 5012SOL    HW115935   6.322   1.692   5.826
 5012SOL    HW215936   6.405   1.729   5.961
 5013SOL     OW15937   5.545   6.803   5.639
 5013SOL    HW115938   5.507   6.822   5.730
 5013SOL    HW215939   5.497   6.858   5.571
 5014SOL     OW15940   6.152   3.293   1.750
 5014SOL    HW115941   6.220   3.348   1.701
 5014SOL    HW215942   6.164   3.197   1.727
 5015SOL     OW15943   5.453   6.529   3.838
 5015SOL    HW115944   5.389   6.520   3.761
 5015SOL    HW215945   5.481   6.438   3.868
 5016SOL     OW15946   2.109   3.557   5.818
 5016SOL    HW115947   2.063   3.613   5.748
 5016SOL    HW215948   2.077   3.463   5.811
 5017SOL     OW15949   0.306   3.286   1.886
 5017SOL    HW115950   0.357   3.336   1.956
 5017SOL    HW215951   0.363   3.276   1.804
 5018SOL     OW15952   0.922   0.345   1.103
 5018SOL    HW115953   0.831   0.382   1.126
 5018SOL    HW215954   0.954   0.288   1.179
 5019SOL     OW15955   1.467   5.268   5.292
 5019SOL    HW115956   1.526   5.189   5.307
 5019SOL    HW215957   1.379   5.237   5.256
 5020SOL     OW15958   2.285   6.722   4.536
 5020SOL    HW115959   2.347   6.657   4.580
 5020SOL    HW215960   2.267   6.799   4.597
 5021SOL     OW15961   1.459   1.325   0.696
 5021SOL    HW115962   1.457   1.229   0.665
 5021SOL    HW215963   1.498   1.330   0.788
 5022SOL     OW15964   6.805   3.132   1.610
 5022SOL    HW115965   6.801   3.033   1.620
 5022SOL    HW215966   6.768   3.175   1.693
 5023SOL     OW15967   6.833   4.220   2.652
 5023SOL    HW115968   6.835   4.281   2.732
 5023SOL    HW215969   6.924   4.184   2.635
 5024SOL     OW15970   4.600   3.509   1.393
 5024SOL    HW115971   4.606   3.606   1.414
 5024SOL    HW215972   4.514   3.473   1.428
 5025SOL     OW15973   4.117   1.241   3.950
 5025SOL    HW115974   4.024   1.256   3.985
 5025SOL    HW215975   4.157   1.328   3.922
 5026SOL     OW15976   4.104   0.160   4.888
 5026SOL    HW115977   4.058   0.249   4.880
 5026SOL    HW215978   4.087   0.106   4.806
 5027SOL     OW15979   5.134   0.021   0.131
 5027SOL    HW115980   5.210   0.031   0.195
 5027SOL    HW215981   5.062   0.086   0.154
 5028SOL     OW15982   6.800   1.607   2.638
 5028SOL    HW115983   6.814   1.508   2.633
 5028SOL    HW215984   6.773   1.641   2.548
 5029SOL     OW15985   6.168   1.698   2.955
 5029SOL    HW115986   6.194   1.651   2.870
 5029SOL    HW215987   6.241   1.690   3.022
 5030SOL     OW15988   0.233   4.571   6.665
 5030SOL    HW115989   0.244   4.653   6.609
 5030SOL    HW215990   0.298   4.501   6.635
 5031SOL     OW15991   6.845   6.580   6.596
 5031SOL    HW115992   6.844   6.545   6.502
 5031SOL    HW215993   6.875   6.676   6.595
 5032SOL     OW15994   2.537   3.393   5.473
 5032SOL    HW115995   2.580   3.447   5.401
 5032SOL    HW215996   2.539   3.296   5.448
 5033SOL     OW15997   2.123   0.770   0.249
 5033SOL    HW115998   2.142   0.837   0.321
 5033SOL    HW215999   2.026   0.774   0.225
 5034SOL     OW16000   4.266   6.512   4.127
 5034SOL    HW116001   4.328   6.434   4.142
 5034SOL    HW216002   4.259   6.530   4.029
 5035SOL     OW16003   1.815   3.800   3.576
 5035SOL    HW116004   1.777   3.805   3.668
 5035SOL    HW216005   1.906   3.759   3.578
 5036SOL     OW16006   6.810   2.370   5.451
 5036SOL    HW116007   6.774   2.279   5.469
 5036SOL    HW216008   6.812   2.387   5.353
 5037SOL     OW16009   4.254   4.369   1.311
 5037SOL    HW116010   4.321   4.382   1.238
 5037SOL    HW216011   4.243   4.271   1.329
 5038SOL     OW16012   3.709   3.668   3.909
 5038SOL    HW116013   3.768   3.601   3.863
 5038SOL    HW216014   3.765   3.739   3.951
 5039SOL     OW16015   0.912   3.640   6.839
 5039SOL    HW116016   0.899   3.582   6.760
 5039SOL    HW216017   0.973   3.595   6.904
 5040SOL     OW16018   0.323   6.710   6.048
 5040SOL    HW116019   0.358   6.737   5.958
 5040SOL    HW216020   0.385   6.740   6.119
 5041SOL     OW16021   7.000   3.512   2.225
 5041SOL    HW116022   7.009   3.589   2.162
 5041SOL    HW216023   6.903   3.489   2.237
 5042SOL     OW16024   0.505   2.641   6.200
 5042SOL    HW116025   0.408   2.660   6.190
 5042SOL    HW216026   0.531   2.568   6.136
 5043SOL     OW16027   3.981   6.456   1.114
 5043SOL    HW116028   3.894   6.499   1.140
 5043SOL    HW216029   3.985   6.447   1.015
 5044SOL     OW16030   5.988   5.189   1.040
 5044SOL    HW116031   5.995   5.169   1.138
 5044SOL    HW216032   6.073   5.233   1.010
 5045SOL     OW16033   6.464   3.542   6.406
 5045SOL    HW116034   6.488   3.565   6.312
 5045SOL    HW216035   6.507   3.455   6.431
 5046SOL     OW16036   3.490   3.333   3.273
 5046SOL    HW116037   3.548   3.270   3.221
 5046SOL    HW216038   3.410   3.358   3.217
 5047SOL     OW16039   1.045   3.308   3.060
 5047SOL    HW116040   0.966   3.347   3.012
 5047SOL    HW216041   1.057   3.354   3.148
 5048SOL     OW16042   1.678   1.444   5.966
 5048SOL    HW116043   1.626   1.416   6.046
 5048SOL    HW216044   1.757   1.497   5.995
 5049SOL     OW16045   5.452   0.935   6.069
 5049SOL    HW116046   5.498   0.918   6.156
 5049SOL    HW216047   5.487   0.871   6.000
 5050SOL     OW16048   1.519   0.487   1.207
 5050SOL    HW116049   1.574   0.500   1.125
 5050SOL    HW216050   1.543   0.400   1.250
 5051SOL     OW16051   3.722   5.191   1.165
 5051SOL    HW116052   3.815   5.208   1.130
 5051SOL    HW216053   3.717   5.099   1.201
 5052SOL     OW16054   2.711   0.952   5.818
 5052SOL    HW116055   2.776   0.960   5.894
 5052SOL    HW216056   2.760   0.938   5.732
 5053SOL     OW16057   0.268   0.320   2.243
 5053SOL    HW116058   0.188   0.359   2.197
 5053SOL    HW216059   0.327   0.393   2.277
 5054SOL     OW16060   3.729   4.915   4.129
 5054SOL    HW116061   3.826   4.936   4.127
 5054SOL    HW216062   3.696   4.918   4.223
 5055SOL     OW16063   6.243   3.099   6.575
 5055SOL    HW116064   6.231   3.197   6.557
 5055SOL    HW216065   6.173   3.069   6.641
 5056SOL     OW16066   5.205   4.226   4.918
 5056SOL    HW116067   5.207   4.175   4.833
 5056SOL    HW216068   5.121   4.205   4.968
 5057SOL     OW16069   1.104   6.466   2.716
 5057SOL    HW116070   1.026   6.475   2.779
 5057SOL    HW216071   1.160   6.388   2.742
 5058SOL     OW16072   3.299   4.880   5.637
 5058SOL    HW116073   3.371   4.823   5.598
 5058SOL    HW216074   3.229   4.822   5.678
 5059SOL     OW16075   0.927   0.545   2.242
 5059SOL    HW116076   0.862   0.487   2.290
 5059SOL    HW216077   0.888   0.571   2.153
 5060SOL     OW16078   6.733   2.097   5.522
 5060SOL    HW116079   6.799   2.112   5.595
 5060SOL    HW216080   6.780   2.065   5.440
 5061SOL     OW16081   5.537   4.167   0.027
 5061SOL    HW116082   5.492   4.216   6.980
 5061SOL    HW216083   5.550   4.230   0.104
 5062SOL     OW16084   0.571   0.201   0.980
 5062SOL    HW116085   0.531   0.110   0.987
 5062SOL    HW216086   0.659   0.196   0.933
 5063SOL     OW16087   1.129   6.493   1.938
 5063SOL    HW116088   1.125   6.587   1.970
 5063SOL    HW216089   1.058   6.478   1.869
 5064SOL     OW16090   5.010   3.182   6.747
 5064SOL    HW116091   5.021   3.083   6.756
 5064SOL    HW216092   4.940   3.215   6.811
 5065SOL     OW16093   2.243   6.427   5.863
 5065SOL    HW116094   2.152   6.467   5.878
 5065SOL    HW216095   2.293   6.483   5.797
 5066SOL     OW16096   5.473   4.900   1.428
 5066SOL    HW116097   5.391   4.943   1.391
 5066SOL    HW216098   5.546   4.904   1.361
 5067SOL     OW16099   5.011   1.142   0.301
 5067SOL    HW116100   5.086   1.187   0.349
 5067SOL    HW216101   5.018   1.043   0.313
 5068SOL     OW16102   2.797   5.167   1.134
 5068SOL    HW116103   2.817   5.235   1.205
 5068SOL    HW216104   2.872   5.101   1.129
 5069SOL     OW16105   0.674   4.331   3.519
 5069SOL    HW116106   0.582   4.371   3.523
 5069SOL    HW216107   0.685   4.267   3.595
 5070SOL     OW16108   5.395   2.907   3.791
 5070SOL    HW116109   5.441   2.884   3.876
 5070SOL    HW216110   5.453   2.880   3.714
 5071SOL     OW16111   4.255   1.358   6.753
 5071SOL    HW116112   4.236   1.448   6.713
 5071SOL    HW216113   4.322   1.309   6.698
 5072SOL     OW16114   1.343   4.255   1.316
 5072SOL    HW116115   1.367   4.197   1.394
 5072SOL    HW216116   1.301   4.340   1.350
 5073SOL     OW16117   4.034   1.550   3.557
 5073SOL    HW116118   4.075   1.574   3.645
 5073SOL    HW216119   3.971   1.474   3.569
 5074SOL     OW16120   2.803   3.896   6.346
 5074SOL    HW116121   2.883   3.878   6.404
 5074SOL    HW216122   2.724   3.845   6.381
 5075SOL     OW16123   0.259   5.421   4.577
 5075SOL    HW116124   0.304   5.446   4.491
 5075SOL    HW216125   0.306   5.344   4.618
 5076SOL     OW16126   3.233   0.074   1.275
 5076SOL    HW116127   3.258   0.164   1.311
 5076SOL    HW216128   3.306   0.008   1.296
 5077SOL     OW16129   0.057   2.243   2.566
 5077SOL    HW116130   0.006   2.329   2.561
 5077SOL    HW216131   0.144   2.253   2.518
 5078SOL     OW16132   1.115   1.617   3.967
 5078SOL    HW116133   1.195   1.591   3.914
 5078SOL    HW216134   1.045   1.546   3.959
 5079SOL     OW16135   3.786   5.348   5.259
 5079SOL    HW116136   3.846   5.373   5.183
 5079SOL    HW216137   3.807   5.254   5.287
 5080SOL     OW16138   5.829   6.779   5.611
 5080SOL    HW116139   5.733   6.799   5.632
 5080SOL    HW216140   5.887   6.851   5.651
 5081SOL     OW16141   3.625   3.296   3.510
 5081SOL    HW116142   3.568   3.333   3.584
 5081SOL    HW216143   3.579   3.308   3.423
 5082SOL     OW16144   6.236   5.843   4.845
 5082SOL    HW116145   6.243   5.939   4.874
 5082SOL    HW216146   6.288   5.786   4.909
 5083SOL     OW16147   1.886   5.737   2.100
 5083SOL    HW116148   1.982   5.710   2.098
 5083SOL    HW216149   1.861   5.766   2.193
 5084SOL     OW16150   1.931   6.115   3.783
 5084SOL    HW116151   2.029   6.134   3.770
 5084SOL    HW216152   1.913   6.099   3.880
 5085SOL     OW16153   6.326   2.523   6.418
 5085SOL    HW116154   6.230   2.527   6.391
 5085SOL    HW216155   6.339   2.574   6.503
 5086SOL     OW16156   6.656   5.386   3.299
 5086SOL    HW116157   6.643   5.468   3.355
 5086SOL    HW216158   6.664   5.412   3.203
 5087SOL     OW16159   0.317   5.742   5.716
 5087SOL    HW116160   0.232   5.718   5.764
 5087SOL    HW216161   0.356   5.824   5.756
 5088SOL     OW16162   5.742   0.060   6.524
 5088SOL    HW116163   5.687   7.021   6.574
 5088SOL    HW216164   5.744   0.146   6.575
 5089SOL     OW16165   5.290   3.763   3.541
 5089SOL    HW116166   5.246   3.755   3.452
 5089SOL    HW216167   5.255   3.845   3.588
 5090SOL     OW16168   1.219   4.827   0.842
 5090SOL    HW116169   1.282   4.905   0.845
 5090SOL    HW216170   1.168   4.822   0.928
 5091SOL     OW16171   1.318   5.847   2.921
 5091SOL    HW116172   1.326   5.923   2.985
 5091SOL    HW216173   1.313   5.761   2.971
 5092SOL     OW16174   3.605   2.556   1.752
 5092SOL    HW116175   3.659   2.612   1.815
 5092SOL    HW216176   3.614   2.459   1.777
 5093SOL     OW16177   0.670   2.315   1.462
 5093SOL    HW116178   0.694   2.294   1.368
 5093SOL    HW216179   0.656   2.414   1.472
 5094SOL     OW16180   0.073   0.217   6.423
 5094SOL    HW116181   0.158   0.269   6.438
 5094SOL    HW216182   0.011   0.271   6.366
 5095SOL     OW16183   2.650   6.819   5.521
 5095SOL    HW116184   2.709   6.883   5.472
 5095SOL    HW216185   2.680   6.812   5.616
 5096SOL     OW16186   3.970   4.962   1.522
 5096SOL    HW116187   3.985   4.867   1.550
 5096SOL    HW216188   3.879   4.991   1.552
 5097SOL     OW16189   1.014   0.543   6.469
 5097SOL    HW116190   1.027   0.449   6.437
 5097SOL    HW216191   0.943   0.587   6.415
 5098SOL     OW16192   0.095   2.173   2.817
 5098SOL    HW116193   0.103   2.075   2.837
 5098SOL    HW216194   0.089   2.186   2.718
 5099SOL     OW16195   0.798   0.299   4.969
 5099SOL    HW116196   0.743   0.378   4.941
 5099SOL    HW216197   0.736   0.225   4.996
 5100SOL     OW16198   5.095   6.870   5.934
 5100SOL    HW116199   5.113   6.959   5.975
 5100SOL    HW216200   5.066   6.881   5.839
 5101SOL     OW16201   4.291   5.977   0.400
 5101SOL    HW116202   4.386   5.973   0.432
 5101SOL    HW216203   4.232   6.011   0.473
 5102SOL     OW16204   3.451   6.516   4.976
 5102SOL    HW116205   3.538   6.467   4.970
 5102SOL    HW216206   3.417   6.512   5.070
 5103SOL     OW16207   1.118   0.872   4.336
 5103SOL    HW116208   1.201   0.894   4.387
 5103SOL    HW216209   1.120   0.775   4.311
 5104SOL     OW16210   1.163   6.927   1.283
 5104SOL    HW116211   1.203   6.867   1.352
 5104SOL    HW216212   1.074   6.960   1.314
 5105SOL     OW16213   2.701   3.565   6.710
 5105SOL    HW116214   2.626   3.498   6.715
 5105SOL    HW216215   2.746   3.559   6.622
 5106SOL     OW16216   3.391   0.278   2.106
 5106SOL    HW116217   3.372   0.341   2.031
 5106SOL    HW216218   3.317   0.211   2.113
 5107SOL     OW16219   1.452   6.902   5.581
 5107SOL    HW116220   1.476   6.989   5.623
 5107SOL    HW216221   1.356   6.882   5.598
 5108SOL     OW16222   3.203   3.455   3.770
 5108SOL    HW116223   3.245   3.518   3.836
 5108SOL    HW216224   3.189   3.366   3.813
 5109SOL     OW16225   6.969   1.329   1.459
 5109SOL    HW116226   7.008   1.389   1.390
 5109SOL    HW216227   6.869   1.339   1.460
 5110SOL     OW16228   2.133   5.608   5.713
 5110SOL    HW116229   2.136   5.680   5.643
 5110SOL    HW216230   2.220   5.605   5.762
 5111SOL     OW16231   1.480   1.005   0.632
 5111SOL    HW116232   1.445   0.912   0.645
 5111SOL    HW216233   1.543   1.027   0.707
 5112SOL     OW16234   0.083   6.374   3.679
 5112SOL    HW116235   0.081   6.440   3.603
 5112SOL    HW216236   7.019   6.345   3.700
 5113SOL     OW16237   1.261   6.966   6.765
 5113SOL    HW116238   1.210   6.915   6.695
 5113SOL    HW216239   1.216   0.026   6.779
 5114SOL     OW16240   4.237   4.944   0.325
 5114SOL    HW116241   4.175   4.918   0.399
 5114SOL    HW216242   4.184   4.976   0.247
 5115SOL     OW16243   1.927   3.662   5.611
 5115SOL    HW116244   1.953   3.720   5.534
 5115SOL    HW216245   1.835   3.687   5.641
 5116SOL     OW16246   0.183   3.661   1.150
 5116SOL    HW116247   0.250   3.708   1.207
 5116SOL    HW216248   0.230   3.614   1.076
 5117SOL     OW16249   2.480   4.483   4.363
 5117SOL    HW116250   2.494   4.543   4.442
 5117SOL    HW216251   2.536   4.517   4.286
 5118SOL     OW16252   4.706   6.297   0.731
 5118SOL    HW116253   4.746   6.317   0.641
 5118SOL    HW216254   4.617   6.253   0.718
 5119SOL     OW16255   5.913   0.165   2.302
 5119SOL    HW116256   5.956   0.220   2.231
 5119SOL    HW216257   5.984   0.120   2.357
 5120SOL     OW16258   4.888   1.329   2.520
 5120SOL    HW116259   4.898   1.316   2.422
 5120SOL    HW216260   4.895   1.241   2.567
 5121SOL     OW16261   0.419   4.024   5.201
 5121SOL    HW116262   0.448   4.085   5.275
 5121SOL    HW216263   0.325   4.043   5.176
 5122SOL     OW16264   1.756   6.541   3.820
 5122SOL    HW116265   1.849   6.574   3.839
 5122SOL    HW216266   1.753   6.502   3.728
 5123SOL     OW16267   5.576   4.642   2.311
 5123SOL    HW116268   5.492   4.696   2.306
 5123SOL    HW216269   5.575   4.587   2.394
 5124SOL     OW16270   2.724   6.149   6.817
 5124SOL    HW116271   2.664   6.176   6.741
 5124SOL    HW216272   2.716   6.216   6.891
 5125SOL     OW16273   6.988   2.488   5.934
 5125SOL    HW116274   0.048   2.457   5.969
 5125SOL    HW216275   6.931   2.409   5.912
 5126SOL     OW16276   5.102   3.325   6.235
 5126SOL    HW116277   5.101   3.421   6.210
 5126SOL    HW216278   5.085   3.316   6.333
 5127SOL     OW16279   5.790   2.756   6.340
 5127SOL    HW116280   5.850   2.812   6.398
 5127SOL    HW216281   5.835   2.741   6.251
 5128SOL     OW16282   0.835   0.662   6.804
 5128SOL    HW116283   0.874   0.751   6.827
 5128SOL    HW216284   0.879   0.591   6.859
 5129SOL     OW16285   4.316   2.152   2.182
 5129SOL    HW116286   4.349   2.060   2.203
 5129SOL    HW216287   4.266   2.188   2.260
 5130SOL     OW16288   1.242   6.443   4.712
 5130SOL    HW116289   1.240   6.356   4.761
 5130SOL    HW216290   1.155   6.457   4.665
 5131SOL     OW16291   3.665   5.046   3.448
 5131SOL    HW116292   3.661   5.023   3.545
 5131SOL    HW216293   3.693   5.142   3.437
 5132SOL     OW16294   3.282   0.963   6.860
 5132SOL    HW116295   3.360   0.900   6.871
 5132SOL    HW216296   3.230   0.937   6.779
 5133SOL     OW16297   4.914   4.152   6.936
 5133SOL    HW116298   4.892   4.249   6.941
 5133SOL    HW216299   4.994   4.132   6.992
 5134SOL     OW16300   6.250   6.044   1.074
 5134SOL    HW116301   6.321   6.053   1.144
 5134SOL    HW216302   6.244   6.128   1.021
 5135SOL     OW16303   6.688   3.097   2.998
 5135SOL    HW116304   6.627   3.096   2.918
 5135SOL    HW216305   6.761   3.164   2.982
 5136SOL     OW16306   1.396   1.227   5.882
 5136SOL    HW116307   1.479   1.177   5.910
 5136SOL    HW216308   1.385   1.220   5.783
 5137SOL     OW16309   6.111   1.075   4.555
 5137SOL    HW116310   6.145   1.159   4.513
 5137SOL    HW216311   6.072   1.097   4.645
 5138SOL     OW16312   3.368   3.056   3.688
 5138SOL    HW116313   3.430   2.981   3.664
 5138SOL    HW216314   3.305   3.026   3.759
 5139SOL     OW16315   2.387   0.361   5.967
 5139SOL    HW116316   2.448   0.424   5.919
 5139SOL    HW216317   2.409   0.267   5.943
 5140SOL     OW16318   3.630   3.257   6.703
 5140SOL    HW116319   3.718   3.216   6.679
 5140SOL    HW216320   3.636   3.357   6.694
 5141SOL     OW16321   6.783   2.874   1.556
 5141SOL    HW116322   6.837   2.811   1.500
 5141SOL    HW216323   6.778   2.839   1.650
 5142SOL     OW16324   0.132   0.137   2.405
 5142SOL    HW116325   0.192   0.197   2.352
 5142SOL    HW216326   0.110   0.180   2.493
 5143SOL     OW16327   6.893   6.712   2.369
 5143SOL    HW116328   6.946   6.702   2.285
 5143SOL    HW216329   6.843   6.627   2.388
 5144SOL     OW16330   2.334   3.042   5.385
 5144SOL    HW116331   2.398   3.007   5.317
 5144SOL    HW216332   2.380   3.114   5.439
 5145SOL     OW16333   2.386   5.026   6.407
 5145SOL    HW116334   2.310   5.084   6.435
 5145SOL    HW216335   2.357   4.930   6.406
 5146SOL     OW16336   5.385   5.771   6.677
 5146SOL    HW116337   5.341   5.838   6.617
 5146SOL    HW216338   5.339   5.682   6.666
 5147SOL     OW16339   4.343   2.314   3.386
 5147SOL    HW116340   4.361   2.242   3.319
 5147SOL    HW216341   4.354   2.404   3.343
 5148SOL     OW16342   0.723   0.238   6.306
 5148SOL    HW116343   0.763   0.199   6.223
 5148SOL    HW216344   0.677   0.166   6.358
 5149SOL     OW16345   4.693   4.872   4.286
 5149SOL    HW116346   4.793   4.881   4.286
 5149SOL    HW216347   4.664   4.816   4.208
 5150SOL     OW16348   0.246   6.516   3.852
 5150SOL    HW116349   0.167   6.468   3.816
 5150SOL    HW216350   0.256   6.604   3.805
 5151SOL     OW16351   6.046   6.084   2.375
 5151SOL    HW116352   5.958   6.059   2.414
 5151SOL    HW216353   6.099   6.001   2.357
 5152SOL     OW16354   1.798   1.055   0.119
 5152SOL    HW116355   1.710   1.067   0.072
 5152SOL    HW216356   1.857   1.133   0.097
 5153SOL     OW16357   1.070   1.948   0.567
 5153SOL    HW116358   1.089   2.015   0.639
 5153SOL    HW216359   1.059   1.858   0.607
 5154SOL     OW16360   6.678   3.029   0.847
 5154SOL    HW116361   6.682   2.956   0.778
 5154SOL    HW216362   6.690   3.118   0.802
 5155SOL     OW16363   1.557   1.611   0.044
 5155SOL    HW116364   1.655   1.620   0.028
 5155SOL    HW216365   1.542   1.561   0.129
 5156SOL     OW16366   5.584   5.998   5.204
 5156SOL    HW116367   5.549   5.904   5.208
 5156SOL    HW216368   5.610   6.028   5.296
 5157SOL     OW16369   3.499   0.027   1.791
 5157SOL    HW116370   3.494   6.992   1.867
 5157SOL    HW216371   3.408   0.064   1.772
 5158SOL     OW16372   1.574   2.119   1.516
 5158SOL    HW116373   1.518   2.184   1.567
 5158SOL    HW216374   1.657   2.098   1.568
 5159SOL     OW16375   6.466   2.995   5.833
 5159SOL    HW116376   6.443   3.040   5.919
 5159SOL    HW216377   6.386   2.994   5.773
 5160SOL     OW16378   6.253   6.939   3.727
 5160SOL    HW116379   6.342   6.972   3.694
 5160SOL    HW216380   6.184   6.951   3.655
 5161SOL     OW16381   1.771   3.317   0.403
 5161SOL    HW116382   1.744   3.237   0.456
 5161SOL    HW216383   1.790   3.393   0.465
 5162SOL     OW16384   6.723   0.335   3.910
 5162SOL    HW116385   6.673   0.254   3.940
 5162SOL    HW216386   6.813   0.308   3.877
 5163SOL     OW16387   3.140   0.610   2.027
 5163SOL    HW116388   3.124   0.522   1.982
 5163SOL    HW216389   3.238   0.626   2.036
 5164SOL     OW16390   3.000   3.607   6.742
 5164SOL    HW116391   2.916   3.558   6.763
 5164SOL    HW216392   3.047   3.563   6.666
 5165SOL     OW16393   1.884   4.167   6.457
 5165SOL    HW116394   1.807   4.210   6.410
 5165SOL    HW216395   1.956   4.235   6.471
 5166SOL     OW16396   0.898   5.029   0.798
 5166SOL    HW116397   0.863   5.108   0.747
 5166SOL    HW216398   0.884   5.044   0.896
 5167SOL     OW16399   5.399   3.517   5.409
 5167SOL    HW116400   5.446   3.432   5.385
 5167SOL    HW216401   5.359   3.557   5.327
 5168SOL     OW16402   4.547   2.059   3.011
 5168SOL    HW116403   4.545   2.139   2.952
 5168SOL    HW216404   4.569   1.978   2.957
 5169SOL     OW16405   4.201   5.768   4.321
 5169SOL    HW116406   4.144   5.836   4.274
 5169SOL    HW216407   4.218   5.798   4.415
 5170SOL     OW16408   1.858   3.294   6.581
 5170SOL    HW116409   1.946   3.329   6.550
 5170SOL    HW216410   1.857   3.289   6.681
 5171SOL     OW16411   2.278   5.916   6.239
 5171SOL    HW116412   2.302   5.938   6.144
 5171SOL    HW216413   2.314   5.826   6.263
 5172SOL     OW16414   5.959   5.688   5.045
 5172SOL    HW116415   5.918   5.700   5.135
 5172SOL    HW216416   5.969   5.777   5.001
 5173SOL     OW16417   4.219   4.745   5.808
 5173SOL    HW116418   4.316   4.764   5.791
 5173SOL    HW216419   4.176   4.715   5.723
 5174SOL     OW16420   2.328   6.312   3.979
 5174SOL    HW116421   2.268   6.285   3.903
 5174SOL    HW216422   2.307   6.256   4.059
 5175SOL     OW16423   2.830   3.087   0.010
 5175SOL    HW116424   2.873   3.171   0.043
 5175SOL    HW216425   2.842   3.015   0.079
 5176SOL     OW16426   5.877   6.267   6.706
 5176SOL    HW116427   5.976   6.259   6.721
 5176SOL    HW216428   5.848   6.362   6.721
 5177SOL     OW16429   6.421   6.799   0.281
 5177SOL    HW116430   6.450   6.783   0.376
 5177SOL    HW216431   6.322   6.799   0.276
 5178SOL     OW16432   1.176   4.130   1.562
 5178SOL    HW116433   1.254   4.143   1.623
 5178SOL    HW216434   1.096   4.177   1.600
 5179SOL     OW16435   4.962   5.991   2.780
 5179SOL    HW116436   4.886   5.942   2.824
 5179SOL    HW216437   4.970   6.082   2.820
 5180SOL     OW16438   2.021   6.114   2.829
 5180SOL    HW116439   2.003   6.084   2.923
 5180SOL    HW216440   2.032   6.033   2.770
 5181SOL     OW16441   6.890   0.107   6.088
 5181SOL    HW116442   6.890   0.163   6.005
 5181SOL    HW216443   6.821   0.143   6.152
 5182SOL     OW16444   2.661   6.626   3.403
 5182SOL    HW116445   2.754   6.598   3.427
 5182SOL    HW216446   2.609   6.546   3.373
 5183SOL     OW16447   4.341   1.868   3.874
 5183SOL    HW116448   4.369   1.783   3.918
 5183SOL    HW216449   4.243   1.866   3.858
 5184SOL     OW16450   2.732   1.293   3.738
 5184SOL    HW116451   2.721   1.204   3.782
 5184SOL    HW216452   2.741   1.280   3.639
 5185SOL     OW16453   6.539   0.571   1.819
 5185SOL    HW116454   6.639   0.578   1.825
 5185SOL    HW216455   6.514   0.526   1.733
 5186SOL     OW16456   6.690   3.710   6.754
 5186SOL    HW116457   6.722   3.618   6.730
 5186SOL    HW216458   6.737   3.777   6.697
 5187SOL     OW16459   1.247   4.576   5.264
 5187SOL    HW116460   1.162   4.616   5.299
 5187SOL    HW216461   1.242   4.477   5.270
 5188SOL     OW16462   5.802   6.949   2.760
 5188SOL    HW116463   5.739   7.018   2.796
 5188SOL    HW216464   5.771   6.858   2.786
 5189SOL     OW16465   5.265   0.177   6.205
 5189SOL    HW116466   5.216   0.090   6.218
 5189SOL    HW216467   5.360   0.158   6.179
 5190SOL     OW16468   1.945   4.415   0.222
 5190SOL    HW116469   2.034   4.396   0.181
 5190SOL    HW216470   1.956   4.480   0.297
 5191SOL     OW16471   2.685   4.701   1.532
 5191SOL    HW116472   2.777   4.707   1.493
 5191SOL    HW216473   2.650   4.793   1.549
 5192SOL     OW16474   1.740   5.173   2.430
 5192SOL    HW116475   1.751   5.239   2.355
 5192SOL    HW216476   1.725   5.222   2.516
 5193SOL     OW16477   5.599   0.552   5.218
 5193SOL    HW116478   5.626   0.648   5.229
 5193SOL    HW216479   5.647   0.496   5.285
 5194SOL     OW16480   4.984   1.075   5.849
 5194SOL    HW116481   5.039   1.086   5.932
 5194SOL    HW216482   5.041   1.041   5.775
 5195SOL     OW16483   0.462   0.731   4.953
 5195SOL    HW116484   0.364   0.746   4.969
 5195SOL    HW216485   0.515   0.784   5.019
 5196SOL     OW16486   6.253   6.573   3.501
 5196SOL    HW116487   6.296   6.547   3.588
 5196SOL    HW216488   6.228   6.490   3.451
 5197SOL     OW16489   0.924   3.112   4.642
 5197SOL    HW116490   0.850   3.064   4.689
 5197SOL    HW216491   0.885   3.178   4.578
 5198SOL     OW16492   5.593   5.259   3.531
 5198SOL    HW116493   5.674   5.234   3.584
 5198SOL    HW216494   5.615   5.336   3.472
 5199SOL     OW16495   0.620   4.605   1.859
 5199SOL    HW116496   0.566   4.681   1.822
 5199SOL    HW216497   0.575   4.518   1.836
 5200SOL     OW16498   7.026   3.815   4.570
 5200SOL    HW116499   0.071   3.872   4.533
 5200SOL    HW216500   0.015   3.719   4.547
 5201SOL     OW16501   0.826   5.293   4.266
 5201SOL    HW116502   0.907   5.339   4.302
 5201SOL    HW216503   0.816   5.314   4.168
 5202SOL     OW16504   0.952   4.962   1.750
 5202SOL    HW116505   0.911   4.987   1.838
 5202SOL    HW216506   0.932   4.866   1.730
 5203SOL     OW16507   0.538   3.128   0.288
 5203SOL    HW116508   0.595   3.105   0.210
 5203SOL    HW216509   0.528   3.048   0.347
 5204SOL     OW16510   4.661   4.086   0.005
 5204SOL    HW116511   4.752   4.126   7.023
 5204SOL    HW216512   4.623   4.067   6.943
 5205SOL     OW16513   1.693   7.014   1.076
 5205SOL    HW116514   1.627   6.942   1.053
 5205SOL    HW216515   1.694   0.054   1.003
 5206SOL     OW16516   0.306   4.345   4.889
 5206SOL    HW116517   0.374   4.274   4.871
 5206SOL    HW216518   0.270   4.380   4.803
 5207SOL     OW16519   1.597   4.681   4.063
 5207SOL    HW116520   1.617   4.611   4.132
 5207SOL    HW216521   1.505   4.667   4.027
 5208SOL     OW16522   4.336   1.385   7.023
 5208SOL    HW116523   4.310   1.477   0.025
 5208SOL    HW216524   4.338   1.382   6.923
 5209SOL     OW16525   5.525   6.010   3.038
 5209SOL    HW116526   5.426   6.013   3.055
 5209SOL    HW216527   5.553   6.095   2.992
 5210SOL     OW16528   4.339   4.661   3.397
 5210SOL    HW116529   4.392   4.604   3.460
 5210SOL    HW216530   4.342   4.621   3.305
 5211SOL     OW16531   3.728   3.599   2.588
 5211SOL    HW116532   3.658   3.642   2.530
 5211SOL    HW216533   3.772   3.668   2.644
 5212SOL     OW16534   0.792   1.611   0.195
 5212SOL    HW116535   0.806   1.512   0.191
 5212SOL    HW216536   0.874   1.655   0.233
 5213SOL     OW16537   4.027   2.043   6.905
 5213SOL    HW116538   4.015   1.967   6.969
 5213SOL    HW216539   4.106   2.025   6.846
 5214SOL     OW16540   5.580   1.763   6.443
 5214SOL    HW116541   5.566   1.795   6.537
 5214SOL    HW216542   5.491   1.758   6.397
 5215SOL     OW16543   5.389   5.288   2.386
 5215SOL    HW116544   5.418   5.360   2.323
 5215SOL    HW216545   5.468   5.257   2.440
 5216SOL     OW16546   4.677   5.811   0.997
 5216SOL    HW116547   4.774   5.817   1.020
 5216SOL    HW216548   4.638   5.728   1.037
 5217SOL     OW16549   3.003   4.884   3.887
 5217SOL    HW116550   2.927   4.948   3.892
 5217SOL    HW216551   3.015   4.852   3.793
 5218SOL     OW16552   1.724   6.861   4.462
 5218SOL    HW116553   1.810   6.913   4.465
 5218SOL    HW216554   1.731   6.784   4.526
 5219SOL     OW16555   2.424   5.505   0.467
 5219SOL    HW116556   2.417   5.561   0.384
 5219SOL    HW216557   2.344   5.522   0.525
 5220SOL     OW16558   0.395   6.493   2.671
 5220SOL    HW116559   0.407   6.413   2.730
 5220SOL    HW216560   0.343   6.563   2.721
 5221SOL     OW16561   5.042   1.584   4.969
 5221SOL    HW116562   5.057   1.666   4.914
 5221SOL    HW216563   4.958   1.594   5.022
 5222SOL     OW16564   1.218   0.114   2.511
 5222SOL    HW116565   1.230   0.070   2.422
 5222SOL    HW216566   1.302   0.105   2.565
 5223SOL     OW16567   5.084   6.949   1.290
 5223SOL    HW116568   5.107   7.023   1.353
 5223SOL    HW216569   5.089   6.862   1.339
 5224SOL     OW16570   5.909   1.788   2.833
 5224SOL    HW116571   5.913   1.744   2.743
 5224SOL    HW216572   6.001   1.789   2.873
 5225SOL     OW16573   5.476   5.862   5.454
 5225SOL    HW116574   5.420   5.944   5.464
 5225SOL    HW216575   5.570   5.881   5.484
 5226SOL     OW16576   1.413   6.411   4.255
 5226SOL    HW116577   1.319   6.417   4.289
 5226SOL    HW216578   1.418   6.448   4.162
 5227SOL     OW16579   5.956   4.709   2.979
 5227SOL    HW116580   6.016   4.638   3.016
 5227SOL    HW216581   5.862   4.676   2.976
 5228SOL     OW16582   5.793   0.951   1.120
 5228SOL    HW116583   5.726   0.881   1.094
 5228SOL    HW216584   5.878   0.937   1.068
 5229SOL     OW16585   0.965   4.374   4.939
 5229SOL    HW116586   0.888   4.341   4.884
 5229SOL    HW216587   1.047   4.322   4.916
 5230SOL     OW16588   1.049   6.277   6.996
 5230SOL    HW116589   0.950   6.282   7.006
 5230SOL    HW216590   1.093   6.302   0.054
 5231SOL     OW16591   3.706   3.270   4.008
 5231SOL    HW116592   3.798   3.242   4.035
 5231SOL    HW216593   3.694   3.367   4.027
 5232SOL     OW16594   4.588   2.866   6.307
 5232SOL    HW116595   4.563   2.878   6.403
 5232SOL    HW216596   4.685   2.841   6.300
 5233SOL     OW16597   0.562   0.471   2.535
 5233SOL    HW116598   0.646   0.428   2.503
 5233SOL    HW216599   0.509   0.502   2.457
 5234SOL     OW16600   3.696   6.310   1.284
 5234SOL    HW116601   3.758   6.241   1.245
 5234SOL    HW216602   3.610   6.266   1.310
 5235SOL     OW16603   0.775   3.384   1.334
 5235SOL    HW116604   0.796   3.433   1.250
 5235SOL    HW216605   0.713   3.308   1.314
 5236SOL     OW16606   5.100   3.003   0.737
 5236SOL    HW116607   5.143   2.919   0.770
 5236SOL    HW216608   5.003   3.003   0.761
 5237SOL     OW16609   2.552   1.859   4.701
 5237SOL    HW116610   2.468   1.895   4.660
 5237SOL    HW216611   2.623   1.929   4.700
 5238SOL     OW16612   1.703   4.149   1.191
 5238SOL    HW116613   1.657   4.181   1.273
 5238SOL    HW216614   1.802   4.148   1.206
 5239SOL     OW16615   2.933   3.430   4.897
 5239SOL    HW116616   2.888   3.420   4.808
 5239SOL    HW216617   3.015   3.485   4.887
 5240SOL     OW16618   3.357   2.073   5.029
 5240SOL    HW116619   3.301   2.154   5.047
 5240SOL    HW216620   3.303   1.991   5.050
 5241SOL     OW16621   2.351   5.618   6.242
 5241SOL    HW116622   2.450   5.603   6.235
 5241SOL    HW216623   2.303   5.541   6.199
 5242SOL     OW16624   5.120   1.315   5.980
 5242SOL    HW116625   5.213   1.277   5.988
 5242SOL    HW216626   5.103   1.377   6.057
 5243SOL     OW16627   1.094   4.594   1.080
 5243SOL    HW116628   1.027   4.632   1.018
 5243SOL    HW216629   1.111   4.498   1.056
 5244SOL     OW16630   5.563   3.860   6.508
 5244SOL    HW116631   5.584   3.804   6.588
 5244SOL    HW216632   5.544   3.954   6.536
 5245SOL     OW16633   5.319   4.036   6.629
 5245SOL    HW116634   5.303   3.973   6.704
 5245SOL    HW216635   5.296   4.129   6.657
 5246SOL     OW16636   1.114   3.059   2.556
 5246SOL    HW116637   1.065   3.117   2.621
 5246SOL    HW216638   1.188   3.012   2.604
 5247SOL     OW16639   0.442   5.182   1.605
 5247SOL    HW116640   0.345   5.185   1.631
 5247SOL    HW216641   0.464   5.262   1.550
 5248SOL     OW16642   4.440   0.886   6.710
 5248SOL    HW116643   4.495   0.809   6.678
 5248SOL    HW216644   4.349   0.852   6.738
 5249SOL     OW16645   1.283   5.548   5.417
 5249SOL    HW116646   1.358   5.485   5.440
 5249SOL    HW216647   1.196   5.503   5.433
 5250SOL     OW16648   0.634   1.040   5.851
 5250SOL    HW116649   0.671   1.022   5.760
 5250SOL    HW216650   0.708   1.034   5.919
 5251SOL     OW16651   6.924   2.968   1.232
 5251SOL    HW116652   6.878   2.883   1.257
 5251SOL    HW216653   6.995   2.988   1.300
 5252SOL     OW16654   4.020   5.789   0.591
 5252SOL    HW116655   3.981   5.704   0.559
 5252SOL    HW216656   4.116   5.795   0.561
 5253SOL     OW16657   5.583   3.130   3.680
 5253SOL    HW116658   5.636   3.119   3.764
 5253SOL    HW216659   5.486   3.142   3.703
 5254SOL     OW16660   4.477   1.041   3.736
 5254SOL    HW116661   4.471   0.947   3.705
 5254SOL    HW216662   4.495   1.043   3.835
 5255SOL     OW16663   3.369   6.839   4.552
 5255SOL    HW116664   3.368   6.790   4.465
 5255SOL    HW216665   3.447   6.808   4.606
 5256SOL     OW16666   5.712   6.503   3.613
 5256SOL    HW116667   5.747   6.510   3.707
 5256SOL    HW216668   5.757   6.572   3.556
 5257SOL     OW16669   3.246   1.177   1.605
 5257SOL    HW116670   3.341   1.152   1.624
 5257SOL    HW216671   3.186   1.125   1.665
 5258SOL     OW16672   6.232   2.576   1.861
 5258SOL    HW116673   6.194   2.615   1.945
 5258SOL    HW216674   6.183   2.613   1.782
 5259SOL     OW16675   4.821   4.898   2.607
 5259SOL    HW116676   4.774   4.856   2.685
 5259SOL    HW216677   4.756   4.913   2.533
 5260SOL     OW16678   5.246   3.320   1.334
 5260SOL    HW116679   5.243   3.408   1.287
 5260SOL    HW216680   5.216   3.247   1.273
 5261SOL     OW16681   1.895   2.459   4.541
 5261SOL    HW116682   1.991   2.446   4.514
 5261SOL    HW216683   1.886   2.548   4.585
 5262SOL     OW16684   2.700   6.878   2.161
 5262SOL    HW116685   2.679   6.927   2.246
 5262SOL    HW216686   2.711   6.781   2.181
 5263SOL     OW16687   1.062   6.469   0.565
 5263SOL    HW116688   1.063   6.458   0.664
 5263SOL    HW216689   0.969   6.489   0.535
 5264SOL     OW16690   0.494   2.458   0.795
 5264SOL    HW116691   0.410   2.465   0.743
 5264SOL    HW216692   0.550   2.382   0.759
 5265SOL     OW16693   4.870   5.159   1.958
 5265SOL    HW116694   4.913   5.114   1.880
 5265SOL    HW216695   4.780   5.119   1.974
 5266SOL     OW16696   2.029   6.777   1.043
 5266SOL    HW116697   1.992   6.759   0.951
 5266SOL    HW216698   2.119   6.821   1.034
 5267SOL     OW16699   5.348   4.667   4.623
 5267SOL    HW116700   5.274   4.728   4.593
 5267SOL    HW216701   5.411   4.652   4.547
 5268SOL     OW16702   5.983   4.686   3.980
 5268SOL    HW116703   6.056   4.626   4.012
 5268SOL    HW216704   5.928   4.715   4.058
 5269SOL     OW16705   1.544   5.564   4.411
 5269SOL    HW116706   1.622   5.593   4.355
 5269SOL    HW216707   1.459   5.594   4.368
 5270SOL     OW16708   6.361   2.955   2.419
 5270SOL    HW116709   6.320   2.923   2.504
 5270SOL    HW216710   6.379   2.876   2.359
 5271SOL     OW16711   4.844   4.850   4.977
 5271SOL    HW116712   4.930   4.868   4.930
 5271SOL    HW216713   4.769   4.850   4.910
 5272SOL     OW16714   1.351   0.876   4.458
 5272SOL    HW116715   1.352   0.839   4.551
 5272SOL    HW216716   1.436   0.852   4.412
 5273SOL     OW16717   0.667   0.884   3.908
 5273SOL    HW116718   0.648   0.850   3.815
 5273SOL    HW216719   0.629   0.976   3.918
 5274SOL     OW16720   6.413   5.497   3.866
 5274SOL    HW116721   6.385   5.512   3.961
 5274SOL    HW216722   6.372   5.413   3.832
 5275SOL     OW16723   2.783   6.990   0.005
 5275SOL    HW116724   2.701   6.934   0.019
 5275SOL    HW216725   2.778   0.043   0.062
 5276SOL     OW16726   0.351   6.763   1.139
 5276SOL    HW116727   0.345   6.768   1.039
 5276SOL    HW216728   0.386   6.673   1.165
 5277SOL     OW16729   0.902   1.895   2.639
 5277SOL    HW116730   0.971   1.824   2.647
 5277SOL    HW216731   0.830   1.879   2.707
 5278SOL     OW16732   1.405   4.990   5.796
 5278SOL    HW116733   1.496   5.027   5.815
 5278SOL    HW216734   1.345   5.007   5.875
 5279SOL     OW16735   2.202   6.088   6.478
 5279SOL    HW116736   2.161   6.177   6.459
 5279SOL    HW216737   2.253   6.056   6.398
 5280SOL     OW16738   4.133   6.353   5.055
 5280SOL    HW116739   4.208   6.371   5.118
 5280SOL    HW216740   4.067   6.292   5.098
 5281SOL     OW16741   2.571   0.760   4.749
 5281SOL    HW116742   2.488   0.715   4.717
 5281SOL    HW216743   2.572   0.854   4.716
 5282SOL     OW16744   1.516   6.856   1.628
 5282SOL    HW116745   1.541   6.869   1.724
 5282SOL    HW216746   1.524   6.944   1.579
 5283SOL     OW16747   0.949   0.958   4.706
 5283SOL    HW116748   0.949   0.880   4.643
 5283SOL    HW216749   1.035   1.007   4.699
 5284SOL     OW16750   4.308   2.511   1.185
 5284SOL    HW116751   4.231   2.562   1.225
 5284SOL    HW216752   4.392   2.532   1.236
 5285SOL     OW16753   1.532   1.996   4.202
 5285SOL    HW116754   1.600   2.068   4.218
 5285SOL    HW216755   1.492   2.008   4.111
 5286SOL     OW16756   6.141   3.647   0.776
 5286SOL    HW116757   6.045   3.628   0.797
 5286SOL    HW216758   6.146   3.724   0.713
 5287SOL     OW16759   2.655   5.409   1.458
 5287SOL    HW116760   2.600   5.326   1.457
 5287SOL    HW216761   2.736   5.396   1.402
 5288SOL     OW16762   3.805   0.620   1.950
 5288SOL    HW116763   3.815   0.548   1.882
 5288SOL    HW216764   3.890   0.673   1.955
 5289SOL     OW16765   2.254   4.734   6.684
 5289SOL    HW116766   2.328   4.670   6.669
 5289SOL    HW216767   2.215   4.763   6.597
 5290SOL     OW16768   1.489   2.864   5.245
 5290SOL    HW116769   1.465   2.798   5.174
 5290SOL    HW216770   1.555   2.823   5.308
 5291SOL     OW16771   2.749   4.744   4.714
 5291SOL    HW116772   2.814   4.783   4.649
 5291SOL    HW216773   2.796   4.681   4.775
 5292SOL     OW16774   6.989   4.056   6.065
 5292SOL    HW116775   6.901   4.033   6.024
 5292SOL    HW216776   6.978   4.061   6.165
 5293SOL     OW16777   2.110   6.144   4.563
 5293SOL    HW116778   2.024   6.193   4.551
 5293SOL    HW216779   2.145   6.117   4.474
 5294SOL     OW16780   3.613   0.875   5.220
 5294SOL    HW116781   3.539   0.818   5.255
 5294SOL    HW216782   3.696   0.859   5.274
 5295SOL     OW16783   2.624   1.762   2.342
 5295SOL    HW116784   2.554   1.793   2.407
 5295SOL    HW216785   2.699   1.828   2.341
 5296SOL     OW16786   4.863   5.104   1.381
 5296SOL    HW116787   4.787   5.073   1.439
 5296SOL    HW216788   4.949   5.068   1.417
 5297SOL     OW16789   2.602   4.781   0.562
 5297SOL    HW116790   2.702   4.776   0.555
 5297SOL    HW216791   2.561   4.708   0.507
 5298SOL     OW16792   2.294   0.504   0.475
 5298SOL    HW116793   2.304   0.475   0.380
 5298SOL    HW216794   2.378   0.484   0.526
 5299SOL     OW16795   2.643   1.970   0.471
 5299SOL    HW116796   2.634   1.884   0.522
 5299SOL    HW216797   2.707   2.030   0.519
 5300SOL     OW16798   2.206   4.408   0.165
 5300SOL    HW116799   2.247   4.331   0.214
 5300SOL    HW216800   2.208   4.389   0.067
 5301SOL     OW16801   5.353   0.431   5.491
 5301SOL    HW116802   5.334   0.522   5.529
 5301SOL    HW216803   5.288   0.366   5.528
 5302SOL     OW16804   5.614   5.882   3.276
 5302SOL    HW116805   5.583   5.807   3.217
 5302SOL    HW216806   5.602   5.969   3.229
 5303SOL     OW16807   0.264   5.121   5.959
 5303SOL    HW116808   0.332   5.142   6.030
 5303SOL    HW216809   0.226   5.207   5.923
 5304SOL     OW16810   6.826   0.678   1.446
 5304SOL    HW116811   6.845   0.734   1.365
 5304SOL    HW216812   6.742   0.626   1.431
 5305SOL     OW16813   1.602   4.988   3.039
 5305SOL    HW116814   1.548   5.004   3.121
 5305SOL    HW216815   1.698   5.010   3.058
 5306SOL     OW16816   6.869   3.733   5.656
 5306SOL    HW116817   6.770   3.747   5.651
 5306SOL    HW216818   6.888   3.638   5.679
 5307SOL     OW16819   6.004   2.347   1.589
 5307SOL    HW116820   5.942   2.274   1.562
 5307SOL    HW216821   5.998   2.422   1.523
 5308SOL     OW16822   1.243   4.362   2.848
 5308SOL    HW116823   1.222   4.309   2.930
 5308SOL    HW216824   1.178   4.437   2.839
 5309SOL     OW16825   5.813   6.261   2.806
 5309SOL    HW116826   5.761   6.235   2.724
 5309SOL    HW216827   5.854   6.351   2.792
 5310SOL     OW16828   6.088   3.134   2.708
 5310SOL    HW116829   6.064   3.210   2.647
 5310SOL    HW216830   6.034   3.054   2.684
 5311SOL     OW16831   6.146   0.371   0.724
 5311SOL    HW116832   6.164   0.382   0.626
 5311SOL    HW216833   6.089   0.290   0.738
 5312SOL     OW16834   6.965   6.357   0.649
 5312SOL    HW116835   6.872   6.395   0.652
 5312SOL    HW216836   6.960   6.257   0.657
 5313SOL     OW16837   0.403   4.895   5.568
 5313SOL    HW116838   0.360   4.940   5.490
 5313SOL    HW216839   0.336   4.887   5.643
 5314SOL     OW16840   6.512   0.859   1.491
 5314SOL    HW116841   6.577   0.796   1.449
 5314SOL    HW216842   6.450   0.894   1.421
 5315SOL     OW16843   4.349   1.482   3.818
 5315SOL    HW116844   4.255   1.515   3.824
 5315SOL    HW216845   4.410   1.561   3.808
 5316SOL     OW16846   0.508   2.722   4.975
 5316SOL    HW116847   0.510   2.675   5.064
 5316SOL    HW216848   0.599   2.755   4.953
 5317SOL     OW16849   6.846   1.788   6.250
 5317SOL    HW116850   6.848   1.751   6.158
 5317SOL    HW216851   6.911   1.738   6.308
 5318SOL     OW16852   6.865   2.911   7.008
 5318SOL    HW116853   6.887   2.821   6.971
 5318SOL    HW216854   6.860   2.905   0.080
 5319SOL     OW16855   4.122   6.554   1.399
 5319SOL    HW116856   4.192   6.609   1.353
 5319SOL    HW216857   4.146   6.457   1.391
 5320SOL     OW16858   3.383   5.855   1.132
 5320SOL    HW116859   3.298   5.905   1.149
 5320SOL    HW216860   3.461   5.915   1.151
 5321SOL     OW16861   1.740   4.026   4.945
 5321SOL    HW116862   1.816   4.044   4.882
 5321SOL    HW216863   1.698   4.113   4.972
 5322SOL     OW16864   5.587   6.773   1.859
 5322SOL    HW116865   5.532   6.691   1.847
 5322SOL    HW216866   5.622   6.778   1.952
 5323SOL     OW16867   4.515   1.414   5.417
 5323SOL    HW116868   4.450   1.340   5.433
 5323SOL    HW216869   4.465   1.501   5.407
 5324SOL     OW16870   2.288   1.714   0.489
 5324SOL    HW116871   2.323   1.734   0.398
 5324SOL    HW216872   2.228   1.634   0.485
 5325SOL     OW16873   2.611   2.144   4.928
 5325SOL    HW116874   2.622   2.141   5.027
 5325SOL    HW216875   2.514   2.152   4.905
 5326SOL     OW16876   6.181   6.532   2.531
 5326SOL    HW116877   6.206   6.605   2.595
 5326SOL    HW216878   6.264   6.484   2.502
 5327SOL     OW16879   5.792   2.521   5.195
 5327SOL    HW116880   5.884   2.512   5.157
 5327SOL    HW216881   5.746   2.433   5.191
 5328SOL     OW16882   4.392   4.605   6.791
 5328SOL    HW116883   4.480   4.644   6.762
 5328SOL    HW216884   4.331   4.602   6.712
 5329SOL     OW16885   1.315   6.634   6.618
 5329SOL    HW116886   1.226   6.665   6.652
 5329SOL    HW216887   1.350   6.701   6.553
 5330SOL     OW16888   2.451   3.756   0.795
 5330SOL    HW116889   2.363   3.741   0.840
 5330SOL    HW216890   2.520   3.779   0.863
 5331SOL     OW16891   6.313   0.923   6.798
 5331SOL    HW116892   6.363   0.845   6.761
 5331SOL    HW216893   6.245   0.890   6.865
 5332SOL     OW16894   1.171   5.048   2.402
 5332SOL    HW116895   1.128   4.965   2.439
 5332SOL    HW216896   1.222   5.025   2.319
 5333SOL     OW16897   0.732   6.486   4.081
 5333SOL    HW116898   0.767   6.497   4.174
 5333SOL    HW216899   0.637   6.454   4.084
 5334SOL     OW16900   2.795   0.412   4.525
 5334SOL    HW116901   2.772   0.496   4.477
 5334SOL    HW216902   2.894   0.406   4.537
 5335SOL     OW16903   6.649   5.584   0.838
 5335SOL    HW116904   6.557   5.596   0.800
 5335SOL    HW216905   6.702   5.524   0.778
 5336SOL     OW16906   1.604   4.217   2.408
 5336SOL    HW116907   1.598   4.130   2.359
 5336SOL    HW216908   1.548   4.212   2.491
 5337SOL     OW16909   4.460   4.373   0.980
 5337SOL    HW116910   4.545   4.367   1.032
 5337SOL    HW216911   4.481   4.377   0.882
 5338SOL     OW16912   6.421   2.351   6.808
 5338SOL    HW116913   6.415   2.269   6.751
 5338SOL    HW216914   6.347   2.414   6.783
 5339SOL     OW16915   6.482   2.306   3.631
 5339SOL    HW116916   6.579   2.292   3.649
 5339SOL    HW216917   6.428   2.264   3.704
 5340SOL     OW16918   5.361   2.637   6.722
 5340SOL    HW116919   5.354   2.735   6.702
 5340SOL    HW216920   5.275   2.592   6.699
 5341SOL     OW16921   4.878   0.461   6.895
 5341SOL    HW116922   4.909   0.522   6.968
 5341SOL    HW216923   4.944   0.388   6.881
 5342SOL     OW16924   4.097   1.264   5.782
 5342SOL    HW116925   4.082   1.196   5.712
 5342SOL    HW216926   4.015   1.321   5.792
 5343SOL     OW16927   4.050   3.831   2.385
 5343SOL    HW116928   4.113   3.887   2.331
 5343SOL    HW216929   4.010   3.886   2.458
 5344SOL     OW16930   1.977   2.624   3.035
 5344SOL    HW116931   2.023   2.574   2.962
 5344SOL    HW216932   1.992   2.578   3.122
 5345SOL     OW16933   4.269   6.922   1.233
 5345SOL    HW116934   4.269   7.003   1.175
 5345SOL    HW216935   4.193   6.927   1.298
 5346SOL     OW16936   2.933   6.279   3.211
 5346SOL    HW116937   2.850   6.257   3.262
 5346SOL    HW216938   2.953   6.377   3.220
 5347SOL     OW16939   6.996   1.937   1.011
 5347SOL    HW116940   7.009   2.023   1.061
 5347SOL    HW216941   6.941   1.954   0.929
 5348SOL     OW16942   1.022   0.880   6.958
 5348SOL    HW116943   1.078   0.929   7.024
 5348SOL    HW216944   1.069   0.797   6.929
 5349SOL     OW16945   6.818   0.800   1.154
 5349SOL    HW116946   6.910   0.840   1.149
 5349SOL    HW216947   6.750   0.873   1.144
 5350SOL     OW16948   2.538   1.343   6.420
 5350SOL    HW116949   2.546   1.411   6.494
 5350SOL    HW216950   2.571   1.255   6.453
 5351SOL     OW16951   4.442   6.646   1.676
 5351SOL    HW116952   4.413   6.675   1.767
 5351SOL    HW216953   4.525   6.695   1.650
 5352SOL     OW16954   3.103   5.872   3.667
 5352SOL    HW116955   3.128   5.956   3.714
 5352SOL    HW216956   3.061   5.808   3.731
 5353SOL     OW16957   5.699   5.526   5.452
 5353SOL    HW116958   5.618   5.583   5.465
 5353SOL    HW216959   5.671   5.434   5.424
 5354SOL     OW16960   1.166   3.863   1.574
 5354SOL    HW116961   1.162   3.962   1.564
 5354SOL    HW216962   1.079   3.823   1.546
 5355SOL     OW16963   4.383   1.908   4.341
 5355SOL    HW116964   4.468   1.921   4.393
 5355SOL    HW216965   4.336   1.996   4.332
 5356SOL     OW16966   6.538   3.867   1.446
 5356SOL    HW116967   6.514   3.887   1.351
 5356SOL    HW216968   6.548   3.768   1.458
 5357SOL     OW16969   4.025   0.174   0.223
 5357SOL    HW116970   4.062   0.081   0.226
 5357SOL    HW216971   3.929   0.171   0.194
 5358SOL     OW16972   4.902   3.231   0.466
 5358SOL    HW116973   4.841   3.261   0.392
 5358SOL    HW216974   4.849   3.220   0.550
 5359SOL     OW16975   1.921   1.401   0.234
 5359SOL    HW116976   1.994   1.334   0.219
 5359SOL    HW216977   1.936   1.480   0.175
 5360SOL     OW16978   3.602   6.637   6.483
 5360SOL    HW116979   3.553   6.721   6.457
 5360SOL    HW216980   3.700   6.652   6.474
 5361SOL     OW16981   1.933   0.777   5.663
 5361SOL    HW116982   1.846   0.798   5.619
 5361SOL    HW216983   2.001   0.845   5.637
 5362SOL     OW16984   5.025   5.134   3.018
 5362SOL    HW116985   5.017   5.057   2.955
 5362SOL    HW216986   5.062   5.213   2.970
 5363SOL     OW16987   0.623   4.931   6.436
 5363SOL    HW116988   0.687   4.996   6.395
 5363SOL    HW216989   0.658   4.838   6.425
 5364SOL     OW16990   6.885   6.631   0.669
 5364SOL    HW116991   6.975   6.665   0.641
 5364SOL    HW216992   6.884   6.619   0.768
 5365SOL     OW16993   4.629   1.953   5.544
 5365SOL    HW116994   4.662   1.996   5.628
 5365SOL    HW216995   4.686   1.873   5.523
 5366SOL     OW16996   4.316   3.379   0.670
 5366SOL    HW116997   4.408   3.386   0.710
 5366SOL    HW216998   4.254   3.339   0.737
 5367SOL     OW16999   0.466   4.835   1.810
 5367SOL    HW117000   0.469   4.845   1.710
 5367SOL    HW217001   0.394   4.894   1.847
 5368SOL     OW17002   5.905   2.089   3.424
 5368SOL    HW117003   5.887   2.020   3.354
 5368SOL    HW217004   5.883   2.180   3.388
 5369SOL     OW17005   1.887   4.334   2.885
 5369SOL    HW117006   1.923   4.366   2.798
 5369SOL    HW217007   1.915   4.239   2.901
 5370SOL     OW17008   3.667   2.726   1.198
 5370SOL    HW117009   3.680   2.627   1.207
 5370SOL    HW217010   3.569   2.747   1.202
 5371SOL     OW17011   1.187   4.233   4.885
 5371SOL    HW117012   1.257   4.277   4.829
 5371SOL    HW217013   1.167   4.142   4.850
 5372SOL     OW17014   2.623   5.473   2.767
 5372SOL    HW117015   2.647   5.420   2.685
 5372SOL    HW217016   2.539   5.437   2.807
 5373SOL     OW17017   3.553   4.911   3.904
 5373SOL    HW117018   3.468   4.908   3.957
 5373SOL    HW217019   3.631   4.893   3.965
 5374SOL     OW17020   2.187   2.295   6.468
 5374SOL    HW117021   2.106   2.333   6.513
 5374SOL    HW217022   2.269   2.338   6.505
 5375SOL     OW17023   1.499   4.214   4.403
 5375SOL    HW117024   1.513   4.231   4.305
 5375SOL    HW217025   1.521   4.297   4.454
 5376SOL     OW17026   1.592   3.533   1.530
 5376SOL    HW117027   1.582   3.484   1.444
 5376SOL    HW217028   1.666   3.493   1.583
 5377SOL     OW17029   0.592   0.894   1.345
 5377SOL    HW117030   0.689   0.877   1.361
 5377SOL    HW217031   0.538   0.820   1.385
 5378SOL     OW17032   5.742   0.778   0.633
 5378SOL    HW117033   5.734   0.874   0.658
 5378SOL    HW217034   5.791   0.770   0.546
 5379SOL     OW17035   0.336   5.870   2.334
 5379SOL    HW117036   0.271   5.901   2.265
 5379SOL    HW217037   0.349   5.942   2.403
 5380SOL     OW17038   3.127   0.482   3.185
 5380SOL    HW117039   3.154   0.387   3.199
 5380SOL    HW217040   3.191   0.542   3.234
 5381SOL     OW17041   5.886   4.032   1.507
 5381SOL    HW117042   5.846   3.969   1.574
 5381SOL    HW217043   5.973   4.067   1.543
 5382SOL     OW17044   2.627   0.943   1.142
 5382SOL    HW117045   2.650   0.910   1.234
 5382SOL    HW217046   2.709   0.940   1.085
 5383SOL     OW17047   2.373   2.150   4.777
 5383SOL    HW117048   2.277   2.143   4.803
 5383SOL    HW217049   2.387   2.101   4.691
 5384SOL     OW17050   6.263   7.017   4.213
 5384SOL    HW117051   6.318   6.952   4.266
 5384SOL    HW217052   6.170   7.020   4.250
 5385SOL     OW17053   3.479   3.921   2.486
 5385SOL    HW117054   3.446   3.979   2.412
 5385SOL    HW217055   3.563   3.960   2.524
 5386SOL     OW17056   5.439   6.300   4.536
 5386SOL    HW117057   5.525   6.257   4.509
 5386SOL    HW217058   5.415   6.271   4.628
 5387SOL     OW17059   2.856   5.115   2.037
 5387SOL    HW117060   2.898   5.044   1.981
 5387SOL    HW217061   2.827   5.075   2.124
 5388SOL     OW17062   5.453   6.457   2.820
 5388SOL    HW117063   5.360   6.429   2.796
 5388SOL    HW217064   5.451   6.550   2.857
 5389SOL     OW17065   4.555   1.685   1.139
 5389SOL    HW117066   4.565   1.605   1.080
 5389SOL    HW217067   4.623   1.681   1.212
 5390SOL     OW17068   6.191   5.009   5.699
 5390SOL    HW117069   6.097   4.989   5.671
 5390SOL    HW217070   6.190   5.081   5.769
 5391SOL     OW17071   2.565   2.846   0.535
 5391SOL    HW117072   2.538   2.876   0.444
 5391SOL    HW217073   2.664   2.836   0.539
 5392SOL     OW17074   6.249   3.486   2.227
 5392SOL    HW117075   6.195   3.521   2.304
 5392SOL    HW217076   6.304   3.408   2.257
 5393SOL     OW17077   6.859   6.770   0.035
 5393SOL    HW117078   6.768   6.742   0.063
 5393SOL    HW217079   6.853   6.823   6.978
 5394SOL     OW17080   1.003   3.805   5.627
 5394SOL    HW117081   0.962   3.769   5.711
 5394SOL    HW217082   0.959   3.892   5.603
 5395SOL     OW17083   3.743   0.834   0.395
 5395SOL    HW117084   3.771   0.785   0.313
 5395SOL    HW217085   3.738   0.769   0.472
 5396SOL     OW17086   5.485   3.765   2.428
 5396SOL    HW117087   5.487   3.719   2.517
 5396SOL    HW217088   5.422   3.717   2.367
 5397SOL     OW17089   0.089   3.634   1.731
 5397SOL    HW117090   0.072   3.548   1.779
 5397SOL    HW217091   0.126   3.614   1.640
 5398SOL     OW17092   3.024   2.652   1.773
 5398SOL    HW117093   3.016   2.631   1.675
 5398SOL    HW217094   2.988   2.576   1.826
 5399SOL     OW17095   1.746   6.031   1.587
 5399SOL    HW117096   1.712   6.023   1.680
 5399SOL    HW217097   1.675   6.002   1.523
 5400SOL     OW17098   3.038   4.638   0.358
 5400SOL    HW117099   2.945   4.600   0.349
 5400SOL    HW217100   3.052   4.670   0.452
 5401SOL     OW17101   5.959   3.052   2.377
 5401SOL    HW117102   6.049   3.091   2.358
 5401SOL    HW217103   5.963   2.996   2.460
 5402SOL     OW17104   1.414   6.263   2.045
 5402SOL    HW117105   1.500   6.234   2.087
 5402SOL    HW217106   1.424   6.264   1.946
 5403SOL     OW17107   0.126   3.641   6.557
 5403SOL    HW117108   0.189   3.566   6.536
 5403SOL    HW217109   0.044   3.632   6.501
 5404SOL     OW17110   1.553   2.898   3.927
 5404SOL    HW117111   1.646   2.875   3.958
 5404SOL    HW217112   1.499   2.929   4.005
 5405SOL     OW17113   6.683   5.209   5.762
 5405SOL    HW117114   6.651   5.155   5.684
 5405SOL    HW217115   6.620   5.196   5.839
 5406SOL     OW17116   1.713   0.850   6.529
 5406SOL    HW117117   1.655   0.838   6.609
 5406SOL    HW217118   1.710   0.945   6.499
 5407SOL     OW17119   3.548   3.439   0.363
 5407SOL    HW117120   3.593   3.496   0.432
 5407SOL    HW217121   3.566   3.343   0.383
 5408SOL     OW17122   2.378   0.757   0.065
 5408SOL    HW117123   2.389   0.677   0.007
 5408SOL    HW217124   2.284   0.791   0.058
 5409SOL     OW17125   3.830   0.924   3.098
 5409SOL    HW117126   3.762   0.854   3.074
 5409SOL    HW217127   3.784   1.013   3.104
 5410SOL     OW17128   2.805   1.895   1.752
 5410SOL    HW117129   2.884   1.864   1.805
 5410SOL    HW217130   2.783   1.989   1.775
 5411SOL     OW17131   0.802   5.312   5.354
 5411SOL    HW117132   0.722   5.365   5.380
 5411SOL    HW217133   0.772   5.228   5.307
 5412SOL     OW17134   5.661   2.979   0.565
 5412SOL    HW117135   5.661   2.905   0.498
 5412SOL    HW217136   5.572   2.982   0.611
 5413SOL     OW17137   2.423   1.490   1.990
 5413SOL    HW117138   2.460   1.460   1.902
 5413SOL    HW217139   2.451   1.584   2.008
 5414SOL     OW17140   4.194   1.536   5.147
 5414SOL    HW117141   4.184   1.489   5.059
 5414SOL    HW217142   4.103   1.559   5.182
 5415SOL     OW17143   6.331   5.426   2.056
 5415SOL    HW117144   6.288   5.336   2.047
 5415SOL    HW217145   6.355   5.442   2.152
 5416SOL     OW17146   4.397   4.910   4.869
 5416SOL    HW117147   4.306   4.934   4.836
 5416SOL    HW217148   4.433   4.835   4.813
 5417SOL     OW17149   3.289   0.188   4.591
 5417SOL    HW117150   3.386   0.197   4.611
 5417SOL    HW217151   3.253   0.106   4.635
 5418SOL     OW17152   3.816   0.297   2.912
 5418SOL    HW117153   3.784   0.233   2.842
 5418SOL    HW217154   3.883   0.360   2.872
 5419SOL     OW17155   3.654   5.206   6.644
 5419SOL    HW117156   3.650   5.265   6.564
 5419SOL    HW217157   3.605   5.121   6.625
 5420SOL     OW17158   1.678   1.846   2.466
 5420SOL    HW117159   1.747   1.862   2.536
 5420SOL    HW217160   1.720   1.802   2.386
 5421SOL     OW17161   1.781   4.007   2.167
 5421SOL    HW117162   1.728   3.988   2.250
 5421SOL    HW217163   1.864   4.056   2.191
 5422SOL     OW17164   2.329   3.562   1.101
 5422SOL    HW117165   2.288   3.637   1.051
 5422SOL    HW217166   2.313   3.574   1.199
 5423SOL     OW17167   6.029   2.737   6.619
 5423SOL    HW117168   6.036   2.801   6.543
 5423SOL    HW217169   5.941   2.690   6.615
 5424SOL     OW17170   4.951   3.486   4.407
 5424SOL    HW117171   4.919   3.405   4.455
 5424SOL    HW217172   5.047   3.476   4.384
 5425SOL     OW17173   4.915   0.976   5.019
 5425SOL    HW117174   4.981   1.047   5.046
 5425SOL    HW217175   4.827   1.019   5.001
 5426SOL     OW17176   6.252   0.003   4.923
 5426SOL    HW117177   6.295   0.060   4.993
 5426SOL    HW217178   6.154   0.022   4.920
 5427SOL     OW17179   4.527   5.997   6.531
 5427SOL    HW117180   4.513   6.080   6.585
 5427SOL    HW217181   4.538   6.021   6.435
 5428SOL     OW17182   1.300   0.509   1.021
 5428SOL    HW117183   1.228   0.452   0.983
 5428SOL    HW217184   1.325   0.476   1.113
 5429SOL     OW17185   0.805   2.161   6.635
 5429SOL    HW117186   0.788   2.066   6.609
 5429SOL    HW217187   0.903   2.180   6.626
 5430SOL     OW17188   1.578   2.696   6.065
 5430SOL    HW117189   1.665   2.648   6.060
 5430SOL    HW217190   1.518   2.650   6.131
 5431SOL     OW17191   3.944   6.274   5.910
 5431SOL    HW117192   3.915   6.364   5.877
 5431SOL    HW217193   4.044   6.270   5.911
 5432SOL     OW17194   4.891   6.595   0.594
 5432SOL    HW117195   4.823   6.581   0.665
 5432SOL    HW217196   4.983   6.584   0.633
 5433SOL     OW17197   0.321   1.650   4.832
 5433SOL    HW117198   0.233   1.672   4.790
 5433SOL    HW217199   0.309   1.576   4.898
 5434SOL     OW17200   2.647   0.265   6.195
 5434SOL    HW117201   2.623   0.359   6.222
 5434SOL    HW217202   2.653   0.208   6.277
 5435SOL     OW17203   4.464   0.330   1.815
 5435SOL    HW117204   4.462   0.270   1.894
 5435SOL    HW217205   4.375   0.329   1.770
 5436SOL     OW17206   4.707   4.146   2.841
 5436SOL    HW117207   4.797   4.135   2.884
 5436SOL    HW217208   4.667   4.056   2.825
 5437SOL     OW17209   2.834   3.833   0.038
 5437SOL    HW117210   2.759   3.851   0.102
 5437SOL    HW217211   2.885   3.918   0.023
 5438SOL     OW17212   5.841   2.052   1.548
 5438SOL    HW117213   5.758   2.048   1.493
 5438SOL    HW217214   5.830   2.121   1.621
 5439SOL     OW17215   0.984   2.569   1.254
 5439SOL    HW117216   1.068   2.622   1.237
 5439SOL    HW217217   0.990   2.525   1.344
 5440SOL     OW17218   0.837   1.918   1.306
 5440SOL    HW117219   0.756   1.947   1.255
 5440SOL    HW217220   0.899   1.997   1.315
 5441SOL     OW17221   3.253   1.792   3.319
 5441SOL    HW117222   3.337   1.844   3.304
 5441SOL    HW217223   3.230   1.794   3.416
 5442SOL     OW17224   3.597   0.664   2.121
 5442SOL    HW117225   3.678   0.647   2.064
 5442SOL    HW217226   3.516   0.665   2.063
 5443SOL     OW17227   2.980   6.666   5.554
 5443SOL    HW117228   2.894   6.697   5.595
 5443SOL    HW217229   2.960   6.618   5.468
 5444SOL     OW17230   0.059   6.896   3.921
 5444SOL    HW117231   0.067   6.820   3.985
 5444SOL    HW217232   6.991   6.924   3.915
 5445SOL     OW17233   5.730   3.835   2.408
 5445SOL    HW117234   5.631   3.838   2.390
 5445SOL    HW217235   5.768   3.927   2.398
 5446SOL     OW17236   5.891   5.613   5.624
 5446SOL    HW117237   5.826   5.578   5.556
 5446SOL    HW217238   5.841   5.645   5.704
 5447SOL     OW17239   4.053   2.411   0.145
 5447SOL    HW117240   3.976   2.350   0.165
 5447SOL    HW217241   4.138   2.360   0.150
 5448SOL     OW17242   5.599   2.293   5.168
 5448SOL    HW117243   5.598   2.197   5.139
 5448SOL    HW217244   5.565   2.351   5.093
 5449SOL     OW17245   0.757   3.867   6.849
 5449SOL    HW117246   0.705   3.891   6.931
 5449SOL    HW217247   0.813   3.787   6.867
 5450SOL     OW17248   2.005   0.103   1.612
 5450SOL    HW117249   1.989   0.007   1.587
 5450SOL    HW217250   2.047   0.151   1.536
 5451SOL     OW17251   0.885   5.696   3.189
 5451SOL    HW117252   0.846   5.740   3.270
 5451SOL    HW217253   0.954   5.756   3.148
 5452SOL     OW17254   2.492   4.275   6.672
 5452SOL    HW117255   2.411   4.253   6.726
 5452SOL    HW217256   2.526   4.193   6.627
 5453SOL     OW17257   5.639   4.843   0.413
 5453SOL    HW117258   5.582   4.899   0.474
 5453SOL    HW217259   5.589   4.824   0.329
 5454SOL     OW17260   6.883   4.468   6.966
 5454SOL    HW117261   6.902   4.483   0.035
 5454SOL    HW217262   6.791   4.431   6.956
 5455SOL     OW17263   6.498   3.285   0.901
 5455SOL    HW117264   6.424   3.348   0.877
 5455SOL    HW217265   6.478   3.243   0.989
 5456SOL     OW17266   3.214   0.108   6.849
 5456SOL    HW117267   3.126   0.064   6.834
 5456SOL    HW217268   3.246   0.150   6.764
 5457SOL     OW17269   5.829   2.885   0.790
 5457SOL    HW117270   5.921   2.919   0.808
 5457SOL    HW217271   5.796   2.922   0.703
 5458SOL     OW17272   2.104   4.299   6.560
 5458SOL    HW117273   2.076   4.291   6.655
 5458SOL    HW217274   2.174   4.370   6.551
 5459SOL     OW17275   1.587   4.591   6.553
 5459SOL    HW117276   1.668   4.565   6.501
 5459SOL    HW217277   1.512   4.529   6.531
 5460SOL     OW17278   2.770   0.101   1.082
 5460SOL    HW117279   2.853   0.156   1.079
 5460SOL    HW217280   2.695   0.154   1.122
 5461SOL     OW17281   4.526   0.011   5.048
 5461SOL    HW117282   4.570   7.007   4.964
 5461SOL    HW217283   4.427   0.003   5.038
 5462SOL     OW17284   1.449   0.322   0.796
 5462SOL    HW117285   1.377   0.370   0.847
 5462SOL    HW217286   1.512   0.279   0.860
 5463SOL     OW17287   6.362   2.598   0.732
 5463SOL    HW117288   6.393   2.646   0.814
 5463SOL    HW217289   6.297   2.656   0.683
 5464SOL     OW17290   2.275   0.330   4.523
 5464SOL    HW117291   2.304   0.348   4.430
 5464SOL    HW217292   2.335   0.378   4.587
 5465SOL     OW17293   2.750   0.476   4.816
 5465SOL    HW117294   2.736   0.465   4.718
 5465SOL    HW217295   2.708   0.399   4.865
 5466SOL     OW17296   4.725   4.216   4.274
 5466SOL    HW117297   4.718   4.193   4.371
 5466SOL    HW217298   4.732   4.132   4.221
 5467SOL     OW17299   5.304   1.557   2.835
 5467SOL    HW117300   5.228   1.557   2.770
 5467SOL    HW217301   5.308   1.468   2.881
 5468SOL     OW17302   4.407   2.145   4.661
 5468SOL    HW117303   4.343   2.199   4.607
 5468SOL    HW217304   4.480   2.111   4.602
 5469SOL     OW17305   3.836   4.426   6.225
 5469SOL    HW117306   3.927   4.468   6.229
 5469SOL    HW217307   3.838   4.348   6.163
 5470SOL     OW17308   1.897   5.142   3.924
 5470SOL    HW117309   1.982   5.122   3.973
 5470SOL    HW217310   1.828   5.074   3.949
 5471SOL     OW17311   6.992   5.923   1.814
 5471SOL    HW117312   0.014   5.964   1.890
 5471SOL    HW217313   6.929   5.854   1.849
 5472SOL     OW17314   4.097   4.499   5.935
 5472SOL    HW117315   4.023   4.490   5.868
 5472SOL    HW217316   4.164   4.566   5.901
 5473SOL     OW17317   1.440   3.545   3.783
 5473SOL    HW117318   1.377   3.623   3.787
 5473SOL    HW217319   1.391   3.465   3.750
 5474SOL     OW17320   1.661   5.377   4.101
 5474SOL    HW117321   1.575   5.326   4.102
 5474SOL    HW217322   1.641   5.475   4.112
 5475SOL     OW17323   2.911   2.273   1.326
 5475SOL    HW117324   2.979   2.220   1.376
 5475SOL    HW217325   2.879   2.349   1.384
 5476SOL     OW17326   1.141   2.884   6.248
 5476SOL    HW117327   1.134   2.983   6.264
 5476SOL    HW217328   1.153   2.837   6.336
 5477SOL     OW17329   2.275   2.917   2.999
 5477SOL    HW117330   2.176   2.928   2.996
 5477SOL    HW217331   2.313   2.982   3.065
 5478SOL     OW17332   5.426   5.603   5.428
 5478SOL    HW117333   5.404   5.598   5.330
 5478SOL    HW217334   5.421   5.698   5.458
 5479SOL     OW17335   4.845   0.849   4.634
 5479SOL    HW117336   4.888   0.761   4.655
 5479SOL    HW217337   4.746   0.841   4.644
 5480SOL     OW17338   0.961   3.499   4.543
 5480SOL    HW117339   0.867   3.465   4.532
 5480SOL    HW217340   1.021   3.424   4.571
 5481SOL     OW17341   3.904   6.982   3.957
 5481SOL    HW117342   3.933   0.016   3.884
 5481SOL    HW217343   3.940   7.015   4.044
 5482SOL     OW17344   2.377   4.648   1.211
 5482SOL    HW117345   2.475   4.629   1.211
 5482SOL    HW217346   2.330   4.582   1.269
 5483SOL     OW17347   7.022   2.437   6.276
 5483SOL    HW117348   6.974   2.486   6.349
 5483SOL    HW217349   0.019   2.501   6.204
 5484SOL     OW17350   4.498   1.094   4.728
 5484SOL    HW117351   4.400   1.076   4.723
 5484SOL    HW217352   4.549   1.008   4.723
 5485SOL     OW17353   2.836   0.344   5.381
 5485SOL    HW117354   2.789   0.266   5.341
 5485SOL    HW217355   2.867   0.321   5.473
 5486SOL     OW17356   2.908   6.264   5.416
 5486SOL    HW117357   2.919   6.244   5.513
 5486SOL    HW217358   2.990   6.236   5.366
 5487SOL     OW17359   3.747   4.986   5.746
 5487SOL    HW117360   3.736   5.085   5.743
 5487SOL    HW217361   3.687   4.948   5.817
 5488SOL     OW17362   6.197   1.632   1.009
 5488SOL    HW117363   6.114   1.609   0.959
 5488SOL    HW217364   6.204   1.731   1.019
 5489SOL     OW17365   6.278   4.039   3.018
 5489SOL    HW117366   6.359   4.001   3.062
 5489SOL    HW217367   6.289   4.037   2.919
 5490SOL     OW17368   1.488   6.649   2.831
 5490SOL    HW117369   1.494   6.642   2.732
 5490SOL    HW217370   1.457   6.741   2.856
 5491SOL     OW17371   6.571   4.405   0.457
 5491SOL    HW117372   6.655   4.459   0.465
 5491SOL    HW217373   6.590   4.322   0.405
 5492SOL     OW17374   0.290   1.611   5.820
 5492SOL    HW117375   0.217   1.678   5.830
 5492SOL    HW217376   0.372   1.657   5.783
 5493SOL     OW17377   3.684   3.801   1.462
 5493SOL    HW117378   3.758   3.735   1.477
 5493SOL    HW217379   3.616   3.761   1.401
 5494SOL     OW17380   6.082   4.209   5.425
 5494SOL    HW117381   6.157   4.146   5.446
 5494SOL    HW217382   6.113   4.279   5.361
 5495SOL     OW17383   5.944   0.186   0.736
 5495SOL    HW117384   5.849   0.181   0.766
 5495SOL    HW217385   5.975   0.097   0.704
 5496SOL     OW17386   3.765   0.570   4.089
 5496SOL    HW117387   3.724   0.564   4.180
 5496SOL    HW217388   3.751   0.484   4.040
 5497SOL     OW17389   1.210   0.159   5.869
 5497SOL    HW117390   1.141   0.217   5.914
 5497SOL    HW217391   1.226   0.078   5.924
 5498SOL     OW17392   0.633   5.241   1.789
 5498SOL    HW117393   0.572   5.224   1.711
 5498SOL    HW217394   0.633   5.161   1.849
 5499SOL     OW17395   1.738   0.497   4.794
 5499SOL    HW117396   1.656   0.505   4.737
 5499SOL    HW217397   1.715   0.518   4.889
 5500SOL     OW17398   2.675   1.005   0.810
 5500SOL    HW117399   2.740   0.930   0.816
 5500SOL    HW217400   2.590   0.971   0.769
 5501SOL     OW17401   3.690   3.539   6.629
 5501SOL    HW117402   3.679   3.499   6.538
 5501SOL    HW217403   3.604   3.583   6.657
 5502SOL     OW17404   4.346   2.729   6.741
 5502SOL    HW117405   4.266   2.693   6.789
 5502SOL    HW217406   4.422   2.665   6.752
 5503SOL     OW17407   6.639   4.187   0.678
 5503SOL    HW117408   6.583   4.111   0.713
 5503SOL    HW217409   6.584   4.243   0.617
 5504SOL     OW17410   3.296   1.813   6.657
 5504SOL    HW117411   3.268   1.768   6.573
 5504SOL    HW217412   3.394   1.833   6.654
 5505SOL     OW17413   2.720   4.998   3.912
 5505SOL    HW117414   2.742   5.072   3.848
 5505SOL    HW217415   2.621   4.994   3.925
 5506SOL     OW17416   0.689   3.418   5.975
 5506SOL    HW117417   0.683   3.425   6.075
 5506SOL    HW217418   0.674   3.323   5.947
 5507SOL     OW17419   2.502   6.859   0.008
 5507SOL    HW117420   2.444   6.921   6.985
 5507SOL    HW217421   2.449   6.779   0.036
 5508SOL     OW17422   0.181   0.940   6.259
 5508SOL    HW117423   0.213   0.848   6.237
 5508SOL    HW217424   0.157   0.945   6.356
 5509SOL     OW17425   0.140   5.099   0.919
 5509SOL    HW117426   0.095   5.009   0.921
 5509SOL    HW217427   0.167   5.121   0.825
 5510SOL     OW17428   4.083   5.124   0.209
 5510SOL    HW117429   4.027   5.171   0.278
 5510SOL    HW217430   4.131   5.192   0.154
 5511SOL     OW17431   0.744   1.865   5.666
 5511SOL    HW117432   0.799   1.860   5.749
 5511SOL    HW217433   0.736   1.961   5.638
 5512SOL     OW17434   2.992   0.894   2.083
 5512SOL    HW117435   3.020   0.872   2.176
 5512SOL    HW217436   3.072   0.919   2.029
 5513SOL     OW17437   3.785   4.191   6.802
 5513SOL    HW117438   3.764   4.275   6.752
 5513SOL    HW217439   3.881   4.193   6.831
 5514SOL     OW17440   3.197   1.114   0.049
 5514SOL    HW117441   3.103   1.146   0.033
 5514SOL    HW217442   3.232   1.071   6.994
 5515SOL     OW17443   2.974   5.987   2.408
 5515SOL    HW117444   3.049   6.053   2.398
 5515SOL    HW217445   2.923   6.007   2.491
 5516SOL     OW17446   2.377   2.370   5.637
 5516SOL    HW117447   2.358   2.287   5.689
 5516SOL    HW217448   2.472   2.369   5.605
 5517SOL     OW17449   1.306   2.979   3.257
 5517SOL    HW117450   1.391   2.934   3.230
 5517SOL    HW217451   1.301   2.983   3.357
 5518SOL     OW17452   4.362   4.761   6.475
 5518SOL    HW117453   4.297   4.689   6.499
 5518SOL    HW217454   4.327   4.812   6.397
 5519SOL     OW17455   4.778   2.789   3.562
 5519SOL    HW117456   4.720   2.733   3.622
 5519SOL    HW217457   4.874   2.779   3.589
 5520SOL     OW17458   4.624   6.801   1.569
 5520SOL    HW117459   4.603   6.870   1.499
 5520SOL    HW217460   4.720   6.807   1.594
 5521SOL     OW17461   5.352   5.988   1.729
 5521SOL    HW117462   5.340   6.029   1.819
 5521SOL    HW217463   5.276   6.014   1.669
 5522SOL     OW17464   5.725   5.964   1.000
 5522SOL    HW117465   5.807   5.979   1.056
 5522SOL    HW217466   5.656   5.915   1.054
 5523SOL     OW17467   5.662   1.191   1.760
 5523SOL    HW117468   5.572   1.171   1.723
 5523SOL    HW217469   5.730   1.134   1.714
 5524SOL     OW17470   3.045   1.750   4.145
 5524SOL    HW117471   3.015   1.830   4.197
 5524SOL    HW217472   2.999   1.669   4.179
 5525SOL     OW17473   6.284   1.155   1.565
 5525SOL    HW117474   6.347   1.200   1.502
 5525SOL    HW217475   6.190   1.169   1.534
 5526SOL     OW17476   5.103   4.477   3.678
 5526SOL    HW117477   5.086   4.404   3.744
 5526SOL    HW217478   5.073   4.564   3.716
 5527SOL     OW17479   5.803   1.391   3.574
 5527SOL    HW117480   5.890   1.422   3.535
 5527SOL    HW217481   5.728   1.420   3.515
 5528SOL     OW17482   1.025   1.331   0.500
 5528SOL    HW117483   1.061   1.423   0.515
 5528SOL    HW217484   1.092   1.276   0.452
 5529SOL     OW17485   3.612   0.325   2.284
 5529SOL    HW117486   3.579   0.403   2.337
 5529SOL    HW217487   3.543   0.299   2.216
 5530SOL     OW17488   6.589   2.083   0.891
 5530SOL    HW117489   6.611   2.072   0.988
 5530SOL    HW217490   6.570   1.994   0.851
 5531SOL     OW17491   2.046   3.816   1.216
 5531SOL    HW117492   2.123   3.852   1.269
 5531SOL    HW217493   1.975   3.784   1.278
 5532SOL     OW17494   1.554   3.010   0.350
 5532SOL    HW117495   1.628   3.011   0.418
 5532SOL    HW217496   1.509   3.099   0.348
 5533SOL     OW17497   3.491   1.828   2.589
 5533SOL    HW117498   3.525   1.775   2.512
 5533SOL    HW217499   3.527   1.789   2.674
 5534SOL     OW17500   1.287   0.512   4.497
 5534SOL    HW117501   1.221   0.542   4.428
 5534SOL    HW217502   1.246   0.441   4.554
 5535SOL     OW17503   0.568   1.996   3.780
 5535SOL    HW117504   0.589   2.029   3.873
 5535SOL    HW217505   0.470   1.978   3.773
 5536SOL     OW17506   4.018   6.356   4.158
 5536SOL    HW117507   4.104   6.406   4.169
 5536SOL    HW217508   3.984   6.328   4.248
 5537SOL     OW17509   2.914   1.330   3.518
 5537SOL    HW117510   2.873   1.403   3.464
 5537SOL    HW217511   2.933   1.251   3.459
 5538SOL     OW17512   4.278   5.280   4.923
 5538SOL    HW117513   4.258   5.252   4.829
 5538SOL    HW217514   4.215   5.236   4.986
 5539SOL     OW17515   2.728   4.193   0.616
 5539SOL    HW117516   2.648   4.136   0.597
 5539SOL    HW217517   2.733   4.267   0.549
 5540SOL     OW17518   5.390   5.293   1.569
 5540SOL    HW117519   5.432   5.311   1.658
 5540SOL    HW217520   5.462   5.280   1.501
 5541SOL     OW17521   4.170   1.603   5.577
 5541SOL    HW117522   4.079   1.565   5.561
 5541SOL    HW217523   4.226   1.595   5.494
 5542SOL     OW17524   5.133   4.641   6.198
 5542SOL    HW117525   5.208   4.704   6.215
 5542SOL    HW217526   5.133   4.569   6.268
 5543SOL     OW17527   0.062   2.002   6.200
 5543SOL    HW117528   0.102   2.057   6.273
 5543SOL    HW217529   6.992   2.017   6.197
 5544SOL     OW17530   5.603   1.080   0.117
 5544SOL    HW117531   5.597   1.180   0.123
 5544SOL    HW217532   5.560   1.039   0.197
 5545SOL     OW17533   2.632   2.532   1.758
 5545SOL    HW117534   2.687   2.520   1.841
 5545SOL    HW217535   2.544   2.487   1.769
 5546SOL     OW17536   2.849   4.778   5.646
 5546SOL    HW117537   2.754   4.799   5.669
 5546SOL    HW217538   2.855   4.754   5.549
 5547SOL     OW17539   3.742   6.185   4.824
 5547SOL    HW117540   3.655   6.209   4.781
 5547SOL    HW217541   3.796   6.129   4.761
 5548SOL     OW17542   6.901   2.876   5.517
 5548SOL    HW117543   6.881   2.778   5.521
 5548SOL    HW217544   6.974   2.893   5.451
 5549SOL     OW17545   3.315   4.482   6.881
 5549SOL    HW117546   3.365   4.565   6.854
 5549SOL    HW217547   3.368   4.433   6.951
 5550SOL     OW17548   3.362   6.869   2.434
 5550SOL    HW117549   3.411   6.955   2.426
 5550SOL    HW217550   3.265   6.883   2.414
 5551SOL     OW17551   0.459   1.178   3.454
 5551SOL    HW117552   0.511   1.246   3.506
 5551SOL    HW217553   0.500   1.165   3.364
 5552SOL     OW17554   0.428   2.839   0.761
 5552SOL    HW117555   0.414   2.815   0.665
 5552SOL    HW217556   0.484   2.922   0.766
 5553SOL     OW17557   5.254   6.447   6.873
 5553SOL    HW117558   5.230   6.353   6.848
 5553SOL    HW217559   5.262   6.454   6.972
 5554SOL     OW17560   2.813   1.727   4.565
 5554SOL    HW117561   2.737   1.665   4.581
 5554SOL    HW217562   2.799   1.811   4.617
 5555SOL     OW17563   0.495   6.333   2.182
 5555SOL    HW117564   0.549   6.413   2.156
 5555SOL    HW217565   0.458   6.345   2.274
 5556SOL     OW17566   0.682   1.072   4.371
 5556SOL    HW117567   0.738   1.126   4.434
 5556SOL    HW217568   0.731   0.988   4.347
 5557SOL     OW17569   2.668   0.721   3.574
 5557SOL    HW117570   2.638   0.652   3.640
 5557SOL    HW217571   2.592   0.748   3.516
 5558SOL     OW17572   5.555   2.389   4.608
 5558SOL    HW117573   5.532   2.450   4.532
 5558SOL    HW217574   5.522   2.428   4.694
 5559SOL     OW17575   2.555   0.350   1.098
 5559SOL    HW117576   2.487   0.412   1.058
 5559SOL    HW217577   2.528   0.328   1.192
 5560SOL     OW17578   6.983   0.703   4.380
 5560SOL    HW117579   6.913   0.764   4.416
 5560SOL    HW217580   0.019   0.680   4.453
 5561SOL     OW17581   1.282   3.991   3.012
 5561SOL    HW117582   1.379   3.972   2.998
 5561SOL    HW217583   1.228   3.919   2.968
 5562SOL     OW17584   2.803   2.513   6.099
 5562SOL    HW117585   2.796   2.469   6.188
 5562SOL    HW217586   2.730   2.580   6.090
 5563SOL     OW17587   4.309   4.051   1.694
 5563SOL    HW117588   4.221   4.087   1.665
 5563SOL    HW217589   4.349   4.111   1.763
 5564SOL     OW17590   6.367   3.777   1.772
 5564SOL    HW117591   6.382   3.876   1.779
 5564SOL    HW217592   6.283   3.752   1.820
 5565SOL     OW17593   3.210   2.800   5.558
 5565SOL    HW117594   3.173   2.889   5.533
 5565SOL    HW217595   3.135   2.739   5.584
 5566SOL     OW17596   1.962   4.851   0.598
 5566SOL    HW117597   1.890   4.854   0.528
 5566SOL    HW217598   1.953   4.930   0.658
 5567SOL     OW17599   2.110   5.717   3.400
 5567SOL    HW117600   2.043   5.656   3.358
 5567SOL    HW217601   2.188   5.728   3.339
 5568SOL     OW17602   4.019   2.388   1.107
 5568SOL    HW117603   4.092   2.428   1.052
 5568SOL    HW217604   4.057   2.352   1.192
 5569SOL     OW17605   5.640   2.351   6.948
 5569SOL    HW117606   5.609   2.404   6.868
 5569SOL    HW217607   5.675   2.414   7.018
 5570SOL     OW17608   0.285   3.669   5.748
 5570SOL    HW117609   0.206   3.730   5.737
 5570SOL    HW217610   0.364   3.722   5.778
 5571SOL     OW17611   6.720   4.545   6.394
 5571SOL    HW117612   6.646   4.484   6.420
 5571SOL    HW217613   6.744   4.531   6.298
 5572SOL     OW17614   5.531   2.670   5.238
 5572SOL    HW117615   5.591   2.593   5.215
 5572SOL    HW217616   5.463   2.681   5.166
 5573SOL     OW17617   0.697   4.112   0.310
 5573SOL    HW117618   0.603   4.129   0.278
 5573SOL    HW217619   0.737   4.199   0.339
 5574SOL     OW17620   0.127   5.809   4.554
 5574SOL    HW117621   0.210   5.782   4.603
 5574SOL    HW217622   0.151   5.848   4.465
 5575SOL     OW17623   1.305   0.973   1.489
 5575SOL    HW117624   1.382   0.937   1.542
 5575SOL    HW217625   1.268   0.901   1.430
 5576SOL     OW17626   5.838   5.568   0.414
 5576SOL    HW117627   5.889   5.490   0.377
 5576SOL    HW217628   5.902   5.637   0.447
 5577SOL     OW17629   2.101   3.841   4.939
 5577SOL    HW117630   2.177   3.790   4.980
 5577SOL    HW217631   2.110   3.938   4.961
 5578SOL     OW17632   3.274   1.742   5.646
 5578SOL    HW117633   3.368   1.774   5.643
 5578SOL    HW217634   3.258   1.692   5.731
 5579SOL     OW17635   5.197   4.926   1.328
 5579SOL    HW117636   5.125   4.934   1.259
 5579SOL    HW217637   5.159   4.941   1.419
 5580SOL     OW17638   5.002   0.753   1.482
 5580SOL    HW117639   5.033   0.829   1.539
 5580SOL    HW217640   4.902   0.747   1.486
 5581SOL     OW17641   2.242   2.549   0.869
 5581SOL    HW117642   2.152   2.588   0.889
 5581SOL    HW217643   2.256   2.469   0.927
 5582SOL     OW17644   4.084   3.325   3.504
 5582SOL    HW117645   4.098   3.400   3.568
 5582SOL    HW217646   4.139   3.341   3.421
 5583SOL     OW17647   3.961   1.071   0.267
 5583SOL    HW117648   4.022   1.011   0.216
 5583SOL    HW217649   4.006   1.158   0.284
 5584SOL     OW17650   5.572   3.456   3.087
 5584SOL    HW117651   5.646   3.513   3.121
 5584SOL    HW217652   5.516   3.424   3.164
 5585SOL     OW17653   7.003   6.800   4.477
 5585SOL    HW117654   6.985   6.897   4.463
 5585SOL    HW217655   6.917   6.749   4.475
 5586SOL     OW17656   2.249   1.590   6.519
 5586SOL    HW117657   2.247   1.639   6.606
 5586SOL    HW217658   2.159   1.551   6.501
 5587SOL     OW17659   3.675   6.831   3.888
 5587SOL    HW117660   3.743   6.898   3.918
 5587SOL    HW217661   3.711   6.780   3.810
 5588SOL     OW17662   4.380   0.588   5.920
 5588SOL    HW117663   4.435   0.580   6.004
 5588SOL    HW217664   4.377   0.499   5.874
 5589SOL     OW17665   3.435   3.591   6.664
 5589SOL    HW117666   3.385   3.577   6.578
 5589SOL    HW217667   3.391   3.664   6.716
 5590SOL     OW17668   6.792   6.798   3.657
 5590SOL    HW117669   6.869   6.845   3.613
 5590SOL    HW217670   6.826   6.726   3.716
 5591SOL     OW17671   5.147   0.391   0.163
 5591SOL    HW117672   5.168   0.413   0.067
 5591SOL    HW217673   5.089   0.311   0.167
 5592SOL     OW17674   1.905   1.955   2.025
 5592SOL    HW117675   1.921   1.892   2.101
 5592SOL    HW217676   1.889   1.902   1.941
 5593SOL     OW17677   1.955   3.787   4.680
 5593SOL    HW117678   1.869   3.835   4.692
 5593SOL    HW217679   2.029   3.839   4.724
 5594SOL     OW17680   2.396   1.497   6.860
 5594SOL    HW117681   2.301   1.488   6.892
 5594SOL    HW217682   2.448   1.416   6.886
 5595SOL     OW17683   0.351   1.290   5.789
 5595SOL    HW117684   0.275   1.350   5.813
 5595SOL    HW217685   0.437   1.327   5.825
 5596SOL     OW17686   5.200   2.014   3.350
 5596SOL    HW117687   5.101   2.024   3.355
 5596SOL    HW217688   5.223   1.944   3.283
 5597SOL     OW17689   0.800   1.121   6.051
 5597SOL    HW117690   0.900   1.128   6.048
 5597SOL    HW217691   0.762   1.197   6.102
 5598SOL     OW17692   6.816   2.098   4.340
 5598SOL    HW117693   6.847   2.151   4.261
 5598SOL    HW217694   6.866   2.012   4.343
 5599SOL     OW17695   4.893   2.703   3.068
 5599SOL    HW117696   4.868   2.797   3.092
 5599SOL    HW217697   4.840   2.640   3.125
 5600SOL     OW17698   1.992   2.171   2.156
 5600SOL    HW117699   1.951   2.094   2.108
 5600SOL    HW217700   2.009   2.146   2.252
 5601SOL     OW17701   5.751   3.244   5.967
 5601SOL    HW117702   5.791   3.154   5.985
 5601SOL    HW217703   5.662   3.250   6.012
 5602SOL     OW17704   6.583   1.978   2.014
 5602SOL    HW117705   6.491   1.944   1.993
 5602SOL    HW217706   6.630   1.913   2.075
 5603SOL     OW17707   3.885   1.760   6.006
 5603SOL    HW117708   3.925   1.851   6.012
 5603SOL    HW217709   3.788   1.764   6.031
 5604SOL     OW17710   1.388   6.107   3.443
 5604SOL    HW117711   1.377   6.134   3.539
 5604SOL    HW217712   1.306   6.134   3.392
 5605SOL     OW17713   4.288   0.072   4.346
 5605SOL    HW117714   4.374   0.078   4.396
 5605SOL    HW217715   4.303   0.022   4.260
 5606SOL     OW17716   5.095   3.003   0.254
 5606SOL    HW117717   5.016   2.997   0.314
 5606SOL    HW217718   5.177   3.022   0.307
 5607SOL     OW17719   6.524   2.106   2.924
 5607SOL    HW117720   6.509   2.121   2.826
 5607SOL    HW217721   6.574   2.184   2.962
 5608SOL     OW17722   5.160   0.854   2.953
 5608SOL    HW117723   5.165   0.762   2.914
 5608SOL    HW217724   5.158   0.849   3.053
 5609SOL     OW17725   6.661   0.602   0.378
 5609SOL    HW117726   6.750   0.589   0.421
 5609SOL    HW217727   6.673   0.615   0.280
 5610SOL     OW17728   5.945   5.733   0.024
 5610SOL    HW117729   5.867   5.771   7.002
 5610SOL    HW217730   5.956   5.637   0.001
 5611SOL     OW17731   6.106   4.553   2.017
 5611SOL    HW117732   6.007   4.560   2.023
 5611SOL    HW217733   6.141   4.500   2.094
 5612SOL     OW17734   3.785   1.914   0.341
 5612SOL    HW117735   3.879   1.938   0.364
 5612SOL    HW217736   3.728   1.922   0.423
 5613SOL     OW17737   5.607   5.163   5.891
 5613SOL    HW117738   5.624   5.219   5.810
 5613SOL    HW217739   5.558   5.080   5.865
 5614SOL     OW17740   5.177   2.671   3.869
 5614SOL    HW117741   5.228   2.746   3.910
 5614SOL    HW217742   5.219   2.584   3.894
 5615SOL     OW17743   0.536   2.809   3.243
 5615SOL    HW117744   0.515   2.838   3.336
 5615SOL    HW217745   0.624   2.760   3.243
 5616SOL     OW17746   2.129   3.247   2.432
 5616SOL    HW117747   2.174   3.167   2.470
 5616SOL    HW217748   2.154   3.256   2.335
 5617SOL     OW17749   1.335   4.546   6.256
 5617SOL    HW117750   1.326   4.555   6.355
 5617SOL    HW217751   1.431   4.552   6.231
 5618SOL     OW17752   4.934   6.432   2.102
 5618SOL    HW117753   4.857   6.370   2.118
 5618SOL    HW217754   4.986   6.442   2.187
 5619SOL     OW17755   3.714   3.164   3.723
 5619SOL    HW117756   3.685   3.192   3.631
 5619SOL    HW217757   3.704   3.240   3.786
 5620SOL     OW17758   4.991   4.564   4.012
 5620SOL    HW117759   5.069   4.620   4.039
 5620SOL    HW217760   4.968   4.501   4.086
 5621SOL     OW17761   1.040   2.643   6.662
 5621SOL    HW117762   1.035   2.692   6.749
 5621SOL    HW217763   0.949   2.610   6.637
 5622SOL     OW17764   4.936   5.295   4.314
 5622SOL    HW117765   4.840   5.303   4.287
 5622SOL    HW217766   4.942   5.283   4.413
 5623SOL     OW17767   4.345   4.920   4.254
 5623SOL    HW117768   4.428   4.869   4.230
 5623SOL    HW217769   4.284   4.862   4.307
 5624SOL     OW17770   4.916   4.681   3.321
 5624SOL    HW117771   4.818   4.663   3.309
 5624SOL    HW217772   4.930   4.780   3.328
 5625SOL     OW17773   2.549   6.373   6.075
 5625SOL    HW117774   2.561   6.289   6.128
 5625SOL    HW217775   2.484   6.433   6.122
 5626SOL     OW17776   0.285   4.992   6.786
 5626SOL    HW117777   0.286   4.935   6.867
 5626SOL    HW217778   0.333   4.946   6.712
 5627SOL     OW17779   1.411   5.683   7.025
 5627SOL    HW117780   1.432   5.714   6.932
 5627SOL    HW217781   1.363   5.596   7.022
 5628SOL     OW17782   2.295   3.817   0.544
 5628SOL    HW117783   2.206   3.810   0.589
 5628SOL    HW217784   2.365   3.778   0.603
 5629SOL     OW17785   7.014   3.632   3.166
 5629SOL    HW117786   0.004   3.558   3.102
 5629SOL    HW217787   6.941   3.605   3.228
 5630SOL     OW17788   0.883   3.935   0.228
 5630SOL    HW117789   0.832   3.857   0.190
 5630SOL    HW217790   0.819   4.007   0.255
 5631SOL     OW17791   4.222   1.444   1.778
 5631SOL    HW117792   4.253   1.536   1.801
 5631SOL    HW217793   4.226   1.430   1.679
 5632SOL     OW17794   4.845   0.059   5.734
 5632SOL    HW117795   4.926   0.003   5.719
 5632SOL    HW217796   4.826   0.114   5.652
 5633SOL     OW17797   1.096   5.443   5.567
 5633SOL    HW117798   1.176   5.434   5.626
 5633SOL    HW217799   1.026   5.378   5.597
 5634SOL     OW17800   3.057   0.383   1.917
 5634SOL    HW117801   2.986   0.319   1.945
 5634SOL    HW217802   3.081   0.365   1.821
 5635SOL     OW17803   3.550   1.035   1.725
 5635SOL    HW117804   3.590   0.966   1.785
 5635SOL    HW217805   3.622   1.097   1.693
 5636SOL     OW17806   4.920   0.850   5.628
 5636SOL    HW117807   4.971   0.766   5.641
 5636SOL    HW217808   4.883   0.852   5.535
 5637SOL     OW17809   4.541   0.085   4.454
 5637SOL    HW117810   4.608   0.141   4.405
 5637SOL    HW217811   4.581   7.023   4.473
 5638SOL     OW17812   6.900   5.332   1.055
 5638SOL    HW117813   6.853   5.291   0.977
 5638SOL    HW217814   6.840   5.398   1.100
 5639SOL     OW17815   2.114   0.082   1.875
 5639SOL    HW117816   2.051   0.104   1.801
 5639SOL    HW217817   2.197   0.041   1.838
 5640SOL     OW17818   3.371   6.955   3.094
 5640SOL    HW117819   3.338   6.888   3.028
 5640SOL    HW217820   3.305   6.964   3.169
 5641SOL     OW17821   6.663   4.226   4.050
 5641SOL    HW117822   6.736   4.245   3.984
 5641SOL    HW217823   6.703   4.187   4.133
 5642SOL     OW17824   2.175   3.704   6.765
 5642SOL    HW117825   2.189   3.724   6.668
 5642SOL    HW217826   2.140   3.785   6.812
 5643SOL     OW17827   5.870   2.056   4.271
 5643SOL    HW117828   5.882   2.030   4.367
 5643SOL    HW217829   5.855   1.973   4.217
 5644SOL     OW17830   3.836   0.710   4.988
 5644SOL    HW117831   3.867   0.690   5.081
 5644SOL    HW217832   3.739   0.689   4.980
 5645SOL     OW17833   6.983   5.949   4.079
 5645SOL    HW117834   6.923   5.884   4.032
 5645SOL    HW217835   6.933   5.996   4.151
 5646SOL     OW17836   0.098   6.231   3.952
 5646SOL    HW117837   0.084   6.239   3.853
 5646SOL    HW217838   0.073   6.139   3.981
 5647SOL     OW17839   7.008   4.896   6.602
 5647SOL    HW117840   6.998   4.990   6.567
 5647SOL    HW217841   0.067   4.859   6.574
 5648SOL     OW17842   2.188   1.280   4.864
 5648SOL    HW117843   2.175   1.201   4.924
 5648SOL    HW217844   2.100   1.310   4.829
 5649SOL     OW17845   1.320   0.126   4.930
 5649SOL    HW117846   1.233   0.079   4.913
 5649SOL    HW217847   1.325   0.208   4.874
 5650SOL     OW17848   6.538   4.905   6.588
 5650SOL    HW117849   6.442   4.878   6.601
 5650SOL    HW217850   6.561   4.978   6.652
 5651SOL     OW17851   6.013   0.968   2.806
 5651SOL    HW117852   5.996   1.048   2.749
 5651SOL    HW217853   5.963   0.890   2.768
 5652SOL     OW17854   5.785   3.685   0.306
 5652SOL    HW117855   5.828   3.640   0.384
 5652SOL    HW217856   5.697   3.641   0.286
 5653SOL     OW17857   2.334   6.550   6.930
 5653SOL    HW117858   2.288   6.632   6.895
 5653SOL    HW217859   2.276   6.470   6.915
 5654SOL     OW17860   0.646   6.230   6.092
 5654SOL    HW117861   0.712   6.256   6.022
 5654SOL    HW217862   0.679   6.258   6.182
 5655SOL     OW17863   0.103   4.717   3.079
 5655SOL    HW117864   0.155   4.638   3.112
 5655SOL    HW217865   0.167   4.789   3.051
 5656SOL     OW17866   3.619   5.456   5.994
 5656SOL    HW117867   3.683   5.501   5.931
 5656SOL    HW217868   3.620   5.505   6.082
 5657SOL     OW17869   4.208   5.681   2.058
 5657SOL    HW117870   4.238   5.763   2.107
 5657SOL    HW217871   4.118   5.654   2.091
 5658SOL     OW17872   4.992   6.877   4.969
 5658SOL    HW117873   5.091   6.869   4.961
 5658SOL    HW217874   4.964   6.856   5.063
 5659SOL     OW17875   3.432   4.152   2.760
 5659SOL    HW117876   3.380   4.159   2.846
 5659SOL    HW217877   3.373   4.177   2.683
 5660SOL     OW17878   6.407   6.752   0.578
 5660SOL    HW117879   6.462   6.767   0.660
 5660SOL    HW217880   6.339   6.825   0.569
 5661SOL     OW17881   6.530   5.568   4.802
 5661SOL    HW117882   6.486   5.575   4.892
 5661SOL    HW217883   6.520   5.475   4.767
 5662SOL     OW17884   2.138   3.853   4.355
 5662SOL    HW117885   2.182   3.932   4.398
 5662SOL    HW217886   2.051   3.835   4.401
 5663SOL     OW17887   1.848   3.672   0.451
 5663SOL    HW117888   1.757   3.658   0.490
 5663SOL    HW217889   1.853   3.762   0.409
 5664SOL     OW17890   0.059   5.283   2.438
 5664SOL    HW117891   0.008   5.279   2.353
 5664SOL    HW217892   0.051   5.195   2.486
 5665SOL     OW17893   1.619   1.276   6.199
 5665SOL    HW117894   1.591   1.288   6.294
 5665SOL    HW217895   1.709   1.232   6.196
 5666SOL     OW17896   5.971   5.446   7.010
 5666SOL    HW117897   5.903   5.405   6.950
 5666SOL    HW217898   5.979   5.393   0.066
 5667SOL     OW17899   6.912   6.131   3.521
 5667SOL    HW117900   6.961   6.087   3.596
 5667SOL    HW217901   6.975   6.148   3.445
 5668SOL     OW17902   5.841   2.935   5.933
 5668SOL    HW117903   5.903   2.884   5.874
 5668SOL    HW217904   5.749   2.933   5.894
 5669SOL     OW17905   6.931   3.416   5.143
 5669SOL    HW117906   6.906   3.423   5.240
 5669SOL    HW217907   6.998   3.343   5.131
 5670SOL     OW17908   1.837   3.566   2.863
 5670SOL    HW117909   1.745   3.606   2.865
 5670SOL    HW217910   1.858   3.537   2.770
 5671SOL     OW17911   1.596   1.100   4.788
 5671SOL    HW117912   1.626   1.137   4.877
 5671SOL    HW217913   1.567   1.175   4.729
 5672SOL     OW17914   5.514   4.511   5.553
 5672SOL    HW117915   5.570   4.510   5.635
 5672SOL    HW217916   5.516   4.421   5.510
 5673SOL     OW17917   1.767   0.861   1.836
 5673SOL    HW117918   1.748   0.846   1.739
 5673SOL    HW217919   1.700   0.924   1.875
 5674SOL     OW17920   6.859   3.619   1.408
 5674SOL    HW117921   6.915   3.576   1.479
 5674SOL    HW217922   6.781   3.561   1.386
 5675SOL     OW17923   4.066   2.089   5.355
 5675SOL    HW117924   4.117   2.032   5.419
 5675SOL    HW217925   4.089   2.185   5.369
 5676SOL     OW17926   3.340   6.776   1.719
 5676SOL    HW117927   3.371   6.804   1.811
 5676SOL    HW217928   3.386   6.691   1.693
 5677SOL     OW17929   0.104   0.871   4.242
 5677SOL    HW117930   0.178   0.910   4.297
 5677SOL    HW217931   0.054   0.803   4.296
 5678SOL     OW17932   2.003   4.974   3.585
 5678SOL    HW117933   2.044   4.956   3.674
 5678SOL    HW217934   1.941   4.899   3.562
 5679SOL     OW17935   2.981   5.939   5.465
 5679SOL    HW117936   2.951   5.945   5.560
 5679SOL    HW217937   2.905   5.910   5.408
 5680SOL     OW17938   2.077   6.971   6.153
 5680SOL    HW117939   2.089   0.004   6.075
 5680SOL    HW217940   2.125   7.010   6.233
 5681SOL     OW17941   1.962   3.938   0.378
 5681SOL    HW117942   1.969   4.035   0.354
 5681SOL    HW217943   1.964   3.883   0.294
 5682SOL     OW17944   0.720   3.448   3.758
 5682SOL    HW117945   0.710   3.545   3.777
 5682SOL    HW217946   0.737   3.398   3.843
 5683SOL     OW17947   3.841   2.939   4.865
 5683SOL    HW117948   3.801   2.950   4.956
 5683SOL    HW217949   3.896   2.856   4.862
 5684SOL     OW17950   3.095   3.398   3.330
 5684SOL    HW117951   3.038   3.450   3.393
 5684SOL    HW217952   3.154   3.336   3.381
 5685SOL     OW17953   1.046   5.703   2.592
 5685SOL    HW117954   1.035   5.796   2.556
 5685SOL    HW217955   1.086   5.707   2.683
 5686SOL     OW17956   3.386   5.566   0.157
 5686SOL    HW117957   3.395   5.509   0.239
 5686SOL    HW217958   3.403   5.662   0.180
 5687SOL     OW17959   4.789   5.209   5.517
 5687SOL    HW117960   4.792   5.240   5.422
 5687SOL    HW217961   4.744   5.120   5.522
 5688SOL     OW17962   6.221   2.070   2.516
 5688SOL    HW117963   6.292   2.027   2.572
 5688SOL    HW217964   6.151   2.002   2.494
 5689SOL     OW17965   4.044   2.333   6.135
 5689SOL    HW117966   4.029   2.410   6.196
 5689SOL    HW217967   4.021   2.248   6.183
 5690SOL     OW17968   4.760   6.655   1.931
 5690SOL    HW117969   4.801   6.606   1.855
 5690SOL    HW217970   4.716   6.590   1.993
 5691SOL     OW17971   2.055   0.221   2.732
 5691SOL    HW117972   2.041   0.167   2.649
 5691SOL    HW217973   2.138   0.189   2.778
 5692SOL     OW17974   6.322   2.874   0.402
 5692SOL    HW117975   6.326   2.792   0.345
 5692SOL    HW217976   6.308   2.954   0.345
 5693SOL     OW17977   4.640   2.533   2.737
 5693SOL    HW117978   4.681   2.623   2.750
 5693SOL    HW217979   4.567   2.538   2.668
 5694SOL     OW17980   1.283   1.973   4.407
 5694SOL    HW117981   1.243   1.938   4.322
 5694SOL    HW217982   1.382   1.959   4.406
 5695SOL     OW17983   1.267   3.760   3.803
 5695SOL    HW117984   1.174   3.785   3.779
 5695SOL    HW217985   1.289   3.795   3.894
 5696SOL     OW17986   3.698   0.110   5.901
 5696SOL    HW117987   3.603   0.140   5.888
 5696SOL    HW217988   3.742   0.097   5.812
 5697SOL     OW17989   6.542   3.249   0.011
 5697SOL    HW117990   6.551   3.348   0.007
 5697SOL    HW217991   6.477   3.218   6.971
 5698SOL     OW17992   0.880   4.190   2.262
 5698SOL    HW117993   0.877   4.189   2.362
 5698SOL    HW217994   0.956   4.134   2.230
 5699SOL     OW17995   6.422   1.452   4.823
 5699SOL    HW117996   6.479   1.413   4.895
 5699SOL    HW217997   6.439   1.550   4.816
 5700SOL     OW17998   0.965   4.958   3.348
 5700SOL    HW117999   1.001   4.984   3.438
 5700SOL    HW218000   0.877   5.001   3.334
 5701SOL     OW18001   5.233   5.073   1.701
 5701SOL    HW118002   5.234   5.104   1.796
 5701SOL    HW218003   5.277   5.142   1.643
 5702SOL     OW18004   2.082   0.469   6.729
 5702SOL    HW118005   2.023   0.542   6.694
 5702SOL    HW218006   2.139   0.434   6.655
 5703SOL     OW18007   4.324   4.623   0.661
 5703SOL    HW118008   4.389   4.551   0.686
 5703SOL    HW218009   4.232   4.593   0.685
 5704SOL     OW18010   4.085   5.618   4.072
 5704SOL    HW118011   4.136   5.679   4.132
 5704SOL    HW218012   4.091   5.651   3.978
 5705SOL     OW18013   6.244   1.586   2.695
 5705SOL    HW118014   6.227   1.496   2.735
 5705SOL    HW218015   6.315   1.579   2.625
 5706SOL     OW18016   1.985   1.237   6.486
 5706SOL    HW118017   2.064   1.277   6.533
 5706SOL    HW218018   2.004   1.230   6.388
 5707SOL     OW18019   3.242   1.897   5.945
 5707SOL    HW118020   3.183   1.902   5.864
 5707SOL    HW218021   3.337   1.906   5.918
 5708SOL     OW18022   5.703   0.042   2.031
 5708SOL    HW118023   5.789   0.077   2.068
 5708SOL    HW218024   5.628   0.101   2.061
 5709SOL     OW18025   0.915   0.990   3.292
 5709SOL    HW118026   0.864   0.971   3.208
 5709SOL    HW218027   0.851   0.996   3.368
 5710SOL     OW18028   2.981   4.442   5.970
 5710SOL    HW118029   2.957   4.444   5.873
 5710SOL    HW218030   2.899   4.423   6.024
 5711SOL     OW18031   4.552   1.503   4.236
 5711SOL    HW118032   4.457   1.471   4.234
 5711SOL    HW218033   4.561   1.586   4.182
 5712SOL     OW18034   6.981   5.773   6.716
 5712SOL    HW118035   0.036   5.754   6.767
 5712SOL    HW218036   6.996   5.756   6.619
 5713SOL     OW18037   6.958   2.087   3.260
 5713SOL    HW118038   7.027   2.073   3.332
 5713SOL    HW218039   6.983   2.035   3.179
 5714SOL     OW18040   2.048   0.859   6.724
 5714SOL    HW118041   2.145   0.843   6.743
 5714SOL    HW218042   2.022   0.810   6.641
 5715SOL     OW18043   1.761   0.322   3.396
 5715SOL    HW118044   1.833   0.346   3.460
 5715SOL    HW218045   1.715   0.405   3.365
 5716SOL     OW18046   1.970   3.068   5.347
 5716SOL    HW118047   2.038   3.141   5.337
 5716SOL    HW218048   1.962   3.018   5.261
 5717SOL     OW18049   0.503   4.337   0.291
 5717SOL    HW118050   0.414   4.292   0.302
 5717SOL    HW218051   0.500   4.427   0.334
 5718SOL     OW18052   2.005   4.793   5.456
 5718SOL    HW118053   2.043   4.714   5.409
 5718SOL    HW218054   2.079   4.845   5.499
 5719SOL     OW18055   2.747   0.417   6.640
 5719SOL    HW118056   2.802   0.467   6.707
 5719SOL    HW218057   2.652   0.415   6.669
 5720SOL     OW18058   2.188   5.081   4.025
 5720SOL    HW118059   2.231   5.153   3.971
 5720SOL    HW218060   2.243   5.065   4.108
 5721SOL     OW18061   0.858   4.698   1.769
 5721SOL    HW118062   0.775   4.676   1.821
 5721SOL    HW218063   0.920   4.620   1.771
 5722SOL     OW18064   5.129   0.785   3.645
 5722SOL    HW118065   5.203   0.735   3.692
 5722SOL    HW218066   5.052   0.797   3.708
 5723SOL     OW18067   1.432   4.944   1.103
 5723SOL    HW118068   1.504   4.996   1.057
 5723SOL    HW218069   1.463   4.850   1.118
 5724SOL     OW18070   4.907   1.757   6.999
 5724SOL    HW118071   4.994   1.740   6.952
 5724SOL    HW218072   4.866   1.842   6.965
 5725SOL     OW18073   5.197   5.667   6.120
 5725SOL    HW118074   5.099   5.686   6.131
 5725SOL    HW218075   5.214   5.626   6.031
 5726SOL     OW18076   4.642   3.170   6.279
 5726SOL    HW118077   4.636   3.075   6.248
 5726SOL    HW218078   4.729   3.209   6.249
 5727SOL     OW18079   5.879   1.839   3.772
 5727SOL    HW118080   5.826   1.758   3.796
 5727SOL    HW218081   5.977   1.816   3.772
 5728SOL     OW18082   5.732   0.886   6.371
 5728SOL    HW118083   5.658   0.821   6.386
 5728SOL    HW218084   5.809   0.864   6.431
 5729SOL     OW18085   0.902   2.910   5.312
 5729SOL    HW118086   0.921   2.813   5.294
 5729SOL    HW218087   0.928   2.965   5.233
 5730SOL     OW18088   4.353   5.380   6.759
 5730SOL    HW118089   4.289   5.438   6.709
 5730SOL    HW218090   4.416   5.437   6.812
 5731SOL     OW18091   3.776   0.969   4.571
 5731SOL    HW118092   3.795   0.875   4.541
 5731SOL    HW218093   3.812   0.983   4.663
 5732SOL     OW18094   5.835   4.249   3.827
 5732SOL    HW118095   5.902   4.224   3.897
 5732SOL    HW218096   5.797   4.339   3.847
 5733SOL     OW18097   3.041   0.127   0.766
 5733SOL    HW118098   3.067   0.067   0.690
 5733SOL    HW218099   3.021   0.072   0.847
 5734SOL     OW18100   2.303   5.545   6.509
 5734SOL    HW118101   2.325   5.582   6.419
 5734SOL    HW218102   2.388   5.529   6.560
 5735SOL     OW18103   4.855   0.579   1.947
 5735SOL    HW118104   4.929   0.536   1.999
 5735SOL    HW218105   4.831   0.520   1.870
 5736SOL     OW18106   5.843   3.979   0.272
 5736SOL    HW118107   5.939   4.004   0.260
 5736SOL    HW218108   5.837   3.880   0.285
 5737SOL     OW18109   4.169   5.319   1.242
 5737SOL    HW118110   4.205   5.393   1.299
 5737SOL    HW218111   4.240   5.251   1.228
 5738SOL     OW18112   3.000   0.511   0.415
 5738SOL    HW118113   3.052   0.454   0.351
 5738SOL    HW218114   3.004   0.471   0.507
 5739SOL     OW18115   2.165   0.907   5.824
 5739SOL    HW118116   2.126   0.829   5.774
 5739SOL    HW218117   2.145   0.991   5.774
 5740SOL     OW18118   4.716   3.662   1.746
 5740SOL    HW118119   4.738   3.565   1.735
 5740SOL    HW218120   4.781   3.704   1.809
 5741SOL     OW18121   0.734   3.587   4.078
 5741SOL    HW118122   0.694   3.498   4.057
 5741SOL    HW218123   0.830   3.575   4.104
 5742SOL     OW18124   4.977   0.382   3.130
 5742SOL    HW118125   5.059   0.341   3.089
 5742SOL    HW218126   4.969   0.477   3.101
 5743SOL     OW18127   3.885   4.961   0.437
 5743SOL    HW118128   3.967   4.916   0.472
 5743SOL    HW218129   3.808   4.943   0.498
 5744SOL     OW18130   5.051   6.758   2.773
 5744SOL    HW118131   5.041   6.730   2.677
 5744SOL    HW218132   4.963   6.748   2.820
 5745SOL     OW18133   1.399   2.818   2.054
 5745SOL    HW118134   1.465   2.803   1.980
 5745SOL    HW218135   1.313   2.852   2.016
 5746SOL     OW18136   4.922   6.989   3.148
 5746SOL    HW118137   4.834   6.972   3.104
 5746SOL    HW218138   4.967   6.901   3.167
 5747SOL     OW18139   1.170   6.485   0.878
 5747SOL    HW118140   1.175   6.470   0.976
 5747SOL    HW218141   1.124   6.572   0.859
 5748SOL     OW18142   0.124   5.861   0.685
 5748SOL    HW118143   0.110   5.783   0.746
 5748SOL    HW218144   0.144   5.943   0.738
 5749SOL     OW18145   1.712   5.651   6.283
 5749SOL    HW118146   1.694   5.747   6.305
 5749SOL    HW218147   1.674   5.631   6.193
 5750SOL     OW18148   6.345   3.602   3.907
 5750SOL    HW118149   6.295   3.559   3.982
 5750SOL    HW218150   6.324   3.553   3.822
 5751SOL     OW18151   1.639   3.655   4.706
 5751SOL    HW118152   1.675   3.690   4.620
 5751SOL    HW218153   1.626   3.730   4.770
 5752SOL     OW18154   4.556   0.124   0.998
 5752SOL    HW118155   4.555   0.077   1.086
 5752SOL    HW218156   4.649   0.124   0.961
 5753SOL     OW18157   3.668   4.238   5.087
 5753SOL    HW118158   3.683   4.291   5.171
 5753SOL    HW218159   3.570   4.225   5.073
 5754SOL     OW18160   0.637   5.716   1.545
 5754SOL    HW118161   0.626   5.629   1.593
 5754SOL    HW218162   0.608   5.791   1.604
 5755SOL     OW18163   1.093   2.233   6.698
 5755SOL    HW118164   1.183   2.192   6.711
 5755SOL    HW218165   1.099   2.303   6.627
 5756SOL     OW18166   5.707   6.188   1.219
 5756SOL    HW118167   5.787   6.134   1.192
 5756SOL    HW218168   5.635   6.177   1.151
 5757SOL     OW18169   6.650   0.562   4.292
 5757SOL    HW118170   6.603   0.612   4.220
 5757SOL    HW218171   6.694   0.627   4.354
 5758SOL     OW18172   6.081   6.846   3.023
 5758SOL    HW118173   6.020   6.767   3.017
 5758SOL    HW218174   6.172   6.820   2.991
 5759SOL     OW18175   3.835   6.936   1.087
 5759SOL    HW118176   3.793   6.938   0.996
 5759SOL    HW218177   3.859   0.001   1.115
 5760SOL     OW18178   1.240   3.181   0.634
 5760SOL    HW118179   1.242   3.278   0.660
 5760SOL    HW218180   1.193   3.128   0.704
 5761SOL     OW18181   5.976   0.030   4.275
 5761SOL    HW118182   5.952   0.101   4.342
 5761SOL    HW218183   5.927   6.974   4.298
 5762SOL     OW18184   6.451   5.718   6.815
 5762SOL    HW118185   6.542   5.707   6.775
 5762SOL    HW218186   6.391   5.647   6.780
 5763SOL     OW18187   6.050   6.951   6.838
 5763SOL    HW118188   5.997   6.872   6.808
 5763SOL    HW218189   6.000   0.007   6.817
 5764SOL     OW18190   4.858   6.818   3.850
 5764SOL    HW118191   4.802   6.739   3.875
 5764SOL    HW218192   4.811   6.902   3.877
 5765SOL     OW18193   5.969   5.408   2.128
 5765SOL    HW118194   5.873   5.437   2.136
 5765SOL    HW218195   5.985   5.373   2.036
 5766SOL     OW18196   0.181   1.526   4.254
 5766SOL    HW118197   0.224   1.435   4.249
 5766SOL    HW218198   0.243   1.589   4.300
 5767SOL     OW18199   3.590   6.716   6.790
 5767SOL    HW118200   3.626   6.806   6.768
 5767SOL    HW218201   3.664   6.659   6.826
 5768SOL     OW18202   0.460   0.634   4.314
 5768SOL    HW118203   0.487   0.629   4.218
 5768SOL    HW218204   0.460   0.730   4.344
 5769SOL     OW18205   1.664   4.309   6.338
 5769SOL    HW118206   1.655   4.278   6.244
 5769SOL    HW218207   1.597   4.261   6.395
 5770SOL     OW18208   1.752   4.752   1.572
 5770SOL    HW118209   1.848   4.759   1.596
 5770SOL    HW218210   1.712   4.843   1.567
 5771SOL     OW18211   3.300   5.265   3.197
 5771SOL    HW118212   3.226   5.199   3.183
 5771SOL    HW218213   3.383   5.218   3.224
 5772SOL     OW18214   2.977   0.373   2.276
 5772SOL    HW118215   3.042   0.329   2.339
 5772SOL    HW218216   3.024   0.441   2.221
 5773SOL     OW18217   4.891   1.908   2.359
 5773SOL    HW118218   4.868   1.979   2.425
 5773SOL    HW218219   4.940   1.949   2.282
 5774SOL     OW18220   0.306   6.642   2.223
 5774SOL    HW118221   0.356   6.696   2.291
 5774SOL    HW218222   0.342   6.549   2.222
 5775SOL     OW18223   6.519   5.766   2.004
 5775SOL    HW118224   6.421   5.783   1.991
 5775SOL    HW218225   6.571   5.814   1.933
 5776SOL     OW18226   2.630   1.189   4.302
 5776SOL    HW118227   2.675   1.107   4.336
 5776SOL    HW218228   2.586   1.170   4.214
 5777SOL     OW18229   1.562   6.102   2.914
 5777SOL    HW118230   1.527   6.094   2.821
 5777SOL    HW218231   1.562   6.198   2.942
 5778SOL     OW18232   0.503   1.861   0.844
 5778SOL    HW118233   0.433   1.874   0.915
 5778SOL    HW218234   0.478   1.914   0.763
 5779SOL     OW18235   5.980   1.688   5.919
 5779SOL    HW118236   5.882   1.673   5.913
 5779SOL    HW218237   6.001   1.782   5.891
 5780SOL     OW18238   5.110   6.215   3.784
 5780SOL    HW118239   5.188   6.160   3.812
 5780SOL    HW218240   5.071   6.179   3.699
 5781SOL     OW18241   0.442   4.785   5.041
 5781SOL    HW118242   0.449   4.685   5.037
 5781SOL    HW218243   0.369   4.816   4.980
 5782SOL     OW18244   0.780   0.477   0.282
 5782SOL    HW118245   0.823   0.537   0.213
 5782SOL    HW218246   0.683   0.467   0.261
 5783SOL     OW18247   1.341   1.799   0.862
 5783SOL    HW118248   1.348   1.895   0.833
 5783SOL    HW218249   1.363   1.792   0.959
 5784SOL     OW18250   6.653   6.102   6.508
 5784SOL    HW118251   6.683   6.042   6.582
 5784SOL    HW218252   6.613   6.048   6.435
 5785SOL     OW18253   1.421   1.751   0.613
 5785SOL    HW118254   1.389   1.773   0.705
 5785SOL    HW218255   1.391   1.822   0.549
 5786SOL     OW18256   5.768   4.413   1.039
 5786SOL    HW118257   5.805   4.434   1.130
 5786SOL    HW218258   5.793   4.320   1.014
 5787SOL     OW18259   3.470   1.972   5.789
 5787SOL    HW118260   3.459   2.069   5.767
 5787SOL    HW218261   3.485   1.920   5.705
 5788SOL     OW18262   2.619   1.049   3.879
 5788SOL    HW118263   2.694   1.037   3.943
 5788SOL    HW218264   2.542   1.091   3.926
 5789SOL     OW18265   4.158   4.907   6.022
 5789SOL    HW118266   4.177   4.879   5.928
 5789SOL    HW218267   4.062   4.890   6.044
 5790SOL     OW18268   0.412   2.534   3.340
 5790SOL    HW118269   0.321   2.536   3.297
 5790SOL    HW218270   0.474   2.593   3.289
 5791SOL     OW18271   2.520   1.023   2.941
 5791SOL    HW118272   2.423   1.005   2.957
 5791SOL    HW218273   2.540   1.119   2.962
 5792SOL     OW18274   6.522   2.561   2.788
 5792SOL    HW118275   6.463   2.545   2.867
 5792SOL    HW218276   6.475   2.532   2.705
 5793SOL     OW18277   0.348   0.468   3.946
 5793SOL    HW118278   0.262   0.453   3.994
 5793SOL    HW218279   0.334   0.458   3.848
 5794SOL     OW18280   4.662   3.586   0.008
 5794SOL    HW118281   4.749   3.636   0.005
 5794SOL    HW218282   4.592   3.638   6.987
 5795SOL     OW18283   5.667   4.174   6.362
 5795SOL    HW118284   5.649   4.089   6.313
 5795SOL    HW218285   5.726   4.232   6.306
 5796SOL     OW18286   3.796   1.369   0.377
 5796SOL    HW118287   3.896   1.367   0.379
 5796SOL    HW218288   3.766   1.408   0.290
 5797SOL     OW18289   2.986   1.949   4.794
 5797SOL    HW118290   3.076   1.949   4.751
 5797SOL    HW218291   2.992   1.908   4.885
 5798SOL     OW18292   6.466   4.625   4.710
 5798SOL    HW118293   6.554   4.653   4.671
 5798SOL    HW218294   6.443   4.533   4.677
 5799SOL     OW18295   5.336   0.158   3.718
 5799SOL    HW118296   5.422   0.146   3.767
 5799SOL    HW218297   5.349   0.133   3.622
 5800SOL     OW18298   6.087   4.855   0.830
 5800SOL    HW118299   6.126   4.777   0.781
 5800SOL    HW218300   6.041   4.822   0.913
 5801SOL     OW18301   2.009   1.891   3.710
 5801SOL    HW118302   1.993   1.944   3.627
 5801SOL    HW218303   2.065   1.811   3.688
 5802SOL     OW18304   0.528   3.257   5.488
 5802SOL    HW118305   0.481   3.169   5.498
 5802SOL    HW218306   0.510   3.314   5.568
 5803SOL     OW18307   1.501   4.476   0.273
 5803SOL    HW118308   1.490   4.519   0.183
 5803SOL    HW218309   1.471   4.540   0.344
 5804SOL     OW18310   6.251   4.029   4.598
 5804SOL    HW118311   6.235   3.989   4.508
 5804SOL    HW218312   6.347   4.054   4.607
 5805SOL     OW18313   5.298   3.347   6.614
 5805SOL    HW118314   5.231   3.370   6.545
 5805SOL    HW218315   5.366   3.284   6.576
 5806SOL     OW18316   0.789   6.293   6.953
 5806SOL    HW118317   0.811   6.196   6.938
 5806SOL    HW218318   0.690   6.303   6.961
 5807SOL     OW18319   1.716   3.403   1.729
 5807SOL    HW118320   1.766   3.356   1.802
 5807SOL    HW218321   1.628   3.437   1.765
 5808SOL     OW18322   6.514   3.748   2.792
 5808SOL    HW118323   6.527   3.805   2.711
 5808SOL    HW218324   6.444   3.679   2.773
 5809SOL     OW18325   0.066   3.979   4.189
 5809SOL    HW118326   0.097   3.945   4.100
 5809SOL    HW218327   0.143   3.984   4.252
 5810SOL     OW18328   2.624   2.080   2.175
 5810SOL    HW118329   2.698   2.019   2.205
 5810SOL    HW218330   2.659   2.173   2.169
 5811SOL     OW18331   2.631   1.428   4.144
 5811SOL    HW118332   2.555   1.493   4.148
 5811SOL    HW218333   2.649   1.392   4.235
 5812SOL     OW18334   4.517   0.592   4.184
 5812SOL    HW118335   4.526   0.655   4.262
 5812SOL    HW218336   4.503   0.499   4.218
 5813SOL     OW18337   1.275   0.717   5.412
 5813SOL    HW118338   1.268   0.756   5.320
 5813SOL    HW218339   1.310   0.624   5.406
 5814SOL     OW18340   0.587   5.295   1.230
 5814SOL    HW118341   0.542   5.206   1.237
 5814SOL    HW218342   0.622   5.322   1.320
 5815SOL     OW18343   3.565   1.466   2.936
 5815SOL    HW118344   3.653   1.446   2.980
 5815SOL    HW218345   3.526   1.381   2.899
 5816SOL     OW18346   4.617   0.670   0.430
 5816SOL    HW118347   4.571   0.647   0.345
 5816SOL    HW218348   4.561   0.640   0.508
 5817SOL     OW18349   4.940   3.161   5.039
 5817SOL    HW118350   4.930   3.145   5.137
 5817SOL    HW218351   4.904   3.082   4.988
 5818SOL     OW18352   6.201   6.743   6.411
 5818SOL    HW118353   6.106   6.716   6.427
 5818SOL    HW218354   6.257   6.718   6.490
 5819SOL     OW18355   6.058   0.372   1.606
 5819SOL    HW118356   6.019   0.464   1.601
 5819SOL    HW218357   6.071   0.336   1.514
 5820SOL     OW18358   5.560   6.257   3.684
 5820SOL    HW118359   5.616   6.327   3.639
 5820SOL    HW218360   5.613   6.212   3.756
 5821SOL     OW18361   2.735   0.848   1.694
 5821SOL    HW118362   2.657   0.792   1.723
 5821SOL    HW218363   2.816   0.822   1.746
 5822SOL     OW18364   0.055   1.417   1.971
 5822SOL    HW118365   0.096   1.505   1.950
 5822SOL    HW218366   0.066   1.355   1.893
 5823SOL     OW18367   2.502   1.830   4.317
 5823SOL    HW118368   2.423   1.773   4.294
 5823SOL    HW218369   2.475   1.899   4.385
 5824SOL     OW18370   5.217   6.932   3.541
 5824SOL    HW118371   5.280   6.909   3.467
 5824SOL    HW218372   5.137   6.977   3.503
 5825SOL     OW18373   2.739   0.479   0.276
 5825SOL    HW118374   2.814   0.452   0.336
 5825SOL    HW218375   2.670   0.529   0.329
 5826SOL     OW18376   6.345   0.163   5.109
 5826SOL    HW118377   6.415   0.108   5.154
 5826SOL    HW218378   6.346   0.256   5.146
 5827SOL     OW18379   0.821   5.501   5.024
 5827SOL    HW118380   0.896   5.478   5.086
 5827SOL    HW218381   0.845   5.474   4.931
 5828SOL     OW18382   7.022   3.709   2.020
 5828SOL    HW118383   0.002   3.809   2.023
 5828SOL    HW218384   7.020   3.679   1.925
 5829SOL     OW18385   2.010   1.117   1.599
 5829SOL    HW118386   1.926   1.143   1.551
 5829SOL    HW218387   2.083   1.181   1.575
 5830SOL     OW18388   3.035   1.484   6.137
 5830SOL    HW118389   2.960   1.540   6.171
 5830SOL    HW218390   3.115   1.542   6.121
 5831SOL     OW18391   5.566   6.727   3.290
 5831SOL    HW118392   5.509   6.803   3.321
 5831SOL    HW218393   5.517   6.641   3.304
 5832SOL     OW18394   4.014   4.124   5.352
 5832SOL    HW118395   4.028   4.044   5.411
 5832SOL    HW218396   4.097   4.180   5.352
 5833SOL     OW18397   3.523   3.059   4.937
 5833SOL    HW118398   3.580   3.140   4.923
 5833SOL    HW218399   3.510   3.012   4.849
 5834SOL     OW18400   6.241   1.261   0.829
 5834SOL    HW118401   6.287   1.336   0.877
 5834SOL    HW218402   6.143   1.280   0.824
 5835SOL     OW18403   5.630   2.372   3.566
 5835SOL    HW118404   5.684   2.412   3.492
 5835SOL    HW218405   5.544   2.337   3.530
 5836SOL     OW18406   3.857   5.939   2.248
 5836SOL    HW118407   3.816   5.853   2.215
 5836SOL    HW218408   3.943   5.956   2.199
 5837SOL     OW18409   5.171   4.221   6.773
 5837SOL    HW118410   5.094   4.167   6.804
 5837SOL    HW218411   5.139   4.310   6.741
 5838SOL     OW18412   0.879   1.245   5.185
 5838SOL    HW118413   0.963   1.281   5.143
 5838SOL    HW218414   0.828   1.321   5.227
 5839SOL     OW18415   6.862   3.384   3.196
 5839SOL    HW118416   6.825   3.457   3.253
 5839SOL    HW218417   6.796   3.360   3.124
 5840SOL     OW18418   1.621   5.156   6.760
 5840SOL    HW118419   1.545   5.097   6.785
 5840SOL    HW218420   1.707   5.116   6.792
 5841SOL     OW18421   6.755   2.503   3.840
 5841SOL    HW118422   6.703   2.541   3.764
 5841SOL    HW218423   6.842   2.466   3.807
 5842SOL     OW18424   3.861   3.140   0.745
 5842SOL    HW118425   3.948   3.111   0.785
 5842SOL    HW218426   3.809   3.059   0.719
 5843SOL     OW18427   1.988   4.108   2.315
 5843SOL    HW118428   1.998   4.139   2.410
 5843SOL    HW218429   2.024   4.016   2.306
 5844SOL     OW18430   1.173   6.342   6.476
 5844SOL    HW118431   1.209   6.405   6.545
 5844SOL    HW218432   1.124   6.267   6.521
 5845SOL     OW18433   0.826   2.462   4.184
 5845SOL    HW118434   0.768   2.514   4.121
 5845SOL    HW218435   0.787   2.466   4.276
 5846SOL     OW18436   0.043   3.027   5.727
 5846SOL    HW118437   0.141   3.050   5.727
 5846SOL    HW218438   0.025   2.958   5.657
 5847SOL     OW18439   2.215   2.829   2.299
 5847SOL    HW118440   2.186   2.878   2.217
 5847SOL    HW218441   2.192   2.884   2.380
 5848SOL     OW18442   1.283   4.557   3.218
 5848SOL    HW118443   1.375   4.534   3.250
 5848SOL    HW218444   1.264   4.653   3.239
 5849SOL     OW18445   2.538   0.210   5.560
 5849SOL    HW118446   2.521   0.303   5.528
 5849SOL    HW218447   2.614   0.210   5.625
 5850SOL     OW18448   0.743   4.900   2.148
 5850SOL    HW118449   0.741   4.802   2.129
 5850SOL    HW218450   0.706   4.917   2.239
 5851SOL     OW18451   6.179   4.001   1.983
 5851SOL    HW118452   6.128   4.078   2.021
 5851SOL    HW218453   6.205   3.938   2.056
 5852SOL     OW18454   4.529   5.947   2.852
 5852SOL    HW118455   4.576   5.863   2.825
 5852SOL    HW218456   4.586   6.026   2.828
 5853SOL     OW18457   3.530   4.668   5.644
 5853SOL    HW118458   3.570   4.671   5.736
 5853SOL    HW218459   3.595   4.626   5.581
 5854SOL     OW18460   6.914   1.157   6.036
 5854SOL    HW118461   6.872   1.145   5.946
 5854SOL    HW218462   6.854   1.212   6.094
 5855SOL     OW18463   0.888   1.168   4.534
 5855SOL    HW118464   0.889   1.115   4.619
 5855SOL    HW218465   0.923   1.260   4.552
 5856SOL     OW18466   1.988   4.158   3.958
 5856SOL    HW118467   1.892   4.177   3.940
 5856SOL    HW218468   2.035   4.242   3.982
 5857SOL     OW18469   6.455   3.147   5.355
 5857SOL    HW118470   6.359   3.141   5.382
 5857SOL    HW218471   6.473   3.239   5.320
 5858SOL     OW18472   3.583   1.276   2.731
 5858SOL    HW118473   3.533   1.211   2.674
 5858SOL    HW218474   3.672   1.294   2.690
 5859SOL     OW18475   6.043   6.349   0.713
 5859SOL    HW118476   5.968   6.407   0.681
 5859SOL    HW218477   6.107   6.333   0.638
 5860SOL     OW18478   1.673   3.856   1.739
 5860SOL    HW118479   1.742   3.907   1.687
 5860SOL    HW218480   1.614   3.805   1.677
 5861SOL     OW18481   6.449   2.272   4.425
 5861SOL    HW118482   6.509   2.352   4.432
 5861SOL    HW218483   6.483   2.212   4.353
 5862SOL     OW18484   4.253   4.673   3.048
 5862SOL    HW118485   4.166   4.696   3.091
 5862SOL    HW218486   4.244   4.680   2.949
 5863SOL     OW18487   2.535   1.223   7.014
 5863SOL    HW118488   2.529   1.232   0.085
 5863SOL    HW218489   2.630   1.237   6.985
 5864SOL     OW18490   4.636   4.572   1.674
 5864SOL    HW118491   4.732   4.577   1.646
 5864SOL    HW218492   4.627   4.603   1.769
 5865SOL     OW18493   4.501   1.030   3.121
 5865SOL    HW118494   4.589   0.983   3.111
 5865SOL    HW218495   4.428   0.962   3.124
 5866SOL     OW18496   4.045   0.471   6.115
 5866SOL    HW118497   4.001   0.558   6.094
 5866SOL    HW218498   4.037   0.410   6.036
 5867SOL     OW18499   0.215   2.856   1.593
 5867SOL    HW118500   0.186   2.836   1.687
 5867SOL    HW218501   0.304   2.812   1.577
 5868SOL     OW18502   1.765   6.932   5.355
 5868SOL    HW118503   1.752   6.865   5.427
 5868SOL    HW218504   1.706   7.011   5.371
 5869SOL     OW18505   2.773   4.713   4.034
 5869SOL    HW118506   2.689   4.743   3.989
 5869SOL    HW218507   2.852   4.745   3.981
 5870SOL     OW18508   5.086   5.085   4.810
 5870SOL    HW118509   5.082   4.986   4.814
 5870SOL    HW218510   5.155   5.113   4.744
 5871SOL     OW18511   3.170   3.280   6.751
 5871SOL    HW118512   3.091   3.220   6.750
 5871SOL    HW218513   3.204   3.290   6.844
 5872SOL     OW18514   3.193   6.255   5.944
 5872SOL    HW118515   3.217   6.160   5.925
 5872SOL    HW218516   3.261   6.316   5.903
 5873SOL     OW18517   2.880   3.460   0.169
 5873SOL    HW118518   2.808   3.488   0.106
 5873SOL    HW218519   2.968   3.492   0.135
 5874SOL     OW18520   1.754   3.646   1.319
 5874SOL    HW118521   1.765   3.603   1.229
 5874SOL    HW218522   1.681   3.714   1.315
 5875SOL     OW18523   3.582   1.691   6.911
 5875SOL    HW118524   3.648   1.646   6.972
 5875SOL    HW218525   3.507   1.728   6.965
 5876SOL     OW18526   3.331   4.329   6.258
 5876SOL    HW118527   3.403   4.270   6.293
 5876SOL    HW218528   3.299   4.295   6.170
 5877SOL     OW18529   0.072   0.059   3.331
 5877SOL    HW118530   0.095   0.146   3.374
 5877SOL    HW218531   0.088   0.065   3.233
 5878SOL     OW18532   4.932   4.867   2.932
 5878SOL    HW118533   4.965   4.825   3.016
 5878SOL    HW218534   4.840   4.902   2.946
 5879SOL     OW18535   4.117   3.533   5.880
 5879SOL    HW118536   4.033   3.541   5.827
 5879SOL    HW218537   4.163   3.447   5.857
 5880SOL     OW18538   5.308   2.521   5.407
 5880SOL    HW118539   5.352   2.439   5.445
 5880SOL    HW218540   5.367   2.600   5.422
 5881SOL     OW18541   1.389   5.957   2.460
 5881SOL    HW118542   1.439   5.930   2.377
 5881SOL    HW218543   1.411   5.894   2.534
 5882SOL     OW18544   1.896   5.723   6.035
 5882SOL    HW118545   1.796   5.728   6.032
 5882SOL    HW218546   1.926   5.717   6.130
 5883SOL     OW18547   0.484   4.204   0.952
 5883SOL    HW118548   0.458   4.274   1.018
 5883SOL    HW218549   0.577   4.221   0.919
 5884SOL     OW18550   6.485   2.047   3.472
 5884SOL    HW118551   6.512   2.143   3.484
 5884SOL    HW218552   6.408   2.027   3.533
 5885SOL     OW18553   0.205   5.284   0.193
 5885SOL    HW118554   0.183   5.267   0.097
 5885SOL    HW218555   0.127   5.327   0.238
 5886SOL     OW18556   1.756   4.066   3.534
 5886SOL    HW118557   1.827   4.134   3.521
 5886SOL    HW218558   1.796   3.974   3.528
 5887SOL     OW18559   1.970   2.652   0.912
 5887SOL    HW118560   1.905   2.660   0.987
 5887SOL    HW218561   1.955   2.727   0.847
 5888SOL     OW18562   3.369   6.914   0.692
 5888SOL    HW118563   3.379   6.913   0.791
 5888SOL    HW218564   3.406   6.829   0.654
 5889SOL     OW18565   5.926   0.743   2.224
 5889SOL    HW118566   5.865   0.741   2.303
 5889SOL    HW218567   5.925   0.654   2.179
 5890SOL     OW18568   2.394   6.159   2.611
 5890SOL    HW118569   2.406   6.089   2.681
 5890SOL    HW218570   2.477   6.163   2.554
 5891SOL     OW18571   2.568   3.568   0.996
 5891SOL    HW118572   2.479   3.576   1.041
 5891SOL    HW218573   2.557   3.523   0.908
 5892SOL     OW18574   1.102   4.141   1.262
 5892SOL    HW118575   1.043   4.168   1.337
 5892SOL    HW218576   1.198   4.149   1.290
 5893SOL     OW18577   0.652   6.515   2.058
 5893SOL    HW118578   0.667   6.492   1.962
 5893SOL    HW218579   0.734   6.491   2.111
 5894SOL     OW18580   2.120   5.156   6.198
 5894SOL    HW118581   2.195   5.109   6.153
 5894SOL    HW218582   2.037   5.102   6.191
 5895SOL     OW18583   5.476   3.183   4.606
 5895SOL    HW118584   5.459   3.183   4.704
 5895SOL    HW218585   5.461   3.091   4.569
 5896SOL     OW18586   5.511   2.254   1.662
 5896SOL    HW118587   5.417   2.288   1.658
 5896SOL    HW218588   5.531   2.221   1.754
 5897SOL     OW18589   4.394   2.437   0.433
 5897SOL    HW118590   4.470   2.461   0.373
 5897SOL    HW218591   4.414   2.469   0.526
 5898SOL     OW18592   1.970   1.375   5.505
 5898SOL    HW118593   1.980   1.429   5.589
 5898SOL    HW218594   1.889   1.407   5.455
 5899SOL     OW18595   6.978   5.739   6.062
 5899SOL    HW118596   0.029   5.707   6.113
 5899SOL    HW218597   6.933   5.812   6.112
 5900SOL     OW18598   5.885   6.535   3.281
 5900SOL    HW118599   5.796   6.503   3.249
 5900SOL    HW218600   5.872   6.615   3.339
 5901SOL     OW18601   1.655   0.914   5.561
 5901SOL    HW118602   1.678   1.010   5.577
 5901SOL    HW218603   1.568   0.892   5.606
 5902SOL     OW18604   5.025   4.111   5.647
 5902SOL    HW118605   5.075   4.036   5.604
 5902SOL    HW218606   5.012   4.184   5.580
 5903SOL     OW18607   6.282   2.088   5.856
 5903SOL    HW118608   6.251   2.183   5.855
 5903SOL    HW218609   6.377   2.083   5.825
 5904SOL     OW18610   2.137   4.629   2.104
 5904SOL    HW118611   2.144   4.582   2.015
 5904SOL    HW218612   2.057   4.689   2.103
 5905SOL     OW18613   5.777   0.983   4.096
 5905SOL    HW118614   5.772   0.883   4.089
 5905SOL    HW218615   5.717   1.014   4.169
 5906SOL     OW18616   4.695   0.783   5.385
 5906SOL    HW118617   4.624   0.822   5.443
 5906SOL    HW218618   4.732   0.701   5.427
 5907SOL     OW18619   1.727   3.520   6.278
 5907SOL    HW118620   1.818   3.477   6.284
 5907SOL    HW218621   1.734   3.616   6.305
 5908SOL     OW18622   4.776   3.086   5.928
 5908SOL    HW118623   4.814   3.165   5.975
 5908SOL    HW218624   4.845   3.014   5.922
 5909SOL     OW18625   6.954   4.964   4.138
 5909SOL    HW118626   6.944   5.063   4.127
 5909SOL    HW218627   6.940   4.919   4.050
 5910SOL     OW18628   2.133   4.047   1.114
 5910SOL    HW118629   2.071   4.092   1.049
 5910SOL    HW218630   2.095   3.959   1.141
 5911SOL     OW18631   5.820   6.703   6.247
 5911SOL    HW118632   5.777   6.786   6.213
 5911SOL    HW218633   5.751   6.631   6.259
 5912SOL     OW18634   6.833   3.402   6.716
 5912SOL    HW118635   6.766   3.329   6.701
 5912SOL    HW218636   6.889   3.413   6.634
 5913SOL     OW18637   1.251   1.833   5.935
 5913SOL    HW118638   1.340   1.787   5.929
 5913SOL    HW218639   1.262   1.930   5.911
 5914SOL     OW18640   2.044   6.292   0.933
 5914SOL    HW118641   2.114   6.351   0.893
 5914SOL    HW218642   2.015   6.330   1.021
 5915SOL     OW18643   4.957   3.451   2.619
 5915SOL    HW118644   4.921   3.358   2.617
 5915SOL    HW218645   5.020   3.460   2.696
 5916SOL     OW18646   3.235   0.041   5.825
 5916SOL    HW118647   3.237   6.972   5.802
 5916SOL    HW218648   3.186   0.092   5.754
 5917SOL     OW18649   3.662   2.919   2.830
 5917SOL    HW118650   3.740   2.980   2.816
 5917SOL    HW218651   3.619   2.900   2.741
 5918SOL     OW18652   2.209   3.070   4.322
 5918SOL    HW118653   2.205   3.080   4.422
 5918SOL    HW218654   2.287   3.011   4.298
 5919SOL     OW18655   1.221   3.384   6.795
 5919SOL    HW118656   1.191   3.452   6.861
 5919SOL    HW218657   1.321   3.388   6.787
 5920SOL     OW18658   3.857   6.678   6.874
 5920SOL    HW118659   3.930   6.667   6.807
 5920SOL    HW218660   3.855   6.772   6.906
 5921SOL     OW18661   4.240   5.521   5.114
 5921SOL    HW118662   4.307   5.596   5.118
 5921SOL    HW218663   4.262   5.461   5.037
 5922SOL     OW18664   5.639   4.193   2.025
 5922SOL    HW118665   5.715   4.197   1.961
 5922SOL    HW218666   5.637   4.104   2.070
 5923SOL     OW18667   0.358   6.741   3.611
 5923SOL    HW118668   0.259   6.743   3.626
 5923SOL    HW218669   0.395   6.833   3.620
 5924SOL     OW18670   5.562   2.104   4.003
 5924SOL    HW118671   5.571   2.110   4.102
 5924SOL    HW218672   5.536   2.193   3.966
 5925SOL     OW18673   5.768   6.512   1.186
 5925SOL    HW118674   5.766   6.478   1.280
 5925SOL    HW218675   5.702   6.463   1.131
 5926SOL     OW18676   3.711   5.064   1.500
 5926SOL    HW118677   3.617   5.077   1.468
 5926SOL    HW218678   3.729   5.123   1.578
 5927SOL     OW18679   2.547   5.755   2.673
 5927SOL    HW118680   2.635   5.731   2.634
 5927SOL    HW218681   2.475   5.701   2.630
 5928SOL     OW18682   1.260   6.948   1.908
 5928SOL    HW118683   1.240   7.004   1.828
 5928SOL    HW218684   1.359   6.947   1.925
 5929SOL     OW18685   1.249   6.951   5.999
 5929SOL    HW118686   1.285   6.995   6.082
 5929SOL    HW218687   1.245   6.852   6.013
 5930SOL     OW18688   6.991   1.835   4.904
 5930SOL    HW118689   6.909   1.892   4.918
 5930SOL    HW218690   0.013   1.869   4.824
 5931SOL     OW18691   6.040   5.133   1.328
 5931SOL    HW118692   6.015   5.038   1.347
 5931SOL    HW218693   5.958   5.190   1.326
 5932SOL     OW18694   2.295   6.324   0.609
 5932SOL    HW118695   2.379   6.318   0.555
 5932SOL    HW218696   2.234   6.392   0.567
 5933SOL     OW18697   6.298   3.641   2.679
 5933SOL    HW118698   6.369   3.599   2.624
 5933SOL    HW218699   6.262   3.722   2.631
 5934SOL     OW18700   3.411   3.778   3.101
 5934SOL    HW118701   3.474   3.848   3.133
 5934SOL    HW218702   3.420   3.767   3.001
 5935SOL     OW18703   4.067   3.158   3.730
 5935SOL    HW118704   4.011   3.076   3.718
 5935SOL    HW218705   4.086   3.199   3.640
 5936SOL     OW18706   5.238   5.952   6.532
 5936SOL    HW118707   5.189   6.038   6.544
 5936SOL    HW218708   5.253   5.936   6.434
 5937SOL     OW18709   1.770   3.532   1.050
 5937SOL    HW118710   1.830   3.585   0.989
 5937SOL    HW218711   1.786   3.434   1.036
 5938SOL     OW18712   2.015   4.784   1.696
 5938SOL    HW118713   2.017   4.836   1.781
 5938SOL    HW218714   2.107   4.755   1.673
 5939SOL     OW18715   3.477   0.485   3.194
 5939SOL    HW118716   3.515   0.522   3.279
 5939SOL    HW218717   3.412   0.550   3.155
 5940SOL     OW18718   4.203   5.935   3.567
 5940SOL    HW118719   4.253   5.862   3.521
 5940SOL    HW218720   4.106   5.910   3.575
 5941SOL     OW18721   6.239   4.785   2.108
 5941SOL    HW118722   6.248   4.687   2.088
 5941SOL    HW218723   6.158   4.801   2.163
 5942SOL     OW18724   4.818   1.745   5.504
 5942SOL    HW118725   4.776   1.700   5.583
 5942SOL    HW218726   4.885   1.684   5.462
 5943SOL     OW18727   1.140   6.009   6.942
 5943SOL    HW118728   1.110   6.104   6.953
 5943SOL    HW218729   1.192   5.980   7.022
 5944SOL     OW18730   4.220   1.742   2.536
 5944SOL    HW118731   4.297   1.720   2.596
 5944SOL    HW218732   4.235   1.831   2.493
 5945SOL     OW18733   0.135   4.733   5.089
 5945SOL    HW118734   0.182   4.754   5.174
 5945SOL    HW218735   0.098   4.817   5.048
 5946SOL     OW18736   3.957   3.034   5.259
 5946SOL    HW118737   4.037   3.094   5.249
 5946SOL    HW218738   3.986   2.946   5.297
 5947SOL     OW18739   4.239   3.418   1.733
 5947SOL    HW118740   4.207   3.505   1.771
 5947SOL    HW218741   4.164   3.352   1.732
 5948SOL     OW18742   3.653   4.925   2.178
 5948SOL    HW118743   3.630   4.869   2.098
 5948SOL    HW218744   3.583   4.914   2.249
 5949SOL     OW18745   4.435   4.765   2.141
 5949SOL    HW118746   4.449   4.672   2.174
 5949SOL    HW218747   4.497   4.827   2.190
 5950SOL     OW18748   5.994   2.780   3.552
 5950SOL    HW118749   5.930   2.754   3.624
 5950SOL    HW218750   6.051   2.856   3.583
 5951SOL     OW18751   1.557   5.643   4.097
 5951SOL    HW118752   1.479   5.673   4.042
 5951SOL    HW218753   1.616   5.721   4.116
 5952SOL     OW18754   6.838   6.920   5.161
 5952SOL    HW118755   6.901   6.919   5.084
 5952SOL    HW218756   6.750   6.881   5.132
 5953SOL     OW18757   0.304   3.416   6.183
 5953SOL    HW118758   0.217   3.460   6.159
 5953SOL    HW218759   0.297   3.317   6.165
 5954SOL     OW18760   0.181   5.214   6.958
 5954SOL    HW118761   0.143   5.203   6.866
 5954SOL    HW218762   0.226   5.129   6.986
 5955SOL     OW18763   5.464   5.721   2.309
 5955SOL    HW118764   5.419   5.722   2.398
 5955SOL    HW218765   5.489   5.814   2.283
 5956SOL     OW18766   5.970   1.936   0.227
 5956SOL    HW118767   6.028   1.992   0.167
 5956SOL    HW218768   5.895   1.992   0.261
 5957SOL     OW18769   5.292   6.739   6.068
 5957SOL    HW118770   5.205   6.755   6.021
 5957SOL    HW218771   5.362   6.800   6.030
 5958SOL     OW18772   0.361   5.288   2.034
 5958SOL    HW118773   0.287   5.348   2.064
 5958SOL    HW218774   0.448   5.336   2.041
 5959SOL     OW18775   2.263   1.519   6.019
 5959SOL    HW118776   2.276   1.457   6.096
 5959SOL    HW218777   2.320   1.490   5.942
 5960SOL     OW18778   3.041   0.636   3.816
 5960SOL    HW118779   2.964   0.699   3.825
 5960SOL    HW218780   3.025   0.574   3.739
 5961SOL     OW18781   2.954   0.737   5.815
 5961SOL    HW118782   2.922   0.716   5.907
 5961SOL    HW218783   2.987   0.832   5.813
 5962SOL     OW18784   4.980   5.215   2.355
 5962SOL    HW118785   4.914   5.289   2.371
 5962SOL    HW218786   5.020   5.186   2.442
 5963SOL     OW18787   4.033   3.630   2.182
 5963SOL    HW118788   3.969   3.554   2.198
 5963SOL    HW218789   4.034   3.690   2.262
 5964SOL     OW18790   0.977   4.609   5.472
 5964SOL    HW118791   0.901   4.639   5.414
 5964SOL    HW218792   0.974   4.510   5.482
 5965SOL     OW18793   2.841   2.268   5.284
 5965SOL    HW118794   2.770   2.211   5.242
 5965SOL    HW218795   2.809   2.362   5.290
 5966SOL     OW18796   2.435   6.244   3.611
 5966SOL    HW118797   2.517   6.246   3.670
 5966SOL    HW218798   2.417   6.336   3.578
 5967SOL     OW18799   4.693   6.886   2.074
 5967SOL    HW118800   4.708   6.799   2.026
 5967SOL    HW218801   4.766   6.901   2.140
 5968SOL     OW18802   0.422   3.010   4.562
 5968SOL    HW118803   0.345   3.001   4.625
 5968SOL    HW218804   0.460   2.919   4.543
 5969SOL     OW18805   5.439   3.424   3.315
 5969SOL    HW118806   5.342   3.430   3.337
 5969SOL    HW218807   5.490   3.402   3.399
 5970SOL     OW18808   1.588   2.938   3.212
 5970SOL    HW118809   1.649   2.864   3.185
 5970SOL    HW218810   1.620   2.976   3.299
 5971SOL     OW18811   2.379   6.846   2.482
 5971SOL    HW118812   2.364   6.930   2.534
 5971SOL    HW218813   2.382   6.768   2.545
 5972SOL     OW18814   4.547   6.031   0.500
 5972SOL    HW118815   4.619   6.047   0.433
 5972SOL    HW218816   4.527   6.116   0.549
 5973SOL     OW18817   1.741   4.180   3.820
 5973SOL    HW118818   1.743   4.176   3.720
 5973SOL    HW218819   1.654   4.141   3.852
 5974SOL     OW18820   0.866   4.112   6.782
 5974SOL    HW118821   0.830   4.029   6.825
 5974SOL    HW218822   0.810   4.135   6.703
 5975SOL     OW18823   2.393   2.907   0.936
 5975SOL    HW118824   2.446   2.826   0.962
 5975SOL    HW218825   2.388   2.913   0.836
 5976SOL     OW18826   3.229   3.213   5.329
 5976SOL    HW118827   3.216   3.312   5.327
 5976SOL    HW218828   3.322   3.193   5.359
 5977SOL     OW18829   1.361   3.045   2.713
 5977SOL    HW118830   1.410   3.130   2.692
 5977SOL    HW218831   1.336   3.044   2.810
 5978SOL     OW18832   4.898   5.812   1.995
 5978SOL    HW118833   4.868   5.733   2.049
 5978SOL    HW218834   4.818   5.861   1.961
 5979SOL     OW18835   0.569   0.252   3.638
 5979SOL    HW118836   0.626   0.204   3.572
 5979SOL    HW218837   0.617   0.334   3.670
 5980SOL     OW18838   6.194   4.275   6.840
 5980SOL    HW118839   6.198   4.250   6.743
 5980SOL    HW218840   6.110   4.325   6.858
 5981SOL     OW18841   4.513   0.563   2.226
 5981SOL    HW118842   4.448   0.548   2.300
 5981SOL    HW218843   4.581   0.489   2.226
 5982SOL     OW18844   6.844   2.043   6.338
 5982SOL    HW118845   6.838   1.946   6.314
 5982SOL    HW218846   6.849   2.052   6.438
 5983SOL     OW18847   0.993   1.083   4.240
 5983SOL    HW118848   1.032   1.012   4.299
 5983SOL    HW218849   0.915   1.125   4.286
 5984SOL     OW18850   0.111   0.081   5.278
 5984SOL    HW118851   0.117   0.049   5.373
 5984SOL    HW218852   0.094   0.004   5.217
 5985SOL     OW18853   4.521   2.257   4.167
 5985SOL    HW118854   4.566   2.174   4.200
 5985SOL    HW218855   4.539   2.268   4.069
 5986SOL     OW18856   3.546   2.941   2.558
 5986SOL    HW118857   3.563   3.018   2.496
 5986SOL    HW218858   3.447   2.929   2.569
 5987SOL     OW18859   3.860   0.297   5.283
 5987SOL    HW118860   3.897   0.205   5.265
 5987SOL    HW218861   3.824   0.335   5.198
 5988SOL     OW18862   3.750   0.330   3.927
 5988SOL    HW118863   3.808   0.377   3.860
 5988SOL    HW218864   3.713   0.246   3.886
 5989SOL     OW18865   2.921   0.990   6.050
 5989SOL    HW118866   2.894   1.086   6.042
 5989SOL    HW218867   2.871   0.947   6.126
 5990SOL     OW18868   3.194   4.613   1.587
 5990SOL    HW118869   3.144   4.526   1.590
 5990SOL    HW218870   3.292   4.595   1.587
 5991SOL     OW18871   2.782   5.070   4.177
 5991SOL    HW118872   2.778   5.021   4.090
 5991SOL    HW218873   2.727   5.022   4.245
 5992SOL     OW18874   4.521   0.689   3.922
 5992SOL    HW118875   4.617   0.690   3.892
 5992SOL    HW218876   4.512   0.628   4.001
 5993SOL     OW18877   3.060   5.688   5.232
 5993SOL    HW118878   3.043   5.593   5.260
 5993SOL    HW218879   3.001   5.749   5.284
 5994SOL     OW18880   0.263   1.883   2.140
 5994SOL    HW118881   0.191   1.916   2.200
 5994SOL    HW218882   0.268   1.941   2.059
 5995SOL     OW18883   0.043   4.258   1.454
 5995SOL    HW118884   0.110   4.306   1.510
 5995SOL    HW218885   6.999   4.222   1.513
 5996SOL     OW18886   0.526   5.069   5.775
 5996SOL    HW118887   0.438   5.024   5.785
 5996SOL    HW218888   0.513   5.162   5.741
 5997SOL     OW18889   0.336   6.372   2.444
 5997SOL    HW118890   0.237   6.361   2.452
 5997SOL    HW218891   0.371   6.416   2.527
 5998SOL     OW18892   5.306   2.000   2.791
 5998SOL    HW118893   5.248   2.034   2.716
 5998SOL    HW218894   5.324   2.075   2.855
 5999SOL     OW18895   1.564   1.447   2.657
 5999SOL    HW118896   1.487   1.437   2.593
 5999SOL    HW218897   1.620   1.525   2.629
 6000SOL     OW18898   4.629   6.048   2.205
 6000SOL    HW118899   4.553   6.111   2.219
 6000SOL    HW218900   4.657   6.049   2.109
 6001SOL     OW18901   6.304   2.018   0.017
 6001SOL    HW118902   6.233   2.088   0.023
 6001SOL    HW218903   6.291   1.951   0.090
 6002SOL     OW18904   1.825   0.141   2.069
 6002SOL    HW118905   1.792   0.152   1.975
 6002SOL    HW218906   1.864   0.228   2.101
 6003SOL     OW18907   4.877   3.852   4.123
 6003SOL    HW118908   4.826   3.781   4.074
 6003SOL    HW218909   4.942   3.895   4.061
 6004SOL     OW18910   0.198   3.805   2.551
 6004SOL    HW118911   0.129   3.859   2.600
 6004SOL    HW218912   0.247   3.863   2.487
 6005SOL     OW18913   3.251   6.075   2.855
 6005SOL    HW118914   3.195   6.147   2.895
 6005SOL    HW218915   3.201   6.030   2.781
 6006SOL     OW18916   2.633   6.616   6.909
 6006SOL    HW118917   2.535   6.601   6.914
 6006SOL    HW218918   2.667   6.645   6.998
 6007SOL     OW18919   5.588   2.846   3.611
 6007SOL    HW118920   5.608   2.938   3.643
 6007SOL    HW218921   5.638   2.779   3.667
 6008SOL     OW18922   3.696   4.997   6.379
 6008SOL    HW118923   3.763   5.057   6.335
 6008SOL    HW218924   3.742   4.915   6.413
 6009SOL     OW18925   3.346   2.121   4.385
 6009SOL    HW118926   3.261   2.152   4.426
 6009SOL    HW218927   3.330   2.035   4.336
 6010SOL     OW18928   1.143   3.437   3.313
 6010SOL    HW118929   1.118   3.376   3.389
 6010SOL    HW218930   1.243   3.440   3.304
 6011SOL     OW18931   5.879   3.259   3.101
 6011SOL    HW118932   5.828   3.174   3.087
 6011SOL    HW218933   5.858   3.297   3.191
 6012SOL     OW18934   6.707   3.375   0.277
 6012SOL    HW118935   6.791   3.393   0.327
 6012SOL    HW218936   6.680   3.456   0.225
 6013SOL     OW18937   5.896   1.406   2.546
 6013SOL    HW118938   5.970   1.339   2.551
 6013SOL    HW218939   5.824   1.372   2.484
 6014SOL     OW18940   6.262   0.597   1.316
 6014SOL    HW118941   6.281   0.499   1.315
 6014SOL    HW218942   6.298   0.639   1.233
 6015SOL     OW18943   5.677   1.664   4.779
 6015SOL    HW118944   5.776   1.666   4.774
 6015SOL    HW218945   5.646   1.569   4.792
 6016SOL     OW18946   1.871   6.764   5.164
 6016SOL    HW118947   1.808   6.822   5.216
 6016SOL    HW218948   1.902   6.688   5.220
 6017SOL     OW18949   6.748   4.746   2.688
 6017SOL    HW118950   6.824   4.768   2.749
 6017SOL    HW218951   6.766   4.786   2.598
 6018SOL     OW18952   2.106   4.842   1.024
 6018SOL    HW118953   2.006   4.851   1.029
 6018SOL    HW218954   2.132   4.817   0.931
 6019SOL     OW18955   4.053   0.192   4.342
 6019SOL    HW118956   4.135   0.139   4.364
 6019SOL    HW218957   4.016   0.162   4.254
 6020SOL     OW18958   3.786   0.609   2.811
 6020SOL    HW118959   3.823   0.698   2.784
 6020SOL    HW218960   3.727   0.621   2.891
 6021SOL     OW18961   4.095   1.222   2.667
 6021SOL    HW118962   4.004   1.205   2.628
 6021SOL    HW218963   4.159   1.243   2.594
 6022SOL     OW18964   4.198   1.932   4.619
 6022SOL    HW118965   4.268   2.004   4.616
 6022SOL    HW218966   4.202   1.887   4.707
 6023SOL     OW18967   6.815   1.195   2.135
 6023SOL    HW118968   6.746   1.149   2.190
 6023SOL    HW218969   6.809   1.163   2.040
 6024SOL     OW18970   0.819   4.766   2.677
 6024SOL    HW118971   0.786   4.672   2.674
 6024SOL    HW218972   0.741   4.829   2.676
 6025SOL     OW18973   4.528   1.870   1.495
 6025SOL    HW118974   4.624   1.844   1.508
 6025SOL    HW218975   4.523   1.945   1.428
 6026SOL     OW18976   0.691   4.617   5.356
 6026SOL    HW118977   0.665   4.621   5.259
 6026SOL    HW218978   0.612   4.591   5.411
 6027SOL     OW18979   3.011   3.707   0.491
 6027SOL    HW118980   3.055   3.617   0.495
 6027SOL    HW218981   2.914   3.696   0.468
 6028SOL     OW18982   1.581   3.831   0.238
 6028SOL    HW118983   1.602   3.927   0.219
 6028SOL    HW218984   1.563   3.820   0.335
 6029SOL     OW18985   1.783   5.370   1.490
 6029SOL    HW118986   1.800   5.457   1.444
 6029SOL    HW218987   1.864   5.342   1.541
 6030SOL     OW18988   2.078   0.290   1.353
 6030SOL    HW118989   1.978   0.302   1.358
 6030SOL    HW218990   2.105   0.280   1.257
 6031SOL     OW18991   4.944   0.106   4.934
 6031SOL    HW118992   4.871   0.146   4.990
 6031SOL    HW218993   4.950   0.008   4.953
 6032SOL     OW18994   0.505   3.483   2.837
 6032SOL    HW118995   0.575   3.418   2.805
 6032SOL    HW218996   0.447   3.438   2.904
 6033SOL     OW18997   1.146   0.598   4.257
 6033SOL    HW118998   1.089   0.530   4.212
 6033SOL    HW218999   1.222   0.623   4.197
 6034SOL     OW19000   2.017   3.823   5.403
 6034SOL    HW119001   1.957   3.863   5.334
 6034SOL    HW219002   2.106   3.803   5.363
 6035SOL     OW19003   6.161   1.315   4.447
 6035SOL    HW119004   6.226   1.300   4.373
 6035SOL    HW219005   6.088   1.375   4.415
 6036SOL     OW19006   6.974   0.289   4.729
 6036SOL    HW119007   6.945   0.310   4.636
 6036SOL    HW219008   6.980   0.374   4.782
 6037SOL     OW19009   6.327   5.212   4.557
 6037SOL    HW119010   6.366   5.120   4.559
 6037SOL    HW219011   6.388   5.274   4.508
 6038SOL     OW19012   4.702   3.828   6.557
 6038SOL    HW119013   4.655   3.750   6.516
 6038SOL    HW219014   4.796   3.802   6.581
 6039SOL     OW19015   3.320   4.166   3.034
 6039SOL    HW119016   3.257   4.090   3.018
 6039SOL    HW219017   3.321   4.189   3.132
 6040SOL     OW19018   0.242   1.702   0.289
 6040SOL    HW119019   0.264   1.637   0.216
 6040SOL    HW219020   0.232   1.793   0.251
 6041SOL     OW19021   0.638   2.723   0.541
 6041SOL    HW119022   0.555   2.669   0.557
 6041SOL    HW219023   0.713   2.687   0.596
 6042SOL     OW19024   5.052   5.085   3.770
 6042SOL    HW119025   5.037   5.161   3.707
 6042SOL    HW219026   5.136   5.100   3.822
 6043SOL     OW19027   1.218   4.627   3.758
 6043SOL    HW119028   1.142   4.683   3.725
 6043SOL    HW219029   1.281   4.609   3.682
 6044SOL     OW19030   1.224   0.554   1.643
 6044SOL    HW119031   1.295   0.527   1.708
 6044SOL    HW219032   1.148   0.489   1.646
 6045SOL     OW19033   0.022   4.236   1.881
 6045SOL    HW119034   6.969   4.236   1.824
 6045SOL    HW219035   0.052   4.331   1.896
 6046SOL     OW19036   2.846   2.779   0.552
 6046SOL    HW119037   2.856   2.685   0.521
 6046SOL    HW219038   2.882   2.788   0.645
 6047SOL     OW19039   0.176   6.605   4.575
 6047SOL    HW119040   0.143   6.532   4.515
 6047SOL    HW219041   0.126   6.689   4.556
 6048SOL     OW19042   4.342   6.484   5.142
 6048SOL    HW119043   4.369   6.567   5.092
 6048SOL    HW219044   4.368   6.493   5.238
 6049SOL     OW19045   6.470   5.318   1.057
 6049SOL    HW119046   6.489   5.415   1.072
 6049SOL    HW219047   6.532   5.282   0.987
 6050SOL     OW19048   4.907   4.406   4.932
 6050SOL    HW119049   4.917   4.307   4.927
 6050SOL    HW219050   4.811   4.431   4.919
 6051SOL     OW19051   1.893   1.687   2.875
 6051SOL    HW119052   1.957   1.756   2.908
 6051SOL    HW219053   1.805   1.699   2.921
 6052SOL     OW19054   6.824   1.028   0.363
 6052SOL    HW119055   6.866   1.096   0.423
 6052SOL    HW219056   6.749   0.982   0.410
 6053SOL     OW19057   1.787   0.265   6.012
 6053SOL    HW119058   1.843   0.324   6.070
 6053SOL    HW219059   1.701   0.244   6.060
 6054SOL     OW19060   2.498   4.891   0.315
 6054SOL    HW119061   2.451   4.925   0.396
 6054SOL    HW219062   2.580   4.946   0.298
 6055SOL     OW19063   4.921   0.485   4.421
 6055SOL    HW119064   4.992   0.496   4.490
 6055SOL    HW219065   4.831   0.495   4.465
 6056SOL     OW19066   4.941   2.006   6.342
 6056SOL    HW119067   4.866   2.046   6.395
 6056SOL    HW219068   4.936   2.039   6.248
 6057SOL     OW19069   3.719   1.103   5.649
 6057SOL    HW119070   3.736   1.009   5.679
 6057SOL    HW219071   3.628   1.110   5.608
 6058SOL     OW19072   5.591   2.013   4.288
 6058SOL    HW119073   5.677   1.989   4.334
 6058SOL    HW219074   5.521   1.945   4.312
 6059SOL     OW19075   0.066   5.031   6.186
 6059SOL    HW119076   0.105   5.075   6.104
 6059SOL    HW219077   0.119   5.059   6.266
 6060SOL     OW19078   4.339   6.525   5.646
 6060SOL    HW119079   4.385   6.449   5.691
 6060SOL    HW219080   4.359   6.524   5.548
 6061SOL     OW19081   2.349   1.747   6.320
 6061SOL    HW119082   2.300   1.702   6.394
 6061SOL    HW219083   2.314   1.715   6.232
 6062SOL     OW19084   2.548   0.218   4.175
 6062SOL    HW119085   2.518   0.264   4.091
 6062SOL    HW219086   2.613   0.146   4.151
 6063SOL     OW19087   4.530   0.248   6.661
 6063SOL    HW119088   4.434   0.249   6.633
 6063SOL    HW219089   4.538   0.285   6.753
 6064SOL     OW19090   1.541   5.634   3.544
 6064SOL    HW119091   1.490   5.558   3.585
 6064SOL    HW219092   1.503   5.720   3.577
 6065SOL     OW19093   0.198   0.460   0.936
 6065SOL    HW119094   0.121   0.410   0.897
 6065SOL    HW219095   0.215   0.542   0.883
 6066SOL     OW19096   4.401   2.977   6.833
 6066SOL    HW119097   4.319   3.014   6.877
 6066SOL    HW219098   4.390   2.879   6.819
 6067SOL     OW19099   6.519   1.882   6.908
 6067SOL    HW119100   6.457   1.946   6.954
 6067SOL    HW219101   6.543   1.917   6.818
 6068SOL     OW19102   4.816   2.705   4.591
 6068SOL    HW119103   4.728   2.657   4.598
 6068SOL    HW219104   4.867   2.670   4.513
 6069SOL     OW19105   6.331   4.200   4.279
 6069SOL    HW119106   6.286   4.263   4.216
 6069SOL    HW219107   6.279   4.115   4.285
 6070SOL     OW19108   4.575   2.301   6.177
 6070SOL    HW119109   4.563   2.396   6.205
 6070SOL    HW219110   4.655   2.261   6.223
 6071SOL     OW19111   4.438   5.959   4.995
 6071SOL    HW119112   4.458   6.016   4.916
 6071SOL    HW219113   4.384   6.011   5.061
 6072SOL     OW19114   0.169   1.673   1.151
 6072SOL    HW119115   0.195   1.728   1.231
 6072SOL    HW219116   0.226   1.699   1.073
 6073SOL     OW19117   6.895   2.486   1.138
 6073SOL    HW119118   6.888   2.392   1.171
 6073SOL    HW219119   6.856   2.492   1.046
 6074SOL     OW19120   0.712   0.335   4.356
 6074SOL    HW119121   0.644   0.307   4.289
 6074SOL    HW219122   0.743   0.255   4.408
 6075SOL     OW19123   5.861   4.217   6.711
 6075SOL    HW119124   5.805   4.164   6.774
 6075SOL    HW219125   5.923   4.276   6.763
 6076SOL     OW19126   1.942   6.237   4.272
 6076SOL    HW119127   1.897   6.241   4.361
 6076SOL    HW219128   2.008   6.312   4.265
 6077SOL     OW19129   6.025   5.886   2.077
 6077SOL    HW119130   6.002   5.806   2.132
 6077SOL    HW219131   5.942   5.924   2.037
 6078SOL     OW19132   2.516   4.508   3.676
 6078SOL    HW119133   2.460   4.433   3.641
 6078SOL    HW219134   2.541   4.570   3.601
 6079SOL     OW19135   2.334   1.601   0.225
 6079SOL    HW119136   2.402   1.661   0.182
 6079SOL    HW219137   2.363   1.506   0.215
 6080SOL     OW19138   5.983   2.420   2.104
 6080SOL    HW119139   5.969   2.321   2.105
 6080SOL    HW219140   5.948   2.458   2.019
 6081SOL     OW19141   0.284   3.958   3.317
 6081SOL    HW119142   0.221   4.030   3.345
 6081SOL    HW219143   0.373   3.973   3.360
 6082SOL     OW19144   4.103   1.612   3.835
 6082SOL    HW119145   4.031   1.553   3.874
 6082SOL    HW219146   4.101   1.701   3.880
 6083SOL     OW19147   1.604   6.631   0.525
 6083SOL    HW119148   1.618   6.712   0.582
 6083SOL    HW219149   1.507   6.622   0.504
 6084SOL     OW19150   0.674   4.930   5.544
 6084SOL    HW119151   0.726   4.957   5.626
 6084SOL    HW219152   0.577   4.931   5.565
 6085SOL     OW19153   5.510   4.031   1.168
 6085SOL    HW119154   5.552   3.943   1.145
 6085SOL    HW219155   5.424   4.041   1.118
 6086SOL     OW19156   3.266   1.535   3.725
 6086SOL    HW119157   3.236   1.604   3.791
 6086SOL    HW219158   3.206   1.455   3.732
 6087SOL     OW19159   5.148   6.901   6.904
 6087SOL    HW119160   5.105   6.982   6.865
 6087SOL    HW219161   5.171   6.918   7.000
 6088SOL     OW19162   0.809   6.920   4.650
 6088SOL    HW119163   0.846   7.013   4.640
 6088SOL    HW219164   0.710   6.923   4.635
 6089SOL     OW19165   0.350   3.542   0.111
 6089SOL    HW119166   0.325   3.581   0.199
 6089SOL    HW219167   0.391   3.613   0.054
 6090SOL     OW19168   7.002   6.112   4.584
 6090SOL    HW119169   0.020   6.025   4.564
 6090SOL    HW219170   0.029   6.165   4.648
 6091SOL     OW19171   5.866   1.809   2.111
 6091SOL    HW119172   5.901   1.812   2.017
 6091SOL    HW219173   5.942   1.814   2.176
 6092SOL     OW19174   1.840   2.073   1.614
 6092SOL    HW119175   1.930   2.094   1.651
 6092SOL    HW219176   1.848   2.002   1.544
 6093SOL     OW19177   0.835   3.184   1.103
 6093SOL    HW119178   0.816   3.224   1.192
 6093SOL    HW219179   0.748   3.164   1.056
 6094SOL     OW19180   1.207   0.752   1.329
 6094SOL    HW119181   1.155   0.667   1.338
 6094SOL    HW219182   1.187   0.793   1.240
 6095SOL     OW19183   6.539   3.779   5.811
 6095SOL    HW119184   6.565   3.693   5.854
 6095SOL    HW219185   6.450   3.769   5.766
 6096SOL     OW19186   3.633   1.760   3.187
 6096SOL    HW119187   3.600   1.841   3.234
 6096SOL    HW219188   3.572   1.738   3.111
 6097SOL     OW19189   3.022   2.209   2.266
 6097SOL    HW119190   3.118   2.216   2.237
 6097SOL    HW219191   2.963   2.230   2.188
 6098SOL     OW19192   1.939   2.170   5.734
 6098SOL    HW119193   1.904   2.263   5.721
 6098SOL    HW219194   2.006   2.170   5.809
 6099SOL     OW19195   6.161   5.489   4.883
 6099SOL    HW119196   6.065   5.516   4.893
 6099SOL    HW219197   6.179   5.470   4.786
 6100SOL     OW19198   6.623   2.790   0.048
 6100SOL    HW119199   6.704   2.815   7.024
 6100SOL    HW219200   6.591   2.870   0.099
 6101SOL     OW19201   6.172   1.529   5.115
 6101SOL    HW119202   6.196   1.433   5.098
 6101SOL    HW219203   6.079   1.534   5.151
 6102SOL     OW19204   2.767   0.641   5.399
 6102SOL    HW119205   2.731   0.551   5.372
 6102SOL    HW219206   2.691   0.706   5.406
 6103SOL     OW19207   6.008   6.590   6.056
 6103SOL    HW119208   6.011   6.495   6.090
 6103SOL    HW219209   5.946   6.644   6.113
 6104SOL     OW19210   0.597   2.615   6.794
 6104SOL    HW119211   0.629   2.642   6.885
 6104SOL    HW219212   0.644   2.532   6.765
 6105SOL     OW19213   3.512   6.096   4.401
 6105SOL    HW119214   3.544   6.066   4.311
 6105SOL    HW219215   3.417   6.125   4.395
 6106SOL     OW19216   3.438   5.467   5.119
 6106SOL    HW119217   3.383   5.536   5.165
 6106SOL    HW219218   3.436   5.382   5.172
 6107SOL     OW19219   2.204   4.216   5.522
 6107SOL    HW119220   2.283   4.158   5.506
 6107SOL    HW219221   2.130   4.162   5.562
 6108SOL     OW19222   0.372   2.412   5.124
 6108SOL    HW119223   0.416   2.427   5.036
 6108SOL    HW219224   0.277   2.442   5.120
 6109SOL     OW19225   6.640   4.718   1.344
 6109SOL    HW119226   6.653   4.621   1.326
 6109SOL    HW219227   6.696   4.746   1.422
 6110SOL     OW19228   2.955   1.362   4.632
 6110SOL    HW119229   3.020   1.437   4.618
 6110SOL    HW219230   2.885   1.366   4.561
 6111SOL     OW19231   1.080   4.829   3.090
 6111SOL    HW119232   1.002   4.767   3.084
 6111SOL    HW219233   1.091   4.860   3.184
 6112SOL     OW19234   0.474   1.599   2.514
 6112SOL    HW119235   0.415   1.533   2.559
 6112SOL    HW219236   0.440   1.618   2.422
 6113SOL     OW19237   1.704   6.278   5.429
 6113SOL    HW119238   1.621   6.254   5.479
 6113SOL    HW219239   1.775   6.307   5.494
 6114SOL     OW19240   5.065   5.703   0.398
 6114SOL    HW119241   5.038   5.623   0.344
 6114SOL    HW219242   5.165   5.708   0.402
 6115SOL     OW19243   6.006   4.998   2.555
 6115SOL    HW119244   6.035   4.959   2.642
 6115SOL    HW219245   5.964   5.087   2.570
 6116SOL     OW19246   4.394   0.592   1.982
 6116SOL    HW119247   4.436   0.610   2.071
 6116SOL    HW219248   4.409   0.497   1.957
 6117SOL     OW19249   5.293   0.546   4.549
 6117SOL    HW119250   5.205   0.588   4.571
 6117SOL    HW219251   5.318   0.480   4.620
 6118SOL     OW19252   6.071   0.474   3.099
 6118SOL    HW119253   6.143   0.519   3.152
 6118SOL    HW219254   5.988   0.467   3.155
 6119SOL     OW19255   6.899   5.215   4.247
 6119SOL    HW119256   6.807   5.190   4.277
 6119SOL    HW219257   6.960   5.219   4.326
 6120SOL     OW19258   2.430   1.190   3.271
 6120SOL    HW119259   2.411   1.167   3.366
 6120SOL    HW219260   2.364   1.145   3.211
 6121SOL     OW19261   6.777   2.443   4.531
 6121SOL    HW119262   6.787   2.507   4.607
 6121SOL    HW219263   6.758   2.351   4.567
 6122SOL     OW19264   4.764   5.208   3.113
 6122SOL    HW119265   4.707   5.156   3.177
 6122SOL    HW219266   4.814   5.144   3.054
 6123SOL     OW19267   5.707   1.175   2.014
 6123SOL    HW119268   5.728   1.182   1.917
 6123SOL    HW219269   5.717   1.080   2.044
 6124SOL     OW19270   3.558   0.682   5.595
 6124SOL    HW119271   3.527   0.710   5.504
 6124SOL    HW219272   3.500   0.608   5.629
 6125SOL     OW19273   1.891   5.624   1.838
 6125SOL    HW119274   1.912   5.705   1.784
 6125SOL    HW219275   1.857   5.652   1.928
 6126SOL     OW19276   5.278   5.714   2.563
 6126SOL    HW119277   5.327   5.653   2.625
 6126SOL    HW219278   5.182   5.719   2.588
 6127SOL     OW19279   2.410   4.944   1.797
 6127SOL    HW119280   2.406   5.043   1.785
 6127SOL    HW219281   2.503   4.917   1.822
 6128SOL     OW19282   5.445   1.928   0.740
 6128SOL    HW119283   5.516   1.992   0.769
 6128SOL    HW219284   5.458   1.906   0.644
 6129SOL     OW19285   5.955   5.036   3.717
 6129SOL    HW119286   6.026   5.027   3.648
 6129SOL    HW219287   5.991   5.009   3.806
 6130SOL     OW19288   5.187   3.247   2.425
 6130SOL    HW119289   5.209   3.254   2.328
 6130SOL    HW219290   5.096   3.207   2.436
 6131SOL     OW19291   6.426   0.751   5.219
 6131SOL    HW119292   6.372   0.709   5.292
 6131SOL    HW219293   6.502   0.691   5.195
 6132SOL     OW19294   5.506   2.615   0.737
 6132SOL    HW119295   5.458   2.680   0.679
 6132SOL    HW219296   5.592   2.655   0.768
 6133SOL     OW19297   0.797   4.340   0.433
 6133SOL    HW119298   0.698   4.349   0.441
 6133SOL    HW219299   0.837   4.429   0.411
 6134SOL     OW19300   4.629   3.507   6.101
 6134SOL    HW119301   4.607   3.513   6.003
 6134SOL    HW219302   4.708   3.566   6.121
 6135SOL     OW19303   5.763   0.034   1.334
 6135SOL    HW119304   5.829   6.988   1.338
 6135SOL    HW219305   5.679   0.008   1.380
 6136SOL     OW19306   0.507   1.843   1.451
 6136SOL    HW119307   0.568   1.767   1.470
 6136SOL    HW219308   0.459   1.869   1.534
 6137SOL     OW19309   2.666   0.075   6.426
 6137SOL    HW119310   2.692   0.002   6.362
 6137SOL    HW219311   2.566   0.086   6.425
 6138SOL     OW19312   4.152   0.608   2.976
 6138SOL    HW119313   4.116   0.701   2.967
 6138SOL    HW219314   4.101   0.547   2.914
 6139SOL     OW19315   2.040   4.446   4.060
 6139SOL    HW119316   2.085   4.524   4.104
 6139SOL    HW219317   1.976   4.404   4.124
 6140SOL     OW19318   1.763   6.591   1.301
 6140SOL    HW119319   1.758   6.628   1.394
 6140SOL    HW219320   1.852   6.612   1.262
 6141SOL     OW19321   6.264   6.223   6.247
 6141SOL    HW119322   6.265   6.123   6.254
 6141SOL    HW219323   6.178   6.259   6.283
 6142SOL     OW19324   0.731   4.624   2.122
 6142SOL    HW119325   0.664   4.593   2.189
 6142SOL    HW219326   0.687   4.630   2.032
 6143SOL     OW19327   6.274   5.171   6.368
 6143SOL    HW119328   6.305   5.155   6.462
 6143SOL    HW219329   6.220   5.092   6.337
 6144SOL     OW19330   0.726   4.819   3.843
 6144SOL    HW119331   0.685   4.854   3.927
 6144SOL    HW219332   0.693   4.726   3.825
 6145SOL     OW19333   5.355   6.150   3.269
 6145SOL    HW119334   5.339   6.078   3.202
 6145SOL    HW219335   5.447   6.139   3.307
 6146SOL     OW19336   5.206   0.889   3.218
 6146SOL    HW119337   5.275   0.817   3.220
 6146SOL    HW219338   5.217   0.948   3.298
 6147SOL     OW19339   1.853   3.299   3.236
 6147SOL    HW119340   1.929   3.350   3.196
 6147SOL    HW219341   1.791   3.270   3.164
 6148SOL     OW19342   6.666   6.621   4.898
 6148SOL    HW119343   6.588   6.638   4.838
 6148SOL    HW219344   6.751   6.631   4.846
 6149SOL     OW19345   2.137   6.455   3.654
 6149SOL    HW119346   2.063   6.496   3.599
 6149SOL    HW219347   2.104   6.369   3.693
 6150SOL     OW19348   4.656   5.231   5.756
 6150SOL    HW119349   4.701   5.237   5.666
 6150SOL    HW219350   4.725   5.221   5.827
 6151SOL     OW19351   5.169   2.247   5.464
 6151SOL    HW119352   5.121   2.253   5.376
 6151SOL    HW219353   5.170   2.153   5.495
 6152SOL     OW19354   6.817   4.272   6.588
 6152SOL    HW119355   6.723   4.304   6.596
 6152SOL    HW219356   6.880   4.347   6.610
 6153SOL     OW19357   4.841   3.325   0.910
 6153SOL    HW119358   4.885   3.283   0.989
 6153SOL    HW219359   4.885   3.412   0.889
 6154SOL     OW19360   5.228   3.139   3.041
 6154SOL    HW119361   5.324   3.162   3.059
 6154SOL    HW219362   5.223   3.062   2.977
 6155SOL     OW19363   0.781   3.910   4.867
 6155SOL    HW119364   0.827   3.896   4.780
 6155SOL    HW219365   0.783   3.825   4.920
 6156SOL     OW19366   6.907   0.348   3.254
 6156SOL    HW119367   6.980   0.286   3.225
 6156SOL    HW219368   6.941   0.442   3.253
 6157SOL     OW19369   2.043   1.897   3.438
 6157SOL    HW119370   2.007   1.804   3.448
 6157SOL    HW219371   2.124   1.895   3.379
 6158SOL     OW19372   4.660   0.821   0.054
 6158SOL    HW119373   4.747   0.832   0.007
 6158SOL    HW219374   4.642   0.902   0.110
 6159SOL     OW19375   5.462   3.570   6.661
 6159SOL    HW119376   5.406   3.607   6.587
 6159SOL    HW219377   5.556   3.561   6.630
 6160SOL     OW19378   6.050   5.675   1.717
 6160SOL    HW119379   6.088   5.583   1.703
 6160SOL    HW219380   6.098   5.719   1.793
 6161SOL     OW19381   5.856   0.623   6.115
 6161SOL    HW119382   5.864   0.565   6.035
 6161SOL    HW219383   5.948   0.641   6.152
 6162SOL     OW19384   6.223   5.238   4.019
 6162SOL    HW119385   6.154   5.310   4.007
 6162SOL    HW219386   6.226   5.181   3.936
 6163SOL     OW19387   6.334   4.159   1.799
 6163SOL    HW119388   6.293   4.136   1.887
 6163SOL    HW219389   6.356   4.257   1.797
 6164SOL     OW19390   4.287   2.740   0.349
 6164SOL    HW119391   4.296   2.718   0.446
 6164SOL    HW219392   4.193   2.726   0.319
 6165SOL     OW19393   4.313   6.195   7.007
 6165SOL    HW119394   4.403   6.204   6.963
 6165SOL    HW219395   4.324   6.202   0.078
 6166SOL     OW19396   3.458   1.994   6.294
 6166SOL    HW119397   3.402   2.010   6.376
 6166SOL    HW219398   3.533   1.933   6.317
 6167SOL     OW19399   6.558   4.643   3.607
 6167SOL    HW119400   6.610   4.600   3.534
 6167SOL    HW219401   6.497   4.575   3.649
 6168SOL     OW19402   0.375   2.641   2.566
 6168SOL    HW119403   0.382   2.740   2.578
 6168SOL    HW219404   0.281   2.617   2.543
 6169SOL     OW19405   1.714   4.463   2.429
 6169SOL    HW119406   1.672   4.373   2.431
 6169SOL    HW219407   1.799   4.459   2.375
 6170SOL     OW19408   7.014   2.692   4.381
 6170SOL    HW119409   6.943   2.730   4.322
 6170SOL    HW219410   0.018   2.763   4.444
 6171SOL     OW19411   0.289   0.704   6.205
 6171SOL    HW119412   0.274   0.608   6.182
 6171SOL    HW219413   0.387   0.725   6.199
 6172SOL     OW19414   1.035   3.419   3.872
 6172SOL    HW119415   1.028   3.459   3.964
 6172SOL    HW219416   0.944   3.417   3.830
 6173SOL     OW19417   6.458   6.289   3.491
 6173SOL    HW119418   6.376   6.298   3.434
 6173SOL    HW219419   6.525   6.231   3.445
 6174SOL     OW19420   5.906   4.079   2.286
 6174SOL    HW119421   5.812   4.113   2.292
 6174SOL    HW219422   5.951   4.119   2.205
 6175SOL     OW19423   3.444   2.258   5.741
 6175SOL    HW119424   3.348   2.256   5.713
 6175SOL    HW219425   3.467   2.349   5.775
 6176SOL     OW19426   4.797   4.146   6.210
 6176SOL    HW119427   4.724   4.109   6.267
 6176SOL    HW219428   4.763   4.225   6.159
 6177SOL     OW19429   6.280   1.028   1.825
 6177SOL    HW119430   6.183   1.021   1.845
 6177SOL    HW219431   6.293   1.055   1.730
 6178SOL     OW19432   3.813   4.578   1.314
 6178SOL    HW119433   3.805   4.616   1.222
 6178SOL    HW219434   3.730   4.600   1.366
 6179SOL     OW19435   5.833   5.100   4.052
 6179SOL    HW119436   5.775   5.020   4.039
 6179SOL    HW219437   5.776   5.180   4.075
 6180SOL     OW19438   3.283   4.357   0.208
 6180SOL    HW119439   3.316   4.352   0.303
 6180SOL    HW219440   3.261   4.452   0.186
 6181SOL     OW19441   6.161   6.234   6.731
 6181SOL    HW119442   6.194   6.162   6.669
 6181SOL    HW219443   6.152   6.319   6.679
 6182SOL     OW19444   3.356   2.773   0.611
 6182SOL    HW119445   3.270   2.816   0.585
 6182SOL    HW219446   3.355   2.752   0.709
 6183SOL     OW19447   0.624   0.189   0.542
 6183SOL    HW119448   0.634   0.288   0.552
 6183SOL    HW219449   0.576   0.168   0.457
 6184SOL     OW19450   2.217   0.259   5.601
 6184SOL    HW119451   2.302   0.207   5.594
 6184SOL    HW219452   2.185   0.281   5.509
 6185SOL     OW19453   3.734   2.971   5.512
 6185SOL    HW119454   3.664   2.899   5.513
 6185SOL    HW219455   3.732   3.019   5.425
 6186SOL     OW19456   0.238   1.621   1.882
 6186SOL    HW119457   0.244   1.720   1.886
 6186SOL    HW219458   0.248   1.590   1.788
 6187SOL     OW19459   5.002   1.586   5.864
 6187SOL    HW119460   5.027   1.586   5.961
 6187SOL    HW219461   4.902   1.585   5.855
 6188SOL     OW19462   1.342   1.480   4.878
 6188SOL    HW119463   1.313   1.410   4.943
 6188SOL    HW219464   1.401   1.546   4.924
 6189SOL     OW19465   6.291   6.307   1.239
 6189SOL    HW119466   6.306   6.300   1.338
 6189SOL    HW219467   6.200   6.342   1.221
 6190SOL     OW19468   0.767   2.958   4.811
 6190SOL    HW119469   0.689   2.995   4.861
 6190SOL    HW219470   0.845   2.948   4.873
 6191SOL     OW19471   4.116   3.664   0.014
 6191SOL    HW119472   4.105   3.607   0.095
 6191SOL    HW219473   4.213   3.677   7.023
 6192SOL     OW19474   3.032   1.093   0.752
 6192SOL    HW119475   2.944   1.134   0.779
 6192SOL    HW219476   3.035   1.082   0.653
 6193SOL     OW19477   4.600   5.764   6.600
 6193SOL    HW119478   4.566   5.853   6.567
 6193SOL    HW219479   4.576   5.753   6.696
 6194SOL     OW19480   5.952   6.666   6.472
 6194SOL    HW119481   5.919   6.672   6.378
 6194SOL    HW219482   5.875   6.657   6.535
 6195SOL     OW19483   6.422   6.433   6.488
 6195SOL    HW119484   6.460   6.393   6.572
 6195SOL    HW219485   6.472   6.398   6.409
 6196SOL     OW19486   5.892   3.744   3.090
 6196SOL    HW119487   5.964   3.695   3.040
 6196SOL    HW219488   5.828   3.679   3.129
 6197SOL     OW19489   2.303   5.630   1.829
 6197SOL    HW119490   2.338   5.541   1.800
 6197SOL    HW219491   2.344   5.702   1.773
 6198SOL     OW19492   6.058   0.974   0.038
 6198SOL    HW119493   6.010   1.012   6.987
 6198SOL    HW219494   6.124   1.041   0.072
 6199SOL     OW19495   1.220   0.249   6.581
 6199SOL    HW119496   1.200   0.154   6.605
 6199SOL    HW219497   1.224   0.305   6.664
 6200SOL     OW19498   1.755   1.287   2.315
 6200SOL    HW119499   1.764   1.275   2.216
 6200SOL    HW219500   1.660   1.274   2.342
 6201SOL     OW19501   0.357   4.644   3.387
 6201SOL    HW119502   0.313   4.574   3.331
 6201SOL    HW219503   0.421   4.696   3.331
 6202SOL     OW19504   6.013   1.926   2.480
 6202SOL    HW119505   5.917   1.952   2.469
 6202SOL    HW219506   6.019   1.842   2.533
 6203SOL     OW19507   6.540   0.181   1.502
 6203SOL    HW119508   6.603   0.221   1.569
 6203SOL    HW219509   6.448   0.218   1.516
 6204SOL     OW19510   1.800   0.063   5.055
 6204SOL    HW119511   1.718   0.046   5.111
 6204SOL    HW219512   1.775   0.060   4.958
 6205SOL     OW19513   5.138   4.565   3.428
 6205SOL    HW119514   5.100   4.523   3.510
 6205SOL    HW219515   5.065   4.611   3.377
 6206SOL     OW19516   5.942   1.716   4.620
 6206SOL    HW119517   6.013   1.649   4.639
 6206SOL    HW219518   5.902   1.698   4.530
 6207SOL     OW19519   2.001   4.805   4.419
 6207SOL    HW119520   1.921   4.777   4.472
 6207SOL    HW219521   2.065   4.854   4.479
 6208SOL     OW19522   4.069   3.703   6.092
 6208SOL    HW119523   4.089   3.653   6.008
 6208SOL    HW219524   4.115   3.658   6.169
 6209SOL     OW19525   3.294   2.404   1.608
 6209SOL    HW119526   3.372   2.357   1.649
 6209SOL    HW219527   3.209   2.371   1.648
 6210SOL     OW19528   4.962   2.243   4.176
 6210SOL    HW119529   5.061   2.248   4.190
 6210SOL    HW219530   4.942   2.179   4.103
 6211SOL     OW19531   5.545   4.330   5.313
 6211SOL    HW119532   5.459   4.379   5.298
 6211SOL    HW219533   5.621   4.394   5.305
 6212SOL     OW19534   4.297   5.609   4.793
 6212SOL    HW119535   4.362   5.594   4.719
 6212SOL    HW219536   4.343   5.597   4.881
 6213SOL     OW19537   4.361   6.209   0.271
 6213SOL    HW119538   4.450   6.222   0.316
 6213SOL    HW219539   4.323   6.121   0.298
 6214SOL     OW19540   6.856   5.906   6.240
 6214SOL    HW119541   6.946   5.902   6.283
 6214SOL    HW219542   6.793   5.846   6.289
 6215SOL     OW19543   5.762   2.471   5.550
 6215SOL    HW119544   5.750   2.396   5.485
 6215SOL    HW219545   5.680   2.529   5.549
 6216SOL     OW19546   4.587   1.863   3.592
 6216SOL    HW119547   4.611   1.768   3.614
 6216SOL    HW219548   4.495   1.866   3.552
 6217SOL     OW19549   0.192   4.496   3.239
 6217SOL    HW119550   0.129   4.483   3.316
 6217SOL    HW219551   0.150   4.464   3.155
 6218SOL     OW19552   4.778   6.546   0.099
 6218SOL    HW119553   4.863   6.540   0.151
 6218SOL    HW219554   4.796   6.582   0.008
 6219SOL     OW19555   1.902   1.193   6.209
 6219SOL    HW119556   1.914   1.287   6.177
 6219SOL    HW219557   1.968   1.134   6.163
 6220SOL     OW19558   3.548   6.768   0.541
 6220SOL    HW119559   3.524   6.742   0.448
 6220SOL    HW219560   3.609   6.700   0.580
 6221SOL     OW19561   5.806   5.299   6.820
 6221SOL    HW119562   5.784   5.359   6.743
 6221SOL    HW219563   5.905   5.282   6.821
 6222SOL     OW19564   6.244   1.639   1.906
 6222SOL    HW119565   6.160   1.644   1.960
 6222SOL    HW219566   6.280   1.732   1.894
 6223SOL     OW19567   0.178   4.790   4.130
 6223SOL    HW119568   0.191   4.803   4.228
 6223SOL    HW219569   0.115   4.859   4.095
 6224SOL     OW19570   3.872   0.499   0.016
 6224SOL    HW119571   3.895   0.412   0.060
 6224SOL    HW219572   3.839   0.563   0.085
 6225SOL     OW19573   4.706   6.405   6.625
 6225SOL    HW119574   4.733   6.498   6.648
 6225SOL    HW219575   4.718   6.389   6.527
 6226SOL     OW19576   1.483   1.366   4.668
 6226SOL    HW119577   1.439   1.284   4.632
 6226SOL    HW219578   1.421   1.411   4.733
 6227SOL     OW19579   2.833   4.365   5.378
 6227SOL    HW119580   2.843   4.431   5.303
 6227SOL    HW219581   2.866   4.276   5.348
 6228SOL     OW19582   0.738   3.024   3.329
 6228SOL    HW119583   0.668   3.000   3.397
 6228SOL    HW219584   0.764   2.943   3.278
 6229SOL     OW19585   0.420   3.290   3.993
 6229SOL    HW119586   0.322   3.297   3.974
 6229SOL    HW219587   0.434   3.278   4.091
 6230SOL     OW19588   0.177   0.420   1.767
 6230SOL    HW119589   0.107   0.361   1.729
 6230SOL    HW219590   0.153   0.516   1.751
 6231SOL     OW19591   2.105   5.049   6.900
 6231SOL    HW119592   2.098   4.950   6.889
 6231SOL    HW219593   2.188   5.072   6.951
 6232SOL     OW19594   3.910   0.885   6.546
 6232SOL    HW119595   3.817   0.870   6.513
 6232SOL    HW219596   3.920   0.980   6.576
 6233SOL     OW19597   6.757   3.255   1.844
 6233SOL    HW119598   6.713   3.342   1.868
 6233SOL    HW219599   6.821   3.229   1.916
 6234SOL     OW19600   4.909   5.432   4.670
 6234SOL    HW119601   4.973   5.497   4.629
 6234SOL    HW219602   4.816   5.459   4.647
 6235SOL     OW19603   0.060   0.246   2.631
 6235SOL    HW119604   6.994   0.232   2.602
 6235SOL    HW219605   0.081   0.343   2.633
 6236SOL     OW19606   0.083   5.841   1.535
 6236SOL    HW119607   0.108   5.824   1.630
 6236SOL    HW219608   0.159   5.815   1.475
 6237SOL     OW19609   3.099   1.523   1.162
 6237SOL    HW119610   3.145   1.583   1.096
 6237SOL    HW219611   3.167   1.472   1.213
 6238SOL     OW19612   2.397   0.657   4.099
 6238SOL    HW119613   2.455   0.577   4.086
 6238SOL    HW219614   2.384   0.703   4.012
 6239SOL     OW19615   4.710   1.307   4.341
 6239SOL    HW119616   4.631   1.356   4.303
 6239SOL    HW219617   4.742   1.355   4.422
 6240SOL     OW19618   3.824   2.929   4.139
 6240SOL    HW119619   3.744   2.911   4.083
 6240SOL    HW219620   3.815   2.882   4.227
 6241SOL     OW19621   3.055   0.555   3.573
 6241SOL    HW119622   3.031   0.646   3.541
 6241SOL    HW219623   3.006   0.486   3.518
 6242SOL     OW19624   2.573   2.109   3.286
 6242SOL    HW119625   2.574   2.023   3.234
 6242SOL    HW219626   2.600   2.091   3.380
 6243SOL     OW19627   4.486   1.897   6.256
 6243SOL    HW119628   4.461   1.821   6.197
 6243SOL    HW219629   4.586   1.899   6.267
 6244SOL     OW19630   5.319   3.498   2.488
 6244SOL    HW119631   5.282   3.406   2.478
 6244SOL    HW219632   5.247   3.565   2.470
 6245SOL     OW19633   0.055   4.409   2.309
 6245SOL    HW119634   7.002   4.382   2.257
 6245SOL    HW219635   0.116   4.331   2.318
 6246SOL     OW19636   6.801   6.868   4.184
 6246SOL    HW119637   6.800   6.932   4.108
 6246SOL    HW219638   6.797   6.774   4.149
 6247SOL     OW19639   6.188   6.518   4.040
 6247SOL    HW119640   6.198   6.549   4.135
 6247SOL    HW219641   6.091   6.514   4.016
 6248SOL     OW19642   3.948   2.741   5.632
 6248SOL    HW119643   3.892   2.765   5.552
 6248SOL    HW219644   3.937   2.644   5.651
 6249SOL     OW19645   6.035   2.916   2.112
 6249SOL    HW119646   5.991   2.978   2.177
 6249SOL    HW219647   5.988   2.922   2.024
 6250SOL     OW19648   6.016   0.410   6.983
 6250SOL    HW119649   5.940   0.470   7.010
 6250SOL    HW219650   6.069   0.385   0.036
 6251SOL     OW19651   2.779   0.266   4.026
 6251SOL    HW119652   2.763   0.170   4.000
 6251SOL    HW219653   2.863   0.273   4.079
 6252SOL     OW19654   3.113   5.691   6.273
 6252SOL    HW119655   3.122   5.791   6.263
 6252SOL    HW219656   3.017   5.668   6.284
 6253SOL     OW19657   3.854   5.733   4.694
 6253SOL    HW119658   3.849   5.680   4.610
 6253SOL    HW219659   3.948   5.763   4.710
 6254SOL     OW19660   0.123   0.043   1.042
 6254SOL    HW119661   0.087   0.125   1.087
 6254SOL    HW219662   0.105   6.992   1.099
 6255SOL     OW19663   0.679   1.336   1.370
 6255SOL    HW119664   0.717   1.265   1.429
 6255SOL    HW219665   0.730   1.340   1.284
 6256SOL     OW19666   5.653   6.155   2.102
 6256SOL    HW119667   5.713   6.107   2.038
 6256SOL    HW219668   5.601   6.225   2.054
 6257SOL     OW19669   3.208   3.979   1.227
 6257SOL    HW119670   3.285   3.958   1.167
 6257SOL    HW219671   3.170   3.894   1.264
 6258SOL     OW19672   4.520   5.428   4.901
 6258SOL    HW119673   4.433   5.385   4.878
 6258SOL    HW219674   4.564   5.377   4.976
 6259SOL     OW19675   3.373   0.721   4.265
 6259SOL    HW119676   3.367   0.761   4.356
 6259SOL    HW219677   3.450   0.760   4.215
 6260SOL     OW19678   1.642   1.154   6.760
 6260SOL    HW119679   1.728   1.126   6.802
 6260SOL    HW219680   1.641   1.125   6.664
 6261SOL     OW19681   3.725   6.923   0.824
 6261SOL    HW119682   3.655   6.853   0.840
 6261SOL    HW219683   3.708   6.967   0.736
 6262SOL     OW19684   5.254   0.589   2.334
 6262SOL    HW119685   5.327   0.551   2.390
 6262SOL    HW219686   5.205   0.659   2.386
 6263SOL     OW19687   5.662   6.088   5.437
 6263SOL    HW119688   5.605   6.150   5.490
 6263SOL    HW219689   5.758   6.117   5.443
 6264SOL     OW19690   2.478   6.590   0.508
 6264SOL    HW119691   2.483   6.496   0.475
 6264SOL    HW219692   2.538   6.601   0.587
 6265SOL     OW19693   4.864   0.084   6.223
 6265SOL    HW119694   4.943   0.111   6.168
 6265SOL    HW219695   4.858   0.142   6.304
 6266SOL     OW19696   2.771   5.051   3.003
 6266SOL    HW119697   2.671   5.047   3.006
 6266SOL    HW219698   2.808   4.959   2.991
 6267SOL     OW19699   2.411   6.492   4.861
 6267SOL    HW119700   2.314   6.514   4.850
 6267SOL    HW219701   2.428   6.399   4.829
 6268SOL     OW19702   3.034   1.487   0.640
 6268SOL    HW119703   3.085   1.535   0.570
 6268SOL    HW219704   3.098   1.443   0.704
 6269SOL     OW19705   6.459   4.848   0.231
 6269SOL    HW119706   6.494   4.775   0.173
 6269SOL    HW219707   6.500   4.935   0.204
 6270SOL     OW19708   1.777   5.888   0.602
 6270SOL    HW119709   1.837   5.966   0.583
 6270SOL    HW219710   1.684   5.921   0.616
 6271SOL     OW19711   6.429   3.276   5.691
 6271SOL    HW119712   6.386   3.367   5.690
 6271SOL    HW219713   6.363   3.208   5.656
 6272SOL     OW19714   6.823   0.157   0.045
 6272SOL    HW119715   6.739   0.103   0.038
 6272SOL    HW219716   6.803   0.241   0.096
 6273SOL     OW19717   0.720   6.697   1.614
 6273SOL    HW119718   0.647   6.746   1.566
 6273SOL    HW219719   0.748   6.750   1.694
 6274SOL     OW19720   3.219   5.163   3.585
 6274SOL    HW119721   3.131   5.128   3.550
 6274SOL    HW219722   3.284   5.087   3.590
 6275SOL     OW19723   2.531   5.560   6.658
 6275SOL    HW119724   2.569   5.467   6.654
 6275SOL    HW219725   2.603   5.626   6.637
 6276SOL     OW19726   1.731   5.227   2.694
 6276SOL    HW119727   1.640   5.267   2.704
 6276SOL    HW219728   1.778   5.228   2.782
 6277SOL     OW19729   5.556   2.922   0.980
 6277SOL    HW119730   5.594   2.999   1.031
 6277SOL    HW219731   5.612   2.840   0.998
 6278SOL     OW19732   3.014   2.120   0.156
 6278SOL    HW119733   2.932   2.128   0.100
 6278SOL    HW219734   3.001   2.048   0.224
 6279SOL     OW19735   2.906   6.698   1.989
 6279SOL    HW119736   2.911   6.719   1.892
 6279SOL    HW219737   2.812   6.675   2.014
 6280SOL     OW19738   5.627   2.495   6.410
 6280SOL    HW119739   5.601   2.516   6.504
 6280SOL    HW219740   5.702   2.556   6.381
 6281SOL     OW19741   5.625   4.176   5.921
 6281SOL    HW119742   5.657   4.083   5.943
 6281SOL    HW219743   5.702   4.240   5.928
 6282SOL     OW19744   6.816   3.329   6.101
 6282SOL    HW119745   6.875   3.260   6.059
 6282SOL    HW219746   6.849   3.420   6.078
 6283SOL     OW19747   1.865   6.493   4.719
 6283SOL    HW119748   1.814   6.555   4.778
 6283SOL    HW219749   1.821   6.487   4.630
 6284SOL     OW19750   1.442   3.723   5.341
 6284SOL    HW119751   1.498   3.803   5.364
 6284SOL    HW219752   1.447   3.657   5.415
 6285SOL     OW19753   1.394   3.346   3.098
 6285SOL    HW119754   1.384   3.292   3.014
 6285SOL    HW219755   1.411   3.442   3.074
 6286SOL     OW19756   0.212   2.761   6.890
 6286SOL    HW119757   0.128   2.708   6.903
 6286SOL    HW219758   0.259   2.773   6.977
 6287SOL     OW19759   4.574   5.077   5.303
 6287SOL    HW119760   4.507   5.101   5.373
 6287SOL    HW219761   4.644   5.018   5.343
 6288SOL     OW19762   3.069   3.910   6.463
 6288SOL    HW119763   3.136   3.980   6.488
 6288SOL    HW219764   3.116   3.832   6.422
 6289SOL     OW19765   2.571   4.262   6.013
 6289SOL    HW119766   2.548   4.170   6.046
 6289SOL    HW219767   2.608   4.255   5.920
 6290SOL     OW19768   6.225   6.270   4.725
 6290SOL    HW119769   6.178   6.345   4.771
 6290SOL    HW219770   6.252   6.201   4.793
 6291SOL     OW19771   4.046   3.364   2.949
 6291SOL    HW119772   4.107   3.429   2.996
 6291SOL    HW219773   4.044   3.385   2.851
 6292SOL     OW19774   1.768   3.994   4.122
 6292SOL    HW119775   1.722   3.908   4.101
 6292SOL    HW219776   1.858   3.995   4.080
 6293SOL     OW19777   3.125   0.978   6.615
 6293SOL    HW119778   3.096   0.928   6.534
 6293SOL    HW219779   3.050   0.980   6.682
 6294SOL     OW19780   1.601   1.069   2.468
 6294SOL    HW119781   1.537   1.105   2.536
 6294SOL    HW219782   1.694   1.098   2.491
 6295SOL     OW19783   5.044   3.338   6.509
 6295SOL    HW119784   5.061   3.285   6.592
 6295SOL    HW219785   4.945   3.338   6.489
 6296SOL     OW19786   1.075   3.353   0.303
 6296SOL    HW119787   1.130   3.314   0.229
 6296SOL    HW219788   1.108   3.444   0.325
 6297SOL     OW19789   5.969   1.493   4.362
 6297SOL    HW119790   5.905   1.567   4.341
 6297SOL    HW219791   6.043   1.493   4.294
 6298SOL     OW19792   7.001   5.848   1.060
 6298SOL    HW119793   7.004   5.938   1.017
 6298SOL    HW219794   6.972   5.856   1.155
 6299SOL     OW19795   3.763   1.407   3.528
 6299SOL    HW119796   3.736   1.391   3.623
 6299SOL    HW219797   3.701   1.475   3.487
 6300SOL     OW19798   2.801   1.525   6.812
 6300SOL    HW119799   2.852   1.582   6.748
 6300SOL    HW219800   2.829   1.545   6.906
 6301SOL     OW19801   4.087   6.469   0.238
 6301SOL    HW119802   4.055   6.480   0.332
 6301SOL    HW219803   4.185   6.489   0.234
 6302SOL     OW19804   3.007   2.734   6.063
 6302SOL    HW119805   2.980   2.638   6.064
 6302SOL    HW219806   2.932   2.790   6.099
 6303SOL     OW19807   0.301   5.724   4.737
 6303SOL    HW119808   0.242   5.700   4.814
 6303SOL    HW219809   0.360   5.646   4.716
 6304SOL     OW19810   3.818   0.797   4.280
 6304SOL    HW119811   3.895   0.786   4.218
 6304SOL    HW219812   3.845   0.768   4.372
 6305SOL     OW19813   1.028   5.771   6.180
 6305SOL    HW119814   1.018   5.868   6.159
 6305SOL    HW219815   1.081   5.760   6.264
 6306SOL     OW19816   0.539   5.042   4.792
 6306SOL    HW119817   0.509   5.138   4.791
 6306SOL    HW219818   0.608   5.030   4.864
 6307SOL     OW19819   3.691   2.878   2.079
 6307SOL    HW119820   3.592   2.864   2.068
 6307SOL    HW219821   3.717   2.856   2.173
 6308SOL     OW19822   0.589   2.298   0.460
 6308SOL    HW119823   0.666   2.284   0.523
 6308SOL    HW219824   0.564   2.210   0.420
 6309SOL     OW19825   2.547   6.155   4.839
 6309SOL    HW119826   2.637   6.184   4.870
 6309SOL    HW219827   2.485   6.151   4.917
 6310SOL     OW19828   1.557   0.067   3.108
 6310SOL    HW119829   1.636   0.119   3.142
 6310SOL    HW219830   1.552   7.007   3.155
 6311SOL     OW19831   5.904   1.067   6.819
 6311SOL    HW119832   5.809   1.053   6.793
 6311SOL    HW219833   5.959   1.084   6.738
 6312SOL     OW19834   3.243   6.176   6.779
 6312SOL    HW119835   3.301   6.258   6.776
 6312SOL    HW219836   3.244   6.139   6.872
 6313SOL     OW19837   6.073   5.083   4.476
 6313SOL    HW119838   6.165   5.111   4.502
 6313SOL    HW219839   6.006   5.131   4.533
 6314SOL     OW19840   2.097   6.511   2.903
 6314SOL    HW119841   2.010   6.464   2.889
 6314SOL    HW219842   2.167   6.445   2.931
 6315SOL     OW19843   2.377   2.010   3.627
 6315SOL    HW119844   2.336   2.091   3.585
 6315SOL    HW219845   2.365   1.931   3.567
 6316SOL     OW19846   4.642   1.322   4.710
 6316SOL    HW119847   4.594   1.240   4.680
 6316SOL    HW219848   4.741   1.305   4.711
 6317SOL     OW19849   5.313   5.132   1.971
 6317SOL    HW119850   5.316   5.062   2.043
 6317SOL    HW219851   5.263   5.212   2.004
 6318SOL     OW19852   6.740   6.685   0.427
 6318SOL    HW119853   6.759   6.615   0.358
 6318SOL    HW219854   6.793   6.666   0.510
 6319SOL     OW19855   5.633   1.640   3.765
 6319SOL    HW119856   5.586   1.715   3.812
 6319SOL    HW219857   5.628   1.557   3.820
 6320SOL     OW19858   6.202   1.114   5.921
 6320SOL    HW119859   6.216   1.057   5.839
 6320SOL    HW219860   6.228   1.208   5.901
 6321SOL     OW19861   6.897   2.721   6.814
 6321SOL    HW119862   6.845   2.659   6.755
 6321SOL    HW219863   6.950   2.668   6.880
 6322SOL     OW19864   0.859   0.707   2.484
 6322SOL    HW119865   0.897   0.645   2.552
 6322SOL    HW219866   0.899   0.687   2.394
 6323SOL     OW19867   2.343   5.002   0.990
 6323SOL    HW119868   2.283   5.082   0.985
 6323SOL    HW219869   2.293   4.925   1.029
 6324SOL     OW19870   4.438   3.207   1.243
 6324SOL    HW119871   4.417   3.126   1.297
 6324SOL    HW219872   4.354   3.258   1.223
 6325SOL     OW19873   1.531   2.575   4.110
 6325SOL    HW119874   1.595   2.556   4.036
 6325SOL    HW219875   1.568   2.538   4.196
 6326SOL     OW19876   5.125   4.832   5.582
 6326SOL    HW119877   5.080   4.785   5.658
 6326SOL    HW219878   5.107   4.930   5.587
 6327SOL     OW19879   0.599   1.169   3.870
 6327SOL    HW119880   0.517   1.123   3.837
 6327SOL    HW219881   0.572   1.249   3.924
 6328SOL     OW19882   4.504   3.460   5.360
 6328SOL    HW119883   4.584   3.498   5.314
 6328SOL    HW219884   4.421   3.499   5.320
 6329SOL     OW19885   0.623   2.098   5.541
 6329SOL    HW119886   0.656   2.192   5.546
 6329SOL    HW219887   0.530   2.094   5.575
 6330SOL     OW19888   5.398   1.511   3.569
 6330SOL    HW119889   5.436   1.435   3.622
 6330SOL    HW219890   5.458   1.590   3.576
 6331SOL     OW19891   0.547   2.928   3.508
 6331SOL    HW119892   0.461   2.978   3.494
 6331SOL    HW219893   0.583   2.949   3.599
 6332SOL     OW19894   3.242   1.695   6.390
 6332SOL    HW119895   3.146   1.724   6.389
 6332SOL    HW219896   3.273   1.681   6.296
 6333SOL     OW19897   5.870   1.215   1.244
 6333SOL    HW119898   5.879   1.276   1.166
 6333SOL    HW219899   5.846   1.123   1.213
 6334SOL     OW19900   1.513   1.314   1.776
 6334SOL    HW119901   1.475   1.255   1.847
 6334SOL    HW219902   1.441   1.342   1.713
 6335SOL     OW19903   6.407   2.914   6.698
 6335SOL    HW119904   6.444   2.855   6.627
 6335SOL    HW219905   6.342   2.979   6.658
 6336SOL     OW19906   0.858   4.026   5.123
 6336SOL    HW119907   0.770   4.007   5.168
 6336SOL    HW219908   0.855   3.993   5.029
 6337SOL     OW19909   5.259   6.863   5.020
 6337SOL    HW119910   5.298   6.955   5.027
 6337SOL    HW219911   5.323   6.797   5.060
 6338SOL     OW19912   1.138   1.313   3.091
 6338SOL    HW119913   1.168   1.256   3.015
 6338SOL    HW219914   1.217   1.357   3.133
 6339SOL     OW19915   0.384   4.573   4.177
 6339SOL    HW119916   0.439   4.605   4.254
 6339SOL    HW219917   0.332   4.651   4.139
 6340SOL     OW19918   2.718   3.828   0.704
 6340SOL    HW119919   2.753   3.869   0.788
 6340SOL    HW219920   2.627   3.791   0.720
 6341SOL     OW19921   0.714   5.297   2.445
 6341SOL    HW119922   0.728   5.357   2.524
 6341SOL    HW219923   0.802   5.266   2.412
 6342SOL     OW19924   1.530   0.999   1.134
 6342SOL    HW119925   1.513   0.902   1.150
 6342SOL    HW219926   1.625   1.020   1.156
 6343SOL     OW19927   0.924   5.458   0.410
 6343SOL    HW119928   0.826   5.478   0.399
 6343SOL    HW219929   0.934   5.377   0.469
 6344SOL     OW19930   0.550   1.439   3.948
 6344SOL    HW119931   0.594   1.498   4.015
 6344SOL    HW219932   0.459   1.414   3.980
 6345SOL     OW19933   5.948   2.644   2.279
 6345SOL    HW119934   5.905   2.554   2.276
 6345SOL    HW219935   5.883   2.713   2.245
 6346SOL     OW19936   0.133   4.509   5.454
 6346SOL    HW119937   0.159   4.419   5.421
 6346SOL    HW219938   0.152   4.516   5.552
 6347SOL     OW19939   2.273   2.125   3.095
 6347SOL    HW119940   2.194   2.132   3.034
 6347SOL    HW219941   2.357   2.125   3.041
 6348SOL     OW19942   0.840   2.034   6.024
 6348SOL    HW119943   0.793   1.983   6.095
 6348SOL    HW219944   0.897   2.105   6.065
 6349SOL     OW19945   6.912   1.213   0.555
 6349SOL    HW119946   6.847   1.281   0.590
 6349SOL    HW219947   6.988   1.203   0.620
 6350SOL     OW19948   0.693   6.037   1.534
 6350SOL    HW119949   0.609   6.090   1.540
 6350SOL    HW219950   0.695   5.968   1.606
 6351SOL     OW19951   5.777   3.940   1.759
 6351SOL    HW119952   5.859   3.884   1.757
 6351SOL    HW219953   5.779   4.002   1.838
 6352SOL     OW19954   3.357   0.835   4.679
 6352SOL    HW119955   3.334   0.916   4.625
 6352SOL    HW219956   3.292   0.762   4.658
 6353SOL     OW19957   3.462   6.480   6.140
 6353SOL    HW119958   3.497   6.394   6.105
 6353SOL    HW219959   3.531   6.552   6.128
 6354SOL     OW19960   4.397   5.570   1.615
 6354SOL    HW119961   4.341   5.616   1.684
 6354SOL    HW219962   4.431   5.637   1.550
 6355SOL     OW19963   3.310   5.163   0.647
 6355SOL    HW119964   3.214   5.164   0.617
 6355SOL    HW219965   3.324   5.234   0.716
 6356SOL     OW19966   0.261   5.491   5.982
 6356SOL    HW119967   0.197   5.433   5.932
 6356SOL    HW219968   0.217   5.578   6.005
 6357SOL     OW19969   5.010   1.066   1.885
 6357SOL    HW119970   5.045   1.123   1.960
 6357SOL    HW219971   5.040   0.972   1.898
 6358SOL     OW19972   1.152   1.742   5.525
 6358SOL    HW119973   1.163   1.814   5.456
 6358SOL    HW219974   1.093   1.669   5.489
 6359SOL     OW19975   5.590   6.668   0.615
 6359SOL    HW119976   5.637   6.736   0.558
 6359SOL    HW219977   5.535   6.608   0.557
 6360SOL     OW19978   0.705   1.278   1.767
 6360SOL    HW119979   0.626   1.273   1.706
 6360SOL    HW219980   0.783   1.317   1.717
 6361SOL     OW19981   0.342   1.391   0.609
 6361SOL    HW119982   0.375   1.481   0.639
 6361SOL    HW219983   0.243   1.394   0.596
 6362SOL     OW19984   1.085   5.360   0.645
 6362SOL    HW119985   1.166   5.414   0.670
 6362SOL    HW219986   1.004   5.397   0.690
 6363SOL     OW19987   2.249   4.068   2.932
 6363SOL    HW119988   2.264   4.047   2.836
 6363SOL    HW219989   2.256   3.984   2.986
 6364SOL     OW19990   2.430   2.497   4.208
 6364SOL    HW119991   2.517   2.492   4.256
 6364SOL    HW219992   2.380   2.578   4.239
 6365SOL     OW19993   5.633   6.753   2.856
 6365SOL    HW119994   5.581   6.735   2.940
 6365SOL    HW219995   5.575   6.803   2.791
 6366SOL     OW19996   6.107   0.859   5.192
 6366SOL    HW119997   6.058   0.939   5.227
 6366SOL    HW219998   6.138   0.877   5.099
 6367SOL     OW19999   1.152   2.358   2.747
 6367SOL    HW120000   1.174   2.454   2.762
 6367SOL    HW220001   1.198   2.325   2.664
 6368SOL     OW20002   5.395   3.582   4.592
 6368SOL    HW120003   5.339   3.585   4.675
 6368SOL    HW220004   5.403   3.674   4.554
 6369SOL     OW20005   4.329   5.288   0.613
 6369SOL    HW120006   4.298   5.339   0.533
 6369SOL    HW220007   4.382   5.208   0.582
 6370SOL     OW20008   5.366   3.831   4.486
 6370SOL    HW120009   5.369   3.818   4.387
 6370SOL    HW220010   5.381   3.928   4.508
 6371SOL     OW20011   5.484   3.992   1.652
 6371SOL    HW120012   5.394   4.031   1.670
 6371SOL    HW220013   5.534   3.983   1.738
 6372SOL     OW20014   6.454   1.777   2.283
 6372SOL    HW120015   6.396   1.700   2.257
 6372SOL    HW220016   6.427   1.858   2.231
 6373SOL     OW20017   5.105   3.835   1.802
 6373SOL    HW120018   5.175   3.810   1.735
 6373SOL    HW220019   5.119   3.930   1.831
 6374SOL     OW20020   4.424   3.697   6.951
 6374SOL    HW120021   4.411   3.648   6.865
 6374SOL    HW220022   4.430   3.795   6.934
 6375SOL     OW20023   4.775   1.399   2.033
 6375SOL    HW120024   4.832   1.428   1.956
 6375SOL    HW220025   4.749   1.478   2.088
 6376SOL     OW20026   3.209   0.649   0.245
 6376SOL    HW120027   3.259   0.577   0.294
 6376SOL    HW220028   3.165   0.609   0.164
 6377SOL     OW20029   0.867   0.722   0.656
 6377SOL    HW120030   0.896   0.644   0.601
 6377SOL    HW220031   0.823   0.690   0.739
 6378SOL     OW20032   4.995   4.655   1.934
 6378SOL    HW120033   5.011   4.557   1.941
 6378SOL    HW220034   5.082   4.702   1.923
 6379SOL     OW20035   1.937   5.207   7.024
 6379SOL    HW120036   1.998   5.148   6.971
 6379SOL    HW220037   1.909   5.286   6.968
 6380SOL     OW20038   1.123   4.064   5.155
 6380SOL    HW120039   1.025   4.058   5.173
 6380SOL    HW220040   1.138   4.112   5.069
 6381SOL     OW20041   4.600   2.900   0.485
 6381SOL    HW120042   4.571   2.963   0.557
 6381SOL    HW220043   4.542   2.912   0.404
 6382SOL     OW20044   1.361   1.292   0.075
 6382SOL    HW120045   1.275   1.285   0.125
 6382SOL    HW220046   1.416   1.366   0.113
 6383SOL     OW20047   2.389   2.267   2.022
 6383SOL    HW120048   2.425   2.239   2.111
 6383SOL    HW220049   2.303   2.317   2.036
 6384SOL     OW20050   6.273   2.987   1.977
 6384SOL    HW120051   6.185   2.973   2.023
 6384SOL    HW220052   6.327   3.054   2.028
 6385SOL     OW20053   0.257   3.290   0.697
 6385SOL    HW120054   0.351   3.311   0.723
 6385SOL    HW220055   0.211   3.242   0.773
 6386SOL     OW20056   2.456   2.941   0.307
 6386SOL    HW120057   2.395   2.888   0.249
 6386SOL    HW220058   2.499   3.014   0.254
 6387SOL     OW20059   0.241   6.981   0.134
 6387SOL    HW120060   0.215   6.884   0.129
 6387SOL    HW220061   0.244   7.010   0.230
 6388SOL     OW20062   5.706   5.474   2.100
 6388SOL    HW120063   5.715   5.499   2.004
 6388SOL    HW220064   5.614   5.438   2.117
 6389SOL     OW20065   6.979   0.247   0.734
 6389SOL    HW120066   6.899   0.296   0.769
 6389SOL    HW220067   7.004   0.284   0.645
 6390SOL     OW20068   5.142   0.658   6.769
 6390SOL    HW120069   5.109   0.645   6.676
 6390SOL    HW220070   5.107   0.584   6.828
 6391SOL     OW20071   1.333   2.067   4.829
 6391SOL    HW120072   1.282   1.981   4.836
 6391SOL    HW220073   1.299   2.120   4.752
 6392SOL     OW20074   3.749   6.628   3.694
 6392SOL    HW120075   3.789   6.692   3.628
 6392SOL    HW220076   3.742   6.538   3.652
 6393SOL     OW20077   1.057   5.468   0.055
 6393SOL    HW120078   1.154   5.447   0.041
 6393SOL    HW220079   1.048   5.565   0.080
 6394SOL     OW20080   1.535   5.254   1.860
 6394SOL    HW120081   1.549   5.200   1.943
 6394SOL    HW220082   1.522   5.192   1.782
 6395SOL     OW20083   2.045   3.653   3.630
 6395SOL    HW120084   2.040   3.585   3.557
 6395SOL    HW220085   2.015   3.613   3.717
 6396SOL     OW20086   1.365   2.991   5.482
 6396SOL    HW120087   1.432   3.017   5.552
 6396SOL    HW220088   1.411   2.938   5.410
 6397SOL     OW20089   5.844   3.663   4.853
 6397SOL    HW120090   5.778   3.588   4.860
 6397SOL    HW220091   5.810   3.731   4.788
 6398SOL     OW20092   2.058   0.040   2.526
 6398SOL    HW120093   1.994   6.992   2.536
 6398SOL    HW220094   2.151   0.004   2.520
 6399SOL     OW20095   3.364   0.488   6.783
 6399SOL    HW120096   3.356   0.399   6.737
 6399SOL    HW220097   3.273   0.521   6.808
 6400SOL     OW20098   0.754   5.787   3.437
 6400SOL    HW120099   0.806   5.871   3.454
 6400SOL    HW220100   0.783   5.716   3.501
 6401SOL     OW20101   4.051   5.260   3.088
 6401SOL    HW120102   3.972   5.211   3.127
 6401SOL    HW220103   4.084   5.211   3.008
 6402SOL     OW20104   2.481   4.794   5.478
 6402SOL    HW120105   2.487   4.698   5.503
 6402SOL    HW220106   2.573   4.834   5.474
 6403SOL     OW20107   4.864   5.106   5.171
 6403SOL    HW120108   4.891   5.174   5.103
 6403SOL    HW220109   4.908   5.019   5.150
 6404SOL     OW20110   4.769   0.151   1.652
 6404SOL    HW120111   4.702   0.129   1.581
 6404SOL    HW220112   4.744   0.105   1.737
 6405SOL     OW20113   5.358   1.816   2.964
 6405SOL    HW120114   5.321   1.730   2.928
 6405SOL    HW220115   5.326   1.892   2.908
 6406SOL     OW20116   0.175   3.335   2.752
 6406SOL    HW120117   0.226   3.399   2.695
 6406SOL    HW220118   0.168   3.372   2.845
 6407SOL     OW20119   0.585   6.269   2.878
 6407SOL    HW120120   0.618   6.198   2.940
 6407SOL    HW220121   0.513   6.321   2.922
 6408SOL     OW20122   6.548   0.592   2.372
 6408SOL    HW120123   6.530   0.632   2.462
 6408SOL    HW220124   6.517   0.656   2.301
 6409SOL     OW20125   4.986   4.730   3.716
 6409SOL    HW120126   5.067   4.764   3.765
 6409SOL    HW220127   4.953   4.801   3.654
 6410SOL     OW20128   1.613   1.834   0.251
 6410SOL    HW120129   1.704   1.841   0.293
 6410SOL    HW220130   1.621   1.789   0.162
 6411SOL     OW20131   0.654   2.837   1.741
 6411SOL    HW120132   0.588   2.911   1.753
 6411SOL    HW220133   0.680   2.800   1.830
 6412SOL     OW20134   3.174   1.398   0.271
 6412SOL    HW120135   3.188   1.442   0.360
 6412SOL    HW220136   3.086   1.427   0.233
 6413SOL     OW20137   4.903   6.272   3.362
 6413SOL    HW120138   4.896   6.339   3.436
 6413SOL    HW220139   4.811   6.249   3.329
 6414SOL     OW20140   2.183   0.127   0.469
 6414SOL    HW120141   2.183   0.212   0.417
 6414SOL    HW220142   2.089   0.098   0.487
 6415SOL     OW20143   0.324   2.733   3.775
 6415SOL    HW120144   0.385   2.693   3.707
 6415SOL    HW220145   0.269   2.805   3.732
 6416SOL     OW20146   2.585   5.288   7.005
 6416SOL    HW120147   2.514   5.346   6.964
 6416SOL    HW220148   2.665   5.288   6.945
 6417SOL     OW20149   4.365   2.641   6.420
 6417SOL    HW120150   4.361   2.703   6.499
 6417SOL    HW220151   4.350   2.547   6.450
 6418SOL     OW20152   4.711   4.403   0.338
 6418SOL    HW120153   4.611   4.403   0.347
 6418SOL    HW220154   4.751   4.353   0.415
 6419SOL     OW20155   0.665   6.578   6.168
 6419SOL    HW120156   0.601   6.654   6.171
 6419SOL    HW220157   0.640   6.515   6.094
 6420SOL     OW20158   2.267   4.588   4.238
 6420SOL    HW120159   2.348   4.568   4.293
 6420SOL    HW220160   2.282   4.558   4.144
 6421SOL     OW20161   3.602   0.797   1.843
 6421SOL    HW120162   3.508   0.784   1.875
 6421SOL    HW220163   3.662   0.729   1.886
 6422SOL     OW20164   6.083   2.201   4.695
 6422SOL    HW120165   6.037   2.114   4.672
 6422SOL    HW220166   6.182   2.186   4.699
 6423SOL     OW20167   1.710   4.704   4.580
 6423SOL    HW120168   1.673   4.793   4.606
 6423SOL    HW220169   1.788   4.682   4.638
 6424SOL     OW20170   6.592   5.023   5.524
 6424SOL    HW120171   6.599   4.927   5.549
 6424SOL    HW220172   6.625   5.036   5.430
 6425SOL     OW20173   7.012   5.654   4.069
 6425SOL    HW120174   6.940   5.608   4.121
 6425SOL    HW220175   6.974   5.685   3.982
 6426SOL     OW20176   4.769   4.181   4.572
 6426SOL    HW120177   4.807   4.122   4.644
 6426SOL    HW220178   4.832   4.256   4.554
 6427SOL     OW20179   3.829   3.485   3.305
 6427SOL    HW120180   3.747   3.538   3.285
 6427SOL    HW220181   3.839   3.472   3.404
 6428SOL     OW20182   5.645   2.704   0.442
 6428SOL    HW120183   5.685   2.638   0.505
 6428SOL    HW220184   5.546   2.706   0.455
 6429SOL     OW20185   2.129   1.175   5.341
 6429SOL    HW120186   2.072   1.238   5.395
 6429SOL    HW220187   2.225   1.195   5.358
 6430SOL     OW20188   6.156   0.363   5.260
 6430SOL    HW120189   6.109   0.451   5.268
 6430SOL    HW220190   6.178   0.328   5.351
 6431SOL     OW20191   3.688   4.958   1.863
 6431SOL    HW120192   3.614   4.901   1.897
 6431SOL    HW220193   3.739   4.909   1.792
 6432SOL     OW20194   5.262   4.317   6.398
 6432SOL    HW120195   5.174   4.271   6.390
 6432SOL    HW220196   5.249   4.410   6.433
 6433SOL     OW20197   3.224   4.550   5.994
 6433SOL    HW120198   3.283   4.504   5.927
 6433SOL    HW220199   3.133   4.511   5.991
 6434SOL     OW20200   4.748   5.859   6.347
 6434SOL    HW120201   4.674   5.792   6.348
 6434SOL    HW220202   4.807   5.845   6.427
 6435SOL     OW20203   4.695   2.150   0.857
 6435SOL    HW120204   4.745   2.120   0.775
 6435SOL    HW220205   4.664   2.244   0.844
 6436SOL     OW20206   6.596   3.113   3.559
 6436SOL    HW120207   6.587   3.068   3.470
 6436SOL    HW220208   6.616   3.045   3.629
 6437SOL     OW20209   1.360   2.109   5.851
 6437SOL    HW120210   1.353   2.113   5.751
 6437SOL    HW220211   1.452   2.077   5.876
 6438SOL     OW20212   0.628   4.753   0.115
 6438SOL    HW120213   0.672   4.698   0.045
 6438SOL    HW220214   0.531   4.729   0.120
 6439SOL     OW20215   5.061   6.778   3.202
 6439SOL    HW120216   5.121   6.783   3.122
 6439SOL    HW220217   5.115   6.753   3.283
 6440SOL     OW20218   2.908   1.881   6.168
 6440SOL    HW120219   2.978   1.949   6.190
 6440SOL    HW220220   2.898   1.875   6.069
 6441SOL     OW20221   0.130   1.547   2.366
 6441SOL    HW120222   0.220   1.570   2.328
 6441SOL    HW220223   0.119   1.448   2.369
 6442SOL     OW20224   3.015   2.102   5.082
 6442SOL    HW120225   3.074   2.184   5.079
 6442SOL    HW220226   2.936   2.121   5.140
 6443SOL     OW20227   3.887   3.205   6.655
 6443SOL    HW120228   3.939   3.269   6.710
 6443SOL    HW220229   3.942   3.174   6.578
 6444SOL     OW20230   6.069   3.939   4.780
 6444SOL    HW120231   6.122   4.009   4.731
 6444SOL    HW220232   6.098   3.935   4.875
 6445SOL     OW20233   3.211   3.212   3.523
 6445SOL    HW120234   3.263   3.164   3.593
 6445SOL    HW220235   3.204   3.156   3.442
 6446SOL     OW20236   1.407   1.282   6.693
 6446SOL    HW120237   1.474   1.225   6.740
 6446SOL    HW220238   1.392   1.366   6.744
 6447SOL     OW20239   6.087   3.210   2.023
 6447SOL    HW120240   6.095   3.260   1.937
 6447SOL    HW220241   6.177   3.179   2.053
 6448SOL     OW20242   2.837   4.909   1.711
 6448SOL    HW120243   2.908   4.861   1.761
 6448SOL    HW220244   2.878   4.979   1.653
 6449SOL     OW20245   2.789   5.412   0.946
 6449SOL    HW120246   2.812   5.330   0.998
 6449SOL    HW220247   2.700   5.400   0.903
 6450SOL     OW20248   0.080   4.266   6.910
 6450SOL    HW120249   0.014   4.336   6.884
 6450SOL    HW220250   0.132   4.237   6.830
 6451SOL     OW20251   3.909   2.673   1.641
 6451SOL    HW120252   3.828   2.707   1.594
 6451SOL    HW220253   3.963   2.751   1.674
 6452SOL     OW20254   4.071   1.881   3.997
 6452SOL    HW120255   4.067   1.973   4.038
 6452SOL    HW220256   4.000   1.823   4.039
 6453SOL     OW20257   2.020   0.922   2.457
 6453SOL    HW120258   2.088   0.946   2.389
 6453SOL    HW220259   2.064   0.874   2.533
 6454SOL     OW20260   5.083   2.487   3.259
 6454SOL    HW120261   5.125   2.514   3.172
 6454SOL    HW220262   4.999   2.436   3.241
 6455SOL     OW20263   6.487   2.755   3.923
 6455SOL    HW120264   6.447   2.664   3.933
 6455SOL    HW220265   6.562   2.765   3.988
 6456SOL     OW20266   6.020   1.176   2.357
 6456SOL    HW120267   5.971   1.228   2.287
 6456SOL    HW220268   5.955   1.118   2.406
 6457SOL     OW20269   3.613   0.010   2.412
 6457SOL    HW120270   3.589   0.064   2.493
 6457SOL    HW220271   3.683   0.058   2.359
 6458SOL     OW20272   0.243   5.780   4.040
 6458SOL    HW120273   0.227   5.854   3.974
 6458SOL    HW220274   0.156   5.736   4.062
 6459SOL     OW20275   0.376   3.809   3.094
 6459SOL    HW120276   0.308   3.737   3.080
 6459SOL    HW220277   0.351   3.865   3.173
 6460SOL     OW20278   0.310   5.450   6.877
 6460SOL    HW120279   0.409   5.446   6.890
 6460SOL    HW220280   0.267   5.380   6.934
 6461SOL     OW20281   1.389   6.336   1.108
 6461SOL    HW120282   1.431   6.252   1.073
 6461SOL    HW220283   1.452   6.413   1.095
 6462SOL     OW20284   1.645   3.930   5.310
 6462SOL    HW120285   1.691   3.996   5.369
 6462SOL    HW220286   1.581   3.977   5.250
 6463SOL     OW20287   4.252   2.402   0.926
 6463SOL    HW120288   4.260   2.303   0.933
 6463SOL    HW220289   4.292   2.445   1.007
 6464SOL     OW20290   1.087   4.107   3.681
 6464SOL    HW120291   1.112   4.087   3.776
 6464SOL    HW220292   1.122   4.034   3.622
 6465SOL     OW20293   3.504   1.112   3.631
 6465SOL    HW120294   3.556   1.043   3.581
 6465SOL    HW220295   3.437   1.154   3.570
 6466SOL     OW20296   6.222   4.587   0.122
 6466SOL    HW120297   6.123   4.586   0.139
 6466SOL    HW220298   6.271   4.569   0.207
 6467SOL     OW20299   2.472   3.095   0.001
 6467SOL    HW120300   2.534   3.113   0.078
 6467SOL    HW220301   2.524   3.059   6.952
 6468SOL     OW20302   2.476   1.059   1.351
 6468SOL    HW120303   2.471   1.156   1.330
 6468SOL    HW220304   2.508   1.008   1.271
 6469SOL     OW20305   2.803   1.422   1.965
 6469SOL    HW120306   2.762   1.393   1.878
 6469SOL    HW220307   2.734   1.419   2.037
 6470SOL     OW20308   6.906   1.348   0.037
 6470SOL    HW120309   6.928   1.335   0.134
 6470SOL    HW220310   6.948   1.433   0.004
 6471SOL     OW20311   0.611   6.095   5.658
 6471SOL    HW120312   0.549   6.135   5.726
 6471SOL    HW220313   0.670   6.028   5.703
 6472SOL     OW20314   6.719   6.710   2.784
 6472SOL    HW120315   6.698   6.665   2.872
 6472SOL    HW220316   6.634   6.742   2.743
 6473SOL     OW20317   2.377   1.182   3.535
 6473SOL    HW120318   2.293   1.128   3.524
 6473SOL    HW220319   2.355   1.279   3.523
 6474SOL     OW20320   4.192   5.754   5.386
 6474SOL    HW120321   4.231   5.806   5.461
 6474SOL    HW220322   4.252   5.678   5.362
 6475SOL     OW20323   5.929   5.708   2.391
 6475SOL    HW120324   5.897   5.738   2.481
 6475SOL    HW220325   6.026   5.684   2.396
 6476SOL     OW20326   3.851   2.813   6.671
 6476SOL    HW120327   3.755   2.830   6.648
 6476SOL    HW220328   3.883   2.882   6.735
 6477SOL     OW20329   0.340   5.887   1.941
 6477SOL    HW120330   0.356   5.985   1.947
 6477SOL    HW220331   0.275   5.868   1.868
 6478SOL     OW20332   2.938   5.957   1.271
 6478SOL    HW120333   2.855   5.997   1.233
 6478SOL    HW220334   2.923   5.931   1.366
 6479SOL     OW20335   3.993   6.173   3.442
 6479SOL    HW120336   3.912   6.124   3.410
 6479SOL    HW220337   4.054   6.111   3.490
 6480SOL     OW20338   3.912   1.155   6.622
 6480SOL    HW120339   3.851   1.234   6.625
 6480SOL    HW220340   3.978   1.162   6.696
 6481SOL     OW20341   3.882   3.003   1.946
 6481SOL    HW120342   3.934   3.069   2.001
 6481SOL    HW220343   3.811   2.961   2.004
 6482SOL     OW20344   5.487   3.898   5.762
 6482SOL    HW120345   5.563   3.904   5.827
 6482SOL    HW220346   5.496   3.815   5.707
 6483SOL     OW20347   2.106   6.530   5.360
 6483SOL    HW120348   2.112   6.541   5.261
 6483SOL    HW220349   2.106   6.433   5.383
 6484SOL     OW20350   2.636   1.064   3.523
 6484SOL    HW120351   2.566   1.118   3.569
 6484SOL    HW220352   2.600   0.973   3.502
 6485SOL     OW20353   2.771   5.837   4.928
 6485SOL    HW120354   2.869   5.816   4.924
 6485SOL    HW220355   2.725   5.796   4.849
 6486SOL     OW20356   0.827   5.164   2.929
 6486SOL    HW120357   0.799   5.118   3.013
 6486SOL    HW220358   0.867   5.098   2.866
 6487SOL     OW20359   6.217   4.402   3.766
 6487SOL    HW120360   6.212   4.501   3.751
 6487SOL    HW220361   6.294   4.364   3.714
 6488SOL     OW20362   3.685   5.424   4.787
 6488SOL    HW120363   3.661   5.521   4.792
 6488SOL    HW220364   3.779   5.412   4.820
 6489SOL     OW20365   5.318   3.003   5.211
 6489SOL    HW120366   5.404   2.953   5.221
 6489SOL    HW220367   5.241   2.940   5.224
 6490SOL     OW20368   1.893   2.465   0.084
 6490SOL    HW120369   1.980   2.418   0.074
 6490SOL    HW220370   1.906   2.550   0.136
 6491SOL     OW20371   2.246   6.856   2.056
 6491SOL    HW120372   2.205   6.873   1.966
 6491SOL    HW220373   2.242   6.940   2.110
 6492SOL     OW20374   4.026   3.379   5.073
 6492SOL    HW120375   3.929   3.360   5.090
 6492SOL    HW220376   4.037   3.408   4.978
 6493SOL     OW20377   1.386   4.679   4.335
 6493SOL    HW120378   1.441   4.758   4.310
 6493SOL    HW220379   1.296   4.709   4.367
 6494SOL     OW20380   6.581   0.580   1.408
 6494SOL    HW120381   6.493   0.589   1.456
 6494SOL    HW220382   6.565   0.569   1.310
 6495SOL     OW20383   6.401   0.227   3.094
 6495SOL    HW120384   6.319   0.180   3.063
 6495SOL    HW220385   6.417   0.308   3.037
 6496SOL     OW20386   3.428   2.153   1.459
 6496SOL    HW120387   3.466   2.084   1.397
 6496SOL    HW220388   3.486   2.160   1.540
 6497SOL     OW20389   0.161   1.344   1.055
 6497SOL    HW120390   0.158   1.368   1.153
 6497SOL    HW220391   0.233   1.397   1.010
 6498SOL     OW20392   2.225   4.069   4.086
 6498SOL    HW120393   2.142   4.067   4.031
 6498SOL    HW220394   2.249   3.976   4.113
 6499SOL     OW20395   4.810   2.962   3.137
 6499SOL    HW120396   4.836   2.987   3.230
 6499SOL    HW220397   4.823   3.040   3.077
 6500SOL     OW20398   1.735   4.382   3.258
 6500SOL    HW120399   1.704   4.287   3.256
 6500SOL    HW220400   1.833   4.385   3.278
 6501SOL     OW20401   5.776   2.105   2.475
 6501SOL    HW120402   5.797   2.195   2.512
 6501SOL    HW220403   5.732   2.049   2.546
 6502SOL     OW20404   0.019   3.907   2.344
 6502SOL    HW120405   0.077   3.827   2.361
 6502SOL    HW220406   6.978   3.913   2.415
 6503SOL     OW20407   6.923   3.438   5.710
 6503SOL    HW120408   6.999   3.431   5.775
 6503SOL    HW220409   6.845   3.387   5.746
 6504SOL     OW20410   4.278   6.764   6.367
 6504SOL    HW120411   4.318   6.840   6.315
 6504SOL    HW220412   4.200   6.726   6.316
 6505SOL     OW20413   0.120   5.474   1.028
 6505SOL    HW120414   0.029   5.433   1.037
 6505SOL    HW220415   0.169   5.465   1.115
 6506SOL     OW20416   1.052   4.221   2.514
 6506SOL    HW120417   1.087   4.153   2.578
 6506SOL    HW220418   1.109   4.303   2.518
 6507SOL     OW20419   3.922   5.233   0.402
 6507SOL    HW120420   3.896   5.139   0.427
 6507SOL    HW220421   3.845   5.294   0.420
 6508SOL     OW20422   0.822   0.342   3.295
 6508SOL    HW120423   0.861   0.281   3.225
 6508SOL    HW220424   0.861   0.320   3.384
 6509SOL     OW20425   2.592   1.484   6.652
 6509SOL    HW120426   2.666   1.494   6.719
 6509SOL    HW220427   2.504   1.502   6.697
 6510SOL     OW20428   2.926   6.567   5.303
 6510SOL    HW120429   2.958   6.477   5.333
 6510SOL    HW220430   2.952   6.581   5.207
 6511SOL     OW20431   3.323   2.322   0.625
 6511SOL    HW120432   3.252   2.351   0.690
 6511SOL    HW220433   3.288   2.332   0.532
 6512SOL     OW20434   4.078   1.370   0.413
 6512SOL    HW120435   4.148   1.366   0.485
 6512SOL    HW220436   4.122   1.356   0.324
 6513SOL     OW20437   2.889   4.791   2.972
 6513SOL    HW120438   2.963   4.787   2.905
 6513SOL    HW220439   2.802   4.769   2.928
 6514SOL     OW20440   5.429   6.635   5.163
 6514SOL    HW120441   5.478   6.703   5.218
 6514SOL    HW220442   5.441   6.545   5.203
 6515SOL     OW20443   1.181   5.112   2.774
 6515SOL    HW120444   1.116   5.044   2.809
 6515SOL    HW220445   1.131   5.184   2.726
 6516SOL     OW20446   6.464   3.176   1.841
 6516SOL    HW120447   6.412   3.159   1.757
 6516SOL    HW220448   6.542   3.235   1.820
 6517SOL     OW20449   6.925   3.192   0.607
 6517SOL    HW120450   6.955   3.272   0.556
 6517SOL    HW220451   6.862   3.220   0.679
 6518SOL     OW20452   0.873   1.265   2.017
 6518SOL    HW120453   0.875   1.167   2.040
 6518SOL    HW220454   0.838   1.276   1.924
 6519SOL     OW20455   0.978   1.545   3.088
 6519SOL    HW120456   1.036   1.464   3.085
 6519SOL    HW220457   0.971   1.577   3.183
 6520SOL     OW20458   0.169   5.187   0.651
 6520SOL    HW120459   0.217   5.248   0.715
 6520SOL    HW220460   0.226   5.173   0.570
 6521SOL     OW20461   1.402   3.872   4.025
 6521SOL    HW120462   1.397   3.945   3.958
 6521SOL    HW220463   1.494   3.866   4.062
 6522SOL     OW20464   2.601   2.793   5.391
 6522SOL    HW120465   2.572   2.787   5.296
 6522SOL    HW220466   2.523   2.780   5.451
 6523SOL     OW20467   6.163   6.955   0.263
 6523SOL    HW120468   6.084   7.017   0.257
 6523SOL    HW220469   6.244   7.008   0.287
 6524SOL     OW20470   2.873   2.807   0.847
 6524SOL    HW120471   2.784   2.792   0.888
 6524SOL    HW220472   2.893   2.905   0.844
 6525SOL     OW20473   1.048   4.703   3.544
 6525SOL    HW120474   0.975   4.649   3.502
 6525SOL    HW220475   1.136   4.666   3.515
 6526SOL     OW20476   0.806   5.727   0.691
 6526SOL    HW120477   0.708   5.734   0.706
 6526SOL    HW220478   0.836   5.802   0.631
 6527SOL     OW20479   6.799   1.734   0.782
 6527SOL    HW120480   6.849   1.701   0.702
 6527SOL    HW220481   6.790   1.660   0.849
 6528SOL     OW20482   4.133   0.013   6.830
 6528SOL    HW120483   4.233   0.016   6.821
 6528SOL    HW220484   4.099   0.102   6.860
 6529SOL     OW20485   5.567   0.265   2.112
 6529SOL    HW120486   5.477   0.307   2.116
 6529SOL    HW220487   5.599   0.246   2.205
 6530SOL     OW20488   0.428   2.503   2.894
 6530SOL    HW120489   0.428   2.427   2.959
 6530SOL    HW220490   0.337   2.543   2.890
 6531SOL     OW20491   3.785   3.980   4.493
 6531SOL    HW120492   3.722   4.047   4.454
 6531SOL    HW220493   3.734   3.899   4.523
 6532SOL     OW20494   1.445   0.150   0.153
 6532SOL    HW120495   1.360   0.156   0.102
 6532SOL    HW220496   1.494   0.237   0.148
 6533SOL     OW20497   4.762   4.798   1.911
 6533SOL    HW120498   4.676   4.747   1.917
 6533SOL    HW220499   4.839   4.735   1.920
 6534SOL     OW20500   6.971   4.084   2.936
 6534SOL    HW120501   6.874   4.107   2.943
 6534SOL    HW220502   6.995   4.018   3.007
 6535SOL     OW20503   4.793   2.994   4.612
 6535SOL    HW120504   4.779   2.906   4.567
 6535SOL    HW220505   4.784   2.983   4.711
 6536SOL     OW20506   0.850   4.455   5.174
 6536SOL    HW120507   0.920   4.429   5.107
 6536SOL    HW220508   0.864   4.550   5.201
 6537SOL     OW20509   6.298   5.869   3.964
 6537SOL    HW120510   6.219   5.930   3.954
 6537SOL    HW220511   6.372   5.918   4.010
 6538SOL     OW20512   1.424   2.110   5.301
 6538SOL    HW120513   1.457   2.169   5.375
 6538SOL    HW220514   1.475   2.024   5.303
 6539SOL     OW20515   5.053   0.350   6.188
 6539SOL    HW120516   5.140   0.304   6.207
 6539SOL    HW220517   5.070   0.448   6.176
 6540SOL     OW20518   6.477   2.704   5.809
 6540SOL    HW120519   6.399   2.697   5.747
 6540SOL    HW220520   6.506   2.800   5.817
 6541SOL     OW20521   5.873   1.868   5.624
 6541SOL    HW120522   5.906   1.921   5.702
 6541SOL    HW220523   5.873   1.926   5.542
 6542SOL     OW20524   1.215   4.234   3.104
 6542SOL    HW120525   1.248   4.268   3.192
 6542SOL    HW220526   1.262   4.148   3.083
 6543SOL     OW20527   3.499   1.471   4.421
 6543SOL    HW120528   3.586   1.514   4.445
 6543SOL    HW220529   3.473   1.407   4.493
 6544SOL     OW20530   0.785   6.483   1.094
 6544SOL    HW120531   0.801   6.390   1.127
 6544SOL    HW220532   0.745   6.479   1.003
 6545SOL     OW20533   4.748   6.766   0.950
 6545SOL    HW120534   4.677   6.730   1.011
 6545SOL    HW220535   4.736   6.727   0.859
 6546SOL     OW20536   4.623   4.039   6.367
 6546SOL    HW120537   4.687   4.014   6.440
 6546SOL    HW220538   4.541   4.081   6.407
 6547SOL     OW20539   0.624   5.985   6.020
 6547SOL    HW120540   0.637   6.071   6.069
 6547SOL    HW220541   0.690   5.979   5.945
 6548SOL     OW20542   6.905   1.506   5.756
 6548SOL    HW120543   6.961   1.569   5.701
 6548SOL    HW220544   6.865   1.436   5.697
 6549SOL     OW20545   4.307   1.491   2.293
 6549SOL    HW120546   4.356   1.410   2.261
 6549SOL    HW220547   4.287   1.551   2.215
 6550SOL     OW20548   6.707   6.508   3.435
 6550SOL    HW120549   6.668   6.417   3.448
 6550SOL    HW220550   6.656   6.556   3.363
 6551SOL     OW20551   2.968   4.044   1.108
 6551SOL    HW120552   2.897   4.025   1.177
 6551SOL    HW220553   3.057   4.017   1.144
 6552SOL     OW20554   1.802   5.018   0.362
 6552SOL    HW120555   1.757   5.045   0.448
 6552SOL    HW220556   1.871   5.087   0.338
 6553SOL     OW20557   0.800   1.527   3.368
 6553SOL    HW120558   0.892   1.532   3.407
 6553SOL    HW220559   0.733   1.516   3.441
 6554SOL     OW20560   1.203   2.231   4.281
 6554SOL    HW120561   1.206   2.161   4.210
 6554SOL    HW220562   1.297   2.251   4.312
 6555SOL     OW20563   6.458   3.978   3.673
 6555SOL    HW120564   6.370   3.930   3.665
 6555SOL    HW220565   6.462   4.027   3.760
 6556SOL     OW20566   4.954   3.022   2.794
 6556SOL    HW120567   4.953   3.077   2.878
 6556SOL    HW220568   5.029   3.052   2.736
 6557SOL     OW20569   1.772   0.800   2.447
 6557SOL    HW120570   1.732   0.809   2.538
 6557SOL    HW220571   1.852   0.860   2.439
 6558SOL     OW20572   5.555   6.117   6.264
 6558SOL    HW120573   5.502   6.165   6.334
 6558SOL    HW220574   5.587   6.183   6.195
 6559SOL     OW20575   0.133   2.997   6.336
 6559SOL    HW120576   0.083   3.063   6.392
 6559SOL    HW220577   0.115   2.904   6.371
 6560SOL     OW20578   5.577   4.500   0.196
 6560SOL    HW120579   5.652   4.519   0.259
 6560SOL    HW220580   5.520   4.426   0.233
 6561SOL     OW20581   3.703   4.604   6.988
 6561SOL    HW120582   3.665   4.687   7.027
 6561SOL    HW220583   3.633   4.533   6.986
 6562SOL     OW20584   5.312   2.520   1.058
 6562SOL    HW120585   5.301   2.469   1.144
 6562SOL    HW220586   5.332   2.615   1.079
 6563SOL     OW20587   6.352   5.141   5.471
 6563SOL    HW120588   6.437   5.092   5.491
 6563SOL    HW220589   6.283   5.117   5.539
 6564SOL     OW20590   6.202   3.705   3.013
 6564SOL    HW120591   6.188   3.732   3.108
 6564SOL    HW220592   6.217   3.786   2.957
 6565SOL     OW20593   5.218   0.302   3.022
 6565SOL    HW120594   5.293   0.302   2.956
 6565SOL    HW220595   5.189   0.208   3.040
 6566SOL     OW20596   4.881   5.785   3.325
 6566SOL    HW120597   4.875   5.704   3.268
 6566SOL    HW220598   4.789   5.812   3.354
 6567SOL     OW20599   4.079   0.603   1.553
 6567SOL    HW120600   3.999   0.652   1.587
 6567SOL    HW220601   4.124   0.657   1.482
 6568SOL     OW20602   4.229   2.009   0.972
 6568SOL    HW120603   4.311   1.989   1.026
 6568SOL    HW220604   4.241   1.971   0.880
 6569SOL     OW20605   0.704   4.563   4.589
 6569SOL    HW120606   0.775   4.624   4.625
 6569SOL    HW220607   0.683   4.493   4.657
 6570SOL     OW20608   4.434   6.837   2.149
 6570SOL    HW120609   4.443   6.800   2.241
 6570SOL    HW220610   4.523   6.869   2.117
 6571SOL     OW20611   3.610   5.835   2.911
 6571SOL    HW120612   3.610   5.831   2.811
 6571SOL    HW220613   3.566   5.754   2.949
 6572SOL     OW20614   1.354   5.753   3.950
 6572SOL    HW120615   1.317   5.831   4.000
 6572SOL    HW220616   1.315   5.752   3.857
 6573SOL     OW20617   1.124   1.942   3.001
 6573SOL    HW120618   1.027   1.919   2.994
 6573SOL    HW220619   1.135   2.018   3.065
 6574SOL     OW20620   1.534   5.566   2.225
 6574SOL    HW120621   1.477   5.605   2.297
 6574SOL    HW220622   1.486   5.572   2.138
 6575SOL     OW20623   0.185   1.217   3.403
 6575SOL    HW120624   0.123   1.141   3.416
 6575SOL    HW220625   0.280   1.186   3.411
 6576SOL     OW20626   4.993   5.906   1.073
 6576SOL    HW120627   5.085   5.931   1.103
 6576SOL    HW220628   4.969   5.958   0.991
 6577SOL     OW20629   3.227   1.072   4.223
 6577SOL    HW120630   3.243   1.038   4.130
 6577SOL    HW220631   3.132   1.102   4.231
 6578SOL     OW20632   1.115   4.874   1.122
 6578SOL    HW120633   1.136   4.942   1.193
 6578SOL    HW220634   1.157   4.787   1.145
 6579SOL     OW20635   6.719   0.855   4.065
 6579SOL    HW120636   6.786   0.792   4.025
 6579SOL    HW220637   6.748   0.949   4.050
 6580SOL     OW20638   2.102   2.216   0.298
 6580SOL    HW120639   2.130   2.272   0.376
 6580SOL    HW220640   2.035   2.148   0.329
 6581SOL     OW20641   0.592   1.971   1.212
 6581SOL    HW120642   0.547   1.948   1.299
 6581SOL    HW220643   0.528   2.024   1.155
 6582SOL     OW20644   6.226   1.333   2.796
 6582SOL    HW120645   6.141   1.307   2.842
 6582SOL    HW220646   6.282   1.251   2.782
 6583SOL     OW20647   3.855   5.220   6.843
 6583SOL    HW120648   3.827   5.259   6.931
 6583SOL    HW220649   3.782   5.234   6.776
 6584SOL     OW20650   4.398   2.439   6.631
 6584SOL    HW120651   4.408   2.471   6.726
 6584SOL    HW220652   4.318   2.379   6.625
 6585SOL     OW20653   5.407   6.751   1.576
 6585SOL    HW120654   5.348   6.737   1.656
 6585SOL    HW220655   5.489   6.694   1.586
 6586SOL     OW20656   0.315   1.046   7.013
 6586SOL    HW120657   0.334   1.080   0.077
 6586SOL    HW220658   0.238   1.097   6.975
 6587SOL     OW20659   2.048   4.418   5.410
 6587SOL    HW120660   2.001   4.385   5.328
 6587SOL    HW220661   2.109   4.347   5.444
 6588SOL     OW20662   0.186   2.419   0.919
 6588SOL    HW120663   0.127   2.398   0.841
 6588SOL    HW220664   0.163   2.509   0.955
 6589SOL     OW20665   6.657   0.123   2.371
 6589SOL    HW120666   6.646   0.217   2.339
 6589SOL    HW220667   6.606   0.061   2.312
 6590SOL     OW20668   1.119   6.389   4.363
 6590SOL    HW120669   1.122   6.488   4.373
 6590SOL    HW220670   1.080   6.348   4.446
 6591SOL     OW20671   6.074   4.688   3.443
 6591SOL    HW120672   5.985   4.656   3.475
 6591SOL    HW220673   6.105   4.630   3.368
 6592SOL     OW20674   6.070   6.780   3.502
 6592SOL    HW120675   5.980   6.741   3.484
 6592SOL    HW220676   6.137   6.706   3.510
 6593SOL     OW20677   1.984   1.434   2.078
 6593SOL    HW120678   1.898   1.399   2.042
 6593SOL    HW220679   2.046   1.455   2.003
 6594SOL     OW20680   5.308   0.315   6.452
 6594SOL    HW120681   5.285   0.277   6.362
 6594SOL    HW220682   5.246   0.390   6.473
 6595SOL     OW20683   0.677   1.961   5.283
 6595SOL    HW120684   0.664   2.020   5.363
 6595SOL    HW220685   0.624   1.996   5.207
 6596SOL     OW20686   5.331   0.077   2.653
 6596SOL    HW120687   5.375   0.142   2.716
 6596SOL    HW220688   5.238   0.058   2.685
 6597SOL     OW20689   0.988   4.370   1.880
 6597SOL    HW120690   0.929   4.342   1.956
 6597SOL    HW220691   0.956   4.329   1.795
 6598SOL     OW20692   1.699   4.498   4.246
 6598SOL    HW120693   1.632   4.508   4.320
 6598SOL    HW220694   1.781   4.455   4.282
 6599SOL     OW20695   6.627   5.348   6.309
 6599SOL    HW120696   6.646   5.434   6.261
 6599SOL    HW220697   6.558   5.297   6.257
 6600SOL     OW20698   4.454   0.480   5.208
 6600SOL    HW120699   4.432   0.510   5.115
 6600SOL    HW220700   4.553   0.480   5.221
 6601SOL     OW20701   1.338   2.329   1.595
 6601SOL    HW120702   1.327   2.285   1.684
 6601SOL    HW220703   1.394   2.411   1.606
 6602SOL     OW20704   1.274   5.840   1.882
 6602SOL    HW120705   1.297   5.758   1.829
 6602SOL    HW220706   1.182   5.871   1.857
 6603SOL     OW20707   0.491   3.760   2.846
 6603SOL    HW120708   0.443   3.795   2.927
 6603SOL    HW220709   0.521   3.666   2.863
 6604SOL     OW20710   1.956   6.166   3.356
 6604SOL    HW120711   1.861   6.135   3.352
 6604SOL    HW220712   1.971   6.216   3.442
 6605SOL     OW20713   0.426   5.878   0.928
 6605SOL    HW120714   0.472   5.813   0.867
 6605SOL    HW220715   0.367   5.828   0.992
 6606SOL     OW20716   1.990   2.919   2.963
 6606SOL    HW120717   1.997   2.819   2.967
 6606SOL    HW220718   1.945   2.952   3.046
 6607SOL     OW20719   5.685   3.646   3.608
 6607SOL    HW120720   5.660   3.555   3.641
 6607SOL    HW220721   5.768   3.677   3.656
 6608SOL     OW20722   1.191   6.053   6.158
 6608SOL    HW120723   1.117   6.062   6.224
 6608SOL    HW220724   1.246   6.137   6.158
 6609SOL     OW20725   4.644   1.331   6.429
 6609SOL    HW120726   4.608   1.376   6.348
 6609SOL    HW220727   4.690   1.246   6.403
 6610SOL     OW20728   3.089   5.706   0.756
 6610SOL    HW120729   2.995   5.739   0.750
 6610SOL    HW220730   3.109   5.647   0.677
 6611SOL     OW20731   3.710   1.613   4.520
 6611SOL    HW120732   3.722   1.580   4.613
 6611SOL    HW220733   3.740   1.708   4.514
 6612SOL     OW20734   0.323   0.326   6.442
 6612SOL    HW120735   0.382   0.373   6.376
 6612SOL    HW220736   0.373   0.250   6.483
 6613SOL     OW20737   4.436   0.349   0.860
 6613SOL    HW120738   4.474   0.281   0.922
 6613SOL    HW220739   4.347   0.379   0.894
 6614SOL     OW20740   4.275   5.322   0.894
 6614SOL    HW120741   4.292   5.333   0.796
 6614SOL    HW220742   4.335   5.251   0.930
 6615SOL     OW20743   3.803   5.255   5.727
 6615SOL    HW120744   3.870   5.292   5.663
 6615SOL    HW220745   3.738   5.326   5.753
 6616SOL     OW20746   3.772   1.595   6.379
 6616SOL    HW120747   3.770   1.516   6.318
 6616SOL    HW220748   3.754   1.565   6.473
 6617SOL     OW20749   3.506   0.162   4.068
 6617SOL    HW120750   3.541   0.235   4.126
 6617SOL    HW220751   3.507   0.075   4.118
 6618SOL     OW20752   6.062   2.693   4.032
 6618SOL    HW120753   6.130   2.751   3.987
 6618SOL    HW220754   6.094   2.598   4.033
 6619SOL     OW20755   4.541   6.024   4.275
 6619SOL    HW120756   4.631   6.032   4.232
 6619SOL    HW220757   4.546   6.059   4.369
 6620SOL     OW20758   0.909   2.985   3.689
 6620SOL    HW120759   0.905   2.957   3.593
 6620SOL    HW220760   0.876   2.911   3.747
 6621SOL     OW20761   3.639   3.374   4.477
 6621SOL    HW120762   3.599   3.288   4.508
 6621SOL    HW220763   3.739   3.368   4.482
 6622SOL     OW20764   0.782   5.403   1.067
 6622SOL    HW120765   0.879   5.379   1.072
 6622SOL    HW220766   0.730   5.342   1.127
 6623SOL     OW20767   3.162   4.056   4.980
 6623SOL    HW120768   3.199   4.050   4.887
 6623SOL    HW220769   3.133   3.966   5.011
 6624SOL     OW20770   2.503   1.585   3.158
 6624SOL    HW120771   2.466   1.492   3.151
 6624SOL    HW220772   2.564   1.603   3.081
 6625SOL     OW20773   5.922   4.248   5.847
 6625SOL    HW120774   5.954   4.156   5.868
 6625SOL    HW220775   5.938   4.267   5.750
 6626SOL     OW20776   3.156   6.136   5.351
 6626SOL    HW120777   3.113   6.055   5.391
 6626SOL    HW220778   3.205   6.109   5.268
 6627SOL     OW20779   2.307   6.301   4.664
 6627SOL    HW120780   2.221   6.260   4.635
 6627SOL    HW220781   2.384   6.251   4.624
 6628SOL     OW20782   3.894   6.014   4.675
 6628SOL    HW120783   3.968   6.046   4.617
 6628SOL    HW220784   3.908   5.918   4.698
 6629SOL     OW20785   5.110   6.139   6.308
 6629SOL    HW120786   5.140   6.177   6.395
 6629SOL    HW220787   5.167   6.060   6.285
 6630SOL     OW20788   1.902   1.043   0.413
 6630SOL    HW120789   1.860   1.086   0.334
 6630SOL    HW220790   1.841   0.972   0.450
 6631SOL     OW20791   1.717   3.830   6.045
 6631SOL    HW120792   1.641   3.880   6.085
 6631SOL    HW220793   1.802   3.881   6.059
 6632SOL     OW20794   1.706   0.185   0.453
 6632SOL    HW120795   1.636   0.139   0.506
 6632SOL    HW220796   1.700   0.156   0.357
 6633SOL     OW20797   3.936   5.206   5.977
 6633SOL    HW120798   3.921   5.111   6.004
 6633SOL    HW220799   3.871   5.231   5.906
 6634SOL     OW20800   3.583   1.785   3.891
 6634SOL    HW120801   3.666   1.830   3.858
 6634SOL    HW220802   3.603   1.690   3.915
 6635SOL     OW20803   5.108   4.835   4.556
 6635SOL    HW120804   5.138   4.922   4.516
 6635SOL    HW220805   5.044   4.790   4.494
 6636SOL     OW20806   4.176   0.875   0.103
 6636SOL    HW120807   4.199   0.782   0.072
 6636SOL    HW220808   4.099   0.910   0.048
 6637SOL     OW20809   0.996   2.182   0.731
 6637SOL    HW120810   1.070   2.242   0.761
 6637SOL    HW220811   0.957   2.134   0.809
 6638SOL     OW20812   2.880   3.422   3.886
 6638SOL    HW120813   2.828   3.408   3.802
 6638SOL    HW220814   2.958   3.359   3.888
 6639SOL     OW20815   4.837   2.924   0.828
 6639SOL    HW120816   4.792   2.887   0.909
 6639SOL    HW220817   4.787   3.006   0.798
 6640SOL     OW20818   1.730   3.957   4.664
 6640SOL    HW120819   1.685   3.989   4.580
 6640SOL    HW220820   1.808   4.016   4.684
 6641SOL     OW20821   5.273   2.051   1.096
 6641SOL    HW120822   5.276   2.026   1.193
 6641SOL    HW220823   5.337   2.126   1.079
 6642SOL     OW20824   1.558   5.614   0.237
 6642SOL    HW120825   1.497   5.655   0.169
 6642SOL    HW220826   1.649   5.654   0.226
 6643SOL     OW20827   3.739   6.009   6.313
 6643SOL    HW120828   3.795   6.073   6.261
 6643SOL    HW220829   3.754   5.916   6.279
 6644SOL     OW20830   2.373   6.485   3.531
 6644SOL    HW120831   2.427   6.568   3.538
 6644SOL    HW220832   2.283   6.500   3.571
 6645SOL     OW20833   6.072   2.162   0.127
 6645SOL    HW120834   6.052   2.181   0.224
 6645SOL    HW220835   6.110   2.244   0.085
 6646SOL     OW20836   4.289   6.808   5.598
 6646SOL    HW120837   4.308   6.720   5.641
 6646SOL    HW220838   4.303   6.881   5.665
 6647SOL     OW20839   4.455   5.102   0.920
 6647SOL    HW120840   4.405   5.027   0.964
 6647SOL    HW220841   4.487   5.072   0.830
 6648SOL     OW20842   3.242   6.588   5.634
 6648SOL    HW120843   3.270   6.516   5.571
 6648SOL    HW220844   3.148   6.616   5.613
 6649SOL     OW20845   5.359   2.937   6.677
 6649SOL    HW120846   5.261   2.931   6.694
 6649SOL    HW220847   5.379   3.016   6.619
 6650SOL     OW20848   2.175   1.706   4.748
 6650SOL    HW120849   2.149   1.789   4.697
 6650SOL    HW220850   2.096   1.646   4.757
 6651SOL     OW20851   6.578   1.761   6.338
 6651SOL    HW120852   6.568   1.711   6.424
 6651SOL    HW220853   6.673   1.756   6.307
 6652SOL     OW20854   6.970   4.239   0.398
 6652SOL    HW120855   6.964   4.149   0.442
 6652SOL    HW220856   6.922   4.306   0.455
 6653SOL     OW20857   5.433   4.741   0.264
 6653SOL    HW120858   5.468   4.660   0.218
 6653SOL    HW220859   5.403   4.808   0.197
 6654SOL     OW20860   6.691   4.139   3.270
 6654SOL    HW120861   6.723   4.139   3.175
 6654SOL    HW220862   6.618   4.072   3.280
 6655SOL     OW20863   0.205   5.037   1.982
 6655SOL    HW120864   0.168   5.025   2.074
 6655SOL    HW220865   0.262   5.119   1.979
 6656SOL     OW20866   4.122   1.742   3.171
 6656SOL    HW120867   4.175   1.703   3.096
 6656SOL    HW220868   4.119   1.676   3.247
 6657SOL     OW20869   6.056   2.095   3.690
 6657SOL    HW120870   5.986   2.077   3.759
 6657SOL    HW220871   6.019   2.074   3.600
 6658SOL     OW20872   6.709   5.691   5.130
 6658SOL    HW120873   6.673   5.683   5.223
 6658SOL    HW220874   6.650   5.752   5.077
 6659SOL     OW20875   0.685   4.982   1.903
 6659SOL    HW120876   0.691   4.953   1.998
 6659SOL    HW220877   0.606   4.939   1.860
 6660SOL     OW20878   6.268   6.473   4.324
 6660SOL    HW120879   6.180   6.426   4.326
 6660SOL    HW220880   6.313   6.463   4.413
 6661SOL     OW20881   3.752   5.846   4.033
 6661SOL    HW120882   3.707   5.931   4.059
 6661SOL    HW220883   3.685   5.773   4.026
 6662SOL     OW20884   3.998   6.494   2.269
 6662SOL    HW120885   3.944   6.567   2.225
 6662SOL    HW220886   3.943   6.449   2.339
 6663SOL     OW20887   0.858   4.010   5.838
 6663SOL    HW120888   0.881   4.100   5.873
 6663SOL    HW220889   0.845   4.014   5.739
 6664SOL     OW20890   2.881   6.870   1.032
 6664SOL    HW120891   2.854   6.783   1.074
 6664SOL    HW220892   2.821   6.942   1.064
 6665SOL     OW20893   2.653   1.083   6.215
 6665SOL    HW120894   2.657   1.159   6.150
 6665SOL    HW220895   2.558   1.068   6.242
 6666SOL     OW20896   3.845   6.520   5.789
 6666SOL    HW120897   3.926   6.525   5.730
 6666SOL    HW220898   3.809   6.612   5.802
 6667SOL     OW20899   1.018   6.093   6.599
 6667SOL    HW120900   0.956   6.171   6.592
 6667SOL    HW220901   1.043   6.079   6.695
 6668SOL     OW20902   6.888   4.802   0.615
 6668SOL    HW120903   6.965   4.739   0.602
 6668SOL    HW220904   6.820   4.787   0.544
 6669SOL     OW20905   1.235   1.742   3.206
 6669SOL    HW120906   1.202   1.794   3.128
 6669SOL    HW220907   1.333   1.725   3.196
 6670SOL     OW20908   4.261   2.761   0.643
 6670SOL    HW120909   4.191   2.707   0.689
 6670SOL    HW220910   4.249   2.857   0.666
 6671SOL     OW20911   4.283   5.412   0.349
 6671SOL    HW120912   4.207   5.440   0.291
 6671SOL    HW220913   4.326   5.493   0.389
 6672SOL     OW20914   1.514   2.823   1.473
 6672SOL    HW120915   1.492   2.905   1.526
 6672SOL    HW220916   1.570   2.848   1.394
 6673SOL     OW20917   6.269   3.485   3.673
 6673SOL    HW120918   6.195   3.431   3.632
 6673SOL    HW220919   6.356   3.459   3.633
 6674SOL     OW20920   0.506   1.324   0.395
 6674SOL    HW120921   0.603   1.321   0.418
 6674SOL    HW220922   0.454   1.358   0.474
 6675SOL     OW20923   4.771   1.119   6.295
 6675SOL    HW120924   4.802   1.193   6.234
 6675SOL    HW220925   4.845   1.053   6.307
 6676SOL     OW20926   1.274   4.250   4.124
 6676SOL    HW120927   1.237   4.342   4.110
 6676SOL    HW220928   1.240   4.213   4.210
 6677SOL     OW20929   0.712   1.273   6.807
 6677SOL    HW120930   0.805   1.289   6.841
 6677SOL    HW220931   0.646   1.290   6.880
 6678SOL     OW20932   2.677   4.209   6.412
 6678SOL    HW120933   2.744   4.268   6.456
 6678SOL    HW220934   2.649   4.137   6.476
 6679SOL     OW20935   1.730   1.369   3.923
 6679SOL    HW120936   1.658   1.383   3.991
 6679SOL    HW220937   1.817   1.353   3.969
 6680SOL     OW20938   6.016   6.633   1.489
 6680SOL    HW120939   6.107   6.617   1.528
 6680SOL    HW220940   5.946   6.608   1.556
 6681SOL     OW20941   3.392   5.834   1.879
 6681SOL    HW120942   3.407   5.839   1.978
 6681SOL    HW220943   3.470   5.789   1.836
 6682SOL     OW20944   3.441   5.533   5.712
 6682SOL    HW120945   3.408   5.447   5.673
 6682SOL    HW220946   3.404   5.543   5.805
 6683SOL     OW20947   6.769   4.182   6.309
 6683SOL    HW120948   6.800   4.208   6.401
 6683SOL    HW220949   6.702   4.249   6.277
 6684SOL     OW20950   3.021   5.681   0.145
 6684SOL    HW120951   3.059   5.676   0.053
 6684SOL    HW220952   3.031   5.593   0.191
 6685SOL     OW20953   5.269   3.256   6.895
 6685SOL    HW120954   5.191   3.210   6.937
 6685SOL    HW220955   5.248   3.279   6.800
 6686SOL     OW20956   5.155   5.078   4.410
 6686SOL    HW120957   5.215   5.109   4.484
 6686SOL    HW220958   5.064   5.119   4.421
 6687SOL     OW20959   6.244   1.971   2.226
 6687SOL    HW120960   6.180   1.896   2.246
 6687SOL    HW220961   6.253   2.030   2.306
 6688SOL     OW20962   4.437   4.895   0.721
 6688SOL    HW120963   4.528   4.897   0.761
 6688SOL    HW220964   4.402   4.801   0.720
 6689SOL     OW20965   2.262   4.602   5.763
 6689SOL    HW120966   2.263   4.599   5.663
 6689SOL    HW220967   2.226   4.516   5.799
 6690SOL     OW20968   0.461   6.782   5.841
 6690SOL    HW120969   0.454   6.794   5.742
 6690SOL    HW220970   0.521   6.853   5.879
 6691SOL     OW20971   2.957   2.214   2.539
 6691SOL    HW120972   3.046   2.228   2.584
 6691SOL    HW220973   2.968   2.225   2.440
 6692SOL     OW20974   4.437   5.342   2.439
 6692SOL    HW120975   4.449   5.435   2.406
 6692SOL    HW220976   4.347   5.308   2.411
 6693SOL     OW20977   3.920   1.743   4.865
 6693SOL    HW120978   3.879   1.719   4.953
 6693SOL    HW220979   3.886   1.832   4.836
 6694SOL     OW20980   3.413   4.109   1.792
 6694SOL    HW120981   3.418   4.029   1.733
 6694SOL    HW220982   3.369   4.185   1.743
 6695SOL     OW20983   2.224   2.060   6.816
 6695SOL    HW120984   2.153   2.128   6.836
 6695SOL    HW220985   2.218   2.034   6.720
 6696SOL     OW20986   4.157   3.565   4.383
 6696SOL    HW120987   4.139   3.580   4.286
 6696SOL    HW220988   4.186   3.651   4.426
 6697SOL     OW20989   4.238   2.299   2.401
 6697SOL    HW120990   4.244   2.342   2.491
 6697SOL    HW220991   4.296   2.349   2.336
 6698SOL     OW20992   3.212   3.912   1.580
 6698SOL    HW120993   3.302   3.876   1.554
 6698SOL    HW220994   3.198   4.002   1.539
 6699SOL     OW20995   1.194   4.171   5.849
 6699SOL    HW120996   1.121   4.157   5.916
 6699SOL    HW220997   1.155   4.167   5.757
 6700SOL     OW20998   5.787   6.964   6.986
 6700SOL    HW120999   5.851   0.011   7.004
 6700SOL    HW221000   5.785   6.903   0.036
 6701SOL     OW21001   6.409   0.510   1.039
 6701SOL    HW121002   6.341   0.538   0.971
 6701SOL    HW221003   6.499   0.545   1.013
 6702SOL     OW21004   3.030   2.560   1.501
 6702SOL    HW121005   3.113   2.516   1.536
 6702SOL    HW221006   3.055   2.630   1.434
 6703SOL     OW21007   0.225   0.979   0.489
 6703SOL    HW121008   0.239   1.061   0.545
 6703SOL    HW221009   0.131   0.947   0.500
 6704SOL     OW21010   2.849   0.371   6.026
 6704SOL    HW121011   2.917   0.324   5.971
 6704SOL    HW221012   2.794   0.304   6.075
 6705SOL     OW21013   6.743   4.382   2.392
 6705SOL    HW121014   6.725   4.358   2.297
 6705SOL    HW221015   6.832   4.346   2.420
 6706SOL     OW21016   0.249   6.633   1.503
 6706SOL    HW121017   0.272   6.623   1.600
 6706SOL    HW221018   0.204   6.550   1.471
 6707SOL     OW21019   5.096   0.977   2.281
 6707SOL    HW121020   5.107   0.933   2.370
 6707SOL    HW221021   5.017   0.937   2.234
 6708SOL     OW21022   0.541   3.712   1.098
 6708SOL    HW121023   0.635   3.725   1.068
 6708SOL    HW221024   0.490   3.797   1.085
 6709SOL     OW21025   1.919   4.363   2.289
 6709SOL    HW121026   1.927   4.264   2.300
 6709SOL    HW221027   2.010   4.404   2.291
 6710SOL     OW21028   5.316   1.539   0.856
 6710SOL    HW121029   5.249   1.465   0.843
 6710SOL    HW221030   5.280   1.605   0.922
 6711SOL     OW21031   3.403   6.362   6.653
 6711SOL    HW121032   3.492   6.369   6.697
 6711SOL    HW221033   3.415   6.362   6.554
 6712SOL     OW21034   5.662   3.928   2.116
 6712SOL    HW121035   5.563   3.943   2.114
 6712SOL    HW221036   5.681   3.837   2.154
 6713SOL     OW21037   1.743   5.240   5.032
 6713SOL    HW121038   1.829   5.289   5.041
 6713SOL    HW221039   1.685   5.286   4.964
 6714SOL     OW21040   4.717   1.423   1.154
 6714SOL    HW121041   4.689   1.359   1.082
 6714SOL    HW221042   4.647   1.425   1.225
 6715SOL     OW21043   1.157   0.402   0.053
 6715SOL    HW121044   1.137   0.313   0.093
 6715SOL    HW221045   1.213   0.455   0.116
 6716SOL     OW21046   0.291   6.248   2.740
 6716SOL    HW121047   0.326   6.162   2.704
 6716SOL    HW221048   0.278   6.240   2.839
 6717SOL     OW21049   5.621   1.907   5.297
 6717SOL    HW121050   5.701   1.950   5.340
 6717SOL    HW221051   5.643   1.882   5.203
 6718SOL     OW21052   3.859   1.038   1.299
 6718SOL    HW121053   3.895   0.945   1.290
 6718SOL    HW221054   3.928   1.104   1.268
 6719SOL     OW21055   2.170   1.298   0.209
 6719SOL    HW121056   2.240   1.246   0.258
 6719SOL    HW221057   2.175   1.277   0.111
 6720SOL     OW21058   1.838   0.518   6.332
 6720SOL    HW121059   1.870   0.424   6.319
 6720SOL    HW221060   1.894   0.580   6.277
 6721SOL     OW21061   6.100   1.027   0.650
 6721SOL    HW121062   6.112   1.039   0.552
 6721SOL    HW221063   6.071   1.114   0.691
 6722SOL     OW21064   5.965   3.352   6.860
 6722SOL    HW121065   5.966   3.313   6.952
 6722SOL    HW221066   5.895   3.423   6.855
 6723SOL     OW21067   0.964   2.312   5.876
 6723SOL    HW121068   1.010   2.397   5.850
 6723SOL    HW221069   0.952   2.255   5.795
 6724SOL     OW21070   1.987   3.631   5.127
 6724SOL    HW121071   1.973   3.712   5.070
 6724SOL    HW221072   2.073   3.639   5.176
 6725SOL     OW21073   5.320   2.737   3.080
 6725SOL    HW121074   5.344   2.811   3.017
 6725SOL    HW221075   5.271   2.775   3.158
 6726SOL     OW21076   0.654   0.596   5.237
 6726SOL    HW121077   0.740   0.560   5.200
 6726SOL    HW221078   0.598   0.632   5.163
 6727SOL     OW21079   1.334   4.871   5.301
 6727SOL    HW121080   1.307   4.874   5.397
 6727SOL    HW221081   1.298   4.788   5.258
 6728SOL     OW21082   3.083   1.735   3.099
 6728SOL    HW121083   3.140   1.712   3.020
 6728SOL    HW221084   3.142   1.750   3.178
 6729SOL     OW21085   4.349   1.067   2.358
 6729SOL    HW121086   4.255   1.039   2.376
 6729SOL    HW221087   4.409   0.987   2.358
 6730SOL     OW21088   0.557   1.111   1.498
 6730SOL    HW121089   0.638   1.091   1.554
 6730SOL    HW221090   0.560   1.056   1.414
 6731SOL     OW21091   3.722   7.015   6.133
 6731SOL    HW121092   3.718   0.031   6.043
 6731SOL    HW221093   3.649   0.022   6.191
 6732SOL     OW21094   0.035   5.532   4.688
 6732SOL    HW121095   0.111   5.471   4.668
 6732SOL    HW221096   0.043   5.615   4.631
 6733SOL     OW21097   4.829   4.813   6.267
 6733SOL    HW121098   4.757   4.774   6.210
 6733SOL    HW221099   4.909   4.834   6.211
 6734SOL     OW21100   6.384   1.627   4.326
 6734SOL    HW121101   6.396   1.686   4.406
 6734SOL    HW221102   6.473   1.592   4.297
 6735SOL     OW21103   6.305   3.077   3.280
 6735SOL    HW121104   6.250   3.032   3.210
 6735SOL    HW221105   6.402   3.064   3.259
 6736SOL     OW21106   3.381   3.520   0.685
 6736SOL    HW121107   3.448   3.495   0.755
 6736SOL    HW221108   3.326   3.439   0.663
 6737SOL     OW21109   6.947   3.395   0.406
 6737SOL    HW121110   7.020   3.351   0.355
 6737SOL    HW221111   6.973   3.488   0.429
 6738SOL     OW21112   1.111   5.637   3.474
 6738SOL    HW121113   1.112   5.727   3.430
 6738SOL    HW221114   1.176   5.577   3.428
 6739SOL     OW21115   6.574   6.999   4.821
 6739SOL    HW121116   6.476   7.019   4.829
 6739SOL    HW221117   6.586   6.914   4.770
 6740SOL     OW21118   0.688   6.769   3.274
 6740SOL    HW121119   0.600   6.727   3.297
 6740SOL    HW221120   0.732   6.801   3.358
 6741SOL     OW21121   3.885   1.803   6.966
 6741SOL    HW121122   3.914   1.708   6.979
 6741SOL    HW221123   3.797   1.817   7.011
 6742SOL     OW21124   5.480   4.947   3.709
 6742SOL    HW121125   5.458   5.033   3.754
 6742SOL    HW221126   5.396   4.904   3.675
 6743SOL     OW21127   4.204   4.040   0.595
 6743SOL    HW121128   4.282   3.978   0.584
 6743SOL    HW221129   4.130   4.010   0.535
 6744SOL     OW21130   0.358   6.240   6.327
 6744SOL    HW121131   0.420   6.265   6.252
 6744SOL    HW221132   0.272   6.207   6.289
 6745SOL     OW21133   0.271   4.720   5.323
 6745SOL    HW121134   0.358   4.689   5.287
 6745SOL    HW221135   0.224   4.645   5.369
 6746SOL     OW21136   0.954   2.196   2.439
 6746SOL    HW121137   1.033   2.138   2.456
 6746SOL    HW221138   0.949   2.217   2.341
 6747SOL     OW21139   1.836   6.265   5.925
 6747SOL    HW121140   1.897   6.186   5.916
 6747SOL    HW221141   1.762   6.258   5.858
 6748SOL     OW21142   1.930   1.244   4.811
 6748SOL    HW121143   1.948   1.233   4.909
 6748SOL    HW221144   1.842   1.290   4.798
 6749SOL     OW21145   3.447   5.113   1.437
 6749SOL    HW121146   3.385   5.107   1.515
 6749SOL    HW221147   3.393   5.125   1.353
 6750SOL     OW21148   3.325   1.419   4.964
 6750SOL    HW121149   3.226   1.429   4.953
 6750SOL    HW221150   3.345   1.361   5.043
 6751SOL     OW21151   4.904   0.042   4.222
 6751SOL    HW121152   4.821   0.033   4.166
 6751SOL    HW221153   4.962   0.113   4.183
 6752SOL     OW21154   2.189   5.645   2.065
 6752SOL    HW121155   2.123   5.571   2.074
 6752SOL    HW221156   2.227   5.644   1.972
 6753SOL     OW21157   3.715   3.299   5.848
 6753SOL    HW121158   3.772   3.258   5.777
 6753SOL    HW221159   3.723   3.245   5.932
 6754SOL     OW21160   6.214   1.897   1.065
 6754SOL    HW121161   6.230   1.918   1.161
 6754SOL    HW221162   6.277   1.950   1.008
 6755SOL     OW21163   2.687   5.797   6.138
 6755SOL    HW121164   2.730   5.806   6.227
 6755SOL    HW221165   2.724   5.718   6.090
 6756SOL     OW21166   2.247   2.052   5.461
 6756SOL    HW121167   2.271   1.955   5.449
 6756SOL    HW221168   2.322   2.109   5.427
 6757SOL     OW21169   4.197   6.701   0.448
 6757SOL    HW121170   4.166   6.606   0.459
 6757SOL    HW221171   4.291   6.710   0.482
 6758SOL     OW21172   5.801   2.079   2.878
 6758SOL    HW121173   5.810   1.982   2.859
 6758SOL    HW221174   5.875   2.129   2.835
 6759SOL     OW21175   0.902   2.524   2.460
 6759SOL    HW121176   0.805   2.548   2.467
 6759SOL    HW221177   0.922   2.446   2.520
 6760SOL     OW21178   5.375   2.412   3.400
 6760SOL    HW121179   5.325   2.471   3.464
 6760SOL    HW221180   5.314   2.383   3.327
 6761SOL     OW21181   3.979   2.084   4.593
 6761SOL    HW121182   3.952   2.093   4.689
 6761SOL    HW221183   4.052   2.016   4.586
 6762SOL     OW21184   0.001   6.051   3.749
 6762SOL    HW121185   0.090   6.016   3.720
 6762SOL    HW221186   6.991   5.992   3.820
 6763SOL     OW21187   5.171   5.295   5.280
 6763SOL    HW121188   5.124   5.367   5.331
 6763SOL    HW221189   5.103   5.232   5.241
 6764SOL     OW21190   1.749   5.372   1.048
 6764SOL    HW121191   1.816   5.417   0.989
 6764SOL    HW221192   1.657   5.388   1.011
 6765SOL     OW21193   6.602   5.189   2.854
 6765SOL    HW121194   6.574   5.095   2.831
 6765SOL    HW221195   6.539   5.253   2.811
 6766SOL     OW21196   6.066   0.752   0.555
 6766SOL    HW121197   6.061   0.845   0.593
 6766SOL    HW221198   6.160   0.719   0.562
 6767SOL     OW21199   2.970   0.165   0.454
 6767SOL    HW121200   3.026   0.217   0.390
 6767SOL    HW221201   3.023   0.090   0.493
 6768SOL     OW21202   1.768   0.857   0.564
 6768SOL    HW121203   1.706   0.788   0.527
 6768SOL    HW221204   1.770   0.852   0.663
 6769SOL     OW21205   4.331   2.700   1.607
 6769SOL    HW121206   4.338   2.621   1.668
 6769SOL    HW221207   4.406   2.764   1.628
 6770SOL     OW21208   0.020   0.266   1.624
 6770SOL    HW121209   7.014   0.301   1.537
 6770SOL    HW221210   0.047   0.170   1.613
 6771SOL     OW21211   3.948   2.186   3.339
 6771SOL    HW121212   4.030   2.227   3.379
 6771SOL    HW221213   3.961   2.175   3.241
 6772SOL     OW21214   2.830   1.617   2.683
 6772SOL    HW121215   2.865   1.579   2.597
 6772SOL    HW221216   2.739   1.580   2.702
 6773SOL     OW21217   0.437   4.173   2.223
 6773SOL    HW121218   0.458   4.241   2.153
 6773SOL    HW221219   0.509   4.172   2.292
 6774SOL     OW21220   0.832   1.693   6.950
 6774SOL    HW121221   0.810   1.669   0.016
 6774SOL    HW221222   0.750   1.726   6.904
 6775SOL     OW21223   2.428   4.698   0.779
 6775SOL    HW121224   2.474   4.777   0.737
 6775SOL    HW221225   2.333   4.721   0.799
 6776SOL     OW21226   6.269   5.305   6.995
 6776SOL    HW121227   6.212   5.241   0.019
 6776SOL    HW221228   6.361   5.268   6.987
 6777SOL     OW21229   4.590   4.649   6.573
 6777SOL    HW121230   4.661   4.715   6.549
 6777SOL    HW221231   4.505   4.674   6.526
 6778SOL     OW21232   0.875   5.603   2.912
 6778SOL    HW121233   0.965   5.645   2.902
 6778SOL    HW221234   0.857   5.584   3.008
 6779SOL     OW21235   0.176   4.743   0.535
 6779SOL    HW121236   0.159   4.711   0.442
 6779SOL    HW221237   0.157   4.669   0.600
 6780SOL     OW21238   0.245   2.275   1.855
 6780SOL    HW121239   0.249   2.307   1.950
 6780SOL    HW221240   0.215   2.350   1.796
 6781SOL     OW21241   5.384   5.479   5.690
 6781SOL    HW121242   5.376   5.527   5.603
 6781SOL    HW221243   5.448   5.528   5.749
 6782SOL     OW21244   6.393   1.496   2.956
 6782SOL    HW121245   6.369   1.422   2.892
 6782SOL    HW221246   6.361   1.472   3.047
 6783SOL     OW21247   0.285   6.239   6.959
 6783SOL    HW121248   0.275   6.141   6.943
 6783SOL    HW221249   0.216   6.270   7.025
 6784SOL     OW21250   3.157   3.292   0.285
 6784SOL    HW121251   3.231   3.333   0.231
 6784SOL    HW221252   3.104   3.365   0.330
 6785SOL     OW21253   5.566   5.978   2.282
 6785SOL    HW121254   5.649   5.923   2.279
 6785SOL    HW221255   5.575   6.056   2.220
 6786SOL     OW21256   1.686   2.797   5.717
 6786SOL    HW121257   1.702   2.852   5.799
 6786SOL    HW221258   1.735   2.838   5.640
 6787SOL     OW21259   1.268   3.559   2.194
 6787SOL    HW121260   1.295   3.621   2.121
 6787SOL    HW221261   1.243   3.470   2.155
 6788SOL     OW21262   3.063   3.714   1.061
 6788SOL    HW121263   2.965   3.733   1.051
 6788SOL    HW221264   3.113   3.754   0.984
 6789SOL     OW21265   0.596   6.289   2.607
 6789SOL    HW121266   0.596   6.272   2.705
 6789SOL    HW221267   0.580   6.387   2.591
 6790SOL     OW21268   1.845   3.086   0.010
 6790SOL    HW121269   1.901   3.131   0.079
 6790SOL    HW221270   1.849   2.987   0.023
 6791SOL     OW21271   4.342   2.895   6.135
 6791SOL    HW121272   4.426   2.896   6.189
 6791SOL    HW221273   4.364   2.913   6.039
 6792SOL     OW21274   6.561   6.031   0.769
 6792SOL    HW121275   6.647   5.984   0.750
 6792SOL    HW221276   6.571   6.089   0.850
 6793SOL     OW21277   0.758   2.760   1.239
 6793SOL    HW121278   0.748   2.781   1.336
 6793SOL    HW221279   0.830   2.692   1.227
 6794SOL     OW21280   5.296   1.577   5.470
 6794SOL    HW121281   5.315   1.482   5.447
 6794SOL    HW221282   5.291   1.587   5.570
 6795SOL     OW21283   2.955   6.012   6.755
 6795SOL    HW121284   2.892   6.088   6.769
 6795SOL    HW221285   2.944   5.945   6.829
 6796SOL     OW21286   4.562   1.521   3.070
 6796SOL    HW121287   4.509   1.438   3.054
 6796SOL    HW221288   4.528   1.594   3.010
 6797SOL     OW21289   5.661   3.275   2.536
 6797SOL    HW121290   5.685   3.370   2.554
 6797SOL    HW221291   5.667   3.258   2.437
 6798SOL     OW21292   5.420   6.175   2.547
 6798SOL    HW121293   5.392   6.151   2.640
 6798SOL    HW221294   5.386   6.106   2.483
 6799SOL     OW21295   5.494   6.467   0.483
 6799SOL    HW121296   5.546   6.382   0.473
 6799SOL    HW221297   5.467   6.500   0.392
 6800SOL     OW21298   2.028   4.870   0.128
 6800SOL    HW121299   1.946   4.920   0.155
 6800SOL    HW221300   2.006   4.808   0.053
 6801SOL     OW21301   1.738   2.328   2.209
 6801SOL    HW121302   1.727   2.407   2.269
 6801SOL    HW221303   1.826   2.284   2.229
 6802SOL     OW21304   2.212   6.169   1.909
 6802SOL    HW121305   2.217   6.069   1.901
 6802SOL    HW221306   2.128   6.195   1.956
 6803SOL     OW21307   5.274   1.965   6.985
 6803SOL    HW121308   5.190   1.995   6.939
 6803SOL    HW221309   5.321   2.045   7.021
 6804SOL     OW21310   1.493   5.893   3.620
 6804SOL    HW121311   1.416   5.951   3.646
 6804SOL    HW221312   1.574   5.921   3.673
 6805SOL     OW21313   6.044   0.501   4.860
 6805SOL    HW121314   6.054   0.500   4.761
 6805SOL    HW221315   5.952   0.532   4.884
 6806SOL     OW21316   4.387   0.798   5.344
 6806SOL    HW121317   4.428   0.848   5.420
 6806SOL    HW221318   4.460   0.754   5.291
 6807SOL     OW21319   2.909   2.910   0.235
 6807SOL    HW121320   2.888   2.928   0.331
 6807SOL    HW221321   2.886   2.815   0.213
 6808SOL     OW21322   0.792   2.688   6.019
 6808SOL    HW121323   0.706   2.646   5.988
 6808SOL    HW221324   0.779   2.728   6.109
 6809SOL     OW21325   2.451   3.736   6.919
 6809SOL    HW121326   2.374   3.740   6.855
 6809SOL    HW221327   2.534   3.768   6.874
 6810SOL     OW21328   6.313   0.879   2.452
 6810SOL    HW121329   6.229   0.854   2.403
 6810SOL    HW221330   6.294   0.885   2.550
 6811SOL     OW21331   5.691   4.947   1.590
 6811SOL    HW121332   5.610   4.908   1.546
 6811SOL    HW221333   5.770   4.886   1.575
 6812SOL     OW21334   3.356   3.133   3.105
 6812SOL    HW121335   3.393   3.043   3.080
 6812SOL    HW221336   3.376   3.198   3.032
 6813SOL     OW21337   4.496   3.160   0.986
 6813SOL    HW121338   4.480   3.177   1.083
 6813SOL    HW221339   4.591   3.132   0.972
 6814SOL     OW21340   2.234   3.429   0.880
 6814SOL    HW121341   2.191   3.475   0.802
 6814SOL    HW221342   2.289   3.495   0.931
 6815SOL     OW21343   2.218   0.406   1.951
 6815SOL    HW121344   2.210   0.506   1.958
 6815SOL    HW221345   2.130   0.364   1.972
 6816SOL     OW21346   6.703   4.832   0.424
 6816SOL    HW121347   6.623   4.795   0.376
 6816SOL    HW221348   6.688   4.928   0.445
 6817SOL     OW21349   0.101   1.457   5.923
 6817SOL    HW121350   0.017   1.451   5.869
 6817SOL    HW221351   0.172   1.499   5.868
 6818SOL     OW21352   3.977   6.056   2.887
 6818SOL    HW121353   3.971   6.136   2.827
 6818SOL    HW221354   4.021   5.980   2.838
 6819SOL     OW21355   3.657   1.280   3.772
 6819SOL    HW121356   3.591   1.222   3.723
 6819SOL    HW221357   3.716   1.222   3.829
 6820SOL     OW21358   1.002   4.053   3.333
 6820SOL    HW121359   1.024   3.983   3.400
 6820SOL    HW221360   1.086   4.102   3.306
 6821SOL     OW21361   2.382   2.291   4.450
 6821SOL    HW121362   2.402   2.271   4.354
 6821SOL    HW221363   2.463   2.332   4.492
 6822SOL     OW21364   5.509   2.025   5.738
 6822SOL    HW121365   5.489   1.975   5.654
 6822SOL    HW221366   5.459   2.112   5.738
 6823SOL     OW21367   3.163   2.989   3.250
 6823SOL    HW121368   3.117   2.923   3.191
 6823SOL    HW221369   3.216   3.052   3.194
 6824SOL     OW21370   0.959   4.462   0.014
 6824SOL    HW121371   0.879   4.458   6.982
 6824SOL    HW221372   0.970   4.374   0.060
 6825SOL     OW21373   4.879   6.877   2.278
 6825SOL    HW121374   4.941   6.895   2.354
 6825SOL    HW221375   4.932   6.858   2.196
 6826SOL     OW21376   1.716   3.250   2.715
 6826SOL    HW121377   1.731   3.267   2.813
 6826SOL    HW221378   1.780   3.305   2.661
 6827SOL     OW21379   6.131   5.687   6.007
 6827SOL    HW121380   6.093   5.612   6.061
 6827SOL    HW221381   6.226   5.702   6.033
 6828SOL     OW21382   1.167   2.113   1.115
 6828SOL    HW121383   1.203   2.075   1.030
 6828SOL    HW221384   1.229   2.091   1.190
 6829SOL     OW21385   4.996   6.097   3.544
 6829SOL    HW121386   5.052   6.020   3.513
 6829SOL    HW221387   4.951   6.139   3.465
 6830SOL     OW21388   5.321   2.192   3.734
 6830SOL    HW121389   5.371   2.145   3.660
 6830SOL    HW221390   5.226   2.204   3.707
 6831SOL     OW21391   0.379   0.515   5.947
 6831SOL    HW121392   0.466   0.465   5.945
 6831SOL    HW221393   0.397   0.613   5.954
 6832SOL     OW21394   3.327   5.344   1.948
 6832SOL    HW121395   3.229   5.324   1.949
 6832SOL    HW221396   3.343   5.431   1.995
 6833SOL     OW21397   4.095   4.806   0.532
 6833SOL    HW121398   4.087   4.711   0.500
 6833SOL    HW221399   4.075   4.810   0.630
 6834SOL     OW21400   4.213   6.153   2.125
 6834SOL    HW121401   4.242   6.058   2.136
 6834SOL    HW221402   4.152   6.178   2.199
 6835SOL     OW21403   3.954   0.071   5.121
 6835SOL    HW121404   3.862   0.070   5.082
 6835SOL    HW221405   4.019   0.095   5.049
 6836SOL     OW21406   3.679   6.630   0.067
 6836SOL    HW121407   3.736   6.651   7.015
 6836SOL    HW221408   3.736   6.632   0.149
 6837SOL     OW21409   1.669   3.062   1.838
 6837SOL    HW121410   1.714   2.973   1.835
 6837SOL    HW221411   1.686   3.105   1.926
 6838SOL     OW21412   2.663   1.098   0.502
 6838SOL    HW121413   2.673   0.998   0.503
 6838SOL    HW221414   2.648   1.131   0.596
 6839SOL     OW21415   4.267   1.376   0.787
 6839SOL    HW121416   4.211   1.378   0.870
 6839SOL    HW221417   4.232   1.444   0.722
 6840SOL     OW21418   1.232   1.410   5.986
 6840SOL    HW121419   1.295   1.335   5.962
 6840SOL    HW221420   1.231   1.422   6.085
 6841SOL     OW21421   6.300   2.913   6.353
 6841SOL    HW121422   6.384   2.869   6.387
 6841SOL    HW221423   6.282   2.995   6.409
 6842SOL     OW21424   2.285   4.776   3.047
 6842SOL    HW121425   2.307   4.694   2.993
 6842SOL    HW221426   2.306   4.760   3.143
 6843SOL     OW21427   4.748   6.701   6.749
 6843SOL    HW121428   4.838   6.662   6.771
 6843SOL    HW221429   4.752   6.800   6.756
 6844SOL     OW21430   5.373   0.692   5.562
 6844SOL    HW121431   5.460   0.717   5.521
 6844SOL    HW221432   5.299   0.737   5.512
 6845SOL     OW21433   5.179   1.705   2.113
 6845SOL    HW121434   5.230   1.788   2.134
 6845SOL    HW221435   5.234   1.645   2.055
 6846SOL     OW21436   2.394   3.770   0.291
 6846SOL    HW121437   2.372   3.806   0.382
 6846SOL    HW221438   2.310   3.767   0.236
 6847SOL     OW21439   6.181   3.904   3.969
 6847SOL    HW121440   6.124   3.831   4.007
 6847SOL    HW221441   6.278   3.881   3.980
 6848SOL     OW21442   5.889   5.291   3.229
 6848SOL    HW121443   5.821   5.218   3.228
 6848SOL    HW221444   5.981   5.251   3.235
 6849SOL     OW21445   3.750   4.428   6.676
 6849SOL    HW121446   3.728   4.505   6.736
 6849SOL    HW221447   3.739   4.456   6.581
 6850SOL     OW21448   3.874   1.707   3.372
 6850SOL    HW121449   3.927   1.631   3.409
 6850SOL    HW221450   3.778   1.681   3.367
 6851SOL     OW21451   1.797   3.082   3.726
 6851SOL    HW121452   1.863   3.157   3.723
 6851SOL    HW221453   1.832   3.005   3.673
 6852SOL     OW21454   2.731   5.210   0.184
 6852SOL    HW121455   2.730   5.294   0.239
 6852SOL    HW221456   2.670   5.221   0.105
 6853SOL     OW21457   4.865   3.314   6.927
 6853SOL    HW121458   4.767   3.330   6.942
 6853SOL    HW221459   4.917   3.357   7.000
 6854SOL     OW21460   5.405   6.485   6.065
 6854SOL    HW121461   5.432   6.449   6.154
 6854SOL    HW221462   5.346   6.565   6.078
 6855SOL     OW21463   3.795   5.544   4.005
 6855SOL    HW121464   3.768   5.519   4.098
 6855SOL    HW221465   3.885   5.589   4.008
 6856SOL     OW21466   1.061   1.688   6.803
 6856SOL    HW121467   1.095   1.594   6.807
 6856SOL    HW221468   0.971   1.693   6.845
 6857SOL     OW21469   0.807   3.983   5.572
 6857SOL    HW121470   0.711   3.958   5.588
 6857SOL    HW221471   0.816   4.023   5.481
 6858SOL     OW21472   2.490   3.976   1.714
 6858SOL    HW121473   2.438   4.059   1.733
 6858SOL    HW221474   2.582   4.001   1.682
 6859SOL     OW21475   0.839   1.253   2.761
 6859SOL    HW121476   0.867   1.158   2.779
 6859SOL    HW221477   0.753   1.253   2.711
 6860SOL     OW21478   0.822   6.662   2.360
 6860SOL    HW121479   0.752   6.608   2.407
 6860SOL    HW221480   0.852   6.613   2.278
 6861SOL     OW21481   5.344   2.718   5.012
 6861SOL    HW121482   5.300   2.631   5.036
 6861SOL    HW221483   5.364   2.719   4.914
 6862SOL     OW21484   0.713   4.338   5.396
 6862SOL    HW121485   0.755   4.275   5.330
 6862SOL    HW221486   0.715   4.431   5.359
 6863SOL     OW21487   6.344   6.970   5.856
 6863SOL    HW121488   6.398   7.019   5.925
 6863SOL    HW221489   6.302   6.889   5.898
 6864SOL     OW21490   1.111   3.863   6.373
 6864SOL    HW121491   1.057   3.805   6.312
 6864SOL    HW221492   1.197   3.818   6.395
 6865SOL     OW21493   2.312   0.000   4.233
 6865SOL    HW121494   2.379   0.064   4.272
 6865SOL    HW221495   2.234   0.052   4.198
 6866SOL     OW21496   0.830   4.400   1.330
 6866SOL    HW121497   0.756   4.455   1.367
 6866SOL    HW221498   0.917   4.445   1.347
 6867SOL     OW21499   1.997   3.816   6.940
 6867SOL    HW121500   1.961   3.893   6.888
 6867SOL    HW221501   1.961   3.819   0.005
 6868SOL     OW21502   2.579   5.060   4.372
 6868SOL    HW121503   2.579   5.041   4.470
 6868SOL    HW221504   2.518   4.996   4.325
 6869SOL     OW21505   3.467   0.693   5.942
 6869SOL    HW121506   3.421   0.692   6.031
 6869SOL    HW221507   3.541   0.626   5.941
 6870SOL     OW21508   6.371   2.351   0.830
 6870SOL    HW121509   6.351   2.445   0.803
 6870SOL    HW221510   6.457   2.322   0.788
 6871SOL     OW21511   0.776   4.040   2.542
 6871SOL    HW121512   0.853   4.005   2.596
 6871SOL    HW221513   0.756   3.975   2.468
 6872SOL     OW21514   2.076   3.521   0.675
 6872SOL    HW121515   2.028   3.433   0.673
 6872SOL    HW221516   2.085   3.556   0.582
 6873SOL     OW21517   0.879   4.151   4.001
 6873SOL    HW121518   0.964   4.099   3.993
 6873SOL    HW221519   0.872   4.187   4.094
 6874SOL     OW21520   5.429   6.486   3.338
 6874SOL    HW121521   5.345   6.458   3.293
 6874SOL    HW221522   5.417   6.480   3.437
 6875SOL     OW21523   1.486   2.301   0.491
 6875SOL    HW121524   1.501   2.202   0.491
 6875SOL    HW221525   1.413   2.323   0.426
 6876SOL     OW21526   4.719   5.490   3.450
 6876SOL    HW121527   4.629   5.449   3.465
 6876SOL    HW221528   4.721   5.535   3.361
 6877SOL     OW21529   1.695   3.752   2.383
 6877SOL    HW121530   1.675   3.663   2.343
 6877SOL    HW221531   1.638   3.765   2.465
 6878SOL     OW21532   1.910   0.438   4.605
 6878SOL    HW121533   1.844   0.450   4.678
 6878SOL    HW221534   1.900   0.346   4.566
 6879SOL     OW21535   1.890   2.068   0.370
 6879SOL    HW121536   1.839   2.151   0.391
 6879SOL    HW221537   1.869   1.999   0.440
 6880SOL     OW21538   1.397   5.423   6.634
 6880SOL    HW121539   1.369   5.508   6.679
 6880SOL    HW221540   1.317   5.383   6.588
 6881SOL     OW21541   1.312   2.922   0.482
 6881SOL    HW121542   1.286   3.000   0.538
 6881SOL    HW221543   1.405   2.936   0.446
 6882SOL     OW21544   2.705   6.630   6.259
 6882SOL    HW121545   2.613   6.618   6.221
 6882SOL    HW221546   2.701   6.622   6.358
 6883SOL     OW21547   5.152   0.313   6.897
 6883SOL    HW121548   5.111   0.224   6.919
 6883SOL    HW221549   5.220   0.300   6.825
 6884SOL     OW21550   1.978   4.089   2.947
 6884SOL    HW121551   1.929   4.029   2.884
 6884SOL    HW221552   2.076   4.086   2.927
 6885SOL     OW21553   5.402   5.255   4.963
 6885SOL    HW121554   5.406   5.180   4.897
 6885SOL    HW221555   5.331   5.320   4.936
 6886SOL     OW21556   4.934   1.726   6.579
 6886SOL    HW121557   4.974   1.722   6.670
 6886SOL    HW221558   4.850   1.781   6.581
 6887SOL     OW21559   5.678   5.895   6.131
 6887SOL    HW121560   5.629   5.964   6.185
 6887SOL    HW221561   5.621   5.869   6.053
 6888SOL     OW21562   6.095   4.982   6.597
 6888SOL    HW121563   6.131   5.007   6.687
 6888SOL    HW221564   5.997   5.004   6.593
 6889SOL     OW21565   0.600   2.329   6.696
 6889SOL    HW121566   0.536   2.316   6.620
 6889SOL    HW221567   0.677   2.266   6.685
 6890SOL     OW21568   4.430   4.875   3.166
 6890SOL    HW121569   4.371   4.927   3.105
 6890SOL    HW221570   4.400   4.779   3.166
 6891SOL     OW21571   1.657   1.071   0.839
 6891SOL    HW121572   1.685   1.165   0.855
 6891SOL    HW221573   1.679   1.015   0.918
 6892SOL     OW21574   2.828   1.030   4.415
 6892SOL    HW121575   2.891   0.964   4.373
 6892SOL    HW221576   2.856   1.046   4.509
 6893SOL     OW21577   6.275   3.338   0.319
 6893SOL    HW121578   6.352   3.385   0.275
 6893SOL    HW221579   6.291   3.240   0.318
 6894SOL     OW21580   5.712   5.388   0.678
 6894SOL    HW121581   5.655   5.440   0.741
 6894SOL    HW221582   5.740   5.302   0.721
 6895SOL     OW21583   0.509   6.769   1.458
 6895SOL    HW121584   0.424   6.741   1.413
 6895SOL    HW221585   0.488   6.829   1.535
 6896SOL     OW21586   4.232   2.280   4.487
 6896SOL    HW121587   4.137   2.259   4.511
 6896SOL    HW221588   4.251   2.247   4.395
 6897SOL     OW21589   4.905   3.410   5.273
 6897SOL    HW121590   4.994   3.454   5.285
 6897SOL    HW221591   4.859   3.447   5.193
 6898SOL     OW21592   2.413   1.160   1.597
 6898SOL    HW121593   2.325   1.121   1.626
 6898SOL    HW221594   2.436   1.125   1.506
 6899SOL     OW21595   6.119   6.110   2.643
 6899SOL    HW121596   6.212   6.124   2.677
 6899SOL    HW221597   6.119   6.107   2.544
 6900SOL     OW21598   6.261   4.008   5.477
 6900SOL    HW121599   6.354   4.037   5.453
 6900SOL    HW221600   6.253   3.909   5.465
 6901SOL     OW21601   4.886   4.411   6.977
 6901SOL    HW121602   4.962   4.468   6.947
 6901SOL    HW221603   4.801   4.463   6.971
 6902SOL     OW21604   0.776   5.941   5.795
 6902SOL    HW121605   0.870   5.954   5.766
 6902SOL    HW221606   0.759   5.844   5.815
 6903SOL     OW21607   1.757   5.674   4.630
 6903SOL    HW121608   1.674   5.620   4.642
 6903SOL    HW221609   1.777   5.724   4.715
 6904SOL     OW21610   6.218   6.615   5.346
 6904SOL    HW121611   6.283   6.585   5.276
 6904SOL    HW221612   6.132   6.565   5.336
 6905SOL     OW21613   4.764   5.942   5.933
 6905SOL    HW121614   4.772   5.885   6.015
 6905SOL    HW221615   4.678   5.994   5.937
 6906SOL     OW21616   3.442   1.740   3.563
 6906SOL    HW121617   3.385   1.696   3.633
 6906SOL    HW221618   3.491   1.817   3.605
 6907SOL     OW21619   5.743   2.476   0.556
 6907SOL    HW121620   5.755   2.425   0.471
 6907SOL    HW221621   5.704   2.415   0.626
 6908SOL     OW21622   2.743   4.589   7.017
 6908SOL    HW121623   2.672   4.542   0.041
 6908SOL    HW221624   2.707   4.674   6.979
 6909SOL     OW21625   5.735   5.778   2.207
 6909SOL    HW121626   5.807   5.752   2.271
 6909SOL    HW221627   5.667   5.704   2.201
 6910SOL     OW21628   0.983   2.891   3.003
 6910SOL    HW121629   0.948   2.882   2.910
 6910SOL    HW221630   1.056   2.960   3.005
 6911SOL     OW21631   2.222   6.741   5.805
 6911SOL    HW121632   2.259   6.721   5.714
 6911SOL    HW221633   2.181   6.832   5.805
 6912SOL     OW21634   2.701   3.570   7.024
 6912SOL    HW121635   2.772   3.640   0.007
 6912SOL    HW221636   2.642   3.595   6.947
 6913SOL     OW21637   4.992   6.523   5.935
 6913SOL    HW121638   5.091   6.517   5.946
 6913SOL    HW221639   4.957   6.599   5.990
 6914SOL     OW21640   6.833   2.791   2.483
 6914SOL    HW121641   6.764   2.782   2.555
 6914SOL    HW221642   6.787   2.799   2.394
 6915SOL     OW21643   0.870   2.831   2.757
 6915SOL    HW121644   0.786   2.778   2.744
 6915SOL    HW221645   0.924   2.829   2.672
 6916SOL     OW21646   5.058   6.116   0.063
 6916SOL    HW121647   5.080   6.160   7.005
 6916SOL    HW221648   5.134   6.059   0.092
 6917SOL     OW21649   5.100   5.500   1.299
 6917SOL    HW121650   5.052   5.587   1.290
 6917SOL    HW221651   5.123   5.465   1.208
 6918SOL     OW21652   2.143   3.594   1.545
 6918SOL    HW121653   2.055   3.641   1.542
 6918SOL    HW221654   2.183   3.604   1.636
 6919SOL     OW21655   6.518   6.359   3.737
 6919SOL    HW121656   6.469   6.444   3.752
 6919SOL    HW221657   6.490   6.318   3.651
 6920SOL     OW21658   6.003   0.491   5.859
 6920SOL    HW121659   6.036   0.398   5.845
 6920SOL    HW221660   6.076   0.556   5.837
 6921SOL     OW21661   3.972   0.473   4.310
 6921SOL    HW121662   4.027   0.390   4.318
 6921SOL    HW221663   3.909   0.464   4.234
 6922SOL     OW21664   1.521   4.770   5.956
 6922SOL    HW121665   1.431   4.726   5.955
 6922SOL    HW221666   1.527   4.833   5.878
 6923SOL     OW21667   6.247   6.724   2.725
 6923SOL    HW121668   6.278   6.718   2.820
 6923SOL    HW221669   6.191   6.806   2.714
 6924SOL     OW21670   3.204   6.098   1.202
 6924SOL    HW121671   3.247   6.173   1.151
 6924SOL    HW221672   3.110   6.086   1.171
 6925SOL     OW21673   5.644   6.187   5.842
 6925SOL    HW121674   5.713   6.182   5.770
 6925SOL    HW221675   5.555   6.159   5.806
 6926SOL     OW21676   2.696   2.106   0.193
 6926SOL    HW121677   2.622   2.172   0.207
 6926SOL    HW221678   2.693   2.037   0.265
 6927SOL     OW21679   4.776   0.599   0.856
 6927SOL    HW121680   4.687   0.604   0.811
 6927SOL    HW221681   4.838   0.545   0.799
 6928SOL     OW21682   4.713   5.080   1.049
 6928SOL    HW121683   4.759   5.118   1.130
 6928SOL    HW221684   4.623   5.123   1.040
 6929SOL     OW21685   6.335   5.411   1.359
 6929SOL    HW121686   6.424   5.367   1.345
 6929SOL    HW221687   6.284   5.412   1.273
 6930SOL     OW21688   1.515   0.143   1.238
 6930SOL    HW121689   1.592   0.147   1.174
 6930SOL    HW221690   1.432   0.120   1.187
 6931SOL     OW21691   2.939   3.115   0.882
 6931SOL    HW121692   2.942   3.214   0.874
 6931SOL    HW221693   2.947   3.090   0.979
 6932SOL     OW21694   4.869   5.853   0.210
 6932SOL    HW121695   4.866   5.754   0.196
 6932SOL    HW221696   4.962   5.880   0.237
 6933SOL     OW21697   3.483   5.755   6.374
 6933SOL    HW121698   3.522   5.759   6.465
 6933SOL    HW221699   3.407   5.820   6.368
 6934SOL     OW21700   4.856   3.770   0.102
 6934SOL    HW121701   4.924   3.705   0.135
 6934SOL    HW221702   4.796   3.796   0.177
 6935SOL     OW21703   4.783   5.948   1.409
 6935SOL    HW121704   4.759   6.008   1.485
 6935SOL    HW221705   4.724   5.967   1.330
 6936SOL     OW21706   0.753   2.283   5.186
 6936SOL    HW121707   0.762   2.351   5.113
 6936SOL    HW221708   0.843   2.247   5.209
 6937SOL     OW21709   5.401   5.825   6.938
 6937SOL    HW121710   5.313   5.798   6.979
 6937SOL    HW221711   5.394   5.821   6.839
 6938SOL     OW21712   1.294   0.457   4.829
 6938SOL    HW121713   1.289   0.394   4.752
 6938SOL    HW221714   1.367   0.523   4.814
 6939SOL     OW21715   6.089   4.057   3.382
 6939SOL    HW121716   6.065   4.084   3.475
 6939SOL    HW221717   6.019   4.090   3.318
 6940SOL     OW21718   3.345   5.758   0.530
 6940SOL    HW121719   3.369   5.834   0.471
 6940SOL    HW221720   3.272   5.704   0.487
 6941SOL     OW21721   3.440   3.787   2.816
 6941SOL    HW121722   3.529   3.772   2.774
 6941SOL    HW221723   3.395   3.865   2.773
 6942SOL     OW21724   6.305   6.657   1.731
 6942SOL    HW121725   6.304   6.731   1.664
 6942SOL    HW221726   6.364   6.681   1.807
 6943SOL     OW21727   4.773   4.833   6.538
 6943SOL    HW121728   4.745   4.928   6.556
 6943SOL    HW221729   4.813   4.827   6.447
 6944SOL     OW21730   1.225   4.307   5.254
 6944SOL    HW121731   1.277   4.250   5.318
 6944SOL    HW221732   1.157   4.250   5.207
 6945SOL     OW21733   5.693   2.018   0.836
 6945SOL    HW121734   5.689   1.925   0.801
 6945SOL    HW221735   5.705   2.016   0.935
 6946SOL     OW21736   4.234   5.207   3.291
 6946SOL    HW121737   4.327   5.242   3.280
 6946SOL    HW221738   4.172   5.256   3.230
 6947SOL     OW21739   5.526   4.585   5.039
 6947SOL    HW121740   5.463   4.577   4.961
 6947SOL    HW221741   5.472   4.594   5.123
 6948SOL     OW21742   0.049   4.637   0.243
 6948SOL    HW121743   0.090   4.609   0.156
 6948SOL    HW221744   7.009   4.570   0.271
 6949SOL     OW21745   2.503   1.453   3.729
 6949SOL    HW121746   2.469   1.432   3.638
 6949SOL    HW221747   2.598   1.422   3.737
 6950SOL     OW21748   0.341   0.400   4.307
 6950SOL    HW121749   0.395   0.484   4.301
 6950SOL    HW221750   0.332   0.373   4.403
 6951SOL     OW21751   0.200   4.830   6.476
 6951SOL    HW121752   0.290   4.805   6.511
 6951SOL    HW221753   0.208   4.908   6.414
 6952SOL     OW21754   4.338   5.721   3.436
 6952SOL    HW121755   4.316   5.713   3.339
 6952SOL    HW221756   4.312   5.637   3.483
 6953SOL     OW21757   5.534   1.245   1.060
 6953SOL    HW121758   5.557   1.173   1.125
 6953SOL    HW221759   5.476   1.313   1.104
 6954SOL     OW21760   5.994   4.003   7.028
 6954SOL    HW121761   6.050   4.052   0.067
 6954SOL    HW221762   5.980   3.909   0.030
 6955SOL     OW21763   4.658   6.711   2.324
 6955SOL    HW121764   4.639   6.648   2.249
 6955SOL    HW221765   4.741   6.764   2.303
 6956SOL     OW21766   5.723   5.487   2.397
 6956SOL    HW121767   5.771   5.574   2.410
 6956SOL    HW221768   5.691   5.480   2.303
 6957SOL     OW21769   5.511   5.708   5.867
 6957SOL    HW121770   5.476   5.799   5.890
 6957SOL    HW221771   5.611   5.708   5.872
 6958SOL     OW21772   2.922   3.647   3.629
 6958SOL    HW121773   2.911   3.678   3.724
 6958SOL    HW221774   2.933   3.548   3.627
 6959SOL     OW21775   0.689   4.128   3.001
 6959SOL    HW121776   0.714   4.172   3.087
 6959SOL    HW221777   0.755   4.056   2.981
 6960SOL     OW21778   3.336   4.352   0.477
 6960SOL    HW121779   3.317   4.441   0.519
 6960SOL    HW221780   3.366   4.287   0.547
 6961SOL     OW21781   5.027   2.239   4.925
 6961SOL    HW121782   5.020   2.323   4.872
 6961SOL    HW221783   4.983   2.164   4.875
 6962SOL     OW21784   2.143   6.505   6.439
 6962SOL    HW121785   2.202   6.467   6.368
 6962SOL    HW221786   2.107   6.593   6.410
 6963SOL     OW21787   5.354   6.419   1.155
 6963SOL    HW121788   5.438   6.403   1.103
 6963SOL    HW221789   5.309   6.501   1.120
 6964SOL     OW21790   1.300   0.348   5.120
 6964SOL    HW121791   1.208   0.360   5.156
 6964SOL    HW221792   1.301   0.274   5.053
 6965SOL     OW21793   0.527   1.508   0.181
 6965SOL    HW121794   0.499   1.455   0.261
 6965SOL    HW221795   0.621   1.541   0.193
 6966SOL     OW21796   1.330   6.664   1.388
 6966SOL    HW121797   1.420   6.694   1.356
 6966SOL    HW221798   1.340   6.620   1.478
 6967SOL     OW21799   4.346   1.554   6.418
 6967SOL    HW121800   4.322   1.567   6.514
 6967SOL    HW221801   4.356   1.642   6.373
 6968SOL     OW21802   3.866   6.494   2.855
 6968SOL    HW121803   3.880   6.575   2.798
 6968SOL    HW221804   3.773   6.495   2.893
 6969SOL     OW21805   2.072   1.883   1.678
 6969SOL    HW121806   2.137   1.853   1.608
 6969SOL    HW221807   2.112   1.957   1.732
 6970SOL     OW21808   3.887   5.581   5.468
 6970SOL    HW121809   3.812   5.560   5.405
 6970SOL    HW221810   3.856   5.650   5.534
 6971SOL     OW21811   6.856   4.446   0.212
 6971SOL    HW121812   6.871   4.359   0.258
 6971SOL    HW221813   6.765   4.446   0.171
 6972SOL     OW21814   5.344   3.687   2.210
 6972SOL    HW121815   5.315   3.603   2.164
 6972SOL    HW221816   5.268   3.752   2.212
 6973SOL     OW21817   1.484   3.050   2.988
 6973SOL    HW121818   1.384   3.040   2.985
 6973SOL    HW221819   1.520   3.002   3.068
 6974SOL     OW21820   3.778   3.729   3.070
 6974SOL    HW121821   3.866   3.773   3.091
 6974SOL    HW221822   3.792   3.630   3.063
 6975SOL     OW21823   2.854   5.129   4.441
 6975SOL    HW121824   2.838   5.114   4.343
 6975SOL    HW221825   2.777   5.176   4.481
 6976SOL     OW21826   4.411   4.040   6.199
 6976SOL    HW121827   4.480   4.021   6.269
 6976SOL    HW221828   4.410   3.966   6.132
 6977SOL     OW21829   4.220   4.993   1.021
 6977SOL    HW121830   4.156   5.030   1.088
 6977SOL    HW221831   4.272   4.918   1.063
 6978SOL     OW21832   6.651   3.705   1.793
 6978SOL    HW121833   6.692   3.777   1.850
 6978SOL    HW221834   6.557   3.730   1.770
 6979SOL     OW21835   1.527   3.071   1.606
 6979SOL    HW121836   1.566   3.071   1.699
 6979SOL    HW221837   1.592   3.114   1.543
 6980SOL     OW21838   1.432   5.611   2.497
 6980SOL    HW121839   1.340   5.577   2.484
 6980SOL    HW221840   1.435   5.668   2.580
 6981SOL     OW21841   3.894   3.030   6.859
 6981SOL    HW121842   3.895   3.096   6.784
 6981SOL    HW221843   3.815   3.049   6.918
 6982SOL     OW21844   1.500   0.916   2.981
 6982SOL    HW121845   1.446   0.981   3.035
 6982SOL    HW221846   1.485   0.934   2.884
 6983SOL     OW21847   4.732   0.766   4.143
 6983SOL    HW121848   4.657   0.704   4.164
 6983SOL    HW221849   4.754   0.821   4.224
 6984SOL     OW21850   0.880   2.413   3.264
 6984SOL    HW121851   0.957   2.422   3.200
 6984SOL    HW221852   0.911   2.436   3.356
 6985SOL     OW21853   5.948   3.716   0.078
 6985SOL    HW121854   5.868   3.703   0.136
 6985SOL    HW221855   6.003   3.632   0.078
 6986SOL     OW21856   4.857   4.672   5.413
 6986SOL    HW121857   4.955   4.652   5.419
 6986SOL    HW221858   4.808   4.620   5.483
 6987SOL     OW21859   0.489   1.387   6.394
 6987SOL    HW121860   0.397   1.377   6.354
 6987SOL    HW221861   0.513   1.305   6.445
 6988SOL     OW21862   3.433   1.518   6.413
 6988SOL    HW121863   3.494   1.522   6.492
 6988SOL    HW221864   3.348   1.566   6.434
 6989SOL     OW21865   0.603   5.401   2.071
 6989SOL    HW121866   0.695   5.379   2.037
 6989SOL    HW221867   0.608   5.426   2.168
 6990SOL     OW21868   4.122   3.083   1.127
 6990SOL    HW121869   4.028   3.087   1.161
 6990SOL    HW221870   4.170   3.008   1.173
 6991SOL     OW21871   6.776   3.298   2.366
 6991SOL    HW121872   6.700   3.243   2.401
 6991SOL    HW221873   6.857   3.282   2.423
 6992SOL     OW21874   1.146   6.086   0.321
 6992SOL    HW121875   1.186   6.011   0.268
 6992SOL    HW221876   1.176   6.173   0.284
 6993SOL     OW21877   4.956   1.595   0.899
 6993SOL    HW121878   4.887   1.668   0.902
 6993SOL    HW221879   4.919   1.517   0.848
 6994SOL     OW21880   2.481   0.593   3.363
 6994SOL    HW121881   2.551   0.576   3.293
 6994SOL    HW221882   2.470   0.692   3.376
 6995SOL     OW21883   0.359   3.804   1.620
 6995SOL    HW121884   0.262   3.829   1.625
 6995SOL    HW221885   0.371   3.712   1.656
 6996SOL     OW21886   1.398   0.834   6.910
 6996SOL    HW121887   1.347   0.755   6.947
 6996SOL    HW221888   1.486   0.803   6.876
 6997SOL     OW21889   5.633   5.340   6.375
 6997SOL    HW121890   5.557   5.377   6.321
 6997SOL    HW221891   5.704   5.305   6.314
 6998SOL     OW21892   6.118   1.405   7.008
 6998SOL    HW121893   6.201   1.373   6.964
 6998SOL    HW221894   6.126   1.503   7.027
 6999SOL     OW21895   0.261   3.030   0.143
 6999SOL    HW121896   0.346   2.995   0.104
 6999SOL    HW221897   0.194   3.045   0.071
 7000SOL     OW21898   6.841   6.347   3.702
 7000SOL    HW121899   6.840   6.267   3.642
 7000SOL    HW221900   6.747   6.372   3.725
 7001SOL     OW21901   0.538   2.229   4.611
 7001SOL    HW121902   0.507   2.304   4.552
 7001SOL    HW221903   0.634   2.244   4.635
 7002SOL     OW21904   0.573   5.148   2.815
 7002SOL    HW121905   0.668   5.149   2.848
 7002SOL    HW221906   0.573   5.145   2.715
 7003SOL     OW21907   6.858   4.029   0.549
 7003SOL    HW121908   6.883   3.953   0.608
 7003SOL    HW221909   6.798   4.092   0.600
 7004SOL     OW21910   1.688   6.569   0.865
 7004SOL    HW121911   1.754   6.574   0.790
 7004SOL    HW221912   1.608   6.517   0.836
 7005SOL     OW21913   0.650   6.071   1.154
 7005SOL    HW121914   0.712   6.094   1.229
 7005SOL    HW221915   0.697   6.012   1.089
 7006SOL     OW21916   1.558   0.065   4.368
 7006SOL    HW121917   1.538   0.039   4.274
 7006SOL    HW221918   1.613   7.022   4.411
 7007SOL     OW21919   2.250   0.585   5.895
 7007SOL    HW121920   2.251   0.658   5.964
 7007SOL    HW221921   2.280   0.500   5.938
 7008SOL     OW21922   5.582   3.801   2.901
 7008SOL    HW121923   5.626   3.741   2.834
 7008SOL    HW221924   5.501   3.755   2.937
 7009SOL     OW21925   4.549   5.747   2.112
 7009SOL    HW121926   4.624   5.809   2.137
 7009SOL    HW221927   4.550   5.731   2.014
 7010SOL     OW21928   5.148   3.547   1.733
 7010SOL    HW121929   5.114   3.518   1.644
 7010SOL    HW221930   5.231   3.601   1.721
 7011SOL     OW21931   3.329   6.025   0.029
 7011SOL    HW121932   3.410   6.050   7.004
 7011SOL    HW221933   3.296   6.104   0.080
 7012SOL     OW21934   6.767   2.542   0.535
 7012SOL    HW121935   6.686   2.489   0.558
 7012SOL    HW221936   6.813   2.500   0.457
 7013SOL     OW21937   2.773   1.800   0.277
 7013SOL    HW121938   2.842   1.872   0.283
 7013SOL    HW221939   2.738   1.779   0.368
 7014SOL     OW21940   6.198   2.980   1.242
 7014SOL    HW121941   6.276   2.925   1.271
 7014SOL    HW221942   6.160   3.028   1.321
 7015SOL     OW21943   5.199   6.110   0.760
 7015SOL    HW121944   5.253   6.155   0.689
 7015SOL    HW221945   5.261   6.065   0.825
 7016SOL     OW21946   3.022   5.092   0.879
 7016SOL    HW121947   2.925   5.094   0.855
 7016SOL    HW221948   3.058   5.185   0.875
 7017SOL     OW21949   5.924   5.107   4.989
 7017SOL    HW121950   5.859   5.152   5.051
 7017SOL    HW221951   6.010   5.158   4.988
 7018SOL     OW21952   5.332   3.203   4.257
 7018SOL    HW121953   5.336   3.115   4.304
 7018SOL    HW221954   5.326   3.277   4.323
 7019SOL     OW21955   4.443   5.586   2.327
 7019SOL    HW121956   4.465   5.634   2.242
 7019SOL    HW221957   4.434   5.651   2.401
 7020SOL     OW21958   0.742   3.003   6.554
 7020SOL    HW121959   0.834   2.991   6.591
 7020SOL    HW221960   0.744   3.073   6.483
 7021SOL     OW21961   0.983   2.154   5.201
 7021SOL    HW121962   0.945   2.068   5.167
 7021SOL    HW221963   1.065   2.177   5.148
 7022SOL     OW21964   2.845   2.133   0.585
 7022SOL    HW121965   2.846   2.232   0.599
 7022SOL    HW221966   2.869   2.087   0.671
 7023SOL     OW21967   0.719   2.248   0.704
 7023SOL    HW121968   0.814   2.238   0.734
 7023SOL    HW221969   0.659   2.196   0.765
 7024SOL     OW21970   3.915   2.991   4.617
 7024SOL    HW121971   3.852   2.965   4.690
 7024SOL    HW221972   3.965   3.073   4.644
 7025SOL     OW21973   3.955   6.681   0.789
 7025SOL    HW121974   4.001   6.725   0.866
 7025SOL    HW221975   3.956   6.742   0.710
 7026SOL     OW21976   3.493   2.378   1.338
 7026SOL    HW121977   3.434   2.316   1.390
 7026SOL    HW221978   3.571   2.404   1.394
 7027SOL     OW21979   2.395   5.344   2.919
 7027SOL    HW121980   2.360   5.252   2.901
 7027SOL    HW221981   2.369   5.372   3.012
 7028SOL     OW21982   2.929   0.312   3.407
 7028SOL    HW121983   2.839   0.345   3.435
 7028SOL    HW221984   2.924   0.280   3.312
 7029SOL     OW21985   3.281   3.621   4.276
 7029SOL    HW121986   3.264   3.640   4.180
 7029SOL    HW221987   3.336   3.694   4.316
 7030SOL     OW21988   6.568   1.166   5.157
 7030SOL    HW121989   6.582   1.127   5.066
 7030SOL    HW221990   6.520   1.099   5.214
 7031SOL     OW21991   4.482   6.722   0.534
 7031SOL    HW121992   4.542   6.677   0.468
 7031SOL    HW221993   4.518   6.812   0.557
 7032SOL     OW21994   4.123   6.061   4.523
 7032SOL    HW121995   4.151   6.040   4.617
 7032SOL    HW221996   4.194   6.117   4.479
 7033SOL     OW21997   1.641   1.905   4.988
 7033SOL    HW121998   1.736   1.916   4.957
 7033SOL    HW221999   1.588   1.986   4.961
 7034SOL     OW22000   6.945   0.648   3.931
 7034SOL    HW122001   6.859   0.634   3.880
 7034SOL    HW222002   6.944   0.591   4.013
 7035SOL     OW22003   1.881   0.806   0.138
 7035SOL    HW122004   1.805   0.749   0.169
 7035SOL    HW222005   1.863   0.902   0.162
 7036SOL     OW22006   6.590   1.269   2.608
 7036SOL    HW122007   6.567   1.172   2.594
 7036SOL    HW222008   6.632   1.305   2.525
 7037SOL     OW22009   0.987   0.708   6.045
 7037SOL    HW122010   1.038   0.644   6.102
 7037SOL    HW222011   1.051   0.765   5.994
 7038SOL     OW22012   1.760   3.839   6.672
 7038SOL    HW122013   1.806   3.752   6.692
 7038SOL    HW222014   1.824   3.914   6.686
 7039SOL     OW22015   0.790   6.201   2.462
 7039SOL    HW122016   0.801   6.102   2.473
 7039SOL    HW222017   0.703   6.229   2.501
 7040SOL     OW22018   4.866   3.242   4.561
 7040SOL    HW122019   4.814   3.158   4.581
 7040SOL    HW222020   4.883   3.291   4.647
 7041SOL     OW22021   1.800   0.041   4.061
 7041SOL    HW122022   1.705   0.009   4.054
 7041SOL    HW222023   1.860   6.991   4.077
 7042SOL     OW22024   4.837   6.281   5.437
 7042SOL    HW122025   4.747   6.280   5.481
 7042SOL    HW222026   4.906   6.248   5.502
 7043SOL     OW22027   2.527   5.190   1.258
 7043SOL    HW122028   2.603   5.193   1.192
 7043SOL    HW222029   2.522   5.100   1.299
 7044SOL     OW22030   5.032   6.343   4.985
 7044SOL    HW122031   4.948   6.365   5.035
 7044SOL    HW222032   5.009   6.286   4.906
 7045SOL     OW22033   6.612   6.274   2.250
 7045SOL    HW122034   6.653   6.361   2.221
 7045SOL    HW222035   6.523   6.263   2.204
 7046SOL     OW22036   2.938   2.287   4.328
 7046SOL    HW122037   2.863   2.261   4.389
 7046SOL    HW222038   3.023   2.244   4.360
 7047SOL     OW22039   1.236   5.984   1.099
 7047SOL    HW122040   1.256   6.027   1.011
 7047SOL    HW222041   1.260   6.047   1.173
 7048SOL     OW22042   6.862   6.244   5.035
 7048SOL    HW122043   6.793   6.239   4.962
 7048SOL    HW222044   6.868   6.156   5.082
 7049SOL     OW22045   3.551   0.920   2.742
 7049SOL    HW122046   3.530   0.944   2.837
 7049SOL    HW222047   3.465   0.904   2.692
 7050SOL     OW22048   4.373   3.758   0.952
 7050SOL    HW122049   4.433   3.792   1.024
 7050SOL    HW222050   4.362   3.659   0.961
 7051SOL     OW22051   0.673   0.807   2.062
 7051SOL    HW122052   0.646   0.869   1.989
 7051SOL    HW222053   0.604   0.808   2.134
 7052SOL     OW22054   5.073   7.026   2.708
 7052SOL    HW122055   4.979   0.027   2.726
 7052SOL    HW222056   5.081   6.928   2.729
 7053SOL     OW22057   2.043   3.486   3.128
 7053SOL    HW122058   2.045   3.557   3.199
 7053SOL    HW222059   2.087   3.521   3.045
 7054SOL     OW22060   6.538   0.957   0.162
 7054SOL    HW122061   6.500   0.983   0.250
 7054SOL    HW222062   6.589   0.871   0.171
 7055SOL     OW22063   2.769   1.220   0.234
 7055SOL    HW122064   2.753   1.160   0.312
 7055SOL    HW222065   2.799   1.310   0.267
 7056SOL     OW22066   0.360   5.457   1.498
 7056SOL    HW122067   0.358   5.522   1.574
 7056SOL    HW222068   0.276   5.403   1.499
 7057SOL     OW22069   2.902   4.867   4.518
 7057SOL    HW122070   2.864   4.817   4.440
 7057SOL    HW222071   2.905   4.964   4.497
 7058SOL     OW22072   5.468   2.936   6.064
 7058SOL    HW122073   5.502   2.845   6.042
 7058SOL    HW222074   5.408   2.969   5.991
 7059SOL     OW22075   1.882   0.277   5.254
 7059SOL    HW122076   1.902   0.215   5.329
 7059SOL    HW222077   1.867   0.225   5.170
 7060SOL     OW22078   3.957   0.790   1.301
 7060SOL    HW122079   4.005   0.827   1.380
 7060SOL    HW222080   3.998   0.702   1.275
 7061SOL     OW22081   0.797   1.633   1.685
 7061SOL    HW122082   0.876   1.695   1.687
 7061SOL    HW222083   0.828   1.540   1.667
 7062SOL     OW22084   3.212   0.888   3.255
 7062SOL    HW122085   3.176   0.954   3.189
 7062SOL    HW222086   3.188   0.916   3.348
 7063SOL     OW22087   1.003   0.789   1.614
 7063SOL    HW122088   1.087   0.741   1.590
 7063SOL    HW222089   1.024   0.864   1.677
 7064SOL     OW22090   4.342   1.612   5.351
 7064SOL    HW122091   4.376   1.706   5.349
 7064SOL    HW222092   4.276   1.598   5.277
 7065SOL     OW22093   4.004   5.255   5.522
 7065SOL    HW122094   4.048   5.327   5.469
 7065SOL    HW222095   3.986   5.176   5.463
 7066SOL     OW22096   3.766   0.146   0.142
 7066SOL    HW122097   3.697   0.165   0.072
 7066SOL    HW222098   3.728   0.166   0.232
 7067SOL     OW22099   1.658   3.559   6.873
 7067SOL    HW122100   1.638   3.651   6.907
 7067SOL    HW222101   1.705   3.507   6.944
 7068SOL     OW22102   5.450   3.133   4.025
 7068SOL    HW122103   5.429   3.196   3.951
 7068SOL    HW222104   5.420   3.173   4.112
 7069SOL     OW22105   5.923   0.441   6.465
 7069SOL    HW122106   5.996   0.401   6.519
 7069SOL    HW222107   5.904   0.383   6.386
 7070SOL     OW22108   0.194   6.948   5.022
 7070SOL    HW122109   0.218   6.920   4.929
 7070SOL    HW222110   0.204   6.870   5.083
 7071SOL     OW22111   5.120   5.855   6.826
 7071SOL    HW122112   5.099   5.757   6.833
 7071SOL    HW222113   5.060   5.898   6.759
 7072SOL     OW22114   0.590   3.436   6.258
 7072SOL    HW122115   0.493   3.448   6.236
 7072SOL    HW222116   0.614   3.496   6.335
 7073SOL     OW22117   4.981   1.671   3.452
 7073SOL    HW122118   5.052   1.704   3.390
 7073SOL    HW222119   4.957   1.577   3.429
 7074SOL     OW22120   5.960   4.596   2.624
 7074SOL    HW122121   5.860   4.593   2.623
 7074SOL    HW222122   5.990   4.688   2.646
 7075SOL     OW22123   3.306   4.944   3.384
 7075SOL    HW122124   3.328   4.917   3.478
 7075SOL    HW222125   3.380   4.914   3.324
 7076SOL     OW22126   5.841   2.220   2.243
 7076SOL    HW122127   5.850   2.169   2.328
 7076SOL    HW222128   5.772   2.292   2.254
 7077SOL     OW22129   3.635   5.396   1.409
 7077SOL    HW122130   3.606   5.305   1.378
 7077SOL    HW222131   3.563   5.463   1.388
 7078SOL     OW22132   5.638   0.738   6.914
 7078SOL    HW122133   5.656   0.785   6.828
 7078SOL    HW222134   5.686   0.784   6.988
 7079SOL     OW22135   1.115   6.426   5.024
 7079SOL    HW122136   1.075   6.422   5.115
 7079SOL    HW222137   1.206   6.468   5.028
 7080SOL     OW22138   4.093   2.223   5.744
 7080SOL    HW122139   4.134   2.270   5.822
 7080SOL    HW222140   4.156   2.154   5.709
 7081SOL     OW22141   1.494   0.147   0.604
 7081SOL    HW122142   1.426   0.132   0.532
 7081SOL    HW222143   1.463   0.221   0.664
 7082SOL     OW22144   6.714   4.141   2.994
 7082SOL    HW122145   6.636   4.080   2.980
 7082SOL    HW222146   6.698   4.228   2.947
 7083SOL     OW22147   6.209   2.820   2.656
 7083SOL    HW122148   6.213   2.734   2.605
 7083SOL    HW222149   6.238   2.804   2.750
 7084SOL     OW22150   0.551   5.885   6.816
 7084SOL    HW122151   0.486   5.864   6.743
 7084SOL    HW222152   0.639   5.843   6.795
 7085SOL     OW22153   0.579   3.549   2.267
 7085SOL    HW122154   0.506   3.617   2.258
 7085SOL    HW222155   0.668   3.594   2.250
 7086SOL     OW22156   5.431   0.940   3.896
 7086SOL    HW122157   5.360   1.007   3.878
 7086SOL    HW222158   5.410   0.855   3.849
 7087SOL     OW22159   5.228   3.756   2.796
 7087SOL    HW122160   5.187   3.699   2.867
 7087SOL    HW222161   5.160   3.775   2.725
 7088SOL     OW22162   6.052   1.873   5.250
 7088SOL    HW122163   6.036   1.950   5.188
 7088SOL    HW222164   6.150   1.855   5.256
 7089SOL     OW22165   3.038   5.850   2.056
 7089SOL    HW122166   2.967   5.916   2.083
 7089SOL    HW222167   3.127   5.894   2.060
 7090SOL     OW22168   4.432   2.819   0.975
 7090SOL    HW122169   4.382   2.837   0.890
 7090SOL    HW222170   4.394   2.875   1.048
 7091SOL     OW22171   6.869   5.859   0.313
 7091SOL    HW122172   6.896   5.826   0.403
 7091SOL    HW222173   6.835   5.783   0.258
 7092SOL     OW22174   4.117   1.419   6.190
 7092SOL    HW122175   4.069   1.447   6.107
 7092SOL    HW222176   4.064   1.347   6.235
 7093SOL     OW22177   2.957   2.946   1.305
 7093SOL    HW122178   2.920   3.016   1.245
 7093SOL    HW222179   2.921   2.957   1.398
 7094SOL     OW22180   3.155   0.109   5.519
 7094SOL    HW122181   3.084   0.179   5.529
 7094SOL    HW222182   3.243   0.153   5.502
 7095SOL     OW22183   2.528   4.788   4.863
 7095SOL    HW122184   2.536   4.740   4.950
 7095SOL    HW222185   2.610   4.770   4.808
 7096SOL     OW22186   0.232   0.950   1.294
 7096SOL    HW122187   0.226   1.041   1.335
 7096SOL    HW222188   0.328   0.920   1.293
 7097SOL     OW22189   4.240   0.914   1.810
 7097SOL    HW122190   4.276   0.952   1.896
 7097SOL    HW222191   4.301   0.937   1.735
 7098SOL     OW22192   1.667   6.780   4.204
 7098SOL    HW122193   1.757   6.802   4.167
 7098SOL    HW222194   1.660   6.812   4.298
 7099SOL     OW22195   2.773   2.317   3.679
 7099SOL    HW122196   2.727   2.318   3.768
 7099SOL    HW222197   2.872   2.321   3.692
 7100SOL     OW22198   6.231   3.740   1.476
 7100SOL    HW122199   6.235   3.765   1.573
 7100SOL    HW222200   6.316   3.695   1.449
 7101SOL     OW22201   2.710   6.363   5.649
 7101SOL    HW122202   2.786   6.299   5.642
 7101SOL    HW222203   2.717   6.415   5.734
 7102SOL     OW22204   5.314   0.992   1.846
 7102SOL    HW122205   5.370   1.009   1.765
 7102SOL    HW222206   5.347   1.050   1.921
 7103SOL     OW22207   4.975   3.881   2.892
 7103SOL    HW122208   4.941   3.868   2.799
 7103SOL    HW222209   5.061   3.932   2.890
 7104SOL     OW22210   5.156   3.349   3.386
 7104SOL    HW122211   5.153   3.249   3.381
 7104SOL    HW222212   5.101   3.381   3.462
 7105SOL     OW22213   3.067   3.994   3.990
 7105SOL    HW122214   3.022   4.081   4.009
 7105SOL    HW222215   3.048   3.930   4.065
 7106SOL     OW22216   3.032   2.508   1.215
 7106SOL    HW122217   3.116   2.492   1.163
 7106SOL    HW222218   2.994   2.421   1.244
 7107SOL     OW22219   3.476   0.816   6.378
 7107SOL    HW122220   3.485   0.913   6.353
 7107SOL    HW222221   3.414   0.808   6.456
 7108SOL     OW22222   4.927   0.792   2.141
 7108SOL    HW122223   4.890   0.699   2.143
 7108SOL    HW222224   5.013   0.793   2.091
 7109SOL     OW22225   2.869   5.579   6.345
 7109SOL    HW122226   2.894   5.530   6.429
 7109SOL    HW222227   2.798   5.528   6.297
 7110SOL     OW22228   3.597   6.560   4.313
 7110SOL    HW122229   3.637   6.560   4.222
 7110SOL    HW222230   3.652   6.503   4.374
 7111SOL     OW22231   6.900   0.472   4.916
 7111SOL    HW122232   6.947   0.413   4.981
 7111SOL    HW222233   6.807   0.438   4.901
 7112SOL     OW22234   1.710   4.951   4.963
 7112SOL    HW122235   1.728   5.046   4.987
 7112SOL    HW222236   1.715   4.894   5.046
 7113SOL     OW22237   3.696   6.294   5.430
 7113SOL    HW122238   3.614   6.240   5.449
 7113SOL    HW222239   3.686   6.385   5.469
 7114SOL     OW22240   5.467   4.244   0.304
 7114SOL    HW122241   5.435   4.150   0.291
 7114SOL    HW222242   5.487   4.259   0.401
 7115SOL     OW22243   5.722   3.902   5.991
 7115SOL    HW122244   5.788   3.835   5.957
 7115SOL    HW222245   5.706   3.886   6.088
 7116SOL     OW22246   6.200   3.904   3.681
 7116SOL    HW122247   6.188   3.893   3.779
 7116SOL    HW222248   6.147   3.834   3.632
 7117SOL     OW22249   5.725   0.313   3.030
 7117SOL    HW122250   5.743   0.216   3.046
 7117SOL    HW222251   5.741   0.364   3.114
 7118SOL     OW22252   4.277   4.430   5.579
 7118SOL    HW122253   4.349   4.488   5.542
 7118SOL    HW222254   4.294   4.413   5.676
 7119SOL     OW22255   3.463   6.778   4.825
 7119SOL    HW122256   3.462   6.874   4.852
 7119SOL    HW222257   3.471   6.721   4.907
 7120SOL     OW22258   4.738   0.365   0.154
 7120SOL    HW122259   4.639   0.378   0.148
 7120SOL    HW222260   4.783   0.454   0.149
 7121SOL     OW22261   1.863   5.875   2.394
 7121SOL    HW122262   1.814   5.788   2.408
 7121SOL    HW222263   1.928   5.889   2.468
 7122SOL     OW22264   3.168   1.912   7.008
 7122SOL    HW122265   3.139   1.982   0.046
 7122SOL    HW222266   3.232   1.953   6.943
 7123SOL     OW22267   5.469   5.271   6.085
 7123SOL    HW122268   5.388   5.212   6.084
 7123SOL    HW222269   5.529   5.247   6.009
 7124SOL     OW22270   1.103   2.218   1.780
 7124SOL    HW122271   1.148   2.129   1.787
 7124SOL    HW222272   1.066   2.229   1.688
 7125SOL     OW22273   0.505   6.741   1.939
 7125SOL    HW122274   0.497   6.810   2.011
 7125SOL    HW222275   0.543   6.657   1.977
 7126SOL     OW22276   3.139   5.352   0.930
 7126SOL    HW122277   3.143   5.442   0.973
 7126SOL    HW222278   3.229   5.328   0.892
 7127SOL     OW22279   2.224   6.700   6.051
 7127SOL    HW122280   2.217   6.698   5.951
 7127SOL    HW222281   2.178   6.782   6.086
 7128SOL     OW22282   4.034   4.122   6.513
 7128SOL    HW122283   3.936   4.106   6.512
 7128SOL    HW222284   4.075   4.082   6.431
 7129SOL     OW22285   0.590   6.958   0.693
 7129SOL    HW122286   0.637   0.015   0.669
 7129SOL    HW222287   0.515   6.978   0.756
 7130SOL     OW22288   3.447   6.680   3.796
 7130SOL    HW122289   3.450   6.600   3.856
 7130SOL    HW222290   3.512   6.749   3.829
 7131SOL     OW22291   3.308   1.329   2.355
 7131SOL    HW122292   3.392   1.382   2.346
 7131SOL    HW222293   3.256   1.363   2.433
 7132SOL     OW22294   5.369   4.734   0.539
 7132SOL    HW122295   5.289   4.676   0.552
 7132SOL    HW222296   5.373   4.766   0.444
 7133SOL     OW22297   5.156   5.698   2.915
 7133SOL    HW122298   5.061   5.684   2.890
 7133SOL    HW222299   5.212   5.623   2.881
 7134SOL     OW22300   4.773   5.183   0.170
 7134SOL    HW122301   4.740   5.267   0.214
 7134SOL    HW222302   4.753   5.186   0.073
 7135SOL     OW22303   1.768   3.158   0.842
 7135SOL    HW122304   1.690   3.103   0.814
 7135SOL    HW222305   1.758   3.182   0.939
 7136SOL     OW22306   2.135   1.556   1.867
 7136SOL    HW122307   2.148   1.653   1.888
 7136SOL    HW222308   2.221   1.517   1.834
 7137SOL     OW22309   2.690   1.924   1.511
 7137SOL    HW122310   2.715   1.891   1.602
 7137SOL    HW222311   2.591   1.935   1.505
 7138SOL     OW22312   0.792   3.017   0.574
 7138SOL    HW122313   0.844   3.049   0.495
 7138SOL    HW222314   0.779   2.918   0.568
 7139SOL     OW22315   6.261   6.269   0.923
 7139SOL    HW122316   6.354   6.287   0.891
 7139SOL    HW222317   6.199   6.267   0.846
 7140SOL     OW22318   6.267   3.624   0.022
 7140SOL    HW122319   6.235   3.658   6.962
 7140SOL    HW222320   6.210   3.547   0.051
 7141SOL     OW22321   3.435   0.196   0.828
 7141SOL    HW122322   3.379   0.272   0.860
 7141SOL    HW222323   3.418   0.180   0.731
 7142SOL     OW22324   3.223   0.148   4.958
 7142SOL    HW122325   3.123   0.140   4.961
 7142SOL    HW222326   3.248   0.239   4.926
 7143SOL     OW22327   2.876   4.368   6.521
 7143SOL    HW122328   2.971   4.372   6.490
 7143SOL    HW222329   2.873   4.342   6.617
 7144SOL     OW22330   6.750   0.848   6.158
 7144SOL    HW122331   6.701   0.935   6.149
 7144SOL    HW222332   6.698   0.776   6.113
 7145SOL     OW22333   5.211   2.187   6.287
 7145SOL    HW122334   5.290   2.161   6.342
 7145SOL    HW222335   5.218   2.147   6.196
 7146SOL     OW22336   1.338   2.153   5.587
 7146SOL    HW122337   1.416   2.212   5.564
 7146SOL    HW222338   1.257   2.184   5.537
 7147SOL     OW22339   6.397   6.744   2.033
 7147SOL    HW122340   6.494   6.766   2.045
 7147SOL    HW222341   6.345   6.828   2.018
 7148SOL     OW22342   6.316   0.015   0.770
 7148SOL    HW122343   6.403   6.996   0.761
 7148SOL    HW222344   6.248   6.982   0.810
 7149SOL     OW22345   5.636   4.536   5.810
 7149SOL    HW122346   5.682   4.496   5.889
 7149SOL    HW222347   5.703   4.583   5.752
 7150SOL     OW22348   3.364   3.243   6.533
 7150SOL    HW122349   3.292   3.240   6.603
 7150SOL    HW222350   3.451   3.215   6.574
 7151SOL     OW22351   3.299   1.234   0.589
 7151SOL    HW122352   3.252   1.258   0.675
 7151SOL    HW222353   3.384   1.186   0.610
 7152SOL     OW22354   6.495   1.230   6.595
 7152SOL    HW122355   6.534   1.147   6.556
 7152SOL    HW222356   6.488   1.300   6.524
 7153SOL     OW22357   3.659   5.635   0.366
 7153SOL    HW122358   3.609   5.668   0.446
 7153SOL    HW222359   3.657   5.705   0.294
 7154SOL     OW22360   3.929   2.140   2.132
 7154SOL    HW122361   3.839   2.123   2.092
 7154SOL    HW222362   3.972   2.219   2.087
 7155SOL     OW22363   1.761   1.307   1.998
 7155SOL    HW122364   1.795   1.309   1.904
 7155SOL    HW222365   1.674   1.257   2.001
 7156SOL     OW22366   5.871   3.384   5.736
 7156SOL    HW122367   5.806   3.360   5.808
 7156SOL    HW222368   5.849   3.475   5.701
 7157SOL     OW22369   6.826   4.138   5.689
 7157SOL    HW122370   6.777   4.086   5.759
 7157SOL    HW222371   6.877   4.213   5.731
 7158SOL     OW22372   4.446   0.061   3.951
 7158SOL    HW122373   4.378   0.041   4.021
 7158SOL    HW222374   4.402   0.108   3.874
 7159SOL     OW22375   0.623   6.132   3.313
 7159SOL    HW122376   0.629   6.232   3.312
 7159SOL    HW222377   0.527   6.104   3.323
 7160SOL     OW22378   6.898   0.327   3.532
 7160SOL    HW122379   6.871   0.348   3.438
 7160SOL    HW222380   6.998   0.316   3.536
 7161SOL     OW22381   3.979   3.108   3.084
 7161SOL    HW122382   4.026   3.182   3.036
 7161SOL    HW222383   3.941   3.143   3.170
 7162SOL     OW22384   0.621   5.896   1.766
 7162SOL    HW122385   0.522   5.889   1.773
 7162SOL    HW222386   0.663   5.813   1.803
 7163SOL     OW22387   7.022   1.268   1.725
 7163SOL    HW122388   7.020   1.273   1.625
 7163SOL    HW222389   6.946   1.212   1.757
 7164SOL     OW22390   2.169   1.319   6.659
 7164SOL    HW122391   2.196   1.404   6.615
 7164SOL    HW222392   2.155   1.335   6.757
 7165SOL     OW22393   5.761   1.465   0.630
 7165SOL    HW122394   5.787   1.554   0.594
 7165SOL    HW222395   5.661   1.454   0.622
 7166SOL     OW22396   6.705   5.567   6.108
 7166SOL    HW122397   6.622   5.549   6.056
 7166SOL    HW222398   6.784   5.571   6.047
 7167SOL     OW22399   6.066   2.491   4.983
 7167SOL    HW122400   6.127   2.482   4.904
 7167SOL    HW222401   6.120   2.505   5.066
 7168SOL     OW22402   2.682   0.909   2.139
 7168SOL    HW122403   2.611   0.937   2.074
 7168SOL    HW222404   2.765   0.884   2.088
 7169SOL     OW22405   2.240   4.143   6.239
 7169SOL    HW122406   2.283   4.061   6.201
 7169SOL    HW222407   2.173   4.179   6.174
 7170SOL     OW22408   3.819   1.318   0.697
 7170SOL    HW122409   3.741   1.255   0.686
 7170SOL    HW222410   3.846   1.353   0.607
 7171SOL     OW22411   0.030   3.816   0.669
 7171SOL    HW122412   0.001   3.767   0.751
 7171SOL    HW222413   0.100   3.883   0.694
 7172SOL     OW22414   1.307   2.514   3.960
 7172SOL    HW122415   1.236   2.463   4.010
 7172SOL    HW222416   1.378   2.544   4.024
 7173SOL     OW22417   4.783   5.487   5.939
 7173SOL    HW122418   4.767   5.460   6.034
 7173SOL    HW222419   4.696   5.486   5.889
 7174SOL     OW22420   6.317   4.427   1.829
 7174SOL    HW122421   6.327   4.456   1.734
 7174SOL    HW222422   6.256   4.490   1.877
 7175SOL     OW22423   6.616   3.537   5.919
 7175SOL    HW122424   6.701   3.562   5.966
 7175SOL    HW222425   6.636   3.469   5.848
 7176SOL     OW22426   0.649   0.399   5.518
 7176SOL    HW122427   0.728   0.344   5.544
 7176SOL    HW222428   0.631   0.388   5.421
 7177SOL     OW22429   1.042   5.898   3.797
 7177SOL    HW122430   1.116   5.836   3.826
 7177SOL    HW222431   0.965   5.843   3.763
 7178SOL     OW22432   2.075   6.924   5.006
 7178SOL    HW122433   2.051   7.021   5.012
 7178SOL    HW222434   2.011   6.871   5.062
 7179SOL     OW22435   3.355   5.301   5.908
 7179SOL    HW122436   3.415   5.357   5.965
 7179SOL    HW222437   3.408   5.229   5.864
 7180SOL     OW22438   1.789   2.943   1.361
 7180SOL    HW122439   1.726   2.915   1.290
 7180SOL    HW222440   1.790   3.043   1.369
 7181SOL     OW22441   2.688   1.481   5.736
 7181SOL    HW122442   2.730   1.531   5.661
 7181SOL    HW222443   2.688   1.538   5.818
 7182SOL     OW22444   1.783   1.911   3.914
 7182SOL    HW122445   1.746   2.004   3.914
 7182SOL    HW222446   1.869   1.909   3.864
 7183SOL     OW22447   0.470   6.914   1.712
 7183SOL    HW122448   0.480   6.851   1.789
 7183SOL    HW222449   0.521   6.998   1.731
 7184SOL     OW22450   6.891   0.152   4.238
 7184SOL    HW122451   6.876   0.089   4.162
 7184SOL    HW222452   6.804   0.184   4.274
 7185SOL     OW22453   4.221   1.025   4.691
 7185SOL    HW122454   4.162   1.095   4.732
 7185SOL    HW222455   4.217   1.032   4.592
 7186SOL     OW22456   0.231   0.584   6.488
 7186SOL    HW122457   0.251   0.504   6.431
 7186SOL    HW222458   0.190   0.656   6.432
 7187SOL     OW22459   3.379   2.940   4.047
 7187SOL    HW122460   3.425   2.862   4.004
 7187SOL    HW222461   3.442   2.985   4.110
 7188SOL     OW22462   4.374   4.221   6.949
 7188SOL    HW122463   4.357   4.319   6.961
 7188SOL    HW222464   4.470   4.206   6.926
 7189SOL     OW22465   6.490   2.437   5.966
 7189SOL    HW122466   6.457   2.381   6.042
 7189SOL    HW222467   6.415   2.495   5.933
 7190SOL     OW22468   5.688   4.866   0.840
 7190SOL    HW122469   5.623   4.860   0.916
 7190SOL    HW222470   5.752   4.790   0.844
 7191SOL     OW22471   6.669   5.091   4.377
 7191SOL    HW122472   6.644   5.096   4.474
 7191SOL    HW222473   6.620   5.015   4.334
 7192SOL     OW22474   2.970   4.717   6.580
 7192SOL    HW122475   2.950   4.683   6.671
 7192SOL    HW222476   2.904   4.789   6.556
 7193SOL     OW22477   2.796   2.072   2.721
 7193SOL    HW122478   2.771   2.149   2.780
 7193SOL    HW222479   2.850   2.105   2.644
 7194SOL     OW22480   3.208   2.722   5.855
 7194SOL    HW122481   3.190   2.793   5.787
 7194SOL    HW222482   3.134   2.719   5.922
 7195SOL     OW22483   0.701   4.851   4.935
 7195SOL    HW122484   0.613   4.816   4.968
 7195SOL    HW222485   0.764   4.774   4.924
 7196SOL     OW22486   3.305   4.023   2.029
 7196SOL    HW122487   3.339   4.056   1.942
 7196SOL    HW222488   3.222   3.970   2.014
 7197SOL     OW22489   3.364   4.675   6.237
 7197SOL    HW122490   3.310   4.654   6.156
 7197SOL    HW222491   3.306   4.670   6.319
 7198SOL     OW22492   0.768   0.301   1.916
 7198SOL    HW122493   0.769   0.329   2.012
 7198SOL    HW222494   0.682   0.255   1.895
 7199SOL     OW22495   6.534   0.989   2.531
 7199SOL    HW122496   6.605   0.926   2.499
 7199SOL    HW222497   6.457   0.937   2.567
 7200SOL     OW22498   1.031   2.677   0.356
 7200SOL    HW122499   1.013   2.709   0.449
 7200SOL    HW222500   0.964   2.607   0.331
 7201SOL     OW22501   5.288   5.428   3.633
 7201SOL    HW122502   5.270   5.394   3.725
 7201SOL    HW222503   5.297   5.351   3.570
 7202SOL     OW22504   5.124   0.695   5.877
 7202SOL    HW122505   5.117   0.714   5.779
 7202SOL    HW222506   5.099   0.776   5.929
 7203SOL     OW22507   0.449   1.247   1.207
 7203SOL    HW122508   0.501   1.286   1.282
 7203SOL    HW222509   0.461   1.302   1.125
 7204SOL     OW22510   6.048   0.108   1.888
 7204SOL    HW122511   5.963   0.152   1.860
 7204SOL    HW222512   6.120   0.177   1.900
 7205SOL     OW22513   3.114   1.768   3.855
 7205SOL    HW122514   3.067   1.766   3.943
 7205SOL    HW222515   3.199   1.820   3.864
 7206SOL     OW22516   2.100   3.609   0.402
 7206SOL    HW122517   2.001   3.624   0.404
 7206SOL    HW222518   2.128   3.583   0.309
 7207SOL     OW22519   2.125   1.198   3.700
 7207SOL    HW122520   2.146   1.295   3.712
 7207SOL    HW222521   2.026   1.185   3.698
 7208SOL     OW22522   2.508   0.473   4.640
 7208SOL    HW122523   2.531   0.537   4.566
 7208SOL    HW222524   2.517   0.379   4.607
 7209SOL     OW22525   3.447   1.205   2.041
 7209SOL    HW122526   3.441   1.303   2.021
 7209SOL    HW222527   3.538   1.172   2.018
 7210SOL     OW22528   2.866   1.978   3.370
 7210SOL    HW122529   2.937   2.041   3.402
 7210SOL    HW222530   2.777   2.006   3.406
 7211SOL     OW22531   4.457   6.160   4.803
 7211SOL    HW122532   4.472   6.225   4.878
 7211SOL    HW222533   4.503   6.194   4.721
 7212SOL     OW22534   6.908   4.364   5.783
 7212SOL    HW122535   6.946   4.363   5.875
 7212SOL    HW222536   6.910   4.457   5.746
 7213SOL     OW22537   3.710   2.068   6.644
 7213SOL    HW122538   3.724   2.092   6.741
 7213SOL    HW222539   3.659   2.142   6.599
 7214SOL     OW22540   6.890   0.714   6.407
 7214SOL    HW122541   6.847   0.714   6.497
 7214SOL    HW222542   6.825   0.747   6.338
 7215SOL     OW22543   6.632   2.544   2.314
 7215SOL    HW122544   6.576   2.496   2.246
 7215SOL    HW222545   6.613   2.642   2.309
 7216SOL     OW22546   3.367   6.353   3.540
 7216SOL    HW122547   3.429   6.320   3.611
 7216SOL    HW222548   3.416   6.362   3.454
 7217SOL     OW22549   1.722   3.104   3.402
 7217SOL    HW122550   1.799   3.071   3.456
 7217SOL    HW222551   1.752   3.178   3.341
 7218SOL     OW22552   6.208   3.686   4.334
 7218SOL    HW122553   6.262   3.644   4.406
 7218SOL    HW222554   6.206   3.625   4.254
 7219SOL     OW22555   3.632   5.780   2.616
 7219SOL    HW122556   3.580   5.859   2.585
 7219SOL    HW222557   3.587   5.696   2.582
 7220SOL     OW22558   6.375   4.694   4.414
 7220SOL    HW122559   6.299   4.629   4.425
 7220SOL    HW222560   6.460   4.643   4.400
 7221SOL     OW22561   3.832   5.767   3.738
 7221SOL    HW122562   3.808   5.671   3.723
 7221SOL    HW222563   3.812   5.793   3.832
 7222SOL     OW22564   6.860   5.982   4.302
 7222SOL    HW122565   6.821   6.070   4.327
 7222SOL    HW222566   6.814   5.909   4.353
 7223SOL     OW22567   6.765   3.935   1.896
 7223SOL    HW122568   6.701   3.977   1.831
 7223SOL    HW222569   6.854   3.979   1.887
 7224SOL     OW22570   3.859   1.942   3.157
 7224SOL    HW122571   3.939   1.883   3.160
 7224SOL    HW222572   3.780   1.893   3.195
 7225SOL     OW22573   1.548   6.130   1.059
 7225SOL    HW122574   1.616   6.138   1.132
 7225SOL    HW222575   1.586   6.077   0.984
 7226SOL     OW22576   6.296   6.553   0.429
 7226SOL    HW122577   6.334   6.613   0.500
 7226SOL    HW222578   6.260   6.470   0.472
 7227SOL     OW22579   2.290   0.725   2.246
 7227SOL    HW122580   2.265   0.820   2.264
 7227SOL    HW222581   2.292   0.674   2.332
 7228SOL     OW22582   0.165   2.850   2.321
 7228SOL    HW122583   0.198   2.909   2.248
 7228SOL    HW222584   0.109   2.903   2.385
 7229SOL     OW22585   6.828   0.878   5.672
 7229SOL    HW122586   6.882   0.859   5.590
 7229SOL    HW222587   6.857   0.817   5.746
 7230SOL     OW22588   2.204   4.999   4.310
 7230SOL    HW122589   2.209   4.955   4.399
 7230SOL    HW222590   2.216   5.098   4.320
 7231SOL     OW22591   4.297   1.981   6.741
 7231SOL    HW122592   4.262   1.961   6.650
 7231SOL    HW222593   4.339   1.899   6.780
 7232SOL     OW22594   5.395   6.921   3.340
 7232SOL    HW122595   5.428   7.009   3.376
 7232SOL    HW222596   5.337   6.938   3.260
 7233SOL     OW22597   6.771   1.116   4.699
 7233SOL    HW122598   6.792   1.199   4.749
 7233SOL    HW222599   6.756   1.138   4.603
 7234SOL     OW22600   5.043   4.225   3.026
 7234SOL    HW122601   5.083   4.163   2.958
 7234SOL    HW222602   5.053   4.319   2.995
 7235SOL     OW22603   6.914   5.655   1.718
 7235SOL    HW122604   6.822   5.626   1.747
 7235SOL    HW222605   6.909   5.747   1.681
 7236SOL     OW22606   1.732   3.002   2.616
 7236SOL    HW122607   1.701   3.095   2.638
 7236SOL    HW222608   1.693   2.938   2.682
 7237SOL     OW22609   5.248   0.898   0.352
 7237SOL    HW122610   5.235   0.904   0.451
 7237SOL    HW222611   5.163   0.866   0.310
 7238SOL     OW22612   3.771   3.498   0.578
 7238SOL    HW122613   3.701   3.439   0.618
 7238SOL    HW222614   3.846   3.510   0.643
 7239SOL     OW22615   6.862   2.442   2.414
 7239SOL    HW122616   6.792   2.489   2.359
 7239SOL    HW222617   6.824   2.357   2.451
 7240SOL     OW22618   6.834   2.043   6.622
 7240SOL    HW122619   6.760   1.990   6.665
 7240SOL    HW222620   6.922   2.000   6.642
 7241SOL     OW22621   2.147   1.305   1.468
 7241SOL    HW122622   2.109   1.290   1.377
 7241SOL    HW222623   2.212   1.381   1.465
 7242SOL     OW22624   6.391   4.956   4.576
 7242SOL    HW122625   6.394   4.870   4.524
 7242SOL    HW222626   6.465   4.956   4.644
 7243SOL     OW22627   6.251   4.259   6.583
 7243SOL    HW122628   6.156   4.269   6.553
 7243SOL    HW222629   6.298   4.196   6.521
 7244SOL     OW22630   0.510   6.004   0.047
 7244SOL    HW122631   0.412   6.001   0.067
 7244SOL    HW222632   0.528   5.955   6.991
 7245SOL     OW22633   1.163   3.577   6.980
 7245SOL    HW122634   1.127   3.636   0.024
 7245SOL    HW222635   1.225   3.509   7.020
 7246SOL     OW22636   3.598   6.559   4.011
 7246SOL    HW122637   3.669   6.495   3.981
 7246SOL    HW222638   3.623   6.652   3.983
 7247SOL     OW22639   3.222   3.480   5.369
 7247SOL    HW122640   3.131   3.521   5.363
 7247SOL    HW222641   3.280   3.518   5.297
 7248SOL     OW22642   3.363   1.103   4.795
 7248SOL    HW122643   3.304   1.141   4.724
 7248SOL    HW222644   3.456   1.138   4.784
 7249SOL     OW22645   4.185   5.386   2.308
 7249SOL    HW122646   4.090   5.413   2.293
 7249SOL    HW222647   4.238   5.465   2.337
 7250SOL     OW22648   5.187   5.483   5.901
 7250SOL    HW122649   5.106   5.505   5.847
 7250SOL    HW222650   5.269   5.499   5.847
 7251SOL     OW22651   0.088   5.418   5.228
 7251SOL    HW122652   0.098   5.517   5.225
 7251SOL    HW222653   7.021   5.393   5.212
 7252SOL     OW22654   3.397   4.109   2.264
 7252SOL    HW122655   3.354   4.073   2.181
 7252SOL    HW222656   3.477   4.163   2.239
 7253SOL     OW22657   1.563   5.961   5.530
 7253SOL    HW122658   1.469   5.930   5.544
 7253SOL    HW222659   1.581   6.040   5.589
 7254SOL     OW22660   5.188   3.700   3.979
 7254SOL    HW122661   5.185   3.623   4.043
 7254SOL    HW222662   5.214   3.667   3.888
 7255SOL     OW22663   5.589   3.488   6.288
 7255SOL    HW122664   5.532   3.561   6.250
 7255SOL    HW222665   5.589   3.494   6.388
 7256SOL     OW22666   3.398   6.791   5.708
 7256SOL    HW122667   3.453   6.852   5.651
 7256SOL    HW222668   3.340   6.734   5.650
 7257SOL     OW22669   0.902   1.660   4.568
 7257SOL    HW122670   0.812   1.617   4.560
 7257SOL    HW222671   0.891   1.759   4.569
 7258SOL     OW22672   6.582   1.822   3.307
 7258SOL    HW122673   6.541   1.886   3.372
 7258SOL    HW222674   6.554   1.847   3.214
 7259SOL     OW22675   1.025   4.471   3.168
 7259SOL    HW122676   1.043   4.379   3.132
 7259SOL    HW222677   1.111   4.514   3.194
 7260SOL     OW22678   5.490   3.321   1.430
 7260SOL    HW122679   5.392   3.319   1.410
 7260SOL    HW222680   5.511   3.251   1.499
 7261SOL     OW22681   0.026   4.111   6.536
 7261SOL    HW122682   0.111   4.146   6.575
 7261SOL    HW222683   6.982   4.179   6.546
 7262SOL     OW22684   6.693   1.711   5.689
 7262SOL    HW122685   6.678   1.622   5.732
 7262SOL    HW222686   6.622   1.728   5.620
 7263SOL     OW22687   0.540   5.333   0.160
 7263SOL    HW122688   0.560   5.279   0.078
 7263SOL    HW222689   0.450   5.307   0.194
 7264SOL     OW22690   5.981   1.599   0.841
 7264SOL    HW122691   6.021   1.585   0.750
 7264SOL    HW222692   5.893   1.644   0.832
 7265SOL     OW22693   4.263   5.486   5.586
 7265SOL    HW122694   4.213   5.456   5.505
 7265SOL    HW222695   4.240   5.427   5.664
 7266SOL     OW22696   0.524   0.673   4.061
 7266SOL    HW122697   0.465   0.600   4.026
 7266SOL    HW222698   0.549   0.735   3.986
 7267SOL     OW22699   6.185   5.518   4.383
 7267SOL    HW122700   6.171   5.489   4.478
 7267SOL    HW222701   6.167   5.440   4.322
 7268SOL     OW22702   5.952   6.455   4.314
 7268SOL    HW122703   5.852   6.462   4.309
 7268SOL    HW222704   5.976   6.380   4.376
 7269SOL     OW22705   2.467   4.812   5.185
 7269SOL    HW122706   2.479   4.849   5.277
 7269SOL    HW222707   2.525   4.863   5.121
 7270SOL     OW22708   0.603   1.773   4.388
 7270SOL    HW122709   0.672   1.782   4.316
 7270SOL    HW222710   0.612   1.683   4.431
 7271SOL     OW22711   0.612   4.110   3.983
 7271SOL    HW122712   0.712   4.119   3.987
 7271SOL    HW222713   0.570   4.181   4.038
 7272SOL     OW22714   5.883   5.766   2.916
 7272SOL    HW122715   5.972   5.812   2.916
 7272SOL    HW222716   5.895   5.669   2.939
 7273SOL     OW22717   0.133   2.687   5.610
 7273SOL    HW122718   0.201   2.667   5.539
 7273SOL    HW222719   0.048   2.639   5.590
 7274SOL     OW22720   0.746   4.455   6.904
 7274SOL    HW122721   0.713   4.514   6.830
 7274SOL    HW222722   0.683   4.377   6.916
 7275SOL     OW22723   6.524   0.214   2.696
 7275SOL    HW122724   6.531   0.168   2.607
 7275SOL    HW222725   6.612   0.211   2.742
 7276SOL     OW22726   4.688   6.974   4.011
 7276SOL    HW122727   4.611   0.005   3.986
 7276SOL    HW222728   4.653   6.885   4.040
 7277SOL     OW22729   4.465   0.552   5.624
 7277SOL    HW122730   4.478   0.473   5.684
 7277SOL    HW222731   4.369   0.556   5.595
 7278SOL     OW22732   2.920   3.575   2.955
 7278SOL    HW122733   2.885   3.502   3.014
 7278SOL    HW222734   2.999   3.541   2.903
 7279SOL     OW22735   3.562   6.031   6.486
 7279SOL    HW122736   3.619   6.017   6.405
 7279SOL    HW222737   3.467   6.012   6.463
 7280SOL     OW22738   4.250   0.983   5.609
 7280SOL    HW122739   4.234   0.944   5.700
 7280SOL    HW222740   4.162   1.008   5.568
 7281SOL     OW22741   4.048   1.235   6.863
 7281SOL    HW122742   4.133   1.281   6.836
 7281SOL    HW222743   4.034   1.247   6.962
 7282SOL     OW22744   6.241   5.482   1.776
 7282SOL    HW122745   6.254   5.489   1.874
 7282SOL    HW222746   6.179   5.406   1.756
 7283SOL     OW22747   2.349   0.695   3.658
 7283SOL    HW122748   2.439   0.653   3.646
 7283SOL    HW222749   2.347   0.747   3.743
 7284SOL     OW22750   6.919   3.972   5.484
 7284SOL    HW122751   6.891   4.040   5.552
 7284SOL    HW222752   6.920   3.881   5.526
 7285SOL     OW22753   5.226   5.833   2.157
 7285SOL    HW122754   5.276   5.768   2.213
 7285SOL    HW222755   5.229   5.804   2.061
 7286SOL     OW22756   2.303   3.047   1.157
 7286SOL    HW122757   2.324   3.145   1.151
 7286SOL    HW222758   2.336   3.001   1.074
 7287SOL     OW22759   6.398   0.807   6.414
 7287SOL    HW122760   6.312   0.830   6.460
 7287SOL    HW222761   6.431   0.719   6.447
 7288SOL     OW22762   3.889   0.398   6.676
 7288SOL    HW122763   3.915   0.433   6.586
 7288SOL    HW222764   3.850   0.472   6.731
 7289SOL     OW22765   5.310   2.155   2.992
 7289SOL    HW122766   5.363   2.239   2.985
 7289SOL    HW222767   5.363   2.087   3.042
 7290SOL     OW22768   2.244   4.814   4.866
 7290SOL    HW122769   2.213   4.726   4.831
 7290SOL    HW222770   2.340   4.806   4.895
 7291SOL     OW22771   2.901   5.846   1.525
 7291SOL    HW122772   2.958   5.898   1.589
 7291SOL    HW222773   2.805   5.868   1.542
 7292SOL     OW22774   2.683   6.775   4.103
 7292SOL    HW122775   2.653   6.760   4.008
 7292SOL    HW222776   2.605   6.765   4.164
 7293SOL     OW22777   2.089   2.060   5.249
 7293SOL    HW122778   2.143   2.063   5.333
 7293SOL    HW222779   1.993   2.043   5.273
 7294SOL     OW22780   2.853   4.966   0.487
 7294SOL    HW122781   2.901   4.886   0.521
 7294SOL    HW222782   2.827   4.952   0.392
 7295SOL     OW22783   6.997   1.160   1.021
 7295SOL    HW122784   7.011   1.072   1.066
 7295SOL    HW222785   0.035   1.226   1.056
 7296SOL     OW22786   3.188   4.913   0.773
 7296SOL    HW122787   3.248   4.956   0.705
 7296SOL    HW222788   3.126   4.982   0.811
 7297SOL     OW22789   4.782   6.625   1.389
 7297SOL    HW122790   4.756   6.699   1.326
 7297SOL    HW222791   4.771   6.656   1.483
 7298SOL     OW22792   6.189   3.962   4.355
 7298SOL    HW122793   6.103   4.009   4.335
 7298SOL    HW222794   6.173   3.864   4.363
 7299SOL     OW22795   6.099   3.472   0.165
 7299SOL    HW122796   6.044   3.390   0.148
 7299SOL    HW222797   6.169   3.452   0.234
 7300SOL     OW22798   5.365   5.304   0.915
 7300SOL    HW122799   5.367   5.403   0.905
 7300SOL    HW222800   5.389   5.261   0.828
 7301SOL     OW22801   6.676   6.775   6.117
 7301SOL    HW122802   6.671   6.675   6.111
 7301SOL    HW222803   6.767   6.806   6.089
 7302SOL     OW22804   6.149   0.735   6.951
 7302SOL    HW122805   6.081   0.795   6.992
 7302SOL    HW222806   6.122   0.640   6.964
 7303SOL     OW22807   3.118   0.486   0.029
 7303SOL    HW122808   3.070   0.414   7.007
 7303SOL    HW222809   3.211   0.455   0.051
 7304SOL     OW22810   4.428   3.826   6.002
 7304SOL    HW122811   4.349   3.829   5.941
 7304SOL    HW222812   4.511   3.814   5.948
 7305SOL     OW22813   4.608   1.424   0.287
 7305SOL    HW122814   4.599   1.518   0.252
 7305SOL    HW222815   4.669   1.372   0.227
 7306SOL     OW22816   4.585   5.145   1.669
 7306SOL    HW122817   4.655   5.216   1.659
 7306SOL    HW222818   4.495   5.184   1.649
 7307SOL     OW22819   3.758   6.808   1.842
 7307SOL    HW122820   3.843   6.757   1.827
 7307SOL    HW222821   3.713   6.824   1.753
 7308SOL     OW22822   6.593   3.079   4.763
 7308SOL    HW122823   6.603   3.140   4.841
 7308SOL    HW222824   6.527   3.118   4.699
 7309SOL     OW22825   5.093   6.511   0.790
 7309SOL    HW122826   5.075   6.434   0.850
 7309SOL    HW222827   5.065   6.596   0.835
 7310SOL     OW22828   2.873   5.388   1.293
 7310SOL    HW122829   2.883   5.460   1.226
 7310SOL    HW222830   2.946   5.396   1.362
 7311SOL     OW22831   2.777   2.167   1.821
 7311SOL    HW122832   2.839   2.201   1.892
 7311SOL    HW222833   2.737   2.245   1.772
 7312SOL     OW22834   6.912   1.899   5.668
 7312SOL    HW122835   6.897   1.997   5.679
 7312SOL    HW222836   6.827   1.850   5.685
 7313SOL     OW22837   4.080   2.517   6.693
 7313SOL    HW122838   4.110   2.421   6.694
 7313SOL    HW222839   4.029   2.535   6.610
 7314SOL     OW22840   0.088   3.522   4.848
 7314SOL    HW122841   0.128   3.432   4.861
 7314SOL    HW222842   0.082   3.569   4.936
 7315SOL     OW22843   6.853   0.031   3.941
 7315SOL    HW122844   6.915   0.109   3.949
 7315SOL    HW222845   6.809   0.033   3.851
 7316SOL     OW22846   3.869   3.538   5.758
 7316SOL    HW122847   3.783   3.578   5.729
 7316SOL    HW222848   3.871   3.440   5.735
 7317SOL     OW22849   3.120   1.043   2.990
 7317SOL    HW122850   3.134   0.971   2.922
 7317SOL    HW222851   3.024   1.047   3.016
 7318SOL     OW22852   1.352   2.164   1.328
 7318SOL    HW122853   1.359   2.220   1.410
 7318SOL    HW222854   1.361   2.068   1.352
 7319SOL     OW22855   6.358   4.526   6.670
 7319SOL    HW122856   6.327   4.619   6.691
 7319SOL    HW222857   6.296   4.460   6.713
 7320SOL     OW22858   0.586   3.291   2.369
 7320SOL    HW122859   0.605   3.385   2.341
 7320SOL    HW222860   0.648   3.229   2.321
 7321SOL     OW22861   2.292   1.567   4.525
 7321SOL    HW122862   2.289   1.607   4.434
 7321SOL    HW222863   2.237   1.623   4.588
 7322SOL     OW22864   0.876   3.953   3.106
 7322SOL    HW122865   0.822   3.871   3.125
 7322SOL    HW222866   0.913   3.988   3.192
 7323SOL     OW22867   1.853   2.622   3.433
 7323SOL    HW122868   1.775   2.577   3.477
 7323SOL    HW222869   1.920   2.649   3.502
 7324SOL     OW22870   6.419   0.948   3.683
 7324SOL    HW122871   6.327   0.985   3.690
 7324SOL    HW222872   6.465   0.987   3.603
 7325SOL     OW22873   3.173   6.843   6.517
 7325SOL    HW122874   3.132   6.776   6.456
 7325SOL    HW222875   3.203   6.798   6.601
 7326SOL     OW22876   2.730   0.150   5.743
 7326SOL    HW122877   2.766   0.058   5.727
 7326SOL    HW222878   2.642   0.144   5.790
 7327SOL     OW22879   1.759   2.822   6.278
 7327SOL    HW122880   1.698   2.744   6.267
 7327SOL    HW222881   1.712   2.896   6.327
 7328SOL     OW22882   2.731   6.829   6.716
 7328SOL    HW122883   2.680   6.801   6.635
 7328SOL    HW222884   2.735   6.753   6.781
 7329SOL     OW22885   4.124   3.472   1.175
 7329SOL    HW122886   4.135   3.421   1.261
 7329SOL    HW222887   4.047   3.434   1.123
 7330SOL     OW22888   3.212   1.241   6.612
 7330SOL    HW122889   3.215   1.142   6.594
 7330SOL    HW222890   3.271   1.262   6.689
 7331SOL     OW22891   4.994   0.516   2.345
 7331SOL    HW122892   4.949   0.591   2.392
 7331SOL    HW222893   5.087   0.542   2.320
 7332SOL     OW22894   3.154   5.568   0.508
 7332SOL    HW122895   3.075   5.559   0.447
 7332SOL    HW222896   3.224   5.502   0.481
 7333SOL     OW22897   0.995   4.917   2.847
 7333SOL    HW122898   0.922   4.864   2.805
 7333SOL    HW222899   1.033   4.866   2.925
 7334SOL     OW22900   4.017   6.125   5.187
 7334SOL    HW122901   3.924   6.121   5.151
 7334SOL    HW222902   4.029   6.054   5.257
 7335SOL     OW22903   1.896   1.962   2.655
 7335SOL    HW122904   1.974   1.901   2.670
 7335SOL    HW222905   1.843   1.969   2.740
 7336SOL     OW22906   1.917   5.792   4.421
 7336SOL    HW122907   1.882   5.759   4.509
 7336SOL    HW222908   2.015   5.807   4.427
 7337SOL     OW22909   0.301   2.989   2.102
 7337SOL    HW122910   0.322   3.043   2.183
 7337SOL    HW222911   0.257   3.047   2.033
 7338SOL     OW22912   6.717   1.966   1.168
 7338SOL    HW122913   6.787   2.036   1.181
 7338SOL    HW222914   6.644   1.979   1.235
 7339SOL     OW22915   6.715   5.792   4.430
 7339SOL    HW122916   6.704   5.709   4.485
 7339SOL    HW222917   6.625   5.826   4.402
 7340SOL     OW22918   2.133   6.988   6.995
 7340SOL    HW122919   2.108   0.011   0.049
 7340SOL    HW222920   2.126   0.020   6.916
 7341SOL     OW22921   6.127   2.394   6.743
 7341SOL    HW122922   6.063   2.402   6.820
 7341SOL    HW222923   6.142   2.485   6.703
 7342SOL     OW22924   6.908   6.821   2.643
 7342SOL    HW122925   6.912   6.778   2.553
 7342SOL    HW222926   6.828   6.786   2.693
 7343SOL     OW22927   5.434   3.515   0.675
 7343SOL    HW122928   5.500   3.439   0.677
 7343SOL    HW222929   5.475   3.595   0.719
 7344SOL     OW22930   1.428   5.689   6.469
 7344SOL    HW122931   1.520   5.648   6.471
 7344SOL    HW222932   1.371   5.640   6.403
 7345SOL     OW22933   3.903   4.541   5.775
 7345SOL    HW122934   3.901   4.628   5.726
 7345SOL    HW222935   3.830   4.541   5.844
 7346SOL     OW22936   4.433   5.141   2.950
 7346SOL    HW122937   4.451   5.199   3.029
 7346SOL    HW222938   4.348   5.090   2.964
 7347SOL     OW22939   6.106   2.210   6.554
 7347SOL    HW122940   6.120   2.265   6.637
 7347SOL    HW222941   6.044   2.258   6.492
 7348SOL     OW22942   1.168   4.450   2.325
 7348SOL    HW122943   1.133   4.382   2.261
 7348SOL    HW222944   1.098   4.520   2.340
 7349SOL     OW22945   3.492   1.458   1.225
 7349SOL    HW122946   3.531   1.427   1.312
 7349SOL    HW222947   3.428   1.389   1.191
 7350SOL     OW22948   2.806   0.553   5.664
 7350SOL    HW122949   2.843   0.617   5.731
 7350SOL    HW222950   2.793   0.600   5.576
 7351SOL     OW22951   3.870   5.239   4.180
 7351SOL    HW122952   3.956   5.289   4.171
 7351SOL    HW222953   3.814   5.282   4.251
 7352SOL     OW22954   0.067   2.738   3.279
 7352SOL    HW122955   0.092   2.693   3.364
 7352SOL    HW222956   0.026   2.672   3.216
 7353SOL     OW22957   6.383   0.241   6.811
 7353SOL    HW122958   6.357   0.337   6.811
 7353SOL    HW222959   6.312   0.187   6.855
 7354SOL     OW22960   1.130   1.389   2.627
 7354SOL    HW122961   1.198   1.359   2.560
 7354SOL    HW222962   1.043   1.403   2.580
 7355SOL     OW22963   0.577   2.062   6.367
 7355SOL    HW122964   0.592   2.161   6.361
 7355SOL    HW222965   0.539   2.040   6.457
 7356SOL     OW22966   4.368   3.593   6.135
 7356SOL    HW122967   4.454   3.542   6.142
 7356SOL    HW222968   4.388   3.687   6.104
 7357SOL     OW22969   5.333   5.995   2.384
 7357SOL    HW122970   5.269   5.969   2.312
 7357SOL    HW222971   5.426   5.984   2.351
 7358SOL     OW22972   5.630   1.748   3.013
 7358SOL    HW122973   5.538   1.767   2.977
 7358SOL    HW222974   5.694   1.737   2.937
 7359SOL     OW22975   4.660   0.034   6.549
 7359SOL    HW122976   4.618   0.121   6.578
 7359SOL    HW222977   4.591   7.005   6.507
 7360SOL     OW22978   2.895   3.133   5.177
 7360SOL    HW122979   2.926   3.053   5.229
 7360SOL    HW222980   2.906   3.115   5.079
 7361SOL     OW22981   4.946   0.279   2.500
 7361SOL    HW122982   4.959   0.349   2.431
 7361SOL    HW222983   4.917   0.321   2.586
 7362SOL     OW22984   3.416   5.361   6.791
 7362SOL    HW122985   3.383   5.348   6.884
 7362SOL    HW222986   3.513   5.334   6.785
 7363SOL     OW22987   3.722   0.243   1.396
 7363SOL    HW122988   3.670   0.183   1.457
 7363SOL    HW222989   3.720   0.206   1.303
 7364SOL     OW22990   5.409   0.047   1.582
 7364SOL    HW122991   5.328   0.094   1.547
 7364SOL    HW222992   5.441   7.008   1.515
 7365SOL     OW22993   5.858   5.062   2.171
 7365SOL    HW122994   5.780   5.067   2.234
 7365SOL    HW222995   5.899   5.153   2.163
 7366SOL     OW22996   2.246   1.417   4.072
 7366SOL    HW122997   2.146   1.418   4.079
 7366SOL    HW222998   2.280   1.326   4.094
 7367SOL     OW22999   4.374   0.716   6.213
 7367SOL    HW123000   4.329   0.805   6.210
 7367SOL    HW223001   4.469   0.728   6.242
 7368SOL     OW23002   4.137   3.653   3.014
 7368SOL    HW123003   4.101   3.731   3.065
 7368SOL    HW223004   4.173   3.585   3.079
 7369SOL     OW23005   5.751   2.407   1.283
 7369SOL    HW123006   5.714   2.402   1.190
 7369SOL    HW223007   5.827   2.342   1.292
 7370SOL     OW23008   2.376   2.001   4.517
 7370SOL    HW123009   2.291   1.951   4.502
 7370SOL    HW223010   2.360   2.099   4.504
 7371SOL     OW23011   3.967   0.407   3.775
 7371SOL    HW123012   4.051   0.462   3.776
 7371SOL    HW223013   3.929   0.406   3.682
 7372SOL     OW23014   4.700   0.136   4.727
 7372SOL    HW123015   4.689   0.157   4.630
 7372SOL    HW223016   4.747   0.211   4.773
 7373SOL     OW23017   5.327   2.979   4.433
 7373SOL    HW123018   5.261   3.011   4.501
 7373SOL    HW223019   5.298   2.890   4.397
 7374SOL     OW23020   0.368   2.062   5.620
 7374SOL    HW123021   0.289   2.090   5.674
 7374SOL    HW223022   0.343   2.059   5.523
 7375SOL     OW23023   2.141   3.255   2.155
 7375SOL    HW123024   2.155   3.164   2.115
 7375SOL    HW223025   2.187   3.323   2.098
 7376SOL     OW23026   0.282   4.120   0.541
 7376SOL    HW123027   0.311   4.030   0.508
 7376SOL    HW223028   0.261   4.179   0.463
 7377SOL     OW23029   3.134   5.923   0.194
 7377SOL    HW123030   3.095   5.832   0.180
 7377SOL    HW223031   3.204   5.940   0.125
 7378SOL     OW23032   1.263   5.992   4.046
 7378SOL    HW123033   1.306   6.077   4.012
 7378SOL    HW223034   1.220   6.009   4.134
 7379SOL     OW23035   4.251   0.901   0.658
 7379SOL    HW123036   4.191   0.868   0.585
 7379SOL    HW223037   4.346   0.894   0.629
 7380SOL     OW23038   5.439   3.607   2.717
 7380SOL    HW123039   5.366   3.646   2.774
 7380SOL    HW223040   5.399   3.539   2.655
 7381SOL     OW23041   3.689   0.667   0.611
 7381SOL    HW123042   3.782   0.648   0.643
 7381SOL    HW223043   3.626   0.666   0.689
 7382SOL     OW23044   6.715   1.125   6.391
 7382SOL    HW123045   6.701   1.069   6.472
 7382SOL    HW223046   6.657   1.093   6.317
 7383SOL     OW23047   2.557   6.592   1.260
 7383SOL    HW123048   2.479   6.537   1.290
 7383SOL    HW223049   2.536   6.689   1.272
 7384SOL     OW23050   0.369   0.014   0.914
 7384SOL    HW123051   0.295   0.062   0.963
 7384SOL    HW223052   0.340   6.950   0.892
 7385SOL     OW23053   5.292   4.686   2.654
 7385SOL    HW123054   5.380   4.733   2.646
 7385SOL    HW223055   5.300   4.610   2.719
 7386SOL     OW23056   6.136   3.807   0.283
 7386SOL    HW123057   6.081   3.761   0.212
 7386SOL    HW223058   6.229   3.771   0.279
 7387SOL     OW23059   6.608   5.507   5.622
 7387SOL    HW123060   6.671   5.538   5.693
 7387SOL    HW223061   6.524   5.473   5.665
 7388SOL     OW23062   2.050   5.918   2.588
 7388SOL    HW123063   2.125   5.857   2.614
 7388SOL    HW223064   2.085   5.988   2.524
 7389SOL     OW23065   6.075   3.352   0.529
 7389SOL    HW123066   6.035   3.272   0.485
 7389SOL    HW223067   6.169   3.365   0.496
 7390SOL     OW23068   2.396   1.686   2.723
 7390SOL    HW123069   2.449   1.714   2.644
 7390SOL    HW223070   2.368   1.590   2.712
 7391SOL     OW23071   3.663   3.174   3.112
 7391SOL    HW123072   3.704   3.100   3.165
 7391SOL    HW223073   3.628   3.138   3.026
 7392SOL     OW23074   3.063   6.063   6.510
 7392SOL    HW123075   3.050   6.161   6.515
 7392SOL    HW223076   3.020   6.019   6.589
 7393SOL     OW23077   5.265   5.333   4.252
 7393SOL    HW123078   5.173   5.304   4.228
 7393SOL    HW223079   5.283   5.423   4.213
 7394SOL     OW23080   1.995   2.015   6.063
 7394SOL    HW123081   2.039   2.001   6.152
 7394SOL    HW223082   2.062   2.053   5.999
 7395SOL     OW23083   2.945   5.369   0.661
 7395SOL    HW123084   2.906   5.281   0.692
 7395SOL    HW223085   2.937   5.436   0.735
 7396SOL     OW23086   2.392   5.128   2.199
 7396SOL    HW123087   2.305   5.178   2.207
 7396SOL    HW223088   2.376   5.040   2.154
 7397SOL     OW23089   5.750   3.987   3.830
 7397SOL    HW123090   5.791   4.078   3.825
 7397SOL    HW223091   5.674   3.981   3.766
 7398SOL     OW23092   2.282   4.267   2.528
 7398SOL    HW123093   2.299   4.168   2.532
 7398SOL    HW223094   2.296   4.300   2.435
 7399SOL     OW23095   5.131   2.204   4.614
 7399SOL    HW123096   5.091   2.296   4.614
 7399SOL    HW223097   5.067   2.140   4.571
 7400SOL     OW23098   5.480   2.909   5.623
 7400SOL    HW123099   5.462   2.961   5.706
 7400SOL    HW223100   5.393   2.880   5.582
 7401SOL     OW23101   1.276   3.069   3.879
 7401SOL    HW123102   1.242   2.996   3.819
 7401SOL    HW223103   1.255   3.048   3.974
 7402SOL     OW23104   3.262   6.344   5.494
 7402SOL    HW123105   3.221   6.273   5.437
 7402SOL    HW223106   3.327   6.303   5.558
 7403SOL     OW23107   1.598   3.424   4.882
 7403SOL    HW123108   1.533   3.421   4.958
 7403SOL    HW223109   1.580   3.504   4.825
 7404SOL     OW23110   3.207   3.956   0.762
 7404SOL    HW123111   3.113   3.953   0.795
 7404SOL    HW223112   3.209   3.997   0.671
 7405SOL     OW23113   3.242   6.472   4.772
 7405SOL    HW123114   3.321   6.506   4.823
 7405SOL    HW223115   3.161   6.523   4.801
 7406SOL     OW23116   1.188   1.043   4.672
 7406SOL    HW123117   1.270   1.069   4.622
 7406SOL    HW223118   1.201   0.953   4.713
 7407SOL     OW23119   1.019   5.686   5.458
 7407SOL    HW123120   1.028   5.594   5.497
 7407SOL    HW223121   1.047   5.684   5.362
 7408SOL     OW23122   3.720   4.044   5.448
 7408SOL    HW123123   3.801   4.062   5.392
 7408SOL    HW223124   3.676   4.131   5.471
 7409SOL     OW23125   6.569   3.942   0.737
 7409SOL    HW123126   6.584   3.953   0.835
 7409SOL    HW223127   6.574   3.845   0.712
 7410SOL     OW23128   0.019   0.295   1.169
 7410SOL    HW123129   0.090   0.366   1.161
 7410SOL    HW223130   6.988   0.316   1.247
 7411SOL     OW23131   1.559   2.602   4.781
 7411SOL    HW123132   1.526   2.526   4.727
 7411SOL    HW223133   1.654   2.623   4.756
 7412SOL     OW23134   4.475   6.629   6.817
 7412SOL    HW123135   4.429   6.581   6.743
 7412SOL    HW223136   4.569   6.649   6.791
 7413SOL     OW23137   3.987   6.743   3.152
 7413SOL    HW123138   4.072   6.791   3.172
 7413SOL    HW223139   3.950   6.703   3.236
 7414SOL     OW23140   2.715   1.918   4.179
 7414SOL    HW123141   2.682   1.880   4.092
 7414SOL    HW223142   2.661   1.881   4.254
 7415SOL     OW23143   3.893   6.577   6.479
 7415SOL    HW123144   3.965   6.544   6.539
 7415SOL    HW223145   3.843   6.500   6.440
 7416SOL     OW23146   1.115   1.343   1.922
 7416SOL    HW123147   1.139   1.440   1.927
 7416SOL    HW223148   1.033   1.325   1.976
 7417SOL     OW23149   0.592   1.528   3.557
 7417SOL    HW123150   0.524   1.568   3.619
 7417SOL    HW223151   0.614   1.435   3.587
 7418SOL     OW23152   2.031   4.196   6.091
 7418SOL    HW123153   1.976   4.177   6.172
 7418SOL    HW223154   1.972   4.222   6.015
 7419SOL     OW23155   6.852   3.883   4.266
 7419SOL    HW123156   6.942   3.928   4.267
 7419SOL    HW223157   6.848   3.819   4.190
 7420SOL     OW23158   6.447   0.254   1.139
 7420SOL    HW123159   6.545   0.237   1.124
 7420SOL    HW223160   6.421   0.338   1.092
 7421SOL     OW23161   4.837   3.990   1.915
 7421SOL    HW123162   4.834   4.085   1.945
 7421SOL    HW223163   4.757   3.970   1.859
 7422SOL     OW23164   5.770   2.575   2.629
 7422SOL    HW123165   5.816   2.663   2.639
 7422SOL    HW223166   5.671   2.590   2.621
 7423SOL     OW23167   5.671   1.960   5.970
 7423SOL    HW123168   5.709   1.868   5.956
 7423SOL    HW223169   5.610   1.983   5.895
 7424SOL     OW23170   0.861   1.604   3.694
 7424SOL    HW123171   0.877   1.509   3.665
 7424SOL    HW223172   0.776   1.609   3.747
 7425SOL     OW23173   5.809   0.542   0.081
 7425SOL    HW123174   5.734   0.601   0.051
 7425SOL    HW223175   5.816   0.546   0.181
 7426SOL     OW23176   3.737   3.101   6.019
 7426SOL    HW123177   3.770   3.052   5.938
 7426SOL    HW223178   3.675   3.042   6.070
 7427SOL     OW23179   3.305   1.192   3.827
 7427SOL    HW123180   3.245   1.270   3.811
 7427SOL    HW223181   3.365   1.180   3.748
 7428SOL     OW23182   4.556   5.877   5.477
 7428SOL    HW123183   4.479   5.929   5.515
 7428SOL    HW223184   4.525   5.786   5.451
 7429SOL     OW23185   1.473   6.645   2.542
 7429SOL    HW123186   1.522   6.692   2.468
 7429SOL    HW223187   1.386   6.690   2.559
 7430SOL     OW23188   6.824   5.453   2.348
 7430SOL    HW123189   6.818   5.447   2.448
 7430SOL    HW223190   6.732   5.464   2.310
 7431SOL     OW23191   1.963   1.487   4.091
 7431SOL    HW123192   1.888   1.550   4.070
 7431SOL    HW223193   1.938   1.432   4.170
 7432SOL     OW23194   2.102   0.181   3.234
 7432SOL    HW123195   2.100   0.151   3.329
 7432SOL    HW223196   2.115   0.280   3.231
 7433SOL     OW23197   2.978   7.007   6.826
 7433SOL    HW123198   2.914   7.018   6.750
 7433SOL    HW223199   2.930   7.023   6.912
 7434SOL     OW23200   3.931   6.281   5.531
 7434SOL    HW123201   3.963   6.376   5.524
 7434SOL    HW223202   3.850   6.268   5.473
 7435SOL     OW23203   4.601   5.048   3.261
 7435SOL    HW123204   4.561   5.060   3.352
 7435SOL    HW223205   4.547   4.981   3.210
 7436SOL     OW23206   5.293   3.043   6.272
 7436SOL    HW123207   5.358   3.001   6.209
 7436SOL    HW223208   5.238   3.111   6.223
 7437SOL     OW23209   3.937   6.421   0.866
 7437SOL    HW123210   3.845   6.385   0.852
 7437SOL    HW223211   3.941   6.515   0.833
 7438SOL     OW23212   2.211   0.522   0.158
 7438SOL    HW123213   2.211   0.619   0.180
 7438SOL    HW223214   2.289   0.500   0.100
 7439SOL     OW23215   1.277   4.641   5.990
 7439SOL    HW123216   1.237   4.571   5.929
 7439SOL    HW223217   1.260   4.616   6.085
 7440SOL     OW23218   5.608   3.391   4.495
 7440SOL    HW123219   5.562   3.315   4.540
 7440SOL    HW223220   5.565   3.477   4.521
 7441SOL     OW23221   5.794   5.959   1.477
 7441SOL    HW123222   5.749   6.036   1.523
 7441SOL    HW223223   5.892   5.978   1.469
 7442SOL     OW23224   5.266   1.294   5.429
 7442SOL    HW123225   5.192   1.275   5.494
 7442SOL    HW223226   5.227   1.316   5.340
 7443SOL     OW23227   0.099   0.368   2.021
 7443SOL    HW123228   0.018   0.424   2.037
 7443SOL    HW223229   0.144   0.398   1.936
 7444SOL     OW23230   1.458   6.246   6.622
 7444SOL    HW123231   1.389   6.228   6.552
 7444SOL    HW223232   1.416   6.296   6.698
 7445SOL     OW23233   4.179   6.239   1.137
 7445SOL    HW123234   4.124   6.322   1.129
 7445SOL    HW223235   4.226   6.222   1.051
 7446SOL     OW23236   5.476   3.907   0.076
 7446SOL    HW123237   5.490   3.900   0.174
 7446SOL    HW223238   5.497   4.001   0.046
 7447SOL     OW23239   0.683   4.880   1.134
 7447SOL    HW123240   0.717   4.811   1.197
 7447SOL    HW223241   0.746   4.958   1.132
 7448SOL     OW23242   4.697   5.096   6.609
 7448SOL    HW123243   4.731   5.190   6.606
 7448SOL    HW223244   4.598   5.096   6.620
 7449SOL     OW23245   0.704   4.354   6.576
 7449SOL    HW123246   0.676   4.258   6.568
 7449SOL    HW223247   0.769   4.376   6.504
 7450SOL     OW23248   5.615   2.201   4.814
 7450SOL    HW123249   5.518   2.190   4.839
 7450SOL    HW223250   5.622   2.254   4.730
 7451SOL     OW23251   5.261   4.994   3.366
 7451SOL    HW123252   5.308   5.077   3.398
 7451SOL    HW223253   5.258   4.927   3.440
 7452SOL     OW23254   6.301   5.613   5.277
 7452SOL    HW123255   6.224   5.641   5.335
 7452SOL    HW223256   6.360   5.549   5.327
 7453SOL     OW23257   3.680   6.265   6.609
 7453SOL    HW123258   3.721   6.316   6.534
 7453SOL    HW223259   3.637   6.182   6.574
 7454SOL     OW23260   3.967   2.263   0.606
 7454SOL    HW123261   4.002   2.352   0.579
 7454SOL    HW223262   3.955   2.260   0.705
 7455SOL     OW23263   6.877   3.015   3.640
 7455SOL    HW123264   6.839   3.074   3.569
 7455SOL    HW223265   6.859   2.919   3.617
 7456SOL     OW23266   3.120   2.004   5.698
 7456SOL    HW123267   3.166   1.918   5.676
 7456SOL    HW223268   3.034   2.009   5.647
 7457SOL     OW23269   2.478   0.344   2.774
 7457SOL    HW123270   2.553   0.397   2.815
 7457SOL    HW223271   2.516   0.278   2.709
 7458SOL     OW23272   1.450   5.389   5.557
 7458SOL    HW123273   1.458   5.339   5.472
 7458SOL    HW223274   1.369   5.357   5.607
 7459SOL     OW23275   5.699   0.488   2.817
 7459SOL    HW123276   5.718   0.431   2.898
 7459SOL    HW223277   5.751   0.452   2.739
 7460SOL     OW23278   1.577   6.588   1.104
 7460SOL    HW123279   1.630   6.582   1.019
 7460SOL    HW223280   1.634   6.560   1.181
 7461SOL     OW23281   1.336   5.174   6.333
 7461SOL    HW123282   1.301   5.183   6.426
 7461SOL    HW223283   1.293   5.095   6.288
 7462SOL     OW23284   1.013   4.741   0.436
 7462SOL    HW123285   1.026   4.832   0.399
 7462SOL    HW223286   0.945   4.745   0.510
 7463SOL     OW23287   3.467   4.758   1.114
 7463SOL    HW123288   3.515   4.684   1.160
 7463SOL    HW223289   3.451   4.734   1.019
 7464SOL     OW23290   6.339   6.107   5.532
 7464SOL    HW123291   6.436   6.096   5.552
 7464SOL    HW223292   6.308   6.030   5.476
 7465SOL     OW23293   1.531   4.876   0.402
 7465SOL    HW123294   1.471   4.920   0.336
 7465SOL    HW223295   1.571   4.944   0.462
 7466SOL     OW23296   0.503   6.632   4.968
 7466SOL    HW123297   0.427   6.636   5.032
 7466SOL    HW223298   0.469   6.643   4.874
 7467SOL     OW23299   0.237   2.725   6.121
 7467SOL    HW123300   0.169   2.798   6.120
 7467SOL    HW223301   0.269   2.707   6.028
 7468SOL     OW23302   5.917   3.663   5.982
 7468SOL    HW123303   5.940   3.573   6.018
 7468SOL    HW223304   5.832   3.658   5.929
 7469SOL     OW23305   6.287   2.131   1.261
 7469SOL    HW123306   6.273   2.191   1.340
 7469SOL    HW223307   6.267   2.181   1.177
 7470SOL     OW23308   5.865   2.903   4.094
 7470SOL    HW123309   5.887   2.961   4.172
 7470SOL    HW223310   5.941   2.842   4.074
 7471SOL     OW23311   4.466   6.316   5.800
 7471SOL    HW123312   4.529   6.303   5.723
 7471SOL    HW223313   4.507   6.279   5.883
 7472SOL     OW23314   5.934   6.230   5.413
 7472SOL    HW123315   6.011   6.223   5.477
 7472SOL    HW223316   5.927   6.146   5.360
 7473SOL     OW23317   4.457   5.847   3.938
 7473SOL    HW123318   4.470   5.750   3.918
 7473SOL    HW223319   4.453   5.898   3.852
 7474SOL     OW23320   6.461   1.783   5.546
 7474SOL    HW123321   6.494   1.877   5.554
 7474SOL    HW223322   6.368   1.777   5.582
 7475SOL     OW23323   4.858   2.926   0.453
 7475SOL    HW123324   4.875   3.016   0.493
 7475SOL    HW223325   4.760   2.909   0.450
 7476SOL     OW23326   1.481   0.842   2.706
 7476SOL    HW123327   1.566   0.796   2.728
 7476SOL    HW223328   1.447   0.810   2.617
 7477SOL     OW23329   0.647   4.369   4.757
 7477SOL    HW123330   0.689   4.278   4.755
 7477SOL    HW223331   0.554   4.363   4.720
 7478SOL     OW23332   0.584   0.810   5.429
 7478SOL    HW123333   0.656   0.763   5.480
 7478SOL    HW223334   0.501   0.755   5.430
 7479SOL     OW23335   5.998   3.009   0.260
 7479SOL    HW123336   5.917   2.953   0.241
 7479SOL    HW223337   5.981   3.067   0.340
 7480SOL     OW23338   3.590   4.933   2.766
 7480SOL    HW123339   3.517   4.870   2.745
 7480SOL    HW223340   3.559   5.027   2.749
 7481SOL     OW23341   0.313   4.049   6.331
 7481SOL    HW123342   0.333   3.991   6.410
 7481SOL    HW223343   0.358   4.012   6.250
 7482SOL     OW23344   4.066   1.872   2.753
 7482SOL    HW123345   4.086   1.827   2.666
 7482SOL    HW223346   4.145   1.927   2.780
 7483SOL     OW23347   5.123   2.411   5.674
 7483SOL    HW123348   5.052   2.357   5.720
 7483SOL    HW223349   5.142   2.370   5.585
 7484SOL     OW23350   3.134   6.958   4.144
 7484SOL    HW123351   3.082   7.022   4.200
 7484SOL    HW223352   3.220   7.001   4.116
 7485SOL     OW23353   3.134   7.001   5.185
 7485SOL    HW123354   3.069   0.039   5.147
 7485SOL    HW223355   3.087   6.943   5.252
 7486SOL     OW23356   2.616   6.528   1.547
 7486SOL    HW123357   2.714   6.533   1.565
 7486SOL    HW223358   2.592   6.593   1.475
 7487SOL     OW23359   4.296   6.666   4.361
 7487SOL    HW123360   4.298   6.625   4.270
 7487SOL    HW223361   4.245   6.752   4.358
 7488SOL     OW23362   1.254   5.466   3.891
 7488SOL    HW123363   1.207   5.424   3.968
 7488SOL    HW223364   1.352   5.449   3.898
 7489SOL     OW23365   5.960   3.188   6.487
 7489SOL    HW123366   6.032   3.246   6.527
 7489SOL    HW223367   5.905   3.242   6.424
 7490SOL     OW23368   1.387   2.054   2.233
 7490SOL    HW123369   1.466   2.054   2.171
 7490SOL    HW223370   1.363   2.148   2.256
 7491SOL     OW23371   4.151   3.055   6.931
 7491SOL    HW123372   4.155   3.131   6.996
 7491SOL    HW223373   4.055   3.035   6.909
 7492SOL     OW23374   1.577   0.440   4.159
 7492SOL    HW123375   1.593   0.466   4.254
 7492SOL    HW223376   1.552   0.343   4.155
 7493SOL     OW23377   7.009   4.301   4.926
 7493SOL    HW123378   0.080   4.297   4.915
 7493SOL    HW223379   6.987   4.311   5.023
 7494SOL     OW23380   6.049   0.637   2.448
 7494SOL    HW123381   6.041   0.717   2.389
 7494SOL    HW223382   6.130   0.585   2.423
 7495SOL     OW23383   1.462   3.557   5.541
 7495SOL    HW123384   1.401   3.615   5.595
 7495SOL    HW223385   1.489   3.478   5.596
 7496SOL     OW23386   5.945   4.431   2.393
 7496SOL    HW123387   5.935   4.353   2.455
 7496SOL    HW223388   6.021   4.488   2.423
 7497SOL     OW23389   0.284   6.509   0.278
 7497SOL    HW123390   0.250   6.443   0.211
 7497SOL    HW223391   0.267   6.474   0.370
 7498SOL     OW23392   2.973   6.825   2.910
 7498SOL    HW123393   2.909   6.900   2.893
 7498SOL    HW223394   3.014   6.836   3.001
 7499SOL     OW23395   3.846   1.923   3.759
 7499SOL    HW123396   3.864   1.938   3.661
 7499SOL    HW223397   3.932   1.904   3.806
 7500SOL     OW23398   3.752   6.860   3.007
 7500SOL    HW123399   3.842   6.842   3.047
 7500SOL    HW223400   3.700   6.921   3.068
 7501SOL     OW23401   6.182   2.184   5.133
 7501SOL    HW123402   6.251   2.255   5.143
 7501SOL    HW223403   6.203   2.128   5.053
 7502SOL     OW23404   4.172   0.760   4.637
 7502SOL    HW123405   4.182   0.756   4.537
 7502SOL    HW223406   4.201   0.849   4.670
 7503SOL     OW23407   1.906   6.264   1.563
 7503SOL    HW123408   1.870   6.175   1.534
 7503SOL    HW223409   1.872   6.285   1.655
 7504SOL     OW23410   6.379   6.926   3.972
 7504SOL    HW123411   6.312   6.937   3.898
 7504SOL    HW223412   6.351   6.982   4.050
 7505SOL     OW23413   0.953   6.503   5.247
 7505SOL    HW123414   0.897   6.551   5.180
 7505SOL    HW223415   0.894   6.453   5.310
 7506SOL     OW23416   2.912   2.018   3.068
 7506SOL    HW123417   2.906   1.990   3.164
 7506SOL    HW223418   2.907   1.937   3.009
 7507SOL     OW23419   6.442   4.060   5.103
 7507SOL    HW123420   6.458   3.993   5.031
 7507SOL    HW223421   6.344   4.065   5.123
 7508SOL     OW23422   2.269   5.904   6.987
 7508SOL    HW123423   2.268   5.885   6.888
 7508SOL    HW223424   2.245   5.999   7.003
 7509SOL     OW23425   5.985   4.318   0.621
 7509SOL    HW123426   6.067   4.269   0.592
 7509SOL    HW223427   5.906   4.256   0.620
 7510SOL     OW23428   3.892   3.447   3.846
 7510SOL    HW123429   3.948   3.461   3.764
 7510SOL    HW223430   3.870   3.350   3.855
 7511SOL     OW23431   3.798   6.363   3.582
 7511SOL    HW123432   3.895   6.384   3.594
 7511SOL    HW223433   3.786   6.302   3.504
 7512SOL     OW23434   3.512   0.307   6.439
 7512SOL    HW123435   3.540   0.400   6.462
 7512SOL    HW223436   3.590   0.245   6.445
 7513SOL     OW23437   1.125   2.003   2.510
 7513SOL    HW123438   1.058   1.967   2.575
 7513SOL    HW223439   1.143   1.934   2.439
 7514SOL     OW23440   1.326   4.135   2.007
 7514SOL    HW123441   1.365   4.205   2.067
 7514SOL    HW223442   1.393   4.062   1.994
 7515SOL     OW23443   0.113   5.037   4.685
 7515SOL    HW123444   0.089   5.093   4.605
 7515SOL    HW223445   0.087   5.086   4.768
 7516SOL     OW23446   1.628   6.328   4.989
 7516SOL    HW123447   1.574   6.248   5.014
 7516SOL    HW223448   1.619   6.344   4.891
 7517SOL     OW23449   0.451   1.312   6.666
 7517SOL    HW123450   0.530   1.262   6.700
 7517SOL    HW223451   0.374   1.249   6.655
 7518SOL     OW23452   4.561   2.493   3.209
 7518SOL    HW123453   4.637   2.442   3.249
 7518SOL    HW223454   4.561   2.586   3.245
 7519SOL     OW23455   3.922   6.220   4.402
 7519SOL    HW123456   3.847   6.157   4.419
 7519SOL    HW223457   4.009   6.173   4.413
 7520SOL     OW23458   1.490   2.358   0.768
 7520SOL    HW123459   1.575   2.349   0.821
 7520SOL    HW223460   1.512   2.357   0.671
 7521SOL     OW23461   3.932   1.551   5.282
 7521SOL    HW123462   3.905   1.631   5.335
 7521SOL    HW223463   3.851   1.503   5.249
 7522SOL     OW23464   2.050   7.019   3.438
 7522SOL    HW123465   2.116   6.961   3.486
 7522SOL    HW223466   1.989   0.034   3.505
 7523SOL     OW23467   5.371   0.816   0.093
 7523SOL    HW123468   5.470   0.821   0.099
 7523SOL    HW223469   5.332   0.807   0.185
 7524SOL     OW23470   0.095   3.212   4.581
 7524SOL    HW123471   7.028   3.237   4.569
 7524SOL    HW223472   0.114   3.196   4.677
 7525SOL     OW23473   4.840   5.890   6.689
 7525SOL    HW123474   4.749   5.848   6.690
 7525SOL    HW223475   4.902   5.832   6.637
 7526SOL     OW23476   2.461   3.448   1.620
 7526SOL    HW123477   2.451   3.447   1.720
 7526SOL    HW223478   2.451   3.542   1.587
 7527SOL     OW23479   4.212   5.037   3.910
 7527SOL    HW123480   4.154   4.975   3.857
 7527SOL    HW223481   4.304   5.039   3.871
 7528SOL     OW23482   6.337   3.180   6.895
 7528SOL    HW123483   6.255   3.127   6.918
 7528SOL    HW223484   6.309   3.270   6.860
 7529SOL     OW23485   6.378   2.960   4.525
 7529SOL    HW123486   6.278   2.968   4.530
 7529SOL    HW223487   6.402   2.890   4.458
 7530SOL     OW23488   6.948   2.060   1.744
 7530SOL    HW123489   6.856   2.022   1.757
 7530SOL    HW223490   6.947   2.158   1.766
 7531SOL     OW23491   4.120   1.916   3.679
 7531SOL    HW123492   4.154   2.004   3.714
 7531SOL    HW223493   4.037   1.932   3.626
 7532SOL     OW23494   4.645   5.551   6.420
 7532SOL    HW123495   4.561   5.533   6.368
 7532SOL    HW223496   4.625   5.611   6.497
 7533SOL     OW23497   4.622   4.361   1.352
 7533SOL    HW123498   4.689   4.292   1.378
 7533SOL    HW223499   4.550   4.367   1.422
 7534SOL     OW23500   4.139   0.367   4.526
 7534SOL    HW123501   4.108   0.298   4.461
 7534SOL    HW223502   4.062   0.423   4.555
 7535SOL     OW23503   0.334   5.729   3.592
 7535SOL    HW123504   0.414   5.789   3.591
 7535SOL    HW223505   0.359   5.641   3.551
 7536SOL     OW23506   4.930   5.985   4.758
 7536SOL    HW123507   4.915   6.083   4.745
 7536SOL    HW223508   4.845   5.942   4.787
 7537SOL     OW23509   2.886   6.465   3.510
 7537SOL    HW123510   2.981   6.489   3.530
 7537SOL    HW223511   2.843   6.426   3.592
 7538SOL     OW23512   0.794   4.028   0.784
 7538SOL    HW123513   0.697   4.028   0.760
 7538SOL    HW223514   0.847   4.070   0.711
 7539SOL     OW23515   0.575   6.623   3.695
 7539SOL    HW123516   0.559   6.528   3.719
 7539SOL    HW223517   0.490   6.666   3.667
 7540SOL     OW23518   6.566   5.495   2.834
 7540SOL    HW123519   6.534   5.509   2.928
 7540SOL    HW223520   6.487   5.482   2.773
 7541SOL     OW23521   1.702   4.483   6.888
 7541SOL    HW123522   1.696   4.384   6.892
 7541SOL    HW223523   1.620   4.524   6.929
 7542SOL     OW23524   5.934   5.969   5.332
 7542SOL    HW123525   6.004   5.903   5.358
 7542SOL    HW223526   5.857   5.921   5.289
 7543SOL     OW23527   2.578   0.987   6.812
 7543SOL    HW123528   2.567   1.025   6.721
 7543SOL    HW223529   2.546   1.053   6.880
 7544SOL     OW23530   6.650   2.774   4.210
 7544SOL    HW123531   6.650   2.677   4.232
 7544SOL    HW223532   6.733   2.817   4.246
 7545SOL     OW23533   1.027   4.990   6.628
 7545SOL    HW123534   1.062   4.975   6.720
 7545SOL    HW223535   1.008   4.902   6.585
 7546SOL     OW23536   2.942   2.908   1.736
 7546SOL    HW123537   3.014   2.970   1.767
 7546SOL    HW223538   2.965   2.814   1.762
 7547SOL     OW23539   5.089   0.357   1.742
 7547SOL    HW123540   5.107   0.289   1.670
 7547SOL    HW223541   5.001   0.336   1.786
 7548SOL     OW23542   3.995   2.070   6.586
 7548SOL    HW123543   4.022   2.001   6.654
 7548SOL    HW223544   3.896   2.067   6.573
 7549SOL     OW23545   5.247   2.221   4.129
 7549SOL    HW123546   5.213   2.301   4.081
 7549SOL    HW223547   5.343   2.235   4.154
 7550SOL     OW23548   2.509   4.684   4.567
 7550SOL    HW123549   2.598   4.687   4.612
 7550SOL    HW223550   2.438   4.704   4.634
 7551SOL     OW23551   5.885   2.196   5.884
 7551SOL    HW123552   5.952   2.208   5.957
 7551SOL    HW223553   5.806   2.256   5.901
 7552SOL     OW23554   2.659   6.011   5.107
 7552SOL    HW123555   2.688   6.103   5.082
 7552SOL    HW223556   2.692   5.946   5.038
 7553SOL     OW23557   5.694   6.294   6.091
 7553SOL    HW123558   5.772   6.355   6.079
 7553SOL    HW223559   5.664   6.260   6.002
 7554SOL     OW23560   4.954   0.907   1.214
 7554SOL    HW123561   5.031   0.952   1.169
 7554SOL    HW223562   4.988   0.841   1.281
 7555SOL     OW23563   3.523   4.990   5.269
 7555SOL    HW123564   3.467   4.921   5.224
 7555SOL    HW223565   3.552   4.956   5.359
 7556SOL     OW23566   0.263   6.788   0.867
 7556SOL    HW123567   0.165   6.792   0.849
 7556SOL    HW223568   0.310   6.753   0.786
 7557SOL     OW23569   4.936   0.203   0.166
 7557SOL    HW123570   4.941   0.185   0.265
 7557SOL    HW223571   4.852   0.253   0.146
 7558SOL     OW23572   1.567   1.719   4.296
 7558SOL    HW123573   1.541   1.811   4.265
 7558SOL    HW223574   1.592   1.723   4.392
 7559SOL     OW23575   3.314   1.491   4.661
 7559SOL    HW123576   3.293   1.587   4.639
 7559SOL    HW223577   3.340   1.485   4.758
 7560SOL     OW23578   0.718   0.989   5.601
 7560SOL    HW123579   0.666   1.035   5.529
 7560SOL    HW223580   0.724   0.891   5.581
 7561SOL     OW23581   5.638   2.009   5.037
 7561SOL    HW123582   5.571   1.946   4.998
 7561SOL    HW223583   5.641   2.093   4.983
 7562SOL     OW23584   1.314   4.943   3.860
 7562SOL    HW123585   1.358   4.901   3.940
 7562SOL    HW223586   1.215   4.937   3.870
 7563SOL     OW23587   3.187   5.164   2.325
 7563SOL    HW123588   3.132   5.246   2.342
 7563SOL    HW223589   3.127   5.088   2.299
 7564SOL     OW23590   4.180   1.890   5.164
 7564SOL    HW123591   4.187   1.989   5.178
 7564SOL    HW223592   4.094   1.857   5.203
 7565SOL     OW23593   6.115   4.083   6.071
 7565SOL    HW123594   6.126   3.993   6.114
 7565SOL    HW223595   6.204   4.127   6.062
 7566SOL     OW23596   4.702   4.347   1.085
 7566SOL    HW123597   4.645   4.347   1.167
 7566SOL    HW223598   4.775   4.415   1.095
 7567SOL     OW23599   1.730   0.727   4.574
 7567SOL    HW123600   1.830   0.732   4.572
 7567SOL    HW223601   1.697   0.763   4.661
 7568SOL     OW23602   5.958   5.358   1.851
 7568SOL    HW123603   5.889   5.427   1.828
 7568SOL    HW223604   5.941   5.275   1.798
 7569SOL     OW23605   4.408   3.781   0.268
 7569SOL    HW123606   4.337   3.764   0.336
 7569SOL    HW223607   4.366   3.790   0.177
 7570SOL     OW23608   0.208   2.654   2.841
 7570SOL    HW123609   0.234   2.646   2.745
 7570SOL    HW223610   0.108   2.658   2.849
 7571SOL     OW23611   4.395   2.071   3.239
 7571SOL    HW123612   4.452   2.058   3.158
 7571SOL    HW223613   4.298   2.063   3.214
 7572SOL     OW23614   4.131   6.582   2.532
 7572SOL    HW123615   4.080   6.566   2.447
 7572SOL    HW223616   4.074   6.636   2.595
 7573SOL     OW23617   5.184   6.444   5.359
 7573SOL    HW123618   5.272   6.414   5.324
 7573SOL    HW223619   5.194   6.476   5.454
 7574SOL     OW23620   0.408   1.578   3.739
 7574SOL    HW123621   0.465   1.534   3.809
 7574SOL    HW223622   0.335   1.516   3.711
 7575SOL     OW23623   6.960   6.885   2.016
 7575SOL    HW123624   6.991   6.944   2.090
 7575SOL    HW223625   7.000   6.915   1.929
 7576SOL     OW23626   5.637   3.305   0.675
 7576SOL    HW123627   5.736   3.307   0.691
 7576SOL    HW223628   5.599   3.220   0.711
 7577SOL     OW23629   1.439   6.766   0.819
 7577SOL    HW123630   1.452   6.794   0.914
 7577SOL    HW223631   1.453   6.668   0.811
 7578SOL     OW23632   7.020   5.818   3.278
 7578SOL    HW123633   0.075   5.867   3.252
 7578SOL    HW223634   0.012   5.755   3.353
 7579SOL     OW23635   0.357   1.144   0.257
 7579SOL    HW123636   0.328   1.063   0.308
 7579SOL    HW223637   0.413   1.202   0.316
 7580SOL     OW23638   2.338   4.686   3.303
 7580SOL    HW123639   2.403   4.614   3.280
 7580SOL    HW223640   2.292   4.664   3.389
 7581SOL     OW23641   6.864   1.148   2.661
 7581SOL    HW123642   6.816   1.227   2.625
 7581SOL    HW223643   6.849   1.141   2.759
 7582SOL     OW23644   3.160   1.608   5.408
 7582SOL    HW123645   3.193   1.686   5.462
 7582SOL    HW223646   3.119   1.642   5.324
 7583SOL     OW23647   4.906   3.177   2.536
 7583SOL    HW123648   4.946   3.104   2.480
 7583SOL    HW223649   4.864   3.137   2.617
 7584SOL     OW23650   0.020   0.995   3.458
 7584SOL    HW123651   6.998   1.049   3.525
 7584SOL    HW223652   6.985   0.965   3.386
 7585SOL     OW23653   1.236   1.038   7.006
 7585SOL    HW123654   1.299   0.978   6.957
 7585SOL    HW223655   1.287   1.115   0.016
 7586SOL     OW23656   0.900   1.527   2.829
 7586SOL    HW123657   0.918   1.551   2.924
 7586SOL    HW223658   0.886   1.428   2.821
 7587SOL     OW23659   3.356   0.576   0.980
 7587SOL    HW123660   3.416   0.528   1.043
 7587SOL    HW223661   3.301   0.510   0.929
 7588SOL     OW23662   1.643   2.485   4.368
 7588SOL    HW123663   1.734   2.515   4.397
 7588SOL    HW223664   1.588   2.462   4.448
 7589SOL     OW23665   0.628   0.862   3.213
 7589SOL    HW123666   0.632   0.961   3.226
 7589SOL    HW223667   0.571   0.821   3.284
 7590SOL     OW23668   0.055   1.164   6.956
 7590SOL    HW123669   0.101   1.238   6.907
 7590SOL    HW223670   7.010   1.200   7.012
 7591SOL     OW23671   4.145   3.227   5.257
 7591SOL    HW123672   4.078   3.253   5.326
 7591SOL    HW223673   4.133   3.284   5.176
 7592SOL     OW23674   0.228   6.533   5.063
 7592SOL    HW123675   0.168   6.534   4.984
 7592SOL    HW223676   0.183   6.485   5.139
 7593SOL     OW23677   1.065   1.182   6.002
 7593SOL    HW123678   1.087   1.202   6.097
 7593SOL    HW223679   1.109   1.250   5.943
 7594SOL     OW23680   0.327   4.772   6.971
 7594SOL    HW123681   0.353   4.701   0.007
 7594SOL    HW223682   0.246   4.743   6.920
 7595SOL     OW23683   0.410   2.992   6.235
 7595SOL    HW123684   0.314   3.018   6.238
 7595SOL    HW223685   0.427   2.917   6.298
 7596SOL     OW23686   3.102   0.989   5.442
 7596SOL    HW123687   3.143   0.907   5.402
 7596SOL    HW223688   3.002   0.983   5.435
 7597SOL     OW23689   1.767   4.809   2.185
 7597SOL    HW123690   1.670   4.821   2.164
 7597SOL    HW223691   1.793   4.714   2.167
 7598SOL     OW23692   6.644   1.271   3.124
 7598SOL    HW123693   6.583   1.348   3.136
 7598SOL    HW223694   6.739   1.303   3.119
 7599SOL     OW23695   3.570   3.465   0.867
 7599SOL    HW123696   3.551   3.449   0.964
 7599SOL    HW223697   3.602   3.380   0.825
 7600SOL     OW23698   1.981   6.803   4.794
 7600SOL    HW123699   1.884   6.803   4.770
 7600SOL    HW223700   2.001   6.880   4.855
 7601SOL     OW23701   3.315   6.367   2.470
 7601SOL    HW123702   3.362   6.444   2.426
 7601SOL    HW223703   3.363   6.341   2.553
 7602SOL     OW23704   6.993   1.384   0.303
 7602SOL    HW123705   7.020   1.442   0.380
 7602SOL    HW223706   6.899   1.352   0.316
 7603SOL     OW23707   3.420   0.210   5.500
 7603SOL    HW123708   3.408   0.290   5.559
 7603SOL    HW223709   3.415   0.237   5.404
 7604SOL     OW23710   0.715   2.403   4.943
 7604SOL    HW123711   0.746   2.497   4.930
 7604SOL    HW223712   0.620   2.394   4.912
 7605SOL     OW23713   1.982   6.852   0.363
 7605SOL    HW123714   2.073   6.810   0.368
 7605SOL    HW223715   1.937   6.823   0.278
 7606SOL     OW23716   6.760   1.659   3.207
 7606SOL    HW123717   6.784   1.690   3.115
 7606SOL    HW223718   6.707   1.730   3.253
 7607SOL     OW23719   2.630   6.056   5.805
 7607SOL    HW123720   2.672   5.967   5.788
 7607SOL    HW223721   2.701   6.125   5.817
 7608SOL     OW23722   5.887   2.472   6.135
 7608SOL    HW123723   5.915   2.377   6.120
 7608SOL    HW223724   5.969   2.529   6.146
 7609SOL     OW23725   0.745   1.739   4.833
 7609SOL    HW123726   0.833   1.711   4.795
 7609SOL    HW223727   0.691   1.657   4.856
 7610SOL     OW23728   3.844   5.093   5.318
 7610SOL    HW123729   3.833   5.027   5.244
 7610SOL    HW223730   3.807   5.055   5.403
 7611SOL     OW23731   4.921   3.581   0.826
 7611SOL    HW123732   4.888   3.632   0.746
 7611SOL    HW223733   5.019   3.564   0.816
 7612SOL     OW23734   3.110   1.466   3.168
 7612SOL    HW123735   3.081   1.555   3.132
 7612SOL    HW223736   3.155   1.480   3.256
 7613SOL     OW23737   0.517   1.121   2.137
 7613SOL    HW123738   0.483   1.204   2.091
 7613SOL    HW223739   0.617   1.122   2.138
 7614SOL     OW23740   4.605   3.791   0.760
 7614SOL    HW123741   4.696   3.769   0.726
 7614SOL    HW223742   4.557   3.707   0.785
 7615SOL     OW23743   5.930   3.670   5.117
 7615SOL    HW123744   5.837   3.691   5.149
 7615SOL    HW223745   5.932   3.673   5.017
 7616SOL     OW23746   6.542   0.206   3.376
 7616SOL    HW123747   6.543   0.283   3.440
 7616SOL    HW223748   6.471   0.222   3.307
 7617SOL     OW23749   5.302   5.073   3.900
 7617SOL    HW123750   5.305   5.069   4.000
 7617SOL    HW223751   5.342   5.159   3.869
 7618SOL     OW23752   2.150   2.364   0.070
 7618SOL    HW123753   2.241   2.404   0.081
 7618SOL    HW223754   2.128   2.310   0.152
 7619SOL     OW23755   0.789   1.959   4.483
 7619SOL    HW123756   0.799   2.034   4.418
 7619SOL    HW223757   0.703   1.911   4.466
 7620SOL     OW23758   4.093   4.095   1.503
 7620SOL    HW123759   4.172   4.096   1.440
 7620SOL    HW223760   4.021   4.037   1.465
 7621SOL     OW23761   6.304   4.263   0.352
 7621SOL    HW123762   6.392   4.234   0.314
 7621SOL    HW223763   6.294   4.362   0.340
 7622SOL     OW23764   3.063   3.569   1.430
 7622SOL    HW123765   3.010   3.484   1.428
 7622SOL    HW223766   3.028   3.629   1.502
 7623SOL     OW23767   4.701   4.678   0.675
 7623SOL    HW123768   4.783   4.645   0.722
 7623SOL    HW223769   4.668   4.761   0.719
 7624SOL     OW23770   0.622   2.951   2.277
 7624SOL    HW123771   0.545   3.013   2.295
 7624SOL    HW223772   0.689   2.960   2.351
 7625SOL     OW23773   5.582   0.797   1.035
 7625SOL    HW123774   5.483   0.795   1.025
 7625SOL    HW223775   5.623   0.730   0.974
 7626SOL     OW23776   4.771   1.433   5.318
 7626SOL    HW123777   4.680   1.448   5.358
 7626SOL    HW223778   4.802   1.340   5.339
 7627SOL     OW23779   3.871   2.685   6.922
 7627SOL    HW123780   3.816   2.605   6.946
 7627SOL    HW223781   3.867   2.701   6.823
 7628SOL     OW23782   3.299   2.428   0.157
 7628SOL    HW123783   3.288   2.396   0.062
 7628SOL    HW223784   3.215   2.473   0.187
 7629SOL     OW23785   6.343   3.218   3.839
 7629SOL    HW123786   6.258   3.168   3.829
 7629SOL    HW223787   6.407   3.191   3.768
 7630SOL     OW23788   1.293   6.746   5.303
 7630SOL    HW123789   1.269   6.673   5.367
 7630SOL    HW223790   1.391   6.765   5.309
 7631SOL     OW23791   1.391   0.330   5.730
 7631SOL    HW123792   1.436   0.396   5.790
 7631SOL    HW223793   1.322   0.280   5.782
 7632SOL     OW23794   5.253   5.647   0.133
 7632SOL    HW123795   5.328   5.622   0.193
 7632SOL    HW223796   5.237   5.574   0.067
 7633SOL     OW23797   6.410   1.405   1.436
 7633SOL    HW123798   6.395   1.450   1.348
 7633SOL    HW223799   6.343   1.439   1.503
 7634SOL     OW23800   0.025   2.140   0.349
 7634SOL    HW123801   7.015   2.229   0.328
 7634SOL    HW223802   0.067   2.141   0.439
 7635SOL     OW23803   2.405   3.814   5.547
 7635SOL    HW123804   2.405   3.914   5.544
 7635SOL    HW223805   2.465   3.783   5.621
 7636SOL     OW23806   0.257   4.063   4.358
 7636SOL    HW123807   0.194   4.133   4.394
 7636SOL    HW223808   0.351   4.095   4.370
 7637SOL     OW23809   0.394   6.564   4.713
 7637SOL    HW123810   0.309   6.587   4.667
 7637SOL    HW223811   0.471   6.582   4.651
 7638SOL     OW23812   0.405   6.314   1.753
 7638SOL    HW123813   0.412   6.252   1.675
 7638SOL    HW223814   0.484   6.375   1.755
 7639SOL     OW23815   1.895   0.706   6.906
 7639SOL    HW123816   1.909   0.731   7.002
 7639SOL    HW223817   1.955   0.762   6.848
 7640SOL     OW23818   2.953   0.767   0.441
 7640SOL    HW123819   2.998   0.831   0.379
 7640SOL    HW223820   2.988   0.674   0.425
 7641SOL     OW23821   0.220   4.322   3.537
 7641SOL    HW123822   0.178   4.239   3.574
 7641SOL    HW223823   0.290   4.297   3.471
 7642SOL     OW23824   5.832   1.194   3.111
 7642SOL    HW123825   5.757   1.152   3.162
 7642SOL    HW223826   5.833   1.293   3.128
 7643SOL     OW23827   5.422   4.063   2.870
 7643SOL    HW123828   5.414   4.108   2.958
 7643SOL    HW223829   5.478   3.981   2.879
 7644SOL     OW23830   5.654   3.434   1.000
 7644SOL    HW123831   5.569   3.383   0.987
 7644SOL    HW223832   5.692   3.413   1.090
 7645SOL     OW23833   3.589   4.826   6.213
 7645SOL    HW123834   3.518   4.759   6.234
 7645SOL    HW223835   3.579   4.905   6.274
 7646SOL     OW23836   0.052   2.193   1.484
 7646SOL    HW123837   7.020   2.116   1.504
 7646SOL    HW223838   0.065   2.248   1.566
 7647SOL     OW23839   6.608   2.550   4.997
 7647SOL    HW123840   6.640   2.641   4.971
 7647SOL    HW223841   6.517   2.557   5.037
 7648SOL     OW23842   2.693   1.536   1.624
 7648SOL    HW123843   2.713   1.634   1.624
 7648SOL    HW223844   2.770   1.486   1.665
 7649SOL     OW23845   4.850   1.172   5.418
 7649SOL    HW123846   4.837   1.079   5.383
 7649SOL    HW223847   4.927   1.173   5.481
 7650SOL     OW23848   3.787   1.831   0.742
 7650SOL    HW123849   3.773   1.743   0.786
 7650SOL    HW223850   3.718   1.845   0.670
 7651SOL     OW23851   3.086   4.707   5.754
 7651SOL    HW123852   3.084   4.744   5.847
 7651SOL    HW223853   3.005   4.737   5.704
 7652SOL     OW23854   0.313   1.009   4.116
 7652SOL    HW123855   0.379   0.934   4.104
 7652SOL    HW223856   0.267   1.027   4.030
 7653SOL     OW23857   0.820   1.048   6.492
 7653SOL    HW123858   0.824   1.016   6.586
 7653SOL    HW223859   0.895   1.007   6.440
 7654SOL     OW23860   5.361   1.897   6.630
 7654SOL    HW123861   5.375   1.827   6.699
 7654SOL    HW223862   5.288   1.869   6.567
 7655SOL     OW23863   2.942   1.822   2.837
 7655SOL    HW123864   2.999   1.782   2.909
 7655SOL    HW223865   2.948   1.766   2.754
 7656SOL     OW23866   6.868   3.318   6.398
 7656SOL    HW123867   6.848   3.339   6.303
 7656SOL    HW223868   6.939   3.248   6.403
 7657SOL     OW23869   1.108   4.197   4.336
 7657SOL    HW123870   1.149   4.142   4.409
 7657SOL    HW223871   1.052   4.269   4.376
 7658SOL     OW23872   2.134   1.177   1.157
 7658SOL    HW123873   2.173   1.262   1.191
 7658SOL    HW223874   2.134   1.179   1.057
 7659SOL     OW23875   4.617   4.018   5.807
 7659SOL    HW123876   4.552   4.092   5.793
 7659SOL    HW223877   4.710   4.056   5.811
 7660SOL     OW23878   0.501   5.279   4.654
 7660SOL    HW123879   0.522   5.345   4.726
 7660SOL    HW223880   0.540   5.309   4.568
 7661SOL     OW23881   4.847   2.287   5.438
 7661SOL    HW123882   4.886   2.195   5.435
 7661SOL    HW223883   4.808   2.310   5.348
 7662SOL     OW23884   0.023   0.894   1.087
 7662SOL    HW123885   0.111   0.892   1.134
 7662SOL    HW223886   0.024   0.829   1.011
 7663SOL     OW23887   6.906   5.770   5.566
 7663SOL    HW123888   6.988   5.749   5.513
 7663SOL    HW223889   6.826   5.771   5.506
 7664SOL     OW23890   4.221   2.063   2.524
 7664SOL    HW123891   4.230   2.159   2.497
 7664SOL    HW223892   4.259   2.050   2.616
 7665SOL     OW23893   4.586   0.774   5.031
 7665SOL    HW123894   4.593   0.871   5.052
 7665SOL    HW223895   4.494   0.741   5.052
 7666SOL     OW23896   5.336   4.162   4.044
 7666SOL    HW123897   5.427   4.159   4.086
 7666SOL    HW223898   5.328   4.245   3.988
 7667SOL     OW23899   4.233   5.757   1.413
 7667SOL    HW123900   4.223   5.698   1.333
 7667SOL    HW223901   4.165   5.731   1.482
 7668SOL     OW23902   2.248   5.967   0.333
 7668SOL    HW123903   2.238   5.998   0.427
 7668SOL    HW223904   2.190   5.887   0.318
 7669SOL     OW23905   2.471   0.445   5.471
 7669SOL    HW123906   2.482   0.486   5.381
 7669SOL    HW223907   2.424   0.510   5.531
 7670SOL     OW23908   0.819   6.730   0.197
 7670SOL    HW123909   0.814   6.709   0.295
 7670SOL    HW223910   0.730   6.764   0.166
 7671SOL     OW23911   3.933   6.733   1.308
 7671SOL    HW123912   3.861   6.688   1.255
 7671SOL    HW223913   4.007   6.669   1.325
 7672SOL     OW23914   4.681   4.940   2.938
 7672SOL    HW123915   4.631   4.853   2.933
 7672SOL    HW223916   4.616   5.016   2.936
 7673SOL     OW23917   1.520   6.077   4.787
 7673SOL    HW123918   1.468   6.162   4.783
 7673SOL    HW223919   1.460   6.003   4.819
 7674SOL     OW23920   4.286   6.222   4.339
 7674SOL    HW123921   4.327   6.254   4.254
 7674SOL    HW223922   4.229   6.294   4.378
 7675SOL     OW23923   4.828   6.492   3.535
 7675SOL    HW123924   4.844   6.546   3.617
 7675SOL    HW223925   4.733   6.459   3.534
 7676SOL     OW23926   3.398   2.979   5.591
 7676SOL    HW123927   3.356   2.894   5.562
 7676SOL    HW223928   3.418   3.036   5.512
 7677SOL     OW23929   5.567   4.527   0.530
 7677SOL    HW123930   5.656   4.554   0.566
 7677SOL    HW223931   5.500   4.599   0.548
 7678SOL     OW23932   1.688   0.765   5.099
 7678SOL    HW123933   1.770   0.779   5.153
 7678SOL    HW223934   1.639   0.684   5.132
 7679SOL     OW23935   2.773   5.432   5.368
 7679SOL    HW123936   2.840   5.397   5.302
 7679SOL    HW223937   2.721   5.356   5.406
 7680SOL     OW23938   2.232   6.991   5.428
 7680SOL    HW123939   2.159   0.022   5.463
 7680SOL    HW223940   2.192   6.922   5.367
 7681SOL     OW23941   2.823   3.503   6.478
 7681SOL    HW123942   2.903   3.444   6.474
 7681SOL    HW223943   2.815   3.555   6.394
 7682SOL     OW23944   2.661   1.481   2.410
 7682SOL    HW123945   2.654   1.572   2.371
 7682SOL    HW223946   2.667   1.413   2.336
 7683SOL     OW23947   0.763   6.973   4.283
 7683SOL    HW123948   0.671   6.936   4.273
 7683SOL    HW223949   0.830   6.905   4.251
 7684SOL     OW23950   4.174   2.703   1.382
 7684SOL    HW123951   4.088   2.673   1.422
 7684SOL    HW223952   4.243   2.711   1.453
 7685SOL     OW23953   2.622   0.247   0.159
 7685SOL    HW123954   2.588   0.194   0.237
 7685SOL    HW223955   2.680   0.321   0.192
 7686SOL     OW23956   6.218   0.152   4.608
 7686SOL    HW123957   6.195   0.167   4.512
 7686SOL    HW223958   6.136   0.132   4.660
 7687SOL     OW23959   5.946   4.800   5.260
 7687SOL    HW123960   5.847   4.797   5.242
 7687SOL    HW223961   5.990   4.719   5.221
 7688SOL     OW23962   0.148   4.585   6.248
 7688SOL    HW123963   0.119   4.630   6.332
 7688SOL    HW223964   0.103   4.496   6.240
 7689SOL     OW23965   4.553   0.078   1.519
 7689SOL    HW123966   4.526   0.167   1.485
 7689SOL    HW223967   4.494   0.051   1.595
 7690SOL     OW23968   5.915   5.381   1.357
 7690SOL    HW123969   5.848   5.452   1.334
 7690SOL    HW223970   6.007   5.412   1.331
 7691SOL     OW23971   4.455   4.530   3.120
 7691SOL    HW123972   4.362   4.550   3.089
 7691SOL    HW223973   4.503   4.478   3.049
 7692SOL     OW23974   2.324   0.026   2.638
 7692SOL    HW123975   2.328   0.126   2.630
 7692SOL    HW223976   2.311   0.000   2.734
 7693SOL     OW23977   1.903   1.649   0.707
 7693SOL    HW123978   1.838   1.632   0.634
 7693SOL    HW223979   1.892   1.743   0.740
 7694SOL     OW23980   5.655   1.625   5.312
 7694SOL    HW123981   5.629   1.722   5.307
 7694SOL    HW223982   5.707   1.609   5.397
 7695SOL     OW23983   4.624   0.137   3.528
 7695SOL    HW123984   4.528   0.165   3.532
 7695SOL    HW223985   4.681   0.208   3.570
 7696SOL     OW23986   1.153   2.666   6.108
 7696SOL    HW123987   1.150   2.688   6.011
 7696SOL    HW223988   1.172   2.748   6.161
 7697SOL     OW23989   4.648   6.926   3.026
 7697SOL    HW123990   4.675   6.992   2.957
 7697SOL    HW223991   4.563   6.956   3.070
 7698SOL     OW23992   6.507   2.426   0.570
 7698SOL    HW123993   6.485   2.505   0.628
 7698SOL    HW223994   6.423   2.388   0.533
 7699SOL     OW23995   4.371   5.800   6.171
 7699SOL    HW123996   4.361   5.834   6.078
 7699SOL    HW223997   4.356   5.874   6.236
 7700SOL     OW23998   5.256   6.088   2.754
 7700SOL    HW123999   5.254   6.077   2.854
 7700SOL    HW224000   5.243   5.999   2.710
 7701SOL     OW24001   0.986   2.168   6.235
 7701SOL    HW124002   1.018   2.261   6.252
 7701SOL    HW224003   1.003   2.111   6.315
 7702SOL     OW24004   4.378   0.310   4.611
 7702SOL    HW124005   4.422   0.226   4.577
 7702SOL    HW224006   4.284   0.313   4.580
 7703SOL     OW24007   6.358   6.789   4.992
 7703SOL    HW124008   6.311   6.875   4.972
 7703SOL    HW224009   6.370   6.737   4.908
 7704SOL     OW24010   6.971   1.556   4.797
 7704SOL    HW124011   6.953   1.596   4.887
 7704SOL    HW224012   6.998   1.629   4.734
 7705SOL     OW24013   1.070   4.980   6.889
 7705SOL    HW124014   1.007   4.963   6.965
 7705SOL    HW224015   1.157   4.934   6.906
 7706SOL     OW24016   3.764   2.903   2.352
 7706SOL    HW124017   3.831   2.959   2.400
 7706SOL    HW224018   3.704   2.859   2.419
 7707SOL     OW24019   6.399   4.159   6.368
 7707SOL    HW124020   6.410   4.060   6.380
 7707SOL    HW224021   6.402   4.181   6.271
 7708SOL     OW24022   2.590   0.255   4.466
 7708SOL    HW124023   2.683   0.285   4.488
 7708SOL    HW224024   2.581   0.242   4.368
 7709SOL     OW24025   0.012   4.966   1.345
 7709SOL    HW124026   0.005   5.041   1.279
 7709SOL    HW224027   0.101   4.922   1.336
 7710SOL     OW24028   6.958   3.384   0.960
 7710SOL    HW124029   6.973   3.414   1.054
 7710SOL    HW224030   7.004   3.297   0.944
 7711SOL     OW24031   0.442   4.516   5.209
 7711SOL    HW124032   0.496   4.453   5.153
 7711SOL    HW224033   0.353   4.476   5.228
 7712SOL     OW24034   0.096   5.122   5.596
 7712SOL    HW124035   0.006   5.111   5.639
 7712SOL    HW224036   0.122   5.035   5.552
 7713SOL     OW24037   1.877   4.652   7.009
 7713SOL    HW124038   1.832   4.604   6.933
 7713SOL    HW224039   1.867   4.598   0.064
 7714SOL     OW24040   5.906   0.996   5.590
 7714SOL    HW124041   5.891   1.069   5.523
 7714SOL    HW224042   5.821   0.980   5.641
 7715SOL     OW24043   3.261   3.237   5.872
 7715SOL    HW124044   3.303   3.147   5.881
 7715SOL    HW224045   3.246   3.276   5.963
 7716SOL     OW24046   1.251   6.074   5.790
 7716SOL    HW124047   1.255   5.984   5.833
 7716SOL    HW224048   1.264   6.063   5.691
 7717SOL     OW24049   0.442   1.561   6.800
 7717SOL    HW124050   0.463   1.471   6.761
 7717SOL    HW224051   0.444   1.630   6.728
 7718SOL     OW24052   1.134   3.661   3.021
 7718SOL    HW124053   1.042   3.689   2.994
 7718SOL    HW224054   1.131   3.568   3.058
 7719SOL     OW24055   2.196   4.588   4.722
 7719SOL    HW124056   2.267   4.518   4.726
 7719SOL    HW224057   2.139   4.572   4.641
 7720SOL     OW24058   4.650   1.359   6.875
 7720SOL    HW124059   4.614   1.330   6.787
 7720SOL    HW224060   4.683   1.280   6.926
 7721SOL     OW24061   0.548   0.908   2.858
 7721SOL    HW124062   0.618   0.842   2.827
 7721SOL    HW224063   0.500   0.944   2.778
 7722SOL     OW24064   1.359   6.135   3.715
 7722SOL    HW124065   1.436   6.131   3.780
 7722SOL    HW224066   1.273   6.138   3.766
 7723SOL     OW24067   4.858   3.922   0.463
 7723SOL    HW124068   4.905   4.008   0.445
 7723SOL    HW224069   4.774   3.918   0.409
 7724SOL     OW24070   1.856   3.962   1.571
 7724SOL    HW124071   1.875   4.041   1.512
 7724SOL    HW224072   1.942   3.926   1.607
 7725SOL     OW24073   5.140   3.056   3.418
 7725SOL    HW124074   5.217   2.993   3.410
 7725SOL    HW224075   5.055   3.004   3.419
 7726SOL     OW24076   0.831   3.080   6.167
 7726SOL    HW124077   0.848   2.983   6.179
 7726SOL    HW224078   0.800   3.120   6.253
 7727SOL     OW24079   4.497   0.837   2.235
 7727SOL    HW124080   4.525   0.742   2.250
 7727SOL    HW224081   4.578   0.895   2.224
 7728SOL     OW24082   2.123   3.349   4.535
 7728SOL    HW124083   2.094   3.383   4.624
 7728SOL    HW224084   2.148   3.252   4.543
 7729SOL     OW24085   0.094   2.276   3.938
 7729SOL    HW124086   0.126   2.300   3.846
 7729SOL    HW224087   0.173   2.265   3.999
 7730SOL     OW24088   6.087   4.245   5.019
 7730SOL    HW124089   6.080   4.319   4.952
 7730SOL    HW224090   6.021   4.261   5.093
 7731SOL     OW24091   6.752   6.418   6.815
 7731SOL    HW124092   6.678   6.351   6.803
 7731SOL    HW224093   6.774   6.459   6.727
 7732SOL     OW24094   4.069   0.274   6.855
 7732SOL    HW124095   3.980   0.283   6.811
 7732SOL    HW224096   4.135   0.336   6.812
 7733SOL     OW24097   6.260   5.844   1.919
 7733SOL    HW124098   6.273   5.905   1.841
 7733SOL    HW224099   6.174   5.865   1.965
 7734SOL     OW24100   3.153   3.605   4.820
 7734SOL    HW124101   3.106   3.656   4.748
 7734SOL    HW224102   3.223   3.662   4.862
 7735SOL     OW24103   6.689   6.052   0.467
 7735SOL    HW124104   6.644   5.975   0.511
 7735SOL    HW224105   6.755   6.018   0.400
 7736SOL     OW24106   2.001   2.956   0.241
 7736SOL    HW124107   2.023   2.991   0.332
 7736SOL    HW224108   2.077   2.976   0.179
 7737SOL     OW24109   3.968   5.256   1.057
 7737SOL    HW124110   4.047   5.272   1.115
 7737SOL    HW224111   3.992   5.190   0.986
 7738SOL     OW24112   2.045   0.410   5.767
 7738SOL    HW124113   2.091   0.482   5.819
 7738SOL    HW224114   2.109   0.368   5.703
 7739SOL     OW24115   1.488   2.033   0.555
 7739SOL    HW124116   1.567   1.977   0.581
 7739SOL    HW224117   1.440   1.990   0.480
 7740SOL     OW24118   1.682   0.842   4.833
 7740SOL    HW124119   1.704   0.841   4.930
 7740SOL    HW224120   1.663   0.935   4.803
 7741SOL     OW24121   1.586   4.580   6.141
 7741SOL    HW124122   1.586   4.620   6.049
 7741SOL    HW224123   1.608   4.483   6.136
 7742SOL     OW24124   4.249   1.700   4.169
 7742SOL    HW124125   4.178   1.749   4.117
 7742SOL    HW224126   4.287   1.762   4.238
 7743SOL     OW24127   5.049   1.850   5.692
 7743SOL    HW124128   5.035   1.812   5.784
 7743SOL    HW224129   4.984   1.808   5.629
 7744SOL     OW24130   0.519   6.144   4.869
 7744SOL    HW124131   0.451   6.077   4.837
 7744SOL    HW224132   0.480   6.200   4.941
 7745SOL     OW24133   2.380   0.104   1.075
 7745SOL    HW124134   2.403   0.166   1.150
 7745SOL    HW224135   2.282   0.083   1.079
 7746SOL     OW24136   1.115   5.741   1.061
 7746SOL    HW124137   1.020   5.766   1.044
 7746SOL    HW224138   1.169   5.823   1.080
 7747SOL     OW24139   0.809   6.024   6.911
 7747SOL    HW124140   0.742   5.972   6.963
 7747SOL    HW224141   0.891   5.968   6.896
 7748SOL     OW24142   4.722   2.092   5.744
 7748SOL    HW124143   4.783   2.171   5.731
 7748SOL    HW224144   4.674   2.102   5.831
 7749SOL     OW24145   3.890   3.895   4.250
 7749SOL    HW124146   3.965   3.829   4.251
 7749SOL    HW224147   3.861   3.915   4.343
 7750SOL     OW24148   5.731   4.517   5.302
 7750SOL    HW124149   5.820   4.536   5.344
 7750SOL    HW224150   5.709   4.590   5.236
 7751SOL     OW24151   6.915   1.292   5.178
 7751SOL    HW124152   6.830   1.282   5.230
 7751SOL    HW224153   6.977   1.352   5.228
 7752SOL     OW24154   6.643   5.739   5.469
 7752SOL    HW124155   6.623   5.649   5.507
 7752SOL    HW224156   6.558   5.792   5.464
 7753SOL     OW24157   2.420   1.275   4.700
 7753SOL    HW124158   2.324   1.279   4.727
 7753SOL    HW224159   2.434   1.333   4.620
 7754SOL     OW24160   5.793   0.523   1.932
 7754SOL    HW124161   5.737   0.446   1.901
 7754SOL    HW224162   5.855   0.493   2.005
 7755SOL     OW24163   1.221   5.792   5.799
 7755SOL    HW124164   1.166   5.837   5.729
 7755SOL    HW224165   1.291   5.736   5.755
 7756SOL     OW24166   4.129   5.681   2.359
 7756SOL    HW124167   4.053   5.616   2.360
 7756SOL    HW224168   4.095   5.771   2.386
 7757SOL     OW24169   4.786   6.592   5.726
 7757SOL    HW124170   4.851   6.540   5.782
 7757SOL    HW224171   4.720   6.638   5.785
 7758SOL     OW24172   2.409   2.244   5.325
 7758SOL    HW124173   2.381   2.279   5.236
 7758SOL    HW224174   2.402   2.317   5.393
 7759SOL     OW24175   1.980   0.734   4.869
 7759SOL    HW124176   2.055   0.694   4.817
 7759SOL    HW224177   1.911   0.770   4.805
 7760SOL     OW24178   5.062   2.960   2.377
 7760SOL    HW124179   5.129   2.939   2.306
 7760SOL    HW224180   4.984   2.898   2.368
 7761SOL     OW24181   3.448   0.066   6.235
 7761SOL    HW124182   3.492   0.156   6.233
 7761SOL    HW224183   3.354   0.075   6.201
 7762SOL     OW24184   3.486   1.619   0.628
 7762SOL    HW124185   3.545   1.546   0.661
 7762SOL    HW224186   3.459   1.677   0.705
 7763SOL     OW24187   1.751   1.939   0.594
 7763SOL    HW124188   1.802   1.946   0.680
 7763SOL    HW224189   1.727   1.844   0.577
 7764SOL     OW24190   3.283   2.943   2.573
 7764SOL    HW124191   3.194   2.971   2.611
 7764SOL    HW224192   3.277   2.940   2.473
 7765SOL     OW24193   6.589   2.228   2.638
 7765SOL    HW124194   6.525   2.287   2.588
 7765SOL    HW224195   6.673   2.279   2.657
 7766SOL     OW24196   0.122   2.653   6.567
 7766SOL    HW124197   0.169   2.691   6.488
 7766SOL    HW224198   0.189   2.627   6.637
 7767SOL     OW24199   4.949   5.179   4.577
 7767SOL    HW124200   4.990   5.117   4.644
 7767SOL    HW224201   4.934   5.268   4.619
 7768SOL     OW24202   3.367   4.897   2.623
 7768SOL    HW124203   3.311   4.968   2.666
 7768SOL    HW224204   3.392   4.926   2.531
 7769SOL     OW24205   5.792   2.235   1.761
 7769SOL    HW124206   5.720   2.303   1.768
 7769SOL    HW224207   5.806   2.192   1.850
 7770SOL     OW24208   3.557   5.399   1.106
 7770SOL    HW124209   3.615   5.331   1.151
 7770SOL    HW224210   3.543   5.476   1.167
 7771SOL     OW24211   2.236   1.625   5.651
 7771SOL    HW124212   2.204   1.600   5.559
 7771SOL    HW224213   2.159   1.659   5.704
 7772SOL     OW24214   5.446   1.439   4.561
 7772SOL    HW124215   5.356   1.444   4.605
 7772SOL    HW224216   5.517   1.428   4.631
 7773SOL     OW24217   4.169   4.270   6.078
 7773SOL    HW124218   4.143   4.318   5.994
 7773SOL    HW224219   4.121   4.182   6.081
 7774SOL     OW24220   4.912   1.490   6.409
 7774SOL    HW124221   4.836   1.434   6.441
 7774SOL    HW224222   4.915   1.575   6.462
 7775SOL     OW24223   2.791   6.676   2.336
 7775SOL    HW124224   2.769   6.648   2.429
 7775SOL    HW224225   2.886   6.708   2.332
 7776SOL     OW24226   3.681   3.803   6.788
 7776SOL    HW124227   3.628   3.880   6.824
 7776SOL    HW224228   3.669   3.798   6.689
 7777SOL     OW24229   2.127   1.454   6.920
 7777SOL    HW124230   2.092   1.537   6.876
 7777SOL    HW224231   2.050   1.396   6.947
 7778SOL     OW24232   5.493   1.009   0.340
 7778SOL    HW124233   5.395   0.986   0.341
 7778SOL    HW224234   5.537   0.969   0.421
 7779SOL     OW24235   3.735   3.462   0.099
 7779SOL    HW124236   3.660   3.466   0.166
 7779SOL    HW224237   3.705   3.412   0.018
 7780SOL     OW24238   2.165   6.595   4.836
 7780SOL    HW124239   2.111   6.577   4.919
 7780SOL    HW224240   2.119   6.664   4.780
 7781SOL     OW24241   1.316   4.736   4.783
 7781SOL    HW124242   1.360   4.701   4.866
 7781SOL    HW224243   1.281   4.660   4.729
 7782SOL     OW24244   3.196   4.656   6.453
 7782SOL    HW124245   3.206   4.556   6.456
 7782SOL    HW224246   3.118   4.684   6.509
 7783SOL     OW24247   3.098   5.233   6.346
 7783SOL    HW124248   3.113   5.272   6.437
 7783SOL    HW224249   3.169   5.165   6.326
 7784SOL     OW24250   0.527   2.844   0.321
 7784SOL    HW124251   0.435   2.845   0.360
 7784SOL    HW224252   0.592   2.810   0.389
 7785SOL     OW24253   2.498   5.888   4.203
 7785SOL    HW124254   2.512   5.789   4.202
 7785SOL    HW224255   2.446   5.915   4.121
 7786SOL     OW24256   3.101   4.278   5.211
 7786SOL    HW124257   3.116   4.243   5.118
 7786SOL    HW224258   3.063   4.370   5.206
 7787SOL     OW24259   2.771   2.586   5.329
 7787SOL    HW124260   2.711   2.665   5.343
 7787SOL    HW224261   2.865   2.612   5.352
 7788SOL     OW24262   1.104   1.653   0.260
 7788SOL    HW124263   1.161   1.700   0.193
 7788SOL    HW224264   1.121   1.555   0.257
 7789SOL     OW24265   2.005   0.667   1.366
 7789SOL    HW124266   2.039   0.741   1.308
 7789SOL    HW224267   2.015   0.694   1.462
 7790SOL     OW24268   5.442   3.237   2.739
 7790SOL    HW124269   5.388   3.174   2.684
 7790SOL    HW224270   5.511   3.281   2.682
 7791SOL     OW24271   1.707   4.770   5.188
 7791SOL    HW124272   1.757   4.685   5.176
 7791SOL    HW224273   1.757   4.829   5.252
 7792SOL     OW24274   2.643   5.460   6.257
 7792SOL    HW124275   2.598   5.389   6.312
 7792SOL    HW224276   2.688   5.418   6.179
 7793SOL     OW24277   1.039   0.932   6.390
 7793SOL    HW124278   1.102   0.959   6.318
 7793SOL    HW224279   1.088   0.875   6.457
 7794SOL     OW24280   5.269   5.628   3.906
 7794SOL    HW124281   5.172   5.651   3.912
 7794SOL    HW224282   5.315   5.693   3.847
 7795SOL     OW24283   2.424   4.332   5.189
 7795SOL    HW124284   2.342   4.276   5.202
 7795SOL    HW224285   2.459   4.360   5.278
 7796SOL     OW24286   4.072   3.714   3.441
 7796SOL    HW124287   4.127   3.775   3.498
 7796SOL    HW224288   3.994   3.681   3.494
 7797SOL     OW24289   0.582   0.081   2.851
 7797SOL    HW124290   0.521   0.107   2.776
 7797SOL    HW224291   0.601   0.161   2.907
 7798SOL     OW24292   3.682   5.352   0.411
 7798SOL    HW124293   3.598   5.311   0.377
 7798SOL    HW224294   3.688   5.447   0.380
 7799SOL     OW24295   6.978   5.413   1.831
 7799SOL    HW124296   6.969   5.513   1.833
 7799SOL    HW224297   6.939   5.374   1.914
 7800SOL     OW24298   0.844   5.668   2.405
 7800SOL    HW124299   0.751   5.638   2.384
 7800SOL    HW224300   0.875   5.624   2.489
 7801SOL     OW24301   3.289   2.430   6.899
 7801SOL    HW124302   3.191   2.414   6.908
 7801SOL    HW224303   3.305   2.507   6.836
 7802SOL     OW24304   5.797   2.107   1.991
 7802SOL    HW124305   5.812   2.010   1.974
 7802SOL    HW224306   5.816   2.127   2.088
 7803SOL     OW24307   4.246   4.290   5.325
 7803SOL    HW124308   4.268   4.339   5.409
 7803SOL    HW224309   4.251   4.352   5.247
 7804SOL     OW24310   4.832   1.839   5.968
 7804SOL    HW124311   4.753   1.823   5.909
 7804SOL    HW224312   4.862   1.934   5.960
 7805SOL     OW24313   5.222   3.501   2.035
 7805SOL    HW124314   5.147   3.501   2.101
 7805SOL    HW224315   5.185   3.499   1.942
 7806SOL     OW24316   5.450   2.657   5.988
 7806SOL    HW124317   5.361   2.665   5.943
 7806SOL    HW224318   5.523   2.669   5.921
 7807SOL     OW24319   0.428   4.405   6.586
 7807SOL    HW124320   0.416   4.384   6.489
 7807SOL    HW224321   0.523   4.388   6.612
 7808SOL     OW24322   0.322   1.467   5.023
 7808SOL    HW124323   0.365   1.379   5.045
 7808SOL    HW224324   0.333   1.530   5.101
 7809SOL     OW24325   2.600   5.393   4.926
 7809SOL    HW124326   2.524   5.433   4.976
 7809SOL    HW224327   2.685   5.439   4.953
 7810SOL     OW24328   2.893   0.924   6.832
 7810SOL    HW124329   2.819   0.875   6.786
 7810SOL    HW224330   2.854   0.996   6.889
 7811SOL     OW24331   6.386   4.674   3.915
 7811SOL    HW124332   6.434   4.586   3.912
 7811SOL    HW224333   6.349   4.694   3.824
 7812SOL     OW24334   1.440   1.835   3.595
 7812SOL    HW124335   1.479   1.831   3.503
 7812SOL    HW224336   1.354   1.885   3.592
 7813SOL     OW24337   6.568   3.022   0.175
 7813SOL    HW124338   6.581   3.104   0.119
 7813SOL    HW224339   6.594   3.042   0.270
 7814SOL     OW24340   0.833   3.400   2.891
 7814SOL    HW124341   0.748   3.393   2.943
 7814SOL    HW224342   0.826   3.344   2.809
 7815SOL     OW24343   6.576   2.026   5.962
 7815SOL    HW124344   6.551   1.971   6.041
 7815SOL    HW224345   6.668   2.064   5.975
 7816SOL     OW24346   1.365   3.858   4.794
 7816SOL    HW124347   1.403   3.879   4.705
 7816SOL    HW224348   1.439   3.834   4.858
 7817SOL     OW24349   5.652   3.853   4.703
 7817SOL    HW124350   5.566   3.826   4.747
 7817SOL    HW224351   5.635   3.873   4.607
 7818SOL     OW24352   5.362   6.062   2.003
 7818SOL    HW124353   5.274   6.047   2.048
 7818SOL    HW224354   5.427   5.992   2.034
 7819SOL     OW24355   6.572   1.684   1.623
 7819SOL    HW124356   6.510   1.741   1.569
 7819SOL    HW224357   6.636   1.637   1.563
 7820SOL     OW24358   1.642   0.780   6.794
 7820SOL    HW124359   1.599   0.697   6.759
 7820SOL    HW224360   1.724   0.756   6.845
 7821SOL     OW24361   3.033   5.300   1.967
 7821SOL    HW124362   2.994   5.351   1.890
 7821SOL    HW224363   2.967   5.231   1.997
 7822SOL     OW24364   1.485   6.025   5.126
 7822SOL    HW124365   1.436   5.949   5.167
 7822SOL    HW224366   1.584   6.012   5.138
 7823SOL     OW24367   1.571   4.472   4.928
 7823SOL    HW124368   1.518   4.531   4.989
 7823SOL    HW224369   1.621   4.528   4.862
 7824SOL     OW24370   0.287   2.690   5.845
 7824SOL    HW124371   0.375   2.722   5.810
 7824SOL    HW224372   0.223   2.681   5.768
 7825SOL     OW24373   3.089   1.423   6.426
 7825SOL    HW124374   3.130   1.420   6.334
 7825SOL    HW224375   3.134   1.355   6.484
 7826SOL     OW24376   0.235   3.257   6.687
 7826SOL    HW124377   0.257   3.159   6.695
 7826SOL    HW224378   0.266   3.304   6.770
 7827SOL     OW24379   6.888   6.479   4.603
 7827SOL    HW124380   6.809   6.419   4.617
 7827SOL    HW224381   6.900   6.538   4.682
 7828SOL     OW24382   0.597   4.633   6.689
 7828SOL    HW124383   0.628   4.567   6.620
 7828SOL    HW224384   0.528   4.590   6.747
 7829SOL     OW24385   4.313   3.015   0.820
 7829SOL    HW124386   4.215   3.025   0.840
 7829SOL    HW224387   4.366   3.061   0.892
 7830SOL     OW24388   2.749   4.737   4.326
 7830SOL    HW124389   2.654   4.743   4.354
 7830SOL    HW224390   2.754   4.712   4.229
 7831SOL     OW24391   1.698   1.351   0.411
 7831SOL    HW124392   1.780   1.381   0.363
 7831SOL    HW224393   1.724   1.293   0.488
 7832SOL     OW24394   6.306   0.723   4.593
 7832SOL    HW124395   6.219   0.706   4.641
 7832SOL    HW224396   6.382   0.698   4.653
 7833SOL     OW24397   1.950   0.786   4.214
 7833SOL    HW124398   1.937   0.812   4.119
 7833SOL    HW224399   1.934   0.688   4.225
 7834SOL     OW24400   6.078   2.991   4.847
 7834SOL    HW124401   6.110   3.001   4.753
 7834SOL    HW224402   6.032   2.903   4.858
 7835SOL     OW24403   4.175   2.340   5.357
 7835SOL    HW124404   4.164   2.414   5.290
 7835SOL    HW224405   4.251   2.281   5.329
 7836SOL     OW24406   3.751   3.724   4.871
 7836SOL    HW124407   3.843   3.743   4.839
 7836SOL    HW224408   3.714   3.805   4.917
 7837SOL     OW24409   6.667   5.563   6.569
 7837SOL    HW124410   6.701   5.609   6.651
 7837SOL    HW224411   6.573   5.534   6.584
 7838SOL     OW24412   4.863   5.342   1.237
 7838SOL    HW124413   4.884   5.253   1.278
 7838SOL    HW224414   4.947   5.396   1.229
 7839SOL     OW24415   5.673   3.220   4.261
 7839SOL    HW124416   5.638   3.129   4.238
 7839SOL    HW224417   5.622   3.257   4.339
 7840SOL     OW24418   1.990   3.013   4.036
 7840SOL    HW124419   2.053   3.048   3.967
 7840SOL    HW224420   1.968   3.086   4.101
 7841SOL     OW24421   4.948   2.086   6.047
 7841SOL    HW124422   4.875   2.154   6.042
 7841SOL    HW224423   5.033   2.126   6.013
 7842SOL     OW24424   1.609   0.704   2.217
 7842SOL    HW124425   1.686   0.730   2.275
 7842SOL    HW224426   1.550   0.783   2.202
 7843SOL     OW24427   0.304   6.717   3.151
 7843SOL    HW124428   0.273   6.779   3.079
 7843SOL    HW224429   0.232   6.649   3.169
 7844SOL     OW24430   3.319   1.430   2.756
 7844SOL    HW124431   3.272   1.378   2.827
 7844SOL    HW224432   3.406   1.387   2.735
 7845SOL     OW24433   6.805   3.211   1.336
 7845SOL    HW124434   6.859   3.149   1.280
 7845SOL    HW224435   6.778   3.166   1.421
 7846SOL     OW24436   0.842   1.956   0.180
 7846SOL    HW124437   0.820   2.045   0.140
 7846SOL    HW224438   0.796   1.884   0.128
 7847SOL     OW24439   5.690   3.240   4.961
 7847SOL    HW124440   5.750   3.285   4.895
 7847SOL    HW224441   5.708   3.276   5.052
 7848SOL     OW24442   3.560   4.233   0.895
 7848SOL    HW124443   3.589   4.329   0.886
 7848SOL    HW224444   3.551   4.211   0.992
 7849SOL     OW24445   4.626   4.350   6.876
 7849SOL    HW124446   4.718   4.312   6.888
 7849SOL    HW224447   4.603   4.352   6.779
 7850SOL     OW24448   0.202   1.119   3.868
 7850SOL    HW124449   0.141   1.046   3.897
 7850SOL    HW224450   0.152   1.183   3.809
 7851SOL     OW24451   0.537   4.248   1.953
 7851SOL    HW124452   0.627   4.265   1.993
 7851SOL    HW224453   0.532   4.153   1.922
 7852SOL     OW24454   1.136   2.436   6.527
 7852SOL    HW124455   1.089   2.457   6.441
 7852SOL    HW224456   1.115   2.507   6.595
 7853SOL     OW24457   4.046   2.900   1.759
 7853SOL    HW124458   3.985   2.917   1.837
 7853SOL    HW224459   4.130   2.952   1.771
 7854SOL     OW24460   4.859   2.423   6.681
 7854SOL    HW124461   4.857   2.424   6.581
 7854SOL    HW224462   4.830   2.511   6.716
 7855SOL     OW24463   5.018   0.084   4.666
 7855SOL    HW124464   4.986   0.102   4.759
 7855SOL    HW224465   4.948   0.113   4.600
 7856SOL     OW24466   2.151   6.299   4.912
 7856SOL    HW124467   2.073   6.239   4.896
 7856SOL    HW224468   2.186   6.333   4.824
 7857SOL     OW24469   6.068   4.431   1.156
 7857SOL    HW124470   6.008   4.379   1.095
 7857SOL    HW224471   6.162   4.424   1.125
 7858SOL     OW24472   0.477   4.468   5.770
 7858SOL    HW124473   0.546   4.416   5.820
 7858SOL    HW224474   0.517   4.554   5.738
 7859SOL     OW24475   5.464   2.626   0.193
 7859SOL    HW124476   5.419   2.683   0.262
 7859SOL    HW224477   5.403   2.552   0.166
 7860SOL     OW24478   2.508   0.977   4.610
 7860SOL    HW124479   2.517   1.077   4.619
 7860SOL    HW224480   2.493   0.954   4.514
 7861SOL     OW24481   2.719   6.118   1.254
 7861SOL    HW124482   2.683   6.175   1.328
 7861SOL    HW224483   2.693   6.157   1.166
 7862SOL     OW24484   2.669   5.989   0.372
 7862SOL    HW124485   2.629   6.022   0.286
 7862SOL    HW224486   2.732   5.914   0.352
 7863SOL     OW24487   6.591   4.406   3.372
 7863SOL    HW124488   6.626   4.315   3.353
 7863SOL    HW224489   6.493   4.401   3.394
 7864SOL     OW24490   1.874   6.441   5.580
 7864SOL    HW124491   1.939   6.482   5.515
 7864SOL    HW224492   1.913   6.445   5.672
 7865SOL     OW24493   5.646   5.143   3.259
 7865SOL    HW124494   5.611   5.149   3.353
 7865SOL    HW224495   5.576   5.177   3.195
 7866SOL     OW24496   0.887   7.001   5.838
 7866SOL    HW124497   0.937   0.020   5.765
 7866SOL    HW224498   0.951   6.946   5.892
 7867SOL     OW24499   5.888   6.242   3.995
 7867SOL    HW124500   5.971   6.187   4.005
 7867SOL    HW224501   5.890   6.290   3.908
 7868SOL     OW24502   3.194   6.169   1.514
 7868SOL    HW124503   3.192   6.070   1.506
 7868SOL    HW224504   3.104   6.206   1.488
 7869SOL     OW24505   5.638   5.064   5.469
 7869SOL    HW124506   5.639   4.965   5.485
 7869SOL    HW224507   5.732   5.096   5.455
 7870SOL     OW24508   5.686   6.144   4.681
 7870SOL    HW124509   5.695   6.065   4.741
 7870SOL    HW224510   5.718   6.121   4.589
 7871SOL     OW24511   5.359   1.283   1.730
 7871SOL    HW124512   5.268   1.304   1.695
 7871SOL    HW224513   5.352   1.251   1.825
 7872SOL     OW24514   1.747   5.815   2.664
 7872SOL    HW124515   1.720   5.719   2.653
 7872SOL    HW224516   1.844   5.825   2.643
 7873SOL     OW24517   5.916   1.424   6.845
 7873SOL    HW124518   5.830   1.407   6.893
 7873SOL    HW224519   5.993   1.414   6.909
 7874SOL     OW24520   5.463   2.398   0.880
 7874SOL    HW124521   5.500   2.480   0.838
 7874SOL    HW224522   5.400   2.423   0.954
 7875SOL     OW24523   5.602   4.606   6.555
 7875SOL    HW124524   5.655   4.593   6.639
 7875SOL    HW224525   5.563   4.518   6.526
 7876SOL     OW24526   1.037   0.022   2.794
 7876SOL    HW124527   1.073   0.107   2.833
 7876SOL    HW224528   0.979   0.043   2.716
 7877SOL     OW24529   6.801   2.015   2.903
 7877SOL    HW124530   6.711   2.035   2.942
 7877SOL    HW224531   6.790   1.978   2.811
 7878SOL     OW24532   3.740   4.975   3.024
 7878SOL    HW124533   3.658   4.917   3.024
 7878SOL    HW224534   3.713   5.069   3.002
 7879SOL     OW24535   2.916   4.850   3.265
 7879SOL    HW124536   2.993   4.912   3.251
 7879SOL    HW224537   2.932   4.766   3.214
 7880SOL     OW24538   1.569   3.999   1.984
 7880SOL    HW124539   1.608   3.989   1.893
 7880SOL    HW224540   1.640   4.024   2.049
 7881SOL     OW24541   5.302   4.309   4.347
 7881SOL    HW124542   5.234   4.247   4.307
 7881SOL    HW224543   5.355   4.260   4.416
 7882SOL     OW24544   1.489   3.637   0.794
 7882SOL    HW124545   1.528   3.686   0.872
 7882SOL    HW224546   1.402   3.595   0.820
 7883SOL     OW24547   0.897   0.867   5.241
 7883SOL    HW124548   0.909   0.870   5.341
 7883SOL    HW224549   0.802   0.888   5.218
 7884SOL     OW24550   0.820   2.759   4.358
 7884SOL    HW124551   0.758   2.798   4.290
 7884SOL    HW224552   0.778   2.678   4.398
 7885SOL     OW24553   6.372   5.529   6.606
 7885SOL    HW124554   6.280   5.542   6.644
 7885SOL    HW224555   6.372   5.554   6.509
 7886SOL     OW24556   4.685   5.227   6.935
 7886SOL    HW124557   4.641   5.196   6.851
 7886SOL    HW224558   4.681   5.327   6.940
 7887SOL     OW24559   4.803   1.995   6.912
 7887SOL    HW124560   4.708   1.974   6.937
 7887SOL    HW224561   4.806   2.024   6.816
 7888SOL     OW24562   5.186   0.915   4.813
 7888SOL    HW124563   5.105   0.957   4.855
 7888SOL    HW224564   5.239   0.986   4.766
 7889SOL     OW24565   1.253   6.463   2.333
 7889SOL    HW124566   1.215   6.400   2.265
 7889SOL    HW224567   1.269   6.414   2.418
 7890SOL     OW24568   1.974   3.050   2.743
 7890SOL    HW124569   1.967   3.006   2.832
 7890SOL    HW224570   1.894   3.025   2.687
 7891SOL     OW24571   1.446   4.603   2.906
 7891SOL    HW124572   1.520   4.542   2.936
 7891SOL    HW224573   1.367   4.592   2.966
 7892SOL     OW24574   1.822   2.363   5.410
 7892SOL    HW124575   1.807   2.404   5.500
 7892SOL    HW224576   1.917   2.378   5.382
 7893SOL     OW24577   6.022   6.269   1.532
 7893SOL    HW124578   6.099   6.316   1.575
 7893SOL    HW224579   5.980   6.207   1.598
 7894SOL     OW24580   2.902   0.207   2.051
 7894SOL    HW124581   2.804   0.222   2.041
 7894SOL    HW224582   2.929   0.223   2.146
 7895SOL     OW24583   0.080   2.030   3.474
 7895SOL    HW124584   0.177   2.010   3.481
 7895SOL    HW224585   0.038   2.027   3.565
 7896SOL     OW24586   4.592   2.108   5.298
 7896SOL    HW124587   4.661   2.161   5.249
 7896SOL    HW224588   4.598   2.127   5.396
 7897SOL     OW24589   2.958   3.402   6.216
 7897SOL    HW124590   3.025   3.474   6.226
 7897SOL    HW224591   2.957   3.371   6.121
 7898SOL     OW24592   4.283   2.203   3.652
 7898SOL    HW124593   4.185   2.226   3.658
 7898SOL    HW224594   4.314   2.214   3.558
 7899SOL     OW24595   5.093   1.185   2.702
 7899SOL    HW124596   5.166   1.132   2.746
 7899SOL    HW224597   5.013   1.127   2.689
 7900SOL     OW24598   1.490   5.732   0.858
 7900SOL    HW124599   1.461   5.699   0.948
 7900SOL    HW224600   1.589   5.724   0.850
 7901SOL     OW24601   6.383   5.991   0.316
 7901SOL    HW124602   6.408   6.026   0.227
 7901SOL    HW224603   6.462   5.997   0.378
 7902SOL     OW24604   4.919   3.891   6.881
 7902SOL    HW124605   4.921   3.991   6.876
 7902SOL    HW224606   4.891   3.863   6.973
 7903SOL     OW24607   0.340   2.200   6.544
 7903SOL    HW124608   0.294   2.236   6.625
 7903SOL    HW224609   0.298   2.237   6.462
 7904SOL     OW24610   6.187   0.538   2.854
 7904SOL    HW124611   6.167   0.497   2.943
 7904SOL    HW224612   6.108   0.591   2.823
 7905SOL     OW24613   3.513   1.402   0.837
 7905SOL    HW124614   3.529   1.483   0.894
 7905SOL    HW224615   3.526   1.319   0.892
 7906SOL     OW24616   6.216   5.870   6.826
 7906SOL    HW124617   6.284   5.798   6.836
 7906SOL    HW224618   6.182   5.897   6.916
 7907SOL     OW24619   6.760   2.933   2.235
 7907SOL    HW124620   6.705   2.963   2.157
 7907SOL    HW224621   6.811   2.851   2.209
 7908SOL     OW24622   6.264   1.906   3.628
 7908SOL    HW124623   6.188   1.968   3.647
 7908SOL    HW224624   6.318   1.893   3.711
 7909SOL     OW24625   4.721   4.629   5.129
 7909SOL    HW124626   4.796   4.592   5.184
 7909SOL    HW224627   4.754   4.704   5.072
 7910SOL     OW24628   5.506   3.317   6.099
 7910SOL    HW124629   5.549   3.336   6.187
 7910SOL    HW224630   5.471   3.402   6.060
 7911SOL     OW24631   5.832   4.843   6.979
 7911SOL    HW124632   5.774   4.762   6.987
 7911SOL    HW224633   5.865   4.852   6.885
 7912SOL     OW24634   6.520   5.118   5.965
 7912SOL    HW124635   6.480   5.059   5.895
 7912SOL    HW224636   6.602   5.075   6.002
 7913SOL     OW24637   0.247   5.550   6.591
 7913SOL    HW124638   0.324   5.574   6.531
 7913SOL    HW224639   0.282   5.524   6.681
 7914SOL     OW24640   6.976   3.399   2.532
 7914SOL    HW124641   7.006   3.438   2.445
 7914SOL    HW224642   0.025   3.395   2.596
 7915SOL     OW24643   4.289   2.046   2.785
 7915SOL    HW124644   4.385   2.064   2.806
 7915SOL    HW224645   4.234   2.125   2.812
 7916SOL     OW24646   5.082   3.639   5.501
 7916SOL    HW124647   5.116   3.710   5.563
 7916SOL    HW224648   5.047   3.562   5.554
 7917SOL     OW24649   3.006   3.572   4.351
 7917SOL    HW124650   2.964   3.507   4.288
 7917SOL    HW224651   3.105   3.575   4.336
 7918SOL     OW24652   6.421   1.985   2.673
 7918SOL    HW124653   6.410   1.890   2.704
 7918SOL    HW224654   6.517   2.010   2.675
 7919SOL     OW24655   5.830   5.128   1.738
 7919SOL    HW124656   5.763   5.153   1.808
 7919SOL    HW224657   5.791   5.059   1.677
 7920SOL     OW24658   0.845   5.715   1.815
 7920SOL    HW124659   0.845   5.718   1.915
 7920SOL    HW224660   0.916   5.775   1.779
 7921SOL     OW24661   3.484   6.818   1.957
 7921SOL    HW124662   3.469   6.767   2.042
 7921SOL    HW224663   3.577   6.803   1.925
 7922SOL     OW24664   0.720   4.880   6.768
 7922SOL    HW124665   0.668   4.797   6.748
 7922SOL    HW224666   0.683   4.957   6.715
 7923SOL     OW24667   1.312   1.535   2.781
 7923SOL    HW124668   1.266   1.461   2.730
 7923SOL    HW224669   1.385   1.574   2.725
 7924SOL     OW24670   2.163   0.395   4.182
 7924SOL    HW124671   2.098   0.442   4.244
 7924SOL    HW224672   2.256   0.421   4.207
 7925SOL     OW24673   0.102   0.489   6.705
 7925SOL    HW124674   0.155   0.507   6.623
 7925SOL    HW224675   0.107   0.392   6.728
 7926SOL     OW24676   3.136   0.356   1.635
 7926SOL    HW124677   3.078   0.425   1.591
 7926SOL    HW224678   3.170   0.292   1.565
 7927SOL     OW24679   4.734   4.551   4.684
 7927SOL    HW124680   4.833   4.553   4.675
 7927SOL    HW224681   4.692   4.592   4.603
 7928SOL     OW24682   1.375   5.339   1.222
 7928SOL    HW124683   1.392   5.244   1.247
 7928SOL    HW224684   1.372   5.395   1.305
 7929SOL     OW24685   3.751   4.102   3.877
 7929SOL    HW124686   3.685   4.066   3.811
 7929SOL    HW224687   3.774   4.196   3.852
 7930SOL     OW24688   5.329   6.047   4.413
 7930SOL    HW124689   5.362   6.141   4.427
 7930SOL    HW224690   5.405   5.989   4.384
 7931SOL     OW24691   1.630   2.760   0.778
 7931SOL    HW124692   1.627   2.857   0.801
 7931SOL    HW224693   1.549   2.715   0.815
 7932SOL     OW24694   3.093   0.032   1.036
 7932SOL    HW124695   3.033   6.983   1.056
 7932SOL    HW224696   3.135   0.064   1.121
 7933SOL     OW24697   1.371   0.443   0.254
 7933SOL    HW124698   1.305   0.399   0.315
 7933SOL    HW224699   1.425   0.509   0.306
 7934SOL     OW24700   3.112   3.576   5.813
 7934SOL    HW124701   3.140   3.601   5.906
 7934SOL    HW224702   3.192   3.542   5.763
 7935SOL     OW24703   4.322   6.145   1.348
 7935SOL    HW124704   4.261   6.173   1.422
 7935SOL    HW224705   4.281   6.171   1.260
 7936SOL     OW24706   4.558   5.947   3.122
 7936SOL    HW124707   4.517   6.027   3.165
 7936SOL    HW224708   4.505   5.922   3.041
 7937SOL     OW24709   6.099   6.339   5.849
 7937SOL    HW124710   6.088   6.434   5.819
 7937SOL    HW224711   6.040   6.322   5.928
 7938SOL     OW24712   5.699   4.584   4.556
 7938SOL    HW124713   5.774   4.540   4.605
 7938SOL    HW224714   5.691   4.680   4.585
 7939SOL     OW24715   0.998   0.657   4.620
 7939SOL    HW124716   0.919   0.699   4.665
 7939SOL    HW224717   0.975   0.565   4.590
 7940SOL     OW24718   1.771   5.751   0.853
 7940SOL    HW124719   1.794   5.810   0.775
 7940SOL    HW224720   1.838   5.677   0.859
 7941SOL     OW24721   0.040   0.399   0.181
 7941SOL    HW124722   0.084   0.487   0.200
 7941SOL    HW224723   0.108   0.334   0.148
 7942SOL     OW24724   1.096   0.875   1.091
 7942SOL    HW124725   1.142   0.848   1.007
 7942SOL    HW224726   1.034   0.951   1.072
 7943SOL     OW24727   5.504   2.222   1.153
 7943SOL    HW124728   5.570   2.249   1.083
 7943SOL    HW224729   5.550   2.172   1.226
 7944SOL     OW24730   0.783   4.350   2.057
 7944SOL    HW124731   0.806   4.309   2.145
 7944SOL    HW224732   0.774   4.449   2.068
 7945SOL     OW24733   5.367   6.633   1.820
 7945SOL    HW124734   5.291   6.592   1.871
 7945SOL    HW224735   5.406   6.564   1.759
 7946SOL     OW24736   1.619   1.923   5.532
 7946SOL    HW124737   1.523   1.926   5.560
 7946SOL    HW224738   1.625   1.883   5.440
 7947SOL     OW24739   3.745   3.845   6.512
 7947SOL    HW124740   3.750   3.808   6.419
 7947SOL    HW224741   3.736   3.945   6.508
 7948SOL     OW24742   0.696   5.888   0.260
 7948SOL    HW124743   0.645   5.950   0.200
 7948SOL    HW224744   0.679   5.794   0.232
 7949SOL     OW24745   5.816   4.561   3.800
 7949SOL    HW124746   5.884   4.597   3.864
 7949SOL    HW224747   5.855   4.560   3.708
 7950SOL     OW24748   3.128   5.208   4.457
 7950SOL    HW124749   3.167   5.232   4.545
 7950SOL    HW224750   3.028   5.206   4.464
 7951SOL     OW24751   2.649   2.822   1.367
 7951SOL    HW124752   2.629   2.787   1.458
 7951SOL    HW224753   2.586   2.897   1.345
 7952SOL     OW24754   5.193   3.943   0.250
 7952SOL    HW124755   5.122   3.872   0.257
 7952SOL    HW224756   5.231   3.960   0.341
 7953SOL     OW24757   2.205   3.001   2.573
 7953SOL    HW124758   2.114   3.004   2.614
 7953SOL    HW224759   2.265   2.943   2.628
 7954SOL     OW24760   5.277   5.541   5.181
 7954SOL    HW124761   5.241   5.452   5.208
 7954SOL    HW224762   5.222   5.579   5.107
 7955SOL     OW24763   0.953   6.451   5.685
 7955SOL    HW124764   0.954   6.549   5.702
 7955SOL    HW224765   1.047   6.417   5.675
 7956SOL     OW24766   5.807   0.088   3.408
 7956SOL    HW124767   5.904   0.100   3.432
 7956SOL    HW224768   5.762   0.036   3.480
 7957SOL     OW24769   0.974   2.910   0.956
 7957SOL    HW124770   1.040   2.939   1.025
 7957SOL    HW224771   0.884   2.898   0.999
 7958SOL     OW24772   2.254   5.738   2.576
 7958SOL    HW124773   2.286   5.658   2.628
 7958SOL    HW224774   2.322   5.761   2.506
 7959SOL     OW24775   5.300   5.010   0.936
 7959SOL    HW124776   5.345   5.093   0.903
 7959SOL    HW224777   5.368   4.949   0.976
 7960SOL     OW24778   2.515   2.183   1.066
 7960SOL    HW124779   2.542   2.156   0.973
 7960SOL    HW224780   2.587   2.157   1.130
 7961SOL     OW24781   1.906   5.309   6.676
 7961SOL    HW124782   1.912   5.213   6.649
 7961SOL    HW224783   1.961   5.365   6.614
 7962SOL     OW24784   1.373   0.556   2.194
 7962SOL    HW124785   1.459   0.606   2.199
 7962SOL    HW224786   1.391   0.459   2.179
 7963SOL     OW24787   0.647   0.486   4.863
 7963SOL    HW124788   0.698   0.511   4.781
 7963SOL    HW224789   0.599   0.566   4.899
 7964SOL     OW24790   6.347   5.907   3.196
 7964SOL    HW124791   6.417   5.870   3.134
 7964SOL    HW224792   6.366   5.876   3.289
 7965SOL     OW24793   5.606   2.095   0.316
 7965SOL    HW124794   5.613   2.037   0.235
 7965SOL    HW224795   5.510   2.102   0.344
 7966SOL     OW24796   0.157   4.975   3.741
 7966SOL    HW124797   0.208   5.058   3.764
 7966SOL    HW224798   0.220   4.905   3.708
 7967SOL     OW24799   2.812   5.995   2.632
 7967SOL    HW124800   2.796   5.910   2.682
 7967SOL    HW224801   2.848   6.064   2.695
 7968SOL     OW24802   1.762   1.253   1.628
 7968SOL    HW124803   1.816   1.327   1.667
 7968SOL    HW224804   1.675   1.245   1.678
 7969SOL     OW24805   3.535   2.008   3.197
 7969SOL    HW124806   3.450   2.060   3.203
 7969SOL    HW224807   3.562   1.999   3.101
 7970SOL     OW24808   0.505   4.746   3.184
 7970SOL    HW124809   0.511   4.651   3.153
 7970SOL    HW224810   0.594   4.777   3.215
 7971SOL     OW24811   2.659   1.132   1.722
 7971SOL    HW124812   2.571   1.137   1.673
 7971SOL    HW224813   2.691   1.038   1.722
 7972SOL     OW24814   0.515   4.644   2.284
 7972SOL    HW124815   0.459   4.564   2.305
 7972SOL    HW224816   0.461   4.711   2.233
 7973SOL     OW24817   4.171   2.271   2.905
 7973SOL    HW124818   4.092   2.226   2.947
 7973SOL    HW224819   4.240   2.289   2.975
 7974SOL     OW24820   5.307   0.451   4.282
 7974SOL    HW124821   5.234   0.513   4.252
 7974SOL    HW224822   5.328   0.467   4.378
 7975SOL     OW24823   2.861   1.424   3.949
 7975SOL    HW124824   2.809   1.391   3.871
 7975SOL    HW224825   2.805   1.419   4.032
 7976SOL     OW24826   0.612   5.331   6.575
 7976SOL    HW124827   0.528   5.310   6.626
 7976SOL    HW224828   0.679   5.258   6.590
 7977SOL     OW24829   5.203   6.114   1.423
 7977SOL    HW124830   5.301   6.100   1.405
 7977SOL    HW224831   5.152   6.033   1.393
 7978SOL     OW24832   4.672   2.570   5.651
 7978SOL    HW124833   4.576   2.551   5.628
 7978SOL    HW224834   4.695   2.662   5.621
 7979SOL     OW24835   3.730   6.997   4.316
 7979SOL    HW124836   3.736   6.933   4.393
 7979SOL    HW224837   3.816   6.996   4.265
 7980SOL     OW24838   3.145   6.385   1.931
 7980SOL    HW124839   3.084   6.404   2.008
 7980SOL    HW224840   3.091   6.368   1.849
 7981SOL     OW24841   1.127   5.335   3.440
 7981SOL    HW124842   1.147   5.291   3.353
 7981SOL    HW224843   1.058   5.406   3.427
 7982SOL     OW24844   6.150   2.776   0.623
 7982SOL    HW124845   6.182   2.819   0.539
 7982SOL    HW224846   6.126   2.847   0.690
 7983SOL     OW24847   5.209   2.568   2.305
 7983SOL    HW124848   5.120   2.579   2.350
 7983SOL    HW224849   5.214   2.478   2.262
 7984SOL     OW24850   0.513   0.963   1.109
 7984SOL    HW124851   0.541   0.931   1.199
 7984SOL    HW224852   0.459   1.047   1.118
 7985SOL     OW24853   0.429   1.370   1.992
 7985SOL    HW124854   0.417   1.465   1.965
 7985SOL    HW224855   0.382   1.311   1.926
 7986SOL     OW24856   3.853   1.566   0.870
 7986SOL    HW124857   3.802   1.491   0.828
 7986SOL    HW224858   3.926   1.528   0.927
 7987SOL     OW24859   0.502   3.277   4.544
 7987SOL    HW124860   0.450   3.353   4.582
 7987SOL    HW224861   0.452   3.192   4.558
 7988SOL     OW24862   2.945   1.526   5.540
 7988SOL    HW124863   2.885   1.514   5.460
 7988SOL    HW224864   3.037   1.549   5.509
 7989SOL     OW24865   2.992   2.901   5.349
 7989SOL    HW124866   2.944   2.866   5.430
 7989SOL    HW224867   3.053   2.831   5.313
 7990SOL     OW24868   1.968   2.396   5.034
 7990SOL    HW124869   1.999   2.483   5.072
 7990SOL    HW224870   1.998   2.389   4.939
 7991SOL     OW24871   0.759   3.277   5.625
 7991SOL    HW124872   0.772   3.359   5.568
 7991SOL    HW224873   0.682   3.224   5.590
 7992SOL     OW24874   2.488   0.807   0.712
 7992SOL    HW124875   2.541   0.826   0.629
 7992SOL    HW224876   2.540   0.746   0.772
 7993SOL     OW24877   2.010   0.056   6.720
 7993SOL    HW124878   1.977   0.057   6.814
 7993SOL    HW224879   1.981   6.999   6.676
 7994SOL     OW24880   5.544   0.921   3.589
 7994SOL    HW124881   5.577   0.831   3.617
 7994SOL    HW224882   5.620   0.977   3.557
 7995SOL     OW24883   3.538   5.196   3.270
 7995SOL    HW124884   3.624   5.247   3.264
 7995SOL    HW224885   3.545   5.125   3.340
 7996SOL     OW24886   3.742   0.297   5.015
 7996SOL    HW124887   3.724   0.199   5.023
 7996SOL    HW224888   3.794   0.315   4.931
 7997SOL     OW24889   5.705   2.679   1.432
 7997SOL    HW124890   5.660   2.589   1.430
 7997SOL    HW224891   5.684   2.724   1.518
 7998SOL     OW24892   6.219   5.016   6.852
 7998SOL    HW124893   6.148   5.015   6.923
 7998SOL    HW224894   6.289   5.082   6.877
 7999SOL     OW24895   1.644   0.646   5.472
 7999SOL    HW124896   1.648   0.731   5.525
 7999SOL    HW224897   1.713   0.649   5.400
 8000SOL     OW24898   6.220   6.721   5.959
 8000SOL    HW124899   6.285   6.701   6.032
 8000SOL    HW224900   6.132   6.679   5.979
 8001SOL     OW24901   2.223   0.092   1.440
 8001SOL    HW124902   2.177   0.016   1.393
 8001SOL    HW224903   2.174   0.177   1.422
 8002SOL     OW24904   5.750   2.978   5.501
 8002SOL    HW124905   5.651   2.967   5.494
 8002SOL    HW224906   5.795   2.926   5.429
 8003SOL     OW24907   3.798   5.305   3.232
 8003SOL    HW124908   3.794   5.404   3.222
 8003SOL    HW224909   3.837   5.282   3.321
 8004SOL     OW24910   1.808   3.960   2.767
 8004SOL    HW124911   1.733   4.023   2.745
 8004SOL    HW224912   1.838   3.914   2.684
 8005SOL     OW24913   2.968   1.082   1.375
 8005SOL    HW124914   2.949   1.180   1.382
 8005SOL    HW224915   3.042   1.067   1.309
 8006SOL     OW24916   3.452   5.977   0.424
 8006SOL    HW124917   3.391   6.052   0.400
 8006SOL    HW224918   3.532   5.977   0.365
 8007SOL     OW24919   0.441   0.901   4.390
 8007SOL    HW124920   0.408   0.925   4.482
 8007SOL    HW224921   0.498   0.975   4.355
 8008SOL     OW24922   6.539   6.350   0.844
 8008SOL    HW124923   6.595   6.378   0.766
 8008SOL    HW224924   6.558   6.410   0.921
 8009SOL     OW24925   6.922   6.584   3.796
 8009SOL    HW124926   6.997   6.624   3.742
 8009SOL    HW224927   6.900   6.493   3.760
 8010SOL     OW24928   2.310   2.918   6.621
 8010SOL    HW124929   2.285   2.826   6.592
 8010SOL    HW224930   2.302   2.926   6.720
 8011SOL     OW24931   2.542   2.408   0.535
 8011SOL    HW124932   2.516   2.315   0.560
 8011SOL    HW224933   2.512   2.471   0.607
 8012SOL     OW24934   2.838   6.906   2.611
 8012SOL    HW124935   2.898   6.984   2.623
 8012SOL    HW224936   2.892   6.822   2.606
 8013SOL     OW24937   6.053   4.579   5.130
 8013SOL    HW124938   5.987   4.505   5.120
 8013SOL    HW224939   6.091   4.603   5.041
 8014SOL     OW24940   2.176   6.757   6.807
 8014SOL    HW124941   2.109   6.768   6.733
 8014SOL    HW224942   2.149   6.813   6.885
 8015SOL     OW24943   1.903   2.718   0.197
 8015SOL    HW124944   1.847   2.677   0.268
 8015SOL    HW224945   1.936   2.807   0.227
 8016SOL     OW24946   3.496   6.297   1.659
 8016SOL    HW124947   3.478   6.264   1.566
 8016SOL    HW224948   3.507   6.396   1.658
 8017SOL     OW24949   5.897   4.352   4.338
 8017SOL    HW124950   5.968   4.355   4.408
 8017SOL    HW224951   5.858   4.443   4.326
 8018SOL     OW24952   5.851   2.223   4.925
 8018SOL    HW124953   5.933   2.247   4.873
 8018SOL    HW224954   5.771   2.229   4.866
 8019SOL     OW24955   2.801   5.789   0.708
 8019SOL    HW124956   2.782   5.817   0.802
 8019SOL    HW224957   2.723   5.738   0.673
 8020SOL     OW24958   5.636   5.671   6.759
 8020SOL    HW124959   5.662   5.716   6.845
 8020SOL    HW224960   5.560   5.721   6.717
 8021SOL     OW24961   0.899   0.661   1.102
 8021SOL    HW124962   0.931   0.754   1.090
 8021SOL    HW224963   0.976   0.602   1.128
 8022SOL     OW24964   4.764   6.146   3.103
 8022SOL    HW124965   4.806   6.159   3.013
 8022SOL    HW224966   4.714   6.059   3.104
 8023SOL     OW24967   6.557   6.991   3.093
 8023SOL    HW124968   6.646   0.010   3.094
 8023SOL    HW224969   6.485   0.026   3.119
 8024SOL     OW24970   4.536   5.229   5.086
 8024SOL    HW124971   4.487   5.182   5.013
 8024SOL    HW224972   4.567   5.163   5.155
 8025SOL     OW24973   3.784   5.314   0.064
 8025SOL    HW124974   3.696   5.338   0.107
 8025SOL    HW224975   3.858   5.359   0.113
 8026SOL     OW24976   0.927   3.078   0.343
 8026SOL    HW124977   0.952   3.173   0.321
 8026SOL    HW224978   0.989   3.016   0.296
 8027SOL     OW24979   5.246   2.853   5.532
 8027SOL    HW124980   5.205   2.787   5.468
 8027SOL    HW224981   5.205   2.943   5.518
 8028SOL     OW24982   5.947   4.632   6.677
 8028SOL    HW124983   5.881   4.707   6.680
 8028SOL    HW224984   6.025   4.659   6.621
 8029SOL     OW24985   3.032   4.354   0.989
 8029SOL    HW124986   2.958   4.343   0.924
 8029SOL    HW224987   3.070   4.264   1.012
 8030SOL     OW24988   5.918   3.950   6.571
 8030SOL    HW124989   5.904   4.049   6.575
 8030SOL    HW224990   5.835   3.903   6.599
 8031SOL     OW24991   3.776   5.560   1.599
 8031SOL    HW124992   3.767   5.625   1.524
 8031SOL    HW224993   3.767   5.467   1.564
 8032SOL     OW24994   4.937   3.952   5.840
 8032SOL    HW124995   4.968   4.016   5.770
 8032SOL    HW224996   5.015   3.897   5.871
 8033SOL     OW24997   5.749   2.867   0.254
 8033SOL    HW124998   5.771   2.834   0.162
 8033SOL    HW224999   5.712   2.792   0.308
 8034SOL     OW25000   5.985   0.839   5.780
 8034SOL    HW125001   5.967   0.870   5.873
 8034SOL    HW225002   5.966   0.913   5.715
 8035SOL     OW25003   5.499   6.546   6.818
 8035SOL    HW125004   5.405   6.514   6.806
 8035SOL    HW225005   5.498   6.638   6.857
 8036SOL     OW25006   1.962   4.311   1.702
 8036SOL    HW125007   2.020   4.308   1.620
 8036SOL    HW225008   1.983   4.233   1.761
 8037SOL     OW25009   1.271   3.015   1.700
 8037SOL    HW125010   1.348   3.049   1.646
 8037SOL    HW225011   1.287   2.918   1.722
 8038SOL     OW25012   6.699   2.183   4.584
 8038SOL    HW125013   6.726   2.151   4.493
 8038SOL    HW225014   6.650   2.110   4.631
 8039SOL     OW25015   2.570   6.683   3.864
 8039SOL    HW125016   2.658   6.637   3.848
 8039SOL    HW225017   2.562   6.762   3.803
 8040SOL     OW25018   0.085   5.683   0.877
 8040SOL    HW125019   0.026   5.744   0.930
 8040SOL    HW225020   0.123   5.614   0.938
 8041SOL     OW25021   4.739   1.780   0.896
 8041SOL    HW125022   4.704   1.848   0.832
 8041SOL    HW225023   4.666   1.753   0.959
 8042SOL     OW25024   3.121   3.226   1.426
 8042SOL    HW125025   3.077   3.312   1.399
 8042SOL    HW225026   3.059   3.150   1.407
 8043SOL     OW25027   2.523   6.989   1.977
 8043SOL    HW125028   2.436   6.976   2.023
 8043SOL    HW225029   2.596   6.945   2.030
 8044SOL     OW25030   3.036   3.719   2.120
 8044SOL    HW125031   3.126   3.688   2.089
 8044SOL    HW225032   2.981   3.639   2.146
 8045SOL     OW25033   5.893   2.798   3.274
 8045SOL    HW125034   5.799   2.789   3.305
 8045SOL    HW225035   5.951   2.823   3.352
 8046SOL     OW25036   6.721   4.963   6.061
 8046SOL    HW125037   6.804   4.908   6.073
 8046SOL    HW225038   6.671   4.967   6.147
 8047SOL     OW25039   3.652   6.071   4.135
 8047SOL    HW125040   3.715   6.117   4.073
 8047SOL    HW225041   3.565   6.055   4.089
 8048SOL     OW25042   6.895   0.004   5.757
 8048SOL    HW125043   6.814   6.984   5.724
 8048SOL    HW225044   6.960   6.967   5.796
 8049SOL     OW25045   1.324   5.557   0.687
 8049SOL    HW125046   1.401   5.611   0.723
 8049SOL    HW225047   1.327   5.557   0.587
 8050SOL     OW25048   1.389   2.564   1.079
 8050SOL    HW125049   1.460   2.495   1.096
 8050SOL    HW225050   1.392   2.591   0.983
 8051SOL     OW25051   4.718   1.287   3.645
 8051SOL    HW125052   4.760   1.360   3.592
 8051SOL    HW225053   4.676   1.324   3.728
 8052SOL     OW25054   2.624   1.725   2.889
 8052SOL    HW125055   2.597   1.634   2.857
 8052SOL    HW225056   2.720   1.742   2.864
 8053SOL     OW25057   3.828   3.512   2.333
 8053SOL    HW125058   3.823   3.554   2.424
 8053SOL    HW225059   3.790   3.419   2.337
 8054SOL     OW25060   4.195   6.394   4.761
 8054SOL    HW125061   4.284   6.438   4.774
 8054SOL    HW225062   4.148   6.387   4.849
 8055SOL     OW25063   1.565   0.090   5.687
 8055SOL    HW125064   1.620   0.140   5.620
 8055SOL    HW225065   1.530   0.154   5.756
 8056SOL     OW25066   4.150   2.019   3.172
 8056SOL    HW125067   4.077   2.048   3.111
 8056SOL    HW225068   4.159   1.920   3.170
 8057SOL     OW25069   3.378   6.683   3.538
 8057SOL    HW125070   3.380   6.661   3.635
 8057SOL    HW225071   3.450   6.749   3.517
 8058SOL     OW25072   1.936   1.175   3.353
 8058SOL    HW125073   1.927   1.092   3.409
 8058SOL    HW225074   1.859   1.236   3.372
 8059SOL     OW25075   3.271   1.497   4.047
 8059SOL    HW125076   3.198   1.565   4.054
 8059SOL    HW225077   3.266   1.434   4.124
 8060SOL     OW25078   0.432   1.545   4.605
 8060SOL    HW125079   0.438   1.449   4.634
 8060SOL    HW225080   0.401   1.601   4.682
 8061SOL     OW25081   0.540   5.647   1.930
 8061SOL    HW125082   0.551   5.562   1.983
 8061SOL    HW225083   0.511   5.720   1.991
 8062SOL     OW25084   1.688   3.707   3.081
 8062SOL    HW125085   1.683   3.730   3.179
 8062SOL    HW225086   1.776   3.666   3.061
 8063SOL     OW25087   3.121   3.071   0.130
 8063SOL    HW125088   3.130   3.158   0.178
 8063SOL    HW225089   3.033   3.029   0.152
 8064SOL     OW25090   6.986   3.617   6.903
 8064SOL    HW125091   0.007   3.548   6.956
 8064SOL    HW225092   6.944   3.574   6.823
 8065SOL     OW25093   4.840   0.211   5.498
 8065SOL    HW125094   4.878   0.280   5.437
 8065SOL    HW225095   4.816   0.130   5.446
 8066SOL     OW25096   1.739   0.543   1.534
 8066SOL    HW125097   1.696   0.632   1.549
 8066SOL    HW225098   1.838   0.553   1.530
 8067SOL     OW25099   5.279   2.537   1.397
 8067SOL    HW125100   5.274   2.636   1.384
 8067SOL    HW225101   5.374   2.511   1.415
 8068SOL     OW25102   0.967   4.383   4.483
 8068SOL    HW125103   0.911   4.346   4.557
 8068SOL    HW225104   0.922   4.464   4.446
 8069SOL     OW25105   1.836   6.377   1.812
 8069SOL    HW125106   1.878   6.299   1.858
 8069SOL    HW225107   1.879   6.461   1.842
 8070SOL     OW25108   3.697   0.515   1.344
 8070SOL    HW125109   3.742   0.429   1.369
 8070SOL    HW225110   3.764   0.590   1.349
 8071SOL     OW25111   4.067   6.601   0.009
 8071SOL    HW125112   3.974   6.625   7.009
 8071SOL    HW225113   4.065   6.572   0.105
 8072SOL     OW25114   5.281   0.904   1.256
 8072SOL    HW125115   5.274   0.924   1.158
 8072SOL    HW225116   5.305   0.988   1.305
 8073SOL     OW25117   4.220   6.411   5.884
 8073SOL    HW125118   4.317   6.393   5.867
 8073SOL    HW225119   4.211   6.499   5.931
 8074SOL     OW25120   3.143   3.775   0.024
 8074SOL    HW125121   3.048   3.788   7.024
 8074SOL    HW225122   3.153   3.801   0.120
 8075SOL     OW25123   6.689   1.682   2.396
 8075SOL    HW125124   6.778   1.685   2.349
 8075SOL    HW225125   6.623   1.735   2.344
 8076SOL     OW25126   6.068   3.067   6.028
 8076SOL    HW125127   6.124   3.074   5.946
 8076SOL    HW225128   5.981   3.022   6.005
 8077SOL     OW25129   1.658   0.563   0.975
 8077SOL    HW125130   1.604   0.636   0.934
 8077SOL    HW225131   1.721   0.525   0.907
 8078SOL     OW25132   6.436   3.496   0.646
 8078SOL    HW125133   6.353   3.478   0.698
 8078SOL    HW225134   6.468   3.412   0.603
 8079SOL     OW25135   6.959   1.736   2.289
 8079SOL    HW125136   6.984   1.797   2.364
 8079SOL    HW225137   7.020   1.656   2.290
 8080SOL     OW25138   3.521   5.122   0.071
 8080SOL    HW125139   3.496   5.067   7.019
 8080SOL    HW225140   3.612   5.096   0.102
 8081SOL     OW25141   5.829   0.544   5.645
 8081SOL    HW125142   5.861   0.638   5.638
 8081SOL    HW225143   5.821   0.519   5.742
 8082SOL     OW25144   6.709   3.486   4.013
 8082SOL    HW125145   6.626   3.533   4.040
 8082SOL    HW225146   6.695   3.387   4.018
 8083SOL     OW25147   4.560   2.553   3.899
 8083SOL    HW125148   4.595   2.645   3.879
 8083SOL    HW225149   4.568   2.495   3.818
 8084SOL     OW25150   6.720   6.980   0.927
 8084SOL    HW125151   6.768   6.975   0.839
 8084SOL    HW225152   6.720   0.046   0.960
 8085SOL     OW25153   5.739   1.587   1.333
 8085SOL    HW125154   5.756   1.496   1.372
 8085SOL    HW225155   5.803   1.653   1.373
 8086SOL     OW25156   3.520   6.973   5.531
 8086SOL    HW125157   3.468   0.030   5.529
 8086SOL    HW225158   3.518   6.931   5.441
 8087SOL     OW25159   3.193   2.784   1.532
 8087SOL    HW125160   3.198   2.880   1.558
 8087SOL    HW225161   3.246   2.729   1.597
 8088SOL     OW25162   3.753   1.163   3.165
 8088SOL    HW125163   3.765   1.167   3.264
 8088SOL    HW225164   3.662   1.198   3.141
 8089SOL     OW25165   5.680   3.130   0.237
 8089SOL    HW125166   5.625   3.150   0.156
 8089SOL    HW225167   5.691   3.031   0.247
 8090SOL     OW25168   5.016   2.306   5.190
 8090SOL    HW125169   5.032   2.271   5.098
 8090SOL    HW225170   4.921   2.335   5.199
 8091SOL     OW25171   3.585   4.884   5.938
 8091SOL    HW125172   3.571   4.846   6.030
 8091SOL    HW225173   3.502   4.932   5.909
 8092SOL     OW25174   1.172   2.036   4.074
 8092SOL    HW125175   1.182   2.028   3.975
 8092SOL    HW225176   1.115   1.962   4.108
 8093SOL     OW25177   5.551   5.820   1.159
 8093SOL    HW125178   5.612   5.776   1.224
 8093SOL    HW225179   5.468   5.765   1.147
 8094SOL     OW25180   0.815   3.433   5.338
 8094SOL    HW125181   0.786   3.345   5.300
 8094SOL    HW225182   0.915   3.436   5.345
 8095SOL     OW25183   5.660   3.722   4.347
 8095SOL    HW125184   5.585   3.772   4.304
 8095SOL    HW225185   5.723   3.787   4.389
 8096SOL     OW25186   3.886   5.860   1.411
 8096SOL    HW125187   3.817   5.823   1.349
 8096SOL    HW225188   3.948   5.919   1.360
 8097SOL     OW25189   5.220   1.312   4.142
 8097SOL    HW125190   5.169   1.243   4.090
 8097SOL    HW225191   5.156   1.365   4.198
 8098SOL     OW25192   2.884   6.676   3.827
 8098SOL    HW125193   2.842   6.755   3.781
 8098SOL    HW225194   2.983   6.684   3.823
 8099SOL     OW25195   5.282   6.689   4.744
 8099SOL    HW125196   5.235   6.640   4.818
 8099SOL    HW225197   5.304   6.625   4.671
 8100SOL     OW25198   0.628   6.524   0.824
 8100SOL    HW125199   0.679   6.505   0.740
 8100SOL    HW225200   0.534   6.492   0.814
 8101SOL     OW25201   1.684   6.066   3.414
 8101SOL    HW125202   1.585   6.076   3.424
 8101SOL    HW225203   1.718   6.003   3.483
 8102SOL     OW25204   0.244   5.745   6.103
 8102SOL    HW125205   0.194   5.789   6.177
 8102SOL    HW225206   0.302   5.812   6.057
 8103SOL     OW25207   3.033   1.559   2.422
 8103SOL    HW125208   3.105   1.618   2.388
 8103SOL    HW225209   2.973   1.532   2.346
 8104SOL     OW25210   1.993   6.721   6.315
 8104SOL    HW125211   1.934   6.798   6.290
 8104SOL    HW225212   2.088   6.742   6.291
 8105SOL     OW25213   1.652   2.033   2.785
 8105SOL    HW125214   1.707   2.116   2.784
 8105SOL    HW225215   1.583   2.037   2.713
 8106SOL     OW25216   0.650   3.957   4.304
 8106SOL    HW125217   0.729   4.011   4.277
 8106SOL    HW225218   0.619   3.902   4.226
 8107SOL     OW25219   1.845   6.271   6.286
 8107SOL    HW125220   1.856   6.364   6.250
 8107SOL    HW225221   1.910   6.210   6.240
 8108SOL     OW25222   1.063   2.756   4.230
 8108SOL    HW125223   0.968   2.763   4.260
 8108SOL    HW225224   1.123   2.774   4.307
 8109SOL     OW25225   1.774   5.229   5.304
 8109SOL    HW125226   1.768   5.234   5.204
 8109SOL    HW225227   1.793   5.134   5.331
 8110SOL     OW25228   2.244   4.881   1.247
 8110SOL    HW125229   2.179   4.881   1.172
 8110SOL    HW225230   2.290   4.792   1.251
 8111SOL     OW25231   2.214   5.810   4.463
 8111SOL    HW125232   2.216   5.850   4.555
 8111SOL    HW225233   2.240   5.880   4.396
 8112SOL     OW25234   3.078   1.089   4.870
 8112SOL    HW125235   3.052   0.999   4.906
 8112SOL    HW225236   3.177   1.092   4.858
 8113SOL     OW25237   3.919   2.937   5.905
 8113SOL    HW125238   3.904   2.921   5.807
 8113SOL    HW225239   3.952   2.853   5.948
 8114SOL     OW25240   2.644   3.626   1.327
 8114SOL    HW125241   2.697   3.561   1.273
 8114SOL    HW225242   2.561   3.580   1.361
 8115SOL     OW25243   3.786   1.774   1.066
 8115SOL    HW125244   3.779   1.868   1.032
 8115SOL    HW225245   3.838   1.719   1.001
 8116SOL     OW25246   6.190   0.954   5.514
 8116SOL    HW125247   6.101   0.992   5.538
 8116SOL    HW225248   6.262   1.008   5.557
 8117SOL     OW25249   2.305   1.910   6.004
 8117SOL    HW125250   2.349   2.000   6.010
 8117SOL    HW225251   2.374   1.840   5.986
 8118SOL     OW25252   0.999   2.958   4.444
 8118SOL    HW125253   0.980   3.013   4.525
 8118SOL    HW225254   0.922   2.896   4.426
 8119SOL     OW25255   1.046   6.182   2.929
 8119SOL    HW125256   1.065   6.119   3.004
 8119SOL    HW225257   1.127   6.236   2.909
 8120SOL     OW25258   4.491   4.047   1.488
 8120SOL    HW125259   4.475   4.083   1.397
 8120SOL    HW225260   4.408   4.057   1.543
 8121SOL     OW25261   6.941   0.013   2.799
 8121SOL    HW125262   6.907   0.090   2.744
 8121SOL    HW225263   6.922   6.956   2.750
 8122SOL     OW25264   6.987   6.759   1.662
 8122SOL    HW125265   6.953   6.789   1.573
 8122SOL    HW225266   7.022   6.838   1.713
 8123SOL     OW25267   0.820   5.919   0.503
 8123SOL    HW125268   0.864   6.009   0.496
 8123SOL    HW225269   0.746   5.914   0.437
 8124SOL     OW25270   0.832   6.079   2.796
 8124SOL    HW125271   0.773   6.114   2.868
 8124SOL    HW225272   0.923   6.118   2.806
 8125SOL     OW25273   5.346   5.478   2.850
 8125SOL    HW125274   5.363   5.383   2.875
 8125SOL    HW225275   5.425   5.514   2.799
 8126SOL     OW25276   5.753   4.860   1.968
 8126SOL    HW125277   5.844   4.850   1.928
 8126SOL    HW225278   5.757   4.924   2.045
 8127SOL     OW25279   3.269   4.574   0.615
 8127SOL    HW125280   3.287   4.653   0.557
 8127SOL    HW225281   3.172   4.571   0.637
 8128SOL     OW25282   3.814   2.621   5.352
 8128SOL    HW125283   3.881   2.695   5.363
 8128SOL    HW225284   3.725   2.661   5.328
 8129SOL     OW25285   4.724   6.950   6.798
 8129SOL    HW125286   4.718   6.993   6.888
 8129SOL    HW225287   4.667   7.000   6.733
 8130SOL     OW25288   1.625   6.919   0.665
 8130SOL    HW125289   1.585   7.004   0.629
 8130SOL    HW225290   1.555   6.868   0.714
 8131SOL     OW25291   1.725   1.650   0.498
 8131SOL    HW125292   1.751   1.690   0.410
 8131SOL    HW225293   1.656   1.580   0.483
 8132SOL     OW25294   6.777   5.129   3.285
 8132SOL    HW125295   6.869   5.107   3.318
 8132SOL    HW225296   6.752   5.221   3.314
 8133SOL     OW25297   1.037   5.595   2.209
 8133SOL    HW125298   1.005   5.640   2.126
 8133SOL    HW225299   0.986   5.632   2.288
 8134SOL     OW25300   2.195   2.400   2.140
 8134SOL    HW125301   2.217   2.459   2.218
 8134SOL    HW225302   2.124   2.335   2.166
 8135SOL     OW25303   4.485   6.000   1.774
 8135SOL    HW125304   4.459   5.932   1.705
 8135SOL    HW225305   4.431   6.083   1.761
 8136SOL     OW25306   3.878   6.141   1.200
 8136SOL    HW125307   3.884   6.118   1.103
 8136SOL    HW225308   3.964   6.183   1.229
 8137SOL     OW25309   2.724   3.885   5.778
 8137SOL    HW125310   2.657   3.810   5.782
 8137SOL    HW225311   2.812   3.850   5.747
 8138SOL     OW25312   4.640   0.781   3.536
 8138SOL    HW125313   4.595   0.724   3.468
 8138SOL    HW225314   4.655   0.873   3.499
 8139SOL     OW25315   1.802   2.811   4.069
 8139SOL    HW125316   1.857   2.891   4.044
 8139SOL    HW225317   1.858   2.750   4.125
 8140SOL     OW25318   4.233   0.642   0.759
 8140SOL    HW125319   4.236   0.724   0.702
 8140SOL    HW225320   4.282   0.658   0.844
 8141SOL     OW25321   5.353   0.625   5.167
 8141SOL    HW125322   5.439   0.585   5.198
 8141SOL    HW225323   5.350   0.625   5.067
 8142SOL     OW25324   2.334   5.806   1.269
 8142SOL    HW125325   2.384   5.733   1.315
 8142SOL    HW225326   2.346   5.892   1.318
 8143SOL     OW25327   6.204   5.304   0.909
 8143SOL    HW125328   6.251   5.354   0.836
 8143SOL    HW225329   6.220   5.350   0.996
 8144SOL     OW25330   0.187   4.974   0.235
 8144SOL    HW125331   0.129   4.918   0.176
 8144SOL    HW225332   0.139   4.995   0.320
 8145SOL     OW25333   5.602   5.338   7.021
 8145SOL    HW125334   5.690   5.339   6.974
 8145SOL    HW225335   5.566   5.431   7.027
 8146SOL     OW25336   6.102   0.252   3.910
 8146SOL    HW125337   6.106   0.339   3.959
 8146SOL    HW225338   6.192   0.231   3.872
 8147SOL     OW25339   2.151   0.975   6.378
 8147SOL    HW125340   2.224   1.043   6.390
 8147SOL    HW225341   2.112   0.985   6.286
 8148SOL     OW25342   4.692   4.970   0.349
 8148SOL    HW125343   4.604   4.998   0.389
 8148SOL    HW225344   4.724   5.042   0.287
 8149SOL     OW25345   0.571   6.176   5.203
 8149SOL    HW125346   0.651   6.229   5.231
 8149SOL    HW225347   0.513   6.230   5.143
 8150SOL     OW25348   0.358   3.748   1.337
 8150SOL    HW125349   0.447   3.718   1.303
 8150SOL    HW225350   0.367   3.778   1.432
 8151SOL     OW25351   6.779   6.114   2.878
 8151SOL    HW125352   6.845   6.190   2.883
 8151SOL    HW225353   6.828   6.028   2.892
 8152SOL     OW25354   4.812   1.180   3.224
 8152SOL    HW125355   4.793   1.267   3.179
 8152SOL    HW225356   4.796   1.105   3.161
 8153SOL     OW25357   0.202   1.275   2.143
 8153SOL    HW125358   0.286   1.311   2.102
 8153SOL    HW225359   0.123   1.307   2.091
 8154SOL     OW25360   1.838   0.213   3.160
 8154SOL    HW125361   1.808   0.234   3.253
 8154SOL    HW225362   1.937   0.199   3.160
 8155SOL     OW25363   1.973   5.500   3.335
 8155SOL    HW125364   1.874   5.510   3.333
 8155SOL    HW225365   1.999   5.450   3.418
 8156SOL     OW25366   0.225   5.351   1.772
 8156SOL    HW125367   0.148   5.404   1.807
 8156SOL    HW225368   0.297   5.346   1.841
 8157SOL     OW25369   0.365   3.498   4.699
 8157SOL    HW125370   0.290   3.502   4.765
 8157SOL    HW225371   0.327   3.507   4.606
 8158SOL     OW25372   6.067   5.268   6.798
 8158SOL    HW125373   6.131   5.297   6.869
 8158SOL    HW225374   6.118   5.226   6.723
 8159SOL     OW25375   3.494   6.740   5.305
 8159SOL    HW125376   3.500   6.822   5.247
 8159SOL    HW225377   3.416   6.685   5.277
 8160SOL     OW25378   5.087   1.450   2.673
 8160SOL    HW125379   4.987   1.450   2.666
 8160SOL    HW225380   5.121   1.356   2.676
 8161SOL     OW25381   5.578   3.076   1.627
 8161SOL    HW125382   5.633   3.094   1.708
 8161SOL    HW225383   5.603   2.987   1.588
 8162SOL     OW25384   0.480   5.501   5.832
 8162SOL    HW125385   0.427   5.562   5.774
 8162SOL    HW225386   0.422   5.466   5.906
 8163SOL     OW25387   4.694   4.318   5.262
 8163SOL    HW125388   4.782   4.364   5.269
 8163SOL    HW225389   4.702   4.224   5.294
 8164SOL     OW25390   5.170   1.633   1.308
 8164SOL    HW125391   5.160   1.538   1.339
 8164SOL    HW225392   5.254   1.672   1.344
 8165SOL     OW25393   0.068   1.185   0.767
 8165SOL    HW125394   0.167   1.196   0.776
 8165SOL    HW225395   0.027   1.165   0.856
 8166SOL     OW25396   1.643   1.379   5.475
 8166SOL    HW125397   1.687   1.304   5.524
 8166SOL    HW225398   1.543   1.372   5.486
 8167SOL     OW25399   1.409   3.017   4.140
 8167SOL    HW125400   1.474   3.079   4.183
 8167SOL    HW225401   1.397   2.936   4.197
 8168SOL     OW25402   2.200   0.968   2.248
 8168SOL    HW125403   2.277   1.031   2.265
 8168SOL    HW225404   2.145   1.003   2.172
 8169SOL     OW25405   5.089   2.600   0.246
 8169SOL    HW125406   5.145   2.673   0.207
 8169SOL    HW225407   5.019   2.573   0.179
 8170SOL     OW25408   6.558   5.224   2.430
 8170SOL    HW125409   6.630   5.252   2.494
 8170SOL    HW225410   6.586   5.142   2.381
 8171SOL     OW25411   2.032   0.968   0.848
 8171SOL    HW125412   2.104   0.906   0.818
 8171SOL    HW225413   1.956   0.916   0.885
 8172SOL     OW25414   0.896   2.590   0.616
 8172SOL    HW125415   0.947   2.551   0.692
 8172SOL    HW225416   0.869   2.517   0.553
 8173SOL     OW25417   5.825   1.028   1.583
 8173SOL    HW125418   5.915   1.052   1.545
 8173SOL    HW225419   5.761   1.010   1.509
 8174SOL     OW25420   2.687   4.960   3.321
 8174SOL    HW125421   2.647   4.990   3.234
 8174SOL    HW225422   2.781   4.932   3.306
 8175SOL     OW25423   0.569   1.157   5.331
 8175SOL    HW125424   0.520   1.175   5.416
 8175SOL    HW225425   0.620   1.239   5.304
 8176SOL     OW25426   2.425   4.257   0.578
 8176SOL    HW125427   2.382   4.188   0.519
 8176SOL    HW225428   2.401   4.239   0.673
 8177SOL     OW25429   3.191   0.974   3.506
 8177SOL    HW125430   3.120   1.037   3.540
 8177SOL    HW225431   3.201   0.898   3.570
 8178SOL     OW25432   2.494   6.590   1.786
 8178SOL    HW125433   2.539   6.543   1.710
 8178SOL    HW225434   2.433   6.527   1.833
 8179SOL     OW25435   5.634   1.081   3.253
 8179SOL    HW125436   5.658   1.071   3.349
 8179SOL    HW225437   5.544   1.040   3.236
 8180SOL     OW25438   5.231   6.517   0.119
 8180SOL    HW125439   5.178   6.601   0.105
 8180SOL    HW225440   5.328   6.541   0.128
 8181SOL     OW25441   0.498   0.496   0.546
 8181SOL    HW125442   0.482   0.593   0.563
 8181SOL    HW225443   0.478   0.444   0.629
 8182SOL     OW25444   2.927   3.434   4.582
 8182SOL    HW125445   2.976   3.349   4.563
 8182SOL    HW225446   2.943   3.500   4.509
 8183SOL     OW25447   0.255   0.169   5.029
 8183SOL    HW125448   0.233   0.072   5.029
 8183SOL    HW225449   0.274   0.199   5.123
 8184SOL     OW25450   0.480   6.183   6.758
 8184SOL    HW125451   0.476   6.083   6.761
 8184SOL    HW225452   0.472   6.220   6.850
 8185SOL     OW25453   0.537   6.100   6.468
 8185SOL    HW125454   0.559   6.144   6.555
 8185SOL    HW225455   0.481   6.161   6.412
 8186SOL     OW25456   1.670   5.651   6.722
 8186SOL    HW125457   1.733   5.667   6.798
 8186SOL    HW225458   1.581   5.692   6.743
 8187SOL     OW25459   0.836   0.586   5.861
 8187SOL    HW125460   0.815   0.647   5.785
 8187SOL    HW225461   0.899   0.631   5.924
 8188SOL     OW25462   2.186   3.109   3.553
 8188SOL    HW125463   2.185   3.165   3.470
 8188SOL    HW225464   2.227   3.020   3.533
 8189SOL     OW25465   5.533   5.624   3.650
 8189SOL    HW125466   5.593   5.584   3.720
 8189SOL    HW225467   5.455   5.563   3.636
 8190SOL     OW25468   6.761   3.830   3.143
 8190SOL    HW125469   6.848   3.873   3.166
 8190SOL    HW225470   6.735   3.766   3.216
 8191SOL     OW25471   3.585   5.713   0.634
 8191SOL    HW125472   3.492   5.718   0.598
 8191SOL    HW225473   3.588   5.644   0.707
 8192SOL     OW25474   0.522   4.871   3.581
 8192SOL    HW125475   0.472   4.787   3.560
 8192SOL    HW225476   0.558   4.866   3.674
 8193SOL     OW25477   0.413   4.360   4.598
 8193SOL    HW125478   0.337   4.388   4.539
 8193SOL    HW225479   0.467   4.289   4.553
 8194SOL     OW25480   4.626   6.440   1.635
 8194SOL    HW125481   4.544   6.491   1.662
 8194SOL    HW225482   4.614   6.406   1.542
 8195SOL     OW25483   6.120   6.514   3.070
 8195SOL    HW125484   6.105   6.594   3.127
 8195SOL    HW225485   6.056   6.442   3.096
 8196SOL     OW25486   4.658   0.833   0.892
 8196SOL    HW125487   4.670   0.877   0.981
 8196SOL    HW225488   4.715   0.750   0.888
 8197SOL     OW25489   3.653   1.653   2.457
 8197SOL    HW125490   3.653   1.624   2.553
 8197SOL    HW225491   3.746   1.677   2.430
 8198SOL     OW25492   1.413   0.290   2.214
 8198SOL    HW125493   1.431   0.218   2.281
 8198SOL    HW225494   1.362   0.253   2.137
 8199SOL     OW25495   5.607   2.817   6.635
 8199SOL    HW125496   5.649   2.866   6.558
 8199SOL    HW225497   5.523   2.864   6.662
 8200SOL     OW25498   4.480   3.120   0.623
 8200SOL    HW125499   4.462   3.154   0.531
 8200SOL    HW225500   4.394   3.117   0.674
 8201SOL     OW25501   6.217   6.674   5.613
 8201SOL    HW125502   6.197   6.633   5.524
 8201SOL    HW225503   6.208   6.604   5.684
 8202SOL     OW25504   0.692   0.003   1.990
 8202SOL    HW125505   0.626   6.978   2.042
 8202SOL    HW225506   0.769   0.029   2.049
 8203SOL     OW25507   1.068   3.475   1.748
 8203SOL    HW125508   1.166   3.474   1.727
 8203SOL    HW225509   1.017   3.487   1.663
 8204SOL     OW25510   3.139   2.795   1.149
 8204SOL    HW125511   3.102   2.713   1.105
 8204SOL    HW225512   3.072   2.832   1.214
 8205SOL     OW25513   1.208   3.816   0.620
 8205SOL    HW125514   1.254   3.880   0.681
 8205SOL    HW225515   1.169   3.866   0.542
 8206SOL     OW25516   3.959   0.423   0.355
 8206SOL    HW125517   3.992   0.330   0.342
 8206SOL    HW225518   3.966   0.448   0.452
 8207SOL     OW25519   4.066   3.501   4.775
 8207SOL    HW125520   4.146   3.544   4.815
 8207SOL    HW225521   4.018   3.566   4.716
 8208SOL     OW25522   2.572   0.484   0.555
 8208SOL    HW125523   2.650   0.422   0.554
 8208SOL    HW225524   2.573   0.537   0.640
 8209SOL     OW25525   6.020   1.105   5.236
 8209SOL    HW125526   5.984   1.167   5.306
 8209SOL    HW225527   5.981   1.130   5.147
 8210SOL     OW25528   1.719   2.932   6.776
 8210SOL    HW125529   1.673   2.848   6.748
 8210SOL    HW225530   1.651   2.996   6.812
 8211SOL     OW25531   3.063   4.688   1.222
 8211SOL    HW125532   3.015   4.720   1.304
 8211SOL    HW225533   3.150   4.738   1.213
 8212SOL     OW25534   1.552   2.924   3.669
 8212SOL    HW125535   1.610   3.005   3.658
 8212SOL    HW225536   1.535   2.907   3.766
 8213SOL     OW25537   7.027   5.263   1.306
 8213SOL    HW125538   0.094   5.254   1.277
 8213SOL    HW225539   6.968   5.274   1.226
 8214SOL     OW25540   5.578   4.442   3.279
 8214SOL    HW125541   5.589   4.531   3.325
 8214SOL    HW225542   5.662   4.390   3.288
 8215SOL     OW25543   3.538   5.672   4.133
 8215SOL    HW125544   3.456   5.710   4.089
 8215SOL    HW225545   3.527   5.676   4.233
 8216SOL     OW25546   5.297   4.261   3.626
 8216SOL    HW125547   5.208   4.295   3.595
 8216SOL    HW225548   5.359   4.339   3.638
 8217SOL     OW25549   2.356   6.184   0.216
 8217SOL    HW125550   2.350   6.091   0.253
 8217SOL    HW225551   2.304   6.189   0.131
 8218SOL     OW25552   0.232   1.403   0.151
 8218SOL    HW125553   0.310   1.351   0.187
 8218SOL    HW225554   0.148   1.371   0.195
 8219SOL     OW25555   6.670   2.221   6.871
 8219SOL    HW125556   6.752   2.213   6.813
 8219SOL    HW225557   6.603   2.279   6.825
 8220SOL     OW25558   3.525   3.642   2.428
 8220SOL    HW125559   3.481   3.555   2.450
 8220SOL    HW225560   3.458   3.716   2.432
 8221SOL     OW25561   5.280   5.650   3.456
 8221SOL    HW125562   5.338   5.628   3.378
 8221SOL    HW225563   5.282   5.574   3.522
 8222SOL     OW25564   5.464   1.568   1.683
 8222SOL    HW125565   5.554   1.555   1.723
 8222SOL    HW225566   5.444   1.491   1.622
 8223SOL     OW25567   0.413   4.625   6.130
 8223SOL    HW125568   0.415   4.697   6.060
 8223SOL    HW225569   0.319   4.614   6.163
 8224SOL     OW25570   1.099   2.672   3.919
 8224SOL    HW125571   1.087   2.703   4.013
 8224SOL    HW225572   1.190   2.632   3.907
 8225SOL     OW25573   4.798   1.257   0.154
 8225SOL    HW125574   4.861   1.217   0.221
 8225SOL    HW225575   4.795   1.199   0.072
 8226SOL     OW25576   5.096   0.398   0.991
 8226SOL    HW125577   5.128   0.465   0.924
 8226SOL    HW225578   5.013   0.432   1.035
 8227SOL     OW25579   6.490   3.374   3.497
 8227SOL    HW125580   6.542   3.288   3.500
 8227SOL    HW225581   6.439   3.378   3.411
 8228SOL     OW25582   6.289   2.680   5.606
 8228SOL    HW125583   6.205   2.629   5.625
 8228SOL    HW225584   6.337   2.637   5.530
 8229SOL     OW25585   3.786   5.017   0.166
 8229SOL    HW125586   3.864   5.075   0.141
 8229SOL    HW225587   3.797   4.986   0.261
 8230SOL     OW25588   5.735   0.433   4.400
 8230SOL    HW125589   5.725   0.389   4.310
 8230SOL    HW225590   5.801   0.507   4.393
 8231SOL     OW25591   4.973   6.251   1.069
 8231SOL    HW125592   4.945   6.165   1.025
 8231SOL    HW225593   5.066   6.242   1.103
 8232SOL     OW25594   3.503   2.290   6.103
 8232SOL    HW125595   3.500   2.335   6.192
 8232SOL    HW225596   3.493   2.191   6.116
 8233SOL     OW25597   0.604   5.136   6.965
 8233SOL    HW125598   0.661   5.064   6.926
 8233SOL    HW225599   0.516   5.098   6.993
 8234SOL     OW25600   3.168   2.521   6.259
 8234SOL    HW125601   3.157   2.519   6.358
 8234SOL    HW225602   3.135   2.609   6.224
 8235SOL     OW25603   4.008   3.709   1.240
 8235SOL    HW125604   3.954   3.719   1.156
 8235SOL    HW225605   4.059   3.623   1.237
 8236SOL     OW25606   5.914   3.124   0.489
 8236SOL    HW125607   5.930   3.139   0.587
 8236SOL    HW225608   5.818   3.105   0.473
 8237SOL     OW25609   4.202   6.233   5.612
 8237SOL    HW125610   4.106   6.219   5.587
 8237SOL    HW225611   4.208   6.291   5.693
 8238SOL     OW25612   1.850   2.031   6.430
 8238SOL    HW125613   1.798   1.981   6.499
 8238SOL    HW225614   1.906   1.967   6.377
 8239SOL     OW25615   0.597   1.304   5.916
 8239SOL    HW125616   0.612   1.212   5.880
 8239SOL    HW225617   0.667   1.366   5.882
 8240SOL     OW25618   3.634   4.104   3.357
 8240SOL    HW125619   3.652   4.013   3.394
 8240SOL    HW225620   3.685   4.116   3.272
 8241SOL     OW25621   3.822   6.802   0.272
 8241SOL    HW125622   3.919   6.808   0.248
 8241SOL    HW225623   3.806   6.852   0.357
 8242SOL     OW25624   1.183   4.441   5.823
 8242SOL    HW125625   1.194   4.348   5.858
 8242SOL    HW225626   1.118   4.440   5.747
 8243SOL     OW25627   0.642   3.629   5.219
 8243SOL    HW125628   0.707   3.630   5.143
 8243SOL    HW225629   0.673   3.563   5.288
 8244SOL     OW25630   0.509   6.829   4.105
 8244SOL    HW125631   0.536   6.733   4.091
 8244SOL    HW225632   0.427   6.832   4.161
 8245SOL     OW25633   3.542   2.332   1.030
 8245SOL    HW125634   3.461   2.296   1.076
 8245SOL    HW225635   3.547   2.295   0.938
 8246SOL     OW25636   5.512   3.571   5.992
 8246SOL    HW125637   5.442   3.546   5.926
 8246SOL    HW225638   5.492   3.661   6.030
 8247SOL     OW25639   0.771   0.137   1.507
 8247SOL    HW125640   0.823   0.062   1.468
 8247SOL    HW225641   0.826   0.221   1.506
 8248SOL     OW25642   5.619   4.695   3.395
 8248SOL    HW125643   5.692   4.745   3.348
 8248SOL    HW225644   5.531   4.740   3.379
 8249SOL     OW25645   2.343   4.853   3.692
 8249SOL    HW125646   2.354   4.767   3.643
 8249SOL    HW225647   2.255   4.854   3.739
 8250SOL     OW25648   3.904   4.004   2.535
 8250SOL    HW125649   3.942   4.096   2.524
 8250SOL    HW225650   3.822   4.008   2.592
 8251SOL     OW25651   5.918   1.985   4.621
 8251SOL    HW125652   5.930   1.886   4.634
 8251SOL    HW225653   5.822   2.009   4.628
 8252SOL     OW25654   1.676   2.727   5.375
 8252SOL    HW125655   1.696   2.804   5.437
 8252SOL    HW225656   1.760   2.696   5.332
 8253SOL     OW25657   3.447   2.910   5.149
 8253SOL    HW125658   3.464   2.982   5.082
 8253SOL    HW225659   3.349   2.900   5.164
 8254SOL     OW25660   3.579   5.565   3.814
 8254SOL    HW125661   3.643   5.563   3.891
 8254SOL    HW225662   3.507   5.497   3.829
 8255SOL     OW25663   4.649   5.566   4.117
 8255SOL    HW125664   4.718   5.624   4.076
 8255SOL    HW225665   4.582   5.623   4.165
 8256SOL     OW25666   0.011   1.618   4.480
 8256SOL    HW125667   0.076   1.547   4.452
 8256SOL    HW225668   6.951   1.577   4.500
 8257SOL     OW25669   6.304   5.025   3.274
 8257SOL    HW125670   6.372   5.042   3.202
 8257SOL    HW225671   6.316   5.092   3.347
 8258SOL     OW25672   3.774   1.631   0.206
 8258SOL    HW125673   3.867   1.651   0.237
 8258SOL    HW225674   3.709   1.649   0.280
 8259SOL     OW25675   3.691   2.084   2.584
 8259SOL    HW125676   3.599   2.117   2.602
 8259SOL    HW225677   3.697   2.052   2.489
 8260SOL     OW25678   2.610   6.500   0.749
 8260SOL    HW125679   2.538   6.497   0.819
 8260SOL    HW225680   2.640   6.407   0.728
 8261SOL     OW25681   5.433   1.172   2.008
 8261SOL    HW125682   5.533   1.179   2.012
 8261SOL    HW225683   5.393   1.230   2.080
 8262SOL     OW25684   0.835   2.582   1.744
 8262SOL    HW125685   0.896   2.661   1.753
 8262SOL    HW225686   0.860   2.513   1.813
 8263SOL     OW25687   6.530   1.636   1.290
 8263SOL    HW125688   6.615   1.640   1.343
 8263SOL    HW225689   6.460   1.690   1.336
 8264SOL     OW25690   1.854   5.262   2.935
 8264SOL    HW125691   1.901   5.349   2.919
 8264SOL    HW225692   1.893   5.216   3.015
 8265SOL     OW25693   2.174   0.653   2.022
 8265SOL    HW125694   2.080   0.686   2.030
 8265SOL    HW225695   2.225   0.677   2.105
 8266SOL     OW25696   3.566   6.723   2.552
 8266SOL    HW125697   3.515   6.786   2.494
 8266SOL    HW225698   3.582   6.767   2.641
 8267SOL     OW25699   1.413   3.305   0.930
 8267SOL    HW125700   1.438   3.385   0.984
 8267SOL    HW225701   1.317   3.281   0.948
 8268SOL     OW25702   2.430   6.519   5.614
 8268SOL    HW125703   2.387   6.605   5.586
 8268SOL    HW225704   2.482   6.533   5.698
 8269SOL     OW25705   5.707   1.944   1.102
 8269SOL    HW125706   5.751   1.854   1.103
 8269SOL    HW225707   5.612   1.935   1.131
 8270SOL     OW25708   3.543   6.211   3.676
 8270SOL    HW125709   3.623   6.243   3.626
 8270SOL    HW225710   3.541   6.111   3.674
 8271SOL     OW25711   0.144   1.573   2.947
 8271SOL    HW125712   0.162   1.579   3.045
 8271SOL    HW225713   0.080   1.498   2.929
 8272SOL     OW25714   3.290   0.880   2.630
 8272SOL    HW125715   3.278   0.978   2.613
 8272SOL    HW225716   3.215   0.847   2.687
 8273SOL     OW25717   2.519   6.490   0.998
 8273SOL    HW125718   2.565   6.406   1.029
 8273SOL    HW225719   2.522   6.557   1.072
 8274SOL     OW25720   4.989   5.356   3.263
 8274SOL    HW125721   5.071   5.314   3.301
 8274SOL    HW225722   4.942   5.290   3.204
 8275SOL     OW25723   5.101   1.796   6.085
 8275SOL    HW125724   5.005   1.802   6.057
 8275SOL    HW225725   5.140   1.888   6.091
 8276SOL     OW25726   1.078   1.823   3.732
 8276SOL    HW125727   1.074   1.770   3.817
 8276SOL    HW225728   0.988   1.826   3.690
 8277SOL     OW25729   0.018   0.016   6.983
 8277SOL    HW125730   6.961   0.055   7.019
 8277SOL    HW225731   0.057   6.983   0.023
 8278SOL     OW25732   2.198   2.629   0.381
 8278SOL    HW125733   2.215   2.535   0.411
 8278SOL    HW225734   2.100   2.647   0.380
 8279SOL     OW25735   0.345   6.526   4.351
 8279SOL    HW125736   0.364   6.524   4.253
 8279SOL    HW225737   0.294   6.444   4.377
 8280SOL     OW25738   3.350   2.975   5.851
 8280SOL    HW125739   3.361   2.994   5.754
 8280SOL    HW225740   3.298   2.890   5.863
 8281SOL     OW25741   6.817   6.177   1.669
 8281SOL    HW125742   6.912   6.152   1.687
 8281SOL    HW225743   6.788   6.248   1.734
 8282SOL     OW25744   5.468   2.258   5.441
 8282SOL    HW125745   5.498   2.238   5.348
 8282SOL    HW225746   5.375   2.224   5.454
 8283SOL     OW25747   2.112   3.897   5.736
 8283SOL    HW125748   2.056   3.971   5.699
 8283SOL    HW225749   2.080   3.810   5.700
 8284SOL     OW25750   6.828   4.635   2.353
 8284SOL    HW125751   6.797   4.550   2.395
 8284SOL    HW225752   6.798   4.638   2.258
 8285SOL     OW25753   3.622   3.358   5.474
 8285SOL    HW125754   3.689   3.308   5.419
 8285SOL    HW225755   3.573   3.294   5.533
 8286SOL     OW25756   6.303   2.092   6.167
 8286SOL    HW125757   6.337   2.026   6.099
 8286SOL    HW225758   6.379   2.145   6.203
 8287SOL     OW25759   1.386   5.511   5.104
 8287SOL    HW125760   1.474   5.530   5.060
 8287SOL    HW225761   1.401   5.458   5.187
 8288SOL     OW25762   2.451   2.702   3.119
 8288SOL    HW125763   2.496   2.637   3.058
 8288SOL    HW225764   2.409   2.775   3.065
 8289SOL     OW25765   0.542   6.853   0.206
 8289SOL    HW125766   0.503   6.862   0.298
 8289SOL    HW225767   0.541   6.942   0.160
 8290SOL     OW25768   6.157   1.877   0.572
 8290SOL    HW125769   6.164   1.955   0.509
 8290SOL    HW225770   6.131   1.910   0.663
 8291SOL     OW25771   4.282   0.319   6.198
 8291SOL    HW125772   4.207   0.384   6.185
 8291SOL    HW225773   4.300   0.309   6.295
 8292SOL     OW25774   3.068   6.570   6.759
 8292SOL    HW125775   3.060   6.494   6.824
 8292SOL    HW225776   3.162   6.605   6.762
 8293SOL     OW25777   5.273   5.927   6.241
 8293SOL    HW125778   5.258   5.832   6.212
 8293SOL    HW225779   5.332   5.973   6.175
 8294SOL     OW25780   5.572   2.455   6.702
 8294SOL    HW125781   5.518   2.539   6.694
 8294SOL    HW225782   5.511   2.376   6.701
 8295SOL     OW25783   5.082   4.059   1.202
 8295SOL    HW125784   5.101   4.153   1.230
 8295SOL    HW225785   5.165   4.019   1.162
 8296SOL     OW25786   1.713   5.407   6.965
 8296SOL    HW125787   1.773   5.472   7.012
 8296SOL    HW225788   1.639   5.380   7.026
 8297SOL     OW25789   6.652   2.346   3.015
 8297SOL    HW125790   6.743   2.344   2.974
 8297SOL    HW225791   6.589   2.397   2.955
 8298SOL     OW25792   5.110   0.935   1.630
 8298SOL    HW125793   5.195   0.885   1.615
 8298SOL    HW225794   5.124   1.004   1.701
 8299SOL     OW25795   6.468   2.395   2.145
 8299SOL    HW125796   6.441   2.351   2.060
 8299SOL    HW225797   6.387   2.424   2.196
 8300SOL     OW25798   0.756   4.475   4.276
 8300SOL    HW125799   0.790   4.513   4.191
 8300SOL    HW225800   0.686   4.536   4.314
 8301SOL     OW25801   3.860   3.030   0.351
 8301SOL    HW125802   3.843   2.951   0.410
 8301SOL    HW225803   3.895   2.999   0.262
 8302SOL     OW25804   5.751   5.993   6.735
 8302SOL    HW125805   5.747   5.931   6.657
 8302SOL    HW225806   5.786   6.082   6.706
 8303SOL     OW25807   0.240   6.873   4.773
 8303SOL    HW125808   0.243   6.964   4.731
 8303SOL    HW225809   0.251   6.803   4.703
 8304SOL     OW25810   0.656   3.591   6.465
 8304SOL    HW125811   0.729   3.570   6.531
 8304SOL    HW225812   0.686   3.662   6.402
 8305SOL     OW25813   3.432   5.382   3.944
 8305SOL    HW125814   3.497   5.351   4.013
 8305SOL    HW225815   3.375   5.305   3.915
 8306SOL     OW25816   0.408   2.651   4.278
 8306SOL    HW125817   0.405   2.750   4.289
 8306SOL    HW225818   0.334   2.621   4.219
 8307SOL     OW25819   4.181   5.909   0.838
 8307SOL    HW125820   4.102   5.855   0.867
 8307SOL    HW225821   4.265   5.864   0.867
 8308SOL     OW25822   3.856   6.684   2.164
 8308SOL    HW125823   3.768   6.661   2.123
 8308SOL    HW225824   3.842   6.712   2.259
 8309SOL     OW25825   5.502   5.836   1.910
 8309SOL    HW125826   5.444   5.767   1.953
 8309SOL    HW225827   5.457   5.872   1.828
 8310SOL     OW25828   7.023   4.856   0.917
 8310SOL    HW125829   7.003   4.819   0.827
 8310SOL    HW225830   6.939   4.860   0.971
 8311SOL     OW25831   6.663   1.100   6.978
 8311SOL    HW125832   6.709   1.037   6.916
 8311SOL    HW225833   6.591   1.052   7.028
 8312SOL     OW25834   5.130   6.675   1.478
 8312SOL    HW125835   5.126   6.581   1.444
 8312SOL    HW225836   5.223   6.710   1.466
 8313SOL     OW25837   3.255   1.727   2.363
 8313SOL    HW125838   3.208   1.796   2.308
 8313SOL    HW225839   3.347   1.714   2.327
 8314SOL     OW25840   6.282   0.335   1.777
 8314SOL    HW125841   6.355   0.381   1.727
 8314SOL    HW225842   6.194   0.358   1.736
 8315SOL     OW25843   5.079   3.411   0.063
 8315SOL    HW125844   5.105   3.489   0.006
 8315SOL    HW225845   5.107   3.428   0.158
 8316SOL     OW25846   1.274   4.151   0.497
 8316SOL    HW125847   1.311   4.184   0.584
 8316SOL    HW225848   1.282   4.223   0.429
 8317SOL     OW25849   2.184   4.618   2.372
 8317SOL    HW125850   2.262   4.557   2.390
 8317SOL    HW225851   2.170   4.626   2.273
 8318SOL     OW25852   4.452   1.505   4.618
 8318SOL    HW125853   4.519   1.431   4.627
 8318SOL    HW225854   4.377   1.475   4.560
 8319SOL     OW25855   3.343   1.267   5.196
 8319SOL    HW125856   3.432   1.270   5.242
 8319SOL    HW225857   3.329   1.176   5.157
 8320SOL     OW25858   2.904   4.445   1.229
 8320SOL    HW125859   2.932   4.405   1.142
 8320SOL    HW225860   2.975   4.507   1.262
 8321SOL     OW25861   1.123   0.306   0.910
 8321SOL    HW125862   1.048   0.324   0.974
 8321SOL    HW225863   1.091   0.245   0.838
 8322SOL     OW25864   0.127   0.213   6.784
 8322SOL    HW125865   0.119   0.177   6.877
 8322SOL    HW225866   0.138   0.137   6.720
 8323SOL     OW25867   0.498   1.441   2.988
 8323SOL    HW125868   0.425   1.483   3.042
 8323SOL    HW225869   0.573   1.413   3.049
 8324SOL     OW25870   6.126   0.331   2.216
 8324SOL    HW125871   6.182   0.281   2.151
 8324SOL    HW225872   6.182   0.399   2.264
 8325SOL     OW25873   3.138   3.241   4.153
 8325SOL    HW125874   3.140   3.153   4.202
 8325SOL    HW225875   3.216   3.296   4.182
 8326SOL     OW25876   4.288   2.904   5.464
 8326SOL    HW125877   4.324   2.895   5.557
 8326SOL    HW225878   4.308   2.996   5.429
 8327SOL     OW25879   5.842   2.021   6.163
 8327SOL    HW125880   5.782   2.016   6.083
 8327SOL    HW225881   5.828   1.940   6.220
 8328SOL     OW25882   2.510   2.086   6.066
 8328SOL    HW125883   2.473   2.176   6.042
 8328SOL    HW225884   2.465   2.052   6.148
 8329SOL     OW25885   6.603   2.714   5.537
 8329SOL    HW125886   6.619   2.812   5.531
 8329SOL    HW225887   6.648   2.677   5.619
 8330SOL     OW25888   2.054   6.667   0.760
 8330SOL    HW125889   2.032   6.611   0.680
 8330SOL    HW225890   2.045   6.763   0.737
 8331SOL     OW25891   2.863   6.979   1.506
 8331SOL    HW125892   2.957   6.978   1.541
 8331SOL    HW225893   2.828   0.044   1.509
 8332SOL     OW25894   4.765   5.393   2.355
 8332SOL    HW125895   4.700   5.388   2.280
 8332SOL    HW225896   4.717   5.382   2.442
 8333SOL     OW25897   0.365   5.756   0.079
 8333SOL    HW125898   0.312   5.713   0.152
 8333SOL    HW225899   0.309   5.825   0.033
 8334SOL     OW25900   6.530   1.799   3.893
 8334SOL    HW125901   6.595   1.725   3.875
 8334SOL    HW225902   6.575   1.887   3.884
 8335SOL     OW25903   6.129   5.963   5.948
 8335SOL    HW125904   6.155   5.867   5.962
 8335SOL    HW225905   6.188   6.004   5.879
 8336SOL     OW25906   0.994   1.431   1.424
 8336SOL    HW125907   0.988   1.339   1.386
 8336SOL    HW225908   0.950   1.496   1.362
 8337SOL     OW25909   0.827   6.500   2.873
 8337SOL    HW125910   0.753   6.550   2.917
 8337SOL    HW225911   0.803   6.403   2.869
 8338SOL     OW25912   1.547   4.683   1.140
 8338SOL    HW125913   1.612   4.654   1.210
 8338SOL    HW225914   1.456   4.694   1.180
 8339SOL     OW25915   5.321   1.883   2.253
 8339SOL    HW125916   5.335   1.792   2.292
 8339SOL    HW225917   5.406   1.934   2.257
 8340SOL     OW25918   5.103   3.927   0.662
 8340SOL    HW125919   5.029   3.868   0.629
 8340SOL    HW225920   5.184   3.914   0.604
 8341SOL     OW25921   2.636   5.957   1.483
 8341SOL    HW125922   2.606   6.048   1.510
 8341SOL    HW225923   2.651   5.955   1.384
 8342SOL     OW25924   4.136   1.119   0.817
 8342SOL    HW125925   4.140   1.091   0.721
 8342SOL    HW225926   4.182   1.207   0.828
 8343SOL     OW25927   1.473   5.397   6.281
 8343SOL    HW125928   1.554   5.365   6.232
 8343SOL    HW225929   1.420   5.318   6.311
 8344SOL     OW25930   4.188   6.623   6.090
 8344SOL    HW125931   4.109   6.667   6.132
 8344SOL    HW225932   4.265   6.687   6.086
 8345SOL     OW25933   5.981   1.275   2.876
 8345SOL    HW125934   5.951   1.215   2.950
 8345SOL    HW225935   5.955   1.369   2.896
 8346SOL     OW25936   2.997   5.318   1.569
 8346SOL    HW125937   2.970   5.391   1.632
 8346SOL    HW225938   3.075   5.269   1.607
 8347SOL     OW25939   3.497   6.988   5.212
 8347SOL    HW125940   3.443   0.041   5.231
 8347SOL    HW225941   3.576   7.013   5.156
 8348SOL     OW25942   0.671   1.005   0.863
 8348SOL    HW125943   0.687   0.943   0.786
 8348SOL    HW225944   0.626   0.956   0.937
 8349SOL     OW25945   5.757   3.876   0.984
 8349SOL    HW125946   5.813   3.928   0.920
 8349SOL    HW225947   5.774   3.908   1.077
 8350SOL     OW25948   6.645   1.002   5.483
 8350SOL    HW125949   6.665   0.925   5.423
 8350SOL    HW225950   6.706   0.999   5.562
 8351SOL     OW25951   3.366   6.245   3.897
 8351SOL    HW125952   3.431   6.286   3.833
 8351SOL    HW225953   3.398   6.155   3.925
 8352SOL     OW25954   6.739   6.512   2.469
 8352SOL    HW125955   6.648   6.525   2.508
 8352SOL    HW225956   6.769   6.418   2.484
 8353SOL     OW25957   6.726   3.471   2.757
 8353SOL    HW125958   6.804   3.447   2.699
 8353SOL    HW225959   6.649   3.497   2.698
 8354SOL     OW25960   2.994   1.296   6.839
 8354SOL    HW125961   2.933   1.365   6.799
 8354SOL    HW225962   3.039   1.245   6.766
 8355SOL     OW25963   3.730   0.178   6.728
 8355SOL    HW125964   3.698   0.184   6.823
 8355SOL    HW225965   3.772   0.265   6.702
 8356SOL     OW25966   1.799   5.743   0.271
 8356SOL    HW125967   1.790   5.790   0.358
 8356SOL    HW225968   1.858   5.663   0.282
 8357SOL     OW25969   4.307   6.080   5.219
 8357SOL    HW125970   4.285   5.983   5.227
 8357SOL    HW225971   4.227   6.129   5.183
 8358SOL     OW25972   2.013   2.775   5.574
 8358SOL    HW125973   2.080   2.702   5.585
 8358SOL    HW225974   1.939   2.743   5.515
 8359SOL     OW25975   4.454   5.584   4.538
 8359SOL    HW125976   4.525   5.513   4.541
 8359SOL    HW225977   4.447   5.622   4.446
 8360SOL     OW25978   5.229   6.829   2.978
 8360SOL    HW125979   5.153   6.820   2.913
 8360SOL    HW225980   5.308   6.779   2.943
 8361SOL     OW25981   1.722   0.724   2.755
 8361SOL    HW125982   1.789   0.784   2.798
 8361SOL    HW225983   1.760   0.631   2.749
 8362SOL     OW25984   2.561   2.434   0.040
 8362SOL    HW125985   2.533   2.361   0.102
 8362SOL    HW225986   2.510   2.518   0.062
 8363SOL     OW25987   0.266   2.886   0.390
 8363SOL    HW125988   0.279   2.938   0.305
 8363SOL    HW225989   0.231   2.947   0.461
 8364SOL     OW25990   6.737   3.604   3.328
 8364SOL    HW125991   6.716   3.640   3.418
 8364SOL    HW225992   6.652   3.573   3.284
 8365SOL     OW25993   1.569   3.322   6.483
 8365SOL    HW125994   1.611   3.385   6.417
 8365SOL    HW225995   1.638   3.290   6.547
 8366SOL     OW25996   3.962   6.290   2.676
 8366SOL    HW125997   3.926   6.333   2.758
 8366SOL    HW225998   3.910   6.320   2.596
 8367SOL     OW25999   5.617   6.179   3.941
 8367SOL    HW126000   5.713   6.196   3.966
 8367SOL    HW226001   5.558   6.209   4.016
 8368SOL     OW26002   2.304   5.208   5.880
 8368SOL    HW126003   2.325   5.144   5.953
 8368SOL    HW226004   2.320   5.302   5.912
 8369SOL     OW26005   2.146   1.448   0.466
 8369SOL    HW126006   2.181   1.412   0.379
 8369SOL    HW226007   2.102   1.374   0.517
 8370SOL     OW26008   1.482   1.782   6.637
 8370SOL    HW126009   1.508   1.871   6.673
 8370SOL    HW226010   1.385   1.782   6.613
 8371SOL     OW26011   1.527   3.040   0.825
 8371SOL    HW126012   1.509   3.126   0.871
 8371SOL    HW226013   1.441   2.995   0.801
 8372SOL     OW26014   6.675   0.827   2.912
 8372SOL    HW126015   6.638   0.734   2.923
 8372SOL    HW226016   6.647   0.883   2.989
 8373SOL     OW26017   1.336   5.801   5.554
 8373SOL    HW126018   1.305   5.706   5.544
 8373SOL    HW226019   1.266   5.863   5.518
 8374SOL     OW26020   6.637   0.513   6.905
 8374SOL    HW126021   6.734   0.492   6.912
 8374SOL    HW226022   6.584   0.428   6.908
 8375SOL     OW26023   3.084   0.368   5.878
 8375SOL    HW126024   3.110   0.373   5.975
 8375SOL    HW226025   3.119   0.449   5.830
 8376SOL     OW26026   2.665   0.941   4.152
 8376SOL    HW126027   2.759   0.968   4.130
 8376SOL    HW226028   2.648   0.849   4.117
 8377SOL     OW26029   5.701   4.540   1.670
 8377SOL    HW126030   5.718   4.446   1.640
 8377SOL    HW226031   5.603   4.551   1.688
 8378SOL     OW26032   5.093   3.547   2.893
 8378SOL    HW126033   5.013   3.594   2.930
 8378SOL    HW226034   5.122   3.476   2.957
 8379SOL     OW26035   6.590   3.112   2.350
 8379SOL    HW126036   6.671   3.054   2.339
 8379SOL    HW226037   6.514   3.058   2.385
 8380SOL     OW26038   4.176   1.669   2.931
 8380SOL    HW126039   4.148   1.577   2.905
 8380SOL    HW226040   4.125   1.736   2.878
 8381SOL     OW26041   1.739   5.439   5.486
 8381SOL    HW126042   1.744   5.373   5.411
 8381SOL    HW226043   1.667   5.412   5.549
 8382SOL     OW26044   1.140   2.989   2.137
 8382SOL    HW126045   1.150   3.057   2.209
 8382SOL    HW226046   1.071   2.922   2.164
 8383SOL     OW26047   2.763   2.526   5.740
 8383SOL    HW126048   2.691   2.466   5.774
 8383SOL    HW226049   2.847   2.509   5.791
 8384SOL     OW26050   0.197   6.981   2.215
 8384SOL    HW126051   0.256   6.913   2.259
 8384SOL    HW226052   0.176   0.026   2.281
 8385SOL     OW26053   5.159   2.620   1.930
 8385SOL    HW126054   5.088   2.584   1.869
 8385SOL    HW226055   5.185   2.712   1.901
 8386SOL     OW26056   0.906   4.303   2.782
 8386SOL    HW126057   0.949   4.252   2.707
 8386SOL    HW226058   0.901   4.245   2.863
 8387SOL     OW26059   0.604   2.895   1.040
 8387SOL    HW126060   0.576   2.818   0.983
 8387SOL    HW226061   0.647   2.860   1.123
 8388SOL     OW26062   2.581   0.674   2.196
 8388SOL    HW126063   2.621   0.764   2.180
 8388SOL    HW226064   2.482   0.684   2.209
 8389SOL     OW26065   5.349   2.841   1.875
 8389SOL    HW126066   5.416   2.785   1.825
 8389SOL    HW226067   5.327   2.922   1.820
 8390SOL     OW26068   5.423   1.810   5.465
 8390SOL    HW126069   5.471   1.839   5.383
 8390SOL    HW226070   5.366   1.730   5.444
 8391SOL     OW26071   6.380   0.987   1.291
 8391SOL    HW126072   6.337   0.924   1.226
 8391SOL    HW226073   6.320   1.065   1.307
 8392SOL     OW26074   5.787   3.025   4.736
 8392SOL    HW126075   5.721   3.099   4.752
 8392SOL    HW226076   5.875   3.049   4.778
 8393SOL     OW26077   5.310   0.448   1.417
 8393SOL    HW126078   5.235   0.497   1.374
 8393SOL    HW226079   5.355   0.389   1.350
 8394SOL     OW26080   5.898   3.386   1.700
 8394SOL    HW126081   5.875   3.471   1.748
 8394SOL    HW226082   5.992   3.359   1.722
 8395SOL     OW26083   2.230   0.918   5.144
 8395SOL    HW126084   2.232   0.820   5.127
 8395SOL    HW226085   2.211   0.967   5.059
 8396SOL     OW26086   4.426   5.707   5.057
 8396SOL    HW126087   4.428   5.798   5.015
 8396SOL    HW226088   4.516   5.686   5.096
 8397SOL     OW26089   6.498   1.088   3.465
 8397SOL    HW126090   6.581   1.143   3.470
 8397SOL    HW226091   6.428   1.138   3.415
 8398SOL     OW26092   5.349   2.254   5.806
 8398SOL    HW126093   5.428   2.308   5.837
 8398SOL    HW226094   5.299   2.307   5.738
 8399SOL     OW26095   0.292   5.352   0.831
 8399SOL    HW126096   0.379   5.401   0.833
 8399SOL    HW226097   0.222   5.405   0.879
 8400SOL     OW26098   1.425   2.451   4.605
 8400SOL    HW126099   1.337   2.467   4.649
 8400SOL    HW226100   1.414   2.379   4.536
 8401SOL     OW26101   2.947   0.270   5.605
 8401SOL    HW126102   2.991   0.351   5.645
 8401SOL    HW226103   2.867   0.245   5.660
 8402SOL     OW26104   3.893   0.747   6.123
 8402SOL    HW126105   3.929   0.809   6.053
 8402SOL    HW226106   3.828   0.684   6.081
 8403SOL     OW26107   6.122   5.384   4.635
 8403SOL    HW126108   6.029   5.348   4.642
 8403SOL    HW226109   6.187   5.308   4.626
 8404SOL     OW26110   2.092   1.687   6.809
 8404SOL    HW126111   2.178   1.738   6.806
 8404SOL    HW226112   2.030   1.721   6.739
 8405SOL     OW26113   4.187   1.194   5.277
 8405SOL    HW126114   4.183   1.229   5.183
 8405SOL    HW226115   4.274   1.220   5.318
 8406SOL     OW26116   4.730   1.012   5.922
 8406SOL    HW126117   4.828   1.022   5.906
 8406SOL    HW226118   4.692   1.098   5.958
 8407SOL     OW26119   3.477   6.988   4.249
 8407SOL    HW126120   3.436   6.907   4.292
 8407SOL    HW226121   3.573   6.995   4.278
 8408SOL     OW26122   4.702   0.727   1.570
 8408SOL    HW126123   4.708   0.783   1.653
 8408SOL    HW226124   4.650   0.644   1.591
 8409SOL     OW26125   4.606   2.428   1.988
 8409SOL    HW126126   4.589   2.345   1.935
 8409SOL    HW226127   4.598   2.508   1.928
 8410SOL     OW26128   6.585   1.655   1.892
 8410SOL    HW126129   6.527   1.575   1.907
 8410SOL    HW226130   6.585   1.678   1.795
 8411SOL     OW26131   1.464   5.398   0.378
 8411SOL    HW126132   1.373   5.434   0.401
 8411SOL    HW226133   1.518   5.468   0.333
 8412SOL     OW26134   3.199   2.350   6.072
 8412SOL    HW126135   3.177   2.401   6.155
 8412SOL    HW226136   3.292   2.372   6.042
 8413SOL     OW26137   4.488   5.408   5.297
 8413SOL    HW126138   4.587   5.411   5.310
 8413SOL    HW226139   4.467   5.354   5.215
 8414SOL     OW26140   0.931   1.160   2.435
 8414SOL    HW126141   0.885   1.248   2.450
 8414SOL    HW226142   1.027   1.167   2.463
 8415SOL     OW26143   2.488   0.577   5.242
 8415SOL    HW126144   2.400   0.611   5.208
 8415SOL    HW226145   2.559   0.596   5.175
 8416SOL     OW26146   6.682   1.325   5.339
 8416SOL    HW126147   6.626   1.331   5.421
 8416SOL    HW226148   6.634   1.271   5.270
 8417SOL     OW26149   1.728   4.158   5.455
 8417SOL    HW126150   1.670   4.239   5.450
 8417SOL    HW226151   1.801   4.164   5.387
 8418SOL     OW26152   1.041   6.286   2.487
 8418SOL    HW126153   0.942   6.271   2.492
 8418SOL    HW226154   1.070   6.343   2.564
 8419SOL     OW26155   5.231   1.158   3.823
 8419SOL    HW126156   5.149   1.159   3.765
 8419SOL    HW226157   5.205   1.126   3.915
 8420SOL     OW26158   2.630   6.990   2.428
 8420SOL    HW126159   2.544   6.942   2.447
 8420SOL    HW226160   2.701   6.954   2.488
 8421SOL     OW26161   4.533   6.113   5.964
 8421SOL    HW126162   4.469   6.039   5.944
 8421SOL    HW226163   4.557   6.112   6.061
 8422SOL     OW26164   4.377   2.400   3.060
 8422SOL    HW126165   4.471   2.407   3.092
 8422SOL    HW226166   4.349   2.486   3.017
 8423SOL     OW26167   5.790   4.880   6.679
 8423SOL    HW126168   5.702   4.899   6.723
 8423SOL    HW226169   5.808   4.949   6.609
 8424SOL     OW26170   2.134   0.142   4.092
 8424SOL    HW126171   2.036   0.135   4.076
 8424SOL    HW226172   2.157   0.235   4.121
 8425SOL     OW26173   3.916   3.042   2.807
 8425SOL    HW126174   4.008   3.005   2.794
 8425SOL    HW226175   3.914   3.095   2.892
 8426SOL     OW26176   3.252   2.992   2.301
 8426SOL    HW126177   3.272   2.933   2.223
 8426SOL    HW226178   3.189   3.064   2.272
 8427SOL     OW26179   3.683   3.839   3.436
 8427SOL    HW126180   3.611   3.770   3.426
 8427SOL    HW226181   3.748   3.809   3.505
 8428SOL     OW26182   0.091   0.028   0.771
 8428SOL    HW126183   0.054   0.119   0.754
 8428SOL    HW226184   0.123   0.022   0.866
 8429SOL     OW26185   1.687   5.429   6.474
 8429SOL    HW126186   1.587   5.422   6.466
 8429SOL    HW226187   1.725   5.464   6.389
 8430SOL     OW26188   4.075   6.646   4.923
 8430SOL    HW126189   4.050   6.550   4.939
 8430SOL    HW226190   4.174   6.656   4.934
 8431SOL     OW26191   3.097   4.018   5.381
 8431SOL    HW126192   3.080   4.104   5.333
 8431SOL    HW226193   3.103   3.944   5.314
 8432SOL     OW26194   6.298   5.558   6.338
 8432SOL    HW126195   6.291   5.475   6.282
 8432SOL    HW226196   6.213   5.610   6.331
 8433SOL     OW26197   5.039   2.635   0.912
 8433SOL    HW126198   4.965   2.643   0.846
 8433SOL    HW226199   5.048   2.540   0.941
 8434SOL     OW26200   2.392   5.393   5.299
 8434SOL    HW126201   2.383   5.294   5.306
 8434SOL    HW226202   2.429   5.429   5.384
 8435SOL     OW26203   4.568   0.912   2.801
 8435SOL    HW126204   4.473   0.899   2.771
 8435SOL    HW226205   4.576   0.885   2.897
 8436SOL     OW26206   2.339   6.399   2.736
 8436SOL    HW126207   2.353   6.337   2.658
 8436SOL    HW226208   2.301   6.347   2.813
 8437SOL     OW26209   2.149   3.735   2.607
 8437SOL    HW126210   2.111   3.732   2.699
 8437SOL    HW226211   2.139   3.645   2.564
 8438SOL     OW26212   1.412   4.029   2.647
 8438SOL    HW126213   1.401   4.121   2.684
 8438SOL    HW226214   1.323   3.985   2.642
 8439SOL     OW26215   5.977   5.905   4.038
 8439SOL    HW126216   6.012   5.859   4.120
 8439SOL    HW226217   5.892   5.862   4.009
 8440SOL     OW26218   1.562   1.298   2.893
 8440SOL    HW126219   1.552   1.363   2.968
 8440SOL    HW226220   1.541   1.343   2.807
 8441SOL     OW26221   5.902   1.220   5.015
 8441SOL    HW126222   5.883   1.302   5.070
 8441SOL    HW226223   5.992   1.229   4.972
 8442SOL     OW26224   3.679   1.464   5.204
 8442SOL    HW126225   3.612   1.511   5.262
 8442SOL    HW226226   3.662   1.487   5.108
 8443SOL     OW26227   1.110   4.017   2.698
 8443SOL    HW126228   1.096   4.066   2.785
 8443SOL    HW226229   1.055   3.934   2.698
 8444SOL     OW26230   4.984   5.234   4.043
 8444SOL    HW126231   4.976   5.233   4.143
 8444SOL    HW226232   4.922   5.303   4.005
 8445SOL     OW26233   4.504   6.258   6.683
 8445SOL    HW126234   4.429   6.323   6.673
 8445SOL    HW226235   4.591   6.303   6.661
 8446SOL     OW26236   6.722   6.075   4.581
 8446SOL    HW126237   6.812   6.118   4.590
 8446SOL    HW226238   6.733   5.979   4.557
 8447SOL     OW26239   3.662   2.163   3.386
 8447SOL    HW126240   3.754   2.175   3.347
 8447SOL    HW226241   3.603   2.120   3.318
 8448SOL     OW26242   4.550   6.640   3.045
 8448SOL    HW126243   4.590   6.730   3.030
 8448SOL    HW226244   4.615   6.583   3.097
 8449SOL     OW26245   2.072   2.513   3.257
 8449SOL    HW126246   2.168   2.517   3.284
 8449SOL    HW226247   2.015   2.506   3.339
 8450SOL     OW26248   6.876   0.898   0.118
 8450SOL    HW126249   6.876   0.932   0.213
 8450SOL    HW226250   6.868   0.975   0.055
 8451SOL     OW26251   4.504   2.057   1.312
 8451SOL    HW126252   4.496   2.034   1.215
 8451SOL    HW226253   4.549   2.146   1.321
 8452SOL     OW26254   5.342   2.170   4.871
 8452SOL    HW126255   5.303   2.204   4.957
 8452SOL    HW226256   5.277   2.187   4.797
 8453SOL     OW26257   0.459   6.042   0.683
 8453SOL    HW126258   0.427   5.989   0.762
 8453SOL    HW226259   0.547   6.083   0.705
 8454SOL     OW26260   0.281   4.368   0.037
 8454SOL    HW126261   0.202   4.336   7.012
 8454SOL    HW226262   0.334   4.289   0.067
 8455SOL     OW26263   0.423   0.747   3.052
 8455SOL    HW126264   0.494   0.711   3.114
 8455SOL    HW226265   0.467   0.800   2.980
 8456SOL     OW26266   6.197   1.142   3.656
 8456SOL    HW126267   6.184   1.174   3.750
 8456SOL    HW226268   6.126   1.075   3.633
 8457SOL     OW26269   6.434   6.485   5.146
 8457SOL    HW126270   6.437   6.402   5.202
 8457SOL    HW226271   6.526   6.523   5.139
 8458SOL     OW26272   0.296   6.695   6.824
 8458SOL    HW126273   0.348   6.734   6.749
 8458SOL    HW226274   0.215   6.750   6.841
 8459SOL     OW26275   1.802   5.929   3.609
 8459SOL    HW126276   1.837   5.841   3.641
 8459SOL    HW226277   1.867   6.001   3.632
 8460SOL     OW26278   3.249   3.989   4.737
 8460SOL    HW126279   3.336   3.968   4.692
 8460SOL    HW226280   3.184   4.025   4.670
 8461SOL     OW26281   6.155   4.552   3.227
 8461SOL    HW126282   6.210   4.469   3.218
 8461SOL    HW226283   6.211   4.632   3.207
 8462SOL     OW26284   2.106   2.806   1.750
 8462SOL    HW126285   2.106   2.906   1.740
 8462SOL    HW226286   2.154   2.781   1.834
 8463SOL     OW26287   5.538   1.050   2.321
 8463SOL    HW126288   5.475   1.090   2.387
 8463SOL    HW226289   5.496   0.970   2.278
 8464SOL     OW26290   6.317   2.515   4.830
 8464SOL    HW126291   6.346   2.582   4.898
 8464SOL    HW226292   6.374   2.433   4.838
 8465SOL     OW26293   1.381   2.794   0.053
 8465SOL    HW126294   1.356   2.705   0.091
 8465SOL    HW226295   1.466   2.826   0.095
 8466SOL     OW26296   0.825   6.048   3.482
 8466SOL    HW126297   0.839   6.110   3.559
 8466SOL    HW226298   0.746   6.077   3.429
 8467SOL     OW26299   2.652   5.531   0.279
 8467SOL    HW126300   2.680   5.462   0.346
 8467SOL    HW226301   2.556   5.519   0.257
 8468SOL     OW26302   4.452   2.080   0.150
 8468SOL    HW126303   4.397   2.008   0.193
 8468SOL    HW226304   4.538   2.090   0.199
 8469SOL     OW26305   3.408   2.716   6.988
 8469SOL    HW126306   3.440   2.622   6.984
 8469SOL    HW226307   3.382   2.739   0.053
 8470SOL     OW26308   2.349   2.295   6.052
 8470SOL    HW126309   2.278   2.259   6.112
 8470SOL    HW226310   2.351   2.395   6.060
 8471SOL     OW26311   3.468   0.656   3.701
 8471SOL    HW126312   3.481   0.571   3.752
 8471SOL    HW226313   3.546   0.717   3.716
 8472SOL     OW26314   1.663   6.131   4.208
 8472SOL    HW126315   1.748   6.183   4.212
 8472SOL    HW226316   1.606   6.154   4.286
 8473SOL     OW26317   6.256   5.459   0.683
 8473SOL    HW126318   6.165   5.421   0.667
 8473SOL    HW226319   6.304   5.468   0.596
 8474SOL     OW26320   3.768   4.036   1.395
 8474SOL    HW126321   3.715   4.092   1.458
 8474SOL    HW226322   3.740   3.940   1.405
 8475SOL     OW26323   5.331   1.292   2.937
 8475SOL    HW126324   5.350   1.287   3.035
 8475SOL    HW226325   5.303   1.202   2.904
 8476SOL     OW26326   4.666   0.348   2.322
 8476SOL    HW126327   4.704   0.379   2.408
 8476SOL    HW226328   4.694   0.253   2.305
 8477SOL     OW26329   3.244   1.301   1.277
 8477SOL    HW126330   3.258   1.233   1.349
 8477SOL    HW226331   3.223   1.254   1.191
 8478SOL     OW26332   1.128   0.076   5.619
 8478SOL    HW126333   1.144   0.131   5.537
 8478SOL    HW226334   1.162   0.125   5.699
 8479SOL     OW26335   5.585   0.607   1.306
 8479SOL    HW126336   5.519   0.642   1.239
 8479SOL    HW226337   5.568   0.509   1.320
 8480SOL     OW26338   2.290   1.531   1.426
 8480SOL    HW126339   2.346   1.503   1.504
 8480SOL    HW226340   2.295   1.631   1.417
 8481SOL     OW26341   3.582   0.354   4.430
 8481SOL    HW126342   3.521   0.362   4.351
 8481SOL    HW226343   3.591   0.444   4.473
 8482SOL     OW26344   0.834   6.876   2.539
 8482SOL    HW126345   0.802   6.861   2.632
 8482SOL    HW226346   0.828   6.790   2.487
 8483SOL     OW26347   4.088   5.581   1.262
 8483SOL    HW126348   4.023   5.508   1.285
 8483SOL    HW226349   4.042   5.651   1.207
 8484SOL     OW26350   1.001   4.707   4.570
 8484SOL    HW126351   1.063   4.646   4.619
 8484SOL    HW226352   0.984   4.788   4.626
 8485SOL     OW26353   2.717   3.219   6.667
 8485SOL    HW126354   2.640   3.282   6.679
 8485SOL    HW226355   2.751   3.226   6.573
 8486SOL     OW26356   4.301   0.886   2.780
 8486SOL    HW126357   4.243   0.962   2.749
 8486SOL    HW226358   4.256   0.840   2.857
 8487SOL     OW26359   4.287   0.078   1.013
 8487SOL    HW126360   4.383   0.086   0.986
 8487SOL    HW226361   4.229   0.109   0.938
 8488SOL     OW26362   4.938   2.706   4.020
 8488SOL    HW126363   4.950   2.775   4.091
 8488SOL    HW226364   5.020   2.702   3.963
 8489SOL     OW26365   4.152   5.066   2.271
 8489SOL    HW126366   4.126   5.128   2.345
 8489SOL    HW226367   4.074   5.009   2.245
 8490SOL     OW26368   3.956   5.398   2.621
 8490SOL    HW126369   3.862   5.386   2.653
 8490SOL    HW226370   3.984   5.493   2.635
 8491SOL     OW26371   2.352   0.609   2.518
 8491SOL    HW126372   2.277   0.588   2.580
 8491SOL    HW226373   2.387   0.701   2.538
 8492SOL     OW26374   5.963   3.202   5.148
 8492SOL    HW126375   6.013   3.288   5.141
 8492SOL    HW226376   5.867   3.220   5.170
 8493SOL     OW26377   3.687   2.242   0.536
 8493SOL    HW126378   3.675   2.318   0.472
 8493SOL    HW226379   3.784   2.225   0.551
 8494SOL     OW26380   3.979   5.853   6.429
 8494SOL    HW126381   4.015   5.867   6.337
 8494SOL    HW226382   3.933   5.937   6.459
 8495SOL     OW26383   0.097   2.666   1.047
 8495SOL    HW126384   0.170   2.656   1.115
 8495SOL    HW226385   0.016   2.616   1.078
 8496SOL     OW26386   0.049   3.011   3.330
 8496SOL    HW126387   0.038   2.913   3.319
 8496SOL    HW226388   6.998   3.048   3.377
 8497SOL     OW26389   6.051   5.980   3.264
 8497SOL    HW126390   6.127   5.916   3.259
 8497SOL    HW226391   5.977   5.940   3.318
 8498SOL     OW26392   0.269   0.687   0.755
 8498SOL    HW126393   0.191   0.748   0.770
 8498SOL    HW226394   0.324   0.723   0.679
 8499SOL     OW26395   3.190   4.297   6.719
 8499SOL    HW126396   3.223   4.370   6.780
 8499SOL    HW226397   3.223   4.209   6.753
 8500SOL     OW26398   2.876   0.665   6.062
 8500SOL    HW126399   2.809   0.715   6.116
 8500SOL    HW226400   2.856   0.567   6.067
 8501SOL     OW26401   1.948   4.034   6.720
 8501SOL    HW126402   2.047   4.024   6.720
 8501SOL    HW226403   1.920   4.089   6.641
 8502SOL     OW26404   6.275   0.489   2.382
 8502SOL    HW126405   6.286   0.468   2.479
 8502SOL    HW226406   6.359   0.530   2.347
 8503SOL     OW26407   2.755   5.466   3.280
 8503SOL    HW126408   2.841   5.456   3.330
 8503SOL    HW226409   2.762   5.419   3.192
 8504SOL     OW26410   1.217   5.696   3.726
 8504SOL    HW126411   1.230   5.627   3.797
 8504SOL    HW226412   1.179   5.653   3.644
 8505SOL     OW26413   4.885   3.465   3.328
 8505SOL    HW126414   4.921   3.434   3.240
 8505SOL    HW226415   4.868   3.563   3.324
 8506SOL     OW26416   1.316   6.541   0.503
 8506SOL    HW126417   1.315   6.611   0.431
 8506SOL    HW226418   1.225   6.499   0.510
 8507SOL     OW26419   1.416   1.169   5.096
 8507SOL    HW126420   1.422   1.153   5.194
 8507SOL    HW226421   1.506   1.192   5.060
 8508SOL     OW26422   0.721   1.871   6.217
 8508SOL    HW126423   0.691   1.932   6.290
 8508SOL    HW226424   0.675   1.782   6.226
 8509SOL     OW26425   6.446   1.761   4.827
 8509SOL    HW126426   6.352   1.747   4.858
 8509SOL    HW226427   6.508   1.750   4.904
 8510SOL     OW26428   6.033   6.602   2.272
 8510SOL    HW126429   5.946   6.554   2.272
 8510SOL    HW226430   6.081   6.585   2.359
 8511SOL     OW26431   6.443   4.515   1.585
 8511SOL    HW126432   6.456   4.428   1.538
 8511SOL    HW226433   6.417   4.585   1.519
 8512SOL     OW26434   4.686   2.359   6.877
 8512SOL    HW126435   4.761   2.361   6.811
 8512SOL    HW226436   4.610   2.306   6.838
 8513SOL     OW26437   6.794   4.038   0.957
 8513SOL    HW126438   6.771   4.125   0.913
 8513SOL    HW226439   6.893   4.033   0.970
 8514SOL     OW26440   2.674   2.145   5.651
 8514SOL    HW126441   2.575   2.138   5.640
 8514SOL    HW226442   2.695   2.212   5.722
 8515SOL     OW26443   1.114   0.507   1.353
 8515SOL    HW126444   1.045   0.437   1.332
 8515SOL    HW226445   1.183   0.468   1.413
 8516SOL     OW26446   5.801   2.360   3.303
 8516SOL    HW126447   5.721   2.410   3.271
 8516SOL    HW226448   5.881   2.420   3.299
 8517SOL     OW26449   1.770   2.158   5.065
 8517SOL    HW126450   1.767   2.118   5.157
 8517SOL    HW226451   1.850   2.217   5.057
 8518SOL     OW26452   5.171   4.652   0.058
 8518SOL    HW126453   5.258   4.658   0.009
 8518SOL    HW226454   5.127   4.742   0.060
 8519SOL     OW26455   1.591   3.789   0.974
 8519SOL    HW126456   1.547   3.821   1.058
 8519SOL    HW226457   1.672   3.844   0.955
 8520SOL     OW26458   4.217   3.568   5.298
 8520SOL    HW126459   4.126   3.561   5.257
 8520SOL    HW226460   4.212   3.544   5.394
 8521SOL     OW26461   2.003   6.066   5.860
 8521SOL    HW126462   1.943   6.018   5.796
 8521SOL    HW226463   1.990   6.030   5.952
 8522SOL     OW26464   0.974   6.198   0.500
 8522SOL    HW126465   1.034   6.163   0.428
 8522SOL    HW226466   1.001   6.291   0.524
 8523SOL     OW26467   2.622   0.768   0.238
 8523SOL    HW126468   2.696   0.741   0.176
 8523SOL    HW226469   2.535   0.769   0.187
 8524SOL     OW26470   1.696   5.619   5.038
 8524SOL    HW126471   1.786   5.590   5.069
 8524SOL    HW226472   1.641   5.648   5.117
 8525SOL     OW26473   0.151   4.684   1.353
 8525SOL    HW126474   0.058   4.646   1.344
 8525SOL    HW226475   0.161   4.727   1.443
 8526SOL     OW26476   1.954   6.118   0.573
 8526SOL    HW126477   1.938   6.156   0.482
 8526SOL    HW226478   2.051   6.102   0.586
 8527SOL     OW26479   3.181   0.591   5.713
 8527SOL    HW126480   3.085   0.620   5.706
 8527SOL    HW226481   3.236   0.667   5.747
 8528SOL     OW26482   4.916   2.497   0.061
 8528SOL    HW126483   4.842   2.431   0.050
 8528SOL    HW226484   4.975   2.496   7.009
 8529SOL     OW26485   1.620   6.428   6.489
 8529SOL    HW126486   1.536   6.373   6.490
 8529SOL    HW226487   1.672   6.409   6.572
 8530SOL     OW26488   3.174   4.000   4.269
 8530SOL    HW126489   3.221   4.061   4.205
 8530SOL    HW226490   3.239   3.936   4.309
 8531SOL     OW26491   0.077   5.661   3.474
 8531SOL    HW126492   0.106   5.640   3.567
 8531SOL    HW226493   0.064   5.577   3.422
 8532SOL     OW26494   2.724   5.730   4.648
 8532SOL    HW126495   2.686   5.637   4.641
 8532SOL    HW226496   2.652   5.793   4.677
 8533SOL     OW26497   1.764   5.890   5.363
 8533SOL    HW126498   1.692   5.917   5.426
 8533SOL    HW226499   1.840   5.851   5.414
 8534SOL     OW26500   3.565   2.104   3.885
 8534SOL    HW126501   3.631   2.052   3.940
 8534SOL    HW226502   3.604   2.193   3.862
 8535SOL     OW26503   5.930   0.920   3.093
 8535SOL    HW126504   5.887   1.004   3.125
 8535SOL    HW226505   5.970   0.936   3.002
 8536SOL     OW26506   0.165   0.970   4.533
 8536SOL    HW126507   0.248   0.982   4.588
 8536SOL    HW226508   0.147   0.873   4.521
 8537SOL     OW26509   0.036   1.065   2.996
 8537SOL    HW126510   6.993   1.088   2.931
 8537SOL    HW226511   0.007   1.091   3.088
 8538SOL     OW26512   1.231   2.440   6.844
 8538SOL    HW126513   1.177   2.358   6.826
 8538SOL    HW226514   1.173   2.510   6.885
 8539SOL     OW26515   6.473   2.479   2.527
 8539SOL    HW126516   6.528   2.531   2.461
 8539SOL    HW226517   6.378   2.476   2.495
 8540SOL     OW26518   4.513   7.005   0.432
 8540SOL    HW126519   4.546   6.940   0.363
 8540SOL    HW226520   4.418   0.000   0.412
 8541SOL     OW26521   1.992   2.703   3.646
 8541SOL    HW126522   2.050   2.753   3.710
 8541SOL    HW226523   1.912   2.667   3.693
 8542SOL     OW26524   4.293   4.180   6.707
 8542SOL    HW126525   4.221   4.245   6.681
 8542SOL    HW226526   4.324   4.200   6.800
 8543SOL     OW26527   2.235   2.665   6.543
 8543SOL    HW126528   2.138   2.680   6.565
 8543SOL    HW226529   2.249   2.683   6.446
 8544SOL     OW26530   6.375   2.471   3.958
 8544SOL    HW126531   6.287   2.450   4.001
 8544SOL    HW226532   6.445   2.408   3.993
 8545SOL     OW26533   5.529   6.667   4.410
 8545SOL    HW126534   5.585   6.656   4.492
 8545SOL    HW226535   5.470   6.747   4.419
 8546SOL     OW26536   4.516   1.938   4.862
 8546SOL    HW126537   4.447   2.006   4.837
 8546SOL    HW226538   4.504   1.857   4.805
 8547SOL     OW26539   1.122   3.858   3.532
 8547SOL    HW126540   1.191   3.810   3.478
 8547SOL    HW226541   1.082   3.796   3.599
 8548SOL     OW26542   5.937   1.421   5.720
 8548SOL    HW126543   5.950   1.480   5.800
 8548SOL    HW226544   6.003   1.444   5.650
 8549SOL     OW26545   6.066   3.431   4.803
 8549SOL    HW126546   6.136   3.368   4.837
 8549SOL    HW226547   6.099   3.525   4.810
 8550SOL     OW26548   0.953   4.457   6.412
 8550SOL    HW126549   0.992   4.383   6.468
 8550SOL    HW226550   0.939   4.423   6.319
 8551SOL     OW26551   3.509   4.368   0.031
 8551SOL    HW126552   3.434   4.344   0.093
 8551SOL    HW226553   3.595   4.334   0.069
 8552SOL     OW26554   2.526   6.478   4.072
 8552SOL    HW126555   2.549   6.548   4.005
 8552SOL    HW226556   2.450   6.423   4.038
 8553SOL     OW26557   5.924   0.072   0.213
 8553SOL    HW126558   5.878   7.014   0.193
 8553SOL    HW226559   5.856   0.145   0.223
 8554SOL     OW26560   6.213   3.685   6.796
 8554SOL    HW126561   6.196   3.780   6.821
 8554SOL    HW226562   6.274   3.681   6.717
 8555SOL     OW26563   1.473   0.050   4.080
 8555SOL    HW126564   1.509   0.048   3.987
 8555SOL    HW226565   1.375   0.071   4.077
 8556SOL     OW26566   6.276   0.610   3.280
 8556SOL    HW126567   6.361   0.620   3.332
 8556SOL    HW226568   6.207   0.566   3.338
 8557SOL     OW26569   0.440   0.651   1.399
 8557SOL    HW126570   0.478   0.654   1.492
 8557SOL    HW226571   0.423   0.556   1.373
 8558SOL     OW26572   1.359   4.936   1.831
 8558SOL    HW126573   1.334   4.855   1.779
 8558SOL    HW226574   1.361   5.015   1.770
 8559SOL     OW26575   1.156   0.314   0.376
 8559SOL    HW126576   1.056   0.321   0.380
 8559SOL    HW226577   1.184   0.222   0.401
 8560SOL     OW26578   6.091   1.654   0.123
 8560SOL    HW126579   6.032   1.589   0.172
 8560SOL    HW226580   6.035   1.729   0.087
 8561SOL     OW26581   4.444   6.537   3.890
 8561SOL    HW126582   4.351   6.572   3.879
 8561SOL    HW226583   4.445   6.439   3.869
 8562SOL     OW26584   3.396   6.732   4.303
 8562SOL    HW126585   3.314   6.700   4.255
 8562SOL    HW226586   3.466   6.660   4.302
 8563SOL     OW26587   2.496   2.994   6.405
 8563SOL    HW126588   2.551   2.911   6.405
 8563SOL    HW226589   2.422   2.985   6.473
 8564SOL     OW26590   1.368   0.265   3.644
 8564SOL    HW126591   1.341   0.183   3.696
 8564SOL    HW226592   1.462   0.288   3.666
 8565SOL     OW26593   3.385   6.697   2.225
 8565SOL    HW126594   3.290   6.669   2.212
 8565SOL    HW226595   3.401   6.717   2.322
 8566SOL     OW26596   1.956   2.978   3.530
 8566SOL    HW126597   2.029   3.046   3.529
 8566SOL    HW226598   1.995   2.887   3.549
 8567SOL     OW26599   5.117   0.555   1.298
 8567SOL    HW126600   5.059   0.532   1.220
 8567SOL    HW226601   5.063   0.603   1.366
 8568SOL     OW26602   5.230   1.263   0.410
 8568SOL    HW126603   5.298   1.218   0.469
 8568SOL    HW226604   5.259   1.357   0.392
 8569SOL     OW26605   4.255   1.377   4.465
 8569SOL    HW126606   4.168   1.401   4.509
 8569SOL    HW226607   4.256   1.411   4.371
 8570SOL     OW26608   0.131   4.063   0.070
 8570SOL    HW126609   0.095   3.987   0.017
 8570SOL    HW226610   0.085   4.148   0.043
 8571SOL     OW26611   6.527   4.103   5.409
 8571SOL    HW126612   6.570   4.182   5.451
 8571SOL    HW226613   6.534   4.110   5.310
 8572SOL     OW26614   2.726   4.861   5.091
 8572SOL    HW126615   2.800   4.799   5.066
 8572SOL    HW226616   2.720   4.935   5.024
 8573SOL     OW26617   3.509   6.106   5.468
 8573SOL    HW126618   3.584   6.046   5.442
 8573SOL    HW226619   3.450   6.059   5.533
 8574SOL     OW26620   0.644   3.902   5.310
 8574SOL    HW126621   0.562   3.952   5.282
 8574SOL    HW226622   0.635   3.806   5.282
 8575SOL     OW26623   3.266   3.263   7.005
 8575SOL    HW126624   3.248   3.349   0.023
 8575SOL    HW226625   3.214   3.190   0.020
 8576SOL     OW26626   1.865   0.026   1.289
 8576SOL    HW126627   1.807   0.004   1.210
 8576SOL    HW226628   1.849   0.121   1.317
 8577SOL     OW26629   6.673   6.155   3.382
 8577SOL    HW126630   6.744   6.155   3.452
 8577SOL    HW226631   6.705   6.103   3.302
 8578SOL     OW26632   4.145   6.847   3.814
 8578SOL    HW126633   4.064   6.796   3.844
 8578SOL    HW226634   4.184   6.802   3.733
 8579SOL     OW26635   1.138   5.128   3.192
 8579SOL    HW126636   1.064   5.072   3.230
 8579SOL    HW226637   1.101   5.191   3.124
 8580SOL     OW26638   2.557   4.598   6.679
 8580SOL    HW126639   2.571   4.502   6.654
 8580SOL    HW226640   2.580   4.656   6.601
 8581SOL     OW26641   3.125   2.209   1.491
 8581SOL    HW126642   3.218   2.246   1.493
 8581SOL    HW226643   3.091   2.199   1.584
 8582SOL     OW26644   4.252   3.712   1.415
 8582SOL    HW126645   4.311   3.786   1.450
 8582SOL    HW226646   4.190   3.748   1.346
 8583SOL     OW26647   6.221   0.005   6.568
 8583SOL    HW126648   6.229   6.999   6.662
 8583SOL    HW226649   6.143   6.990   6.523
 8584SOL     OW26650   6.333   5.462   0.413
 8584SOL    HW126651   6.316   5.553   0.375
 8584SOL    HW226652   6.403   5.415   0.359
 8585SOL     OW26653   0.219   1.617   0.796
 8585SOL    HW126654   0.207   1.714   0.814
 8585SOL    HW226655   0.285   1.579   0.861
 8586SOL     OW26656   4.101   5.674   3.803
 8586SOL    HW126657   4.140   5.608   3.738
 8586SOL    HW226658   4.012   5.704   3.770
 8587SOL     OW26659   0.237   1.859   1.355
 8587SOL    HW126660   0.198   1.878   1.445
 8587SOL    HW226661   0.325   1.812   1.366
 8588SOL     OW26662   5.138   2.545   6.938
 8588SOL    HW126663   5.115   2.529   6.842
 8588SOL    HW226664   5.136   2.644   6.956
 8589SOL     OW26665   3.106   2.156   4.537
 8589SOL    HW126666   3.140   2.097   4.610
 8589SOL    HW226667   3.022   2.201   4.567
 8590SOL     OW26668   6.115   4.777   5.457
 8590SOL    HW126669   6.060   4.779   5.374
 8590SOL    HW226670   6.087   4.851   5.518
 8591SOL     OW26671   0.897   3.483   6.591
 8591SOL    HW126672   0.836   3.420   6.640
 8591SOL    HW226673   0.916   3.447   6.500
 8592SOL     OW26674   6.105   5.148   0.089
 8592SOL    HW126675   6.006   5.152   0.074
 8592SOL    HW226676   6.126   5.182   0.180
 8593SOL     OW26677   1.256   0.483   2.842
 8593SOL    HW126678   1.233   0.470   2.746
 8593SOL    HW226679   1.350   0.452   2.858
 8594SOL     OW26680   4.069   3.639   4.103
 8594SOL    HW126681   4.065   3.550   4.057
 8594SOL    HW226682   3.977   3.679   4.106
 8595SOL     OW26683   1.894   1.744   1.821
 8595SOL    HW126684   1.949   1.795   1.755
 8595SOL    HW226685   1.892   1.647   1.796
 8596SOL     OW26686   6.136   5.332   2.355
 8596SOL    HW126687   6.063   5.371   2.300
 8596SOL    HW226688   6.221   5.381   2.337
 8597SOL     OW26689   1.829   1.268   1.356
 8597SOL    HW126690   1.874   1.345   1.309
 8597SOL    HW226691   1.805   1.296   1.449
 8598SOL     OW26692   5.099   5.156   0.789
 8598SOL    HW126693   5.040   5.149   0.869
 8598SOL    HW226694   5.185   5.108   0.806
 8599SOL     OW26695   1.841   3.142   2.392
 8599SOL    HW126696   1.800   3.121   2.480
 8599SOL    HW226697   1.917   3.205   2.405
 8600SOL     OW26698   6.858   3.836   6.545
 8600SOL    HW126699   6.820   3.914   6.595
 8600SOL    HW226700   6.910   3.869   6.466
 8601SOL     OW26701   0.392   0.059   4.326
 8601SOL    HW126702   0.347   7.013   4.276
 8601SOL    HW226703   0.406   0.137   4.265
 8602SOL     OW26704   3.162   6.103   2.189
 8602SOL    HW126705   3.064   6.103   2.174
 8602SOL    HW226706   3.208   6.154   2.116
 8603SOL     OW26707   3.926   3.407   1.004
 8603SOL    HW126708   3.918   3.454   0.916
 8603SOL    HW226709   3.836   3.404   1.048
 8604SOL     OW26710   5.042   2.696   2.818
 8604SOL    HW126711   5.012   2.705   2.913
 8604SOL    HW226712   4.970   2.654   2.764
 8605SOL     OW26713   1.974   6.670   1.727
 8605SOL    HW126714   2.070   6.694   1.714
 8605SOL    HW226715   1.953   6.665   1.825
 8606SOL     OW26716   4.086   4.630   5.550
 8606SOL    HW126717   4.052   4.608   5.458
 8606SOL    HW226718   4.130   4.549   5.589
 8607SOL     OW26719   4.271   5.720   1.808
 8607SOL    HW126720   4.255   5.700   1.905
 8607SOL    HW226721   4.236   5.811   1.787
 8608SOL     OW26722   5.050   6.043   2.019
 8608SOL    HW126723   5.005   5.955   2.011
 8608SOL    HW226724   5.001   6.111   1.964
 8609SOL     OW26725   3.524   0.624   4.949
 8609SOL    HW126726   3.452   0.688   4.977
 8609SOL    HW226727   3.524   0.546   5.011
 8610SOL     OW26728   0.433   6.512   4.094
 8610SOL    HW126729   0.362   6.560   4.042
 8610SOL    HW226730   0.430   6.415   4.073
 8611SOL     OW26731   2.103   2.176   3.436
 8611SOL    HW126732   2.187   2.192   3.385
 8611SOL    HW226733   2.065   2.087   3.411
 8612SOL     OW26734   4.416   3.177   5.340
 8612SOL    HW126735   4.472   3.260   5.332
 8612SOL    HW226736   4.326   3.195   5.301
 8613SOL     OW26737   1.198   1.379   0.847
 8613SOL    HW126738   1.280   1.387   0.790
 8613SOL    HW226739   1.187   1.284   0.876
 8614SOL     OW26740   0.775   1.855   3.273
 8614SOL    HW126741   0.691   1.857   3.218
 8614SOL    HW226742   0.827   1.938   3.256
 8615SOL     OW26743   4.498   2.478   5.189
 8615SOL    HW126744   4.456   2.564   5.217
 8615SOL    HW226745   4.427   2.407   5.186
 8616SOL     OW26746   1.291   3.984   0.186
 8616SOL    HW126747   1.380   3.994   0.141
 8616SOL    HW226748   1.293   4.031   0.274
 8617SOL     OW26749   5.913   3.176   1.210
 8617SOL    HW126750   5.917   3.221   1.299
 8617SOL    HW226751   5.938   3.241   1.139
 8618SOL     OW26752   4.772   0.322   3.656
 8618SOL    HW126753   4.786   0.420   3.671
 8618SOL    HW226754   4.795   0.273   3.740
 8619SOL     OW26755   4.519   5.807   6.874
 8619SOL    HW126756   4.566   5.849   6.951
 8619SOL    HW226757   4.442   5.865   6.847
 8620SOL     OW26758   6.616   6.727   3.205
 8620SOL    HW126759   6.528   6.707   3.248
 8620SOL    HW226760   6.616   6.821   3.171
 8621SOL     OW26761   5.657   0.833   3.063
 8621SOL    HW126762   5.622   0.837   3.156
 8621SOL    HW226763   5.753   0.860   3.062
 8622SOL     OW26764   5.029   5.105   0.241
 8622SOL    HW126765   4.944   5.133   0.196
 8622SOL    HW226766   5.009   5.080   0.336
 8623SOL     OW26767   6.523   3.506   2.575
 8623SOL    HW126768   6.484   3.436   2.515
 8623SOL    HW226769   6.562   3.580   2.519
 8624SOL     OW26770   0.534   4.479   3.145
 8624SOL    HW126771   0.558   4.406   3.208
 8624SOL    HW226772   0.580   4.464   3.057
 8625SOL     OW26773   3.578   0.656   4.670
 8625SOL    HW126774   3.598   0.624   4.763
 8625SOL    HW226775   3.512   0.730   4.674
 8626SOL     OW26776   2.986   3.725   3.173
 8626SOL    HW126777   2.986   3.825   3.165
 8626SOL    HW226778   2.940   3.685   3.094
 8627SOL     OW26779   1.856   0.133   6.938
 8627SOL    HW126780   1.815   0.100   7.023
 8627SOL    HW226781   1.850   0.232   6.935
 8628SOL     OW26782   5.066   1.083   0.036
 8628SOL    HW126783   5.044   1.101   0.132
 8628SOL    HW226784   5.093   0.987   0.026
 8629SOL     OW26785   1.186   4.503   4.221
 8629SOL    HW126786   1.282   4.528   4.233
 8629SOL    HW226787   1.129   4.583   4.236
 8630SOL     OW26788   5.570   4.695   3.789
 8630SOL    HW126789   5.652   4.640   3.772
 8630SOL    HW226790   5.575   4.779   3.734
 8631SOL     OW26791   3.732   6.081   5.103
 8631SOL    HW126792   3.679   6.000   5.078
 8631SOL    HW226793   3.774   6.120   5.021
 8632SOL     OW26794   4.352   0.424   3.535
 8632SOL    HW126795   4.262   0.466   3.520
 8632SOL    HW226796   4.424   0.488   3.509
 8633SOL     OW26797   6.488   1.021   3.958
 8633SOL    HW126798   6.396   0.997   3.992
 8633SOL    HW226799   6.495   0.997   3.862
 8634SOL     OW26800   6.533   5.332   1.883
 8634SOL    HW126801   6.452   5.376   1.923
 8634SOL    HW226802   6.510   5.297   1.792
 8635SOL     OW26803   5.869   4.331   5.162
 8635SOL    HW126804   5.802   4.273   5.116
 8635SOL    HW226805   5.823   4.381   5.236
 8636SOL     OW26806   6.007   5.574   0.913
 8636SOL    HW126807   5.930   5.530   0.960
 8636SOL    HW226808   5.973   5.649   0.856
 8637SOL     OW26809   2.343   0.808   1.387
 8637SOL    HW126810   2.250   0.819   1.423
 8637SOL    HW226811   2.395   0.891   1.404
 8638SOL     OW26812   3.603   4.723   0.379
 8638SOL    HW126813   3.669   4.771   0.437
 8638SOL    HW226814   3.599   4.626   0.406
 8639SOL     OW26815   7.018   2.978   2.574
 8639SOL    HW126816   7.026   2.975   2.674
 8639SOL    HW226817   6.952   2.909   2.545
 8640SOL     OW26818   5.209   5.545   0.815
 8640SOL    HW126819   5.138   5.609   0.784
 8640SOL    HW226820   5.272   5.526   0.739
 8641SOL     OW26821   5.784   4.905   3.318
 8641SOL    HW126822   5.743   4.982   3.269
 8641SOL    HW226823   5.767   4.914   3.416
 8642SOL     OW26824   4.500   1.384   1.357
 8642SOL    HW126825   4.400   1.381   1.357
 8642SOL    HW226826   4.534   1.370   1.450
 8643SOL     OW26827   4.684   0.784   5.776
 8643SOL    HW126828   4.771   0.806   5.733
 8643SOL    HW226829   4.655   0.860   5.834
 8644SOL     OW26830   6.526   3.364   5.160
 8644SOL    HW126831   6.581   3.359   5.077
 8644SOL    HW226832   6.540   3.452   5.204
 8645SOL     OW26833   6.013   4.768   1.884
 8645SOL    HW126834   6.070   4.850   1.884
 8645SOL    HW226835   6.067   4.690   1.915
 8646SOL     OW26836   4.979   0.850   0.313
 8646SOL    HW126837   4.890   0.880   0.348
 8646SOL    HW226838   5.020   0.786   0.378
 8647SOL     OW26839   4.452   5.028   0.468
 8647SOL    HW126840   4.426   4.966   0.543
 8647SOL    HW226841   4.378   5.032   0.401
 8648SOL     OW26842   5.311   1.747   4.129
 8648SOL    HW126843   5.298   1.768   4.226
 8648SOL    HW226844   5.243   1.796   4.075
 8649SOL     OW26845   6.750   4.416   5.270
 8649SOL    HW126846   6.702   4.435   5.184
 8649SOL    HW226847   6.838   4.374   5.251
 8650SOL     OW26848   2.071   5.186   2.747
 8650SOL    HW126849   2.005   5.230   2.807
 8650SOL    HW226850   2.035   5.098   2.715
 8651SOL     OW26851   3.245   1.413   0.850
 8651SOL    HW126852   3.222   1.507   0.872
 8651SOL    HW226853   3.345   1.402   0.848
 8652SOL     OW26854   1.275   3.372   3.967
 8652SOL    HW126855   1.183   3.375   3.927
 8652SOL    HW226856   1.341   3.347   3.896
 8653SOL     OW26857   6.996   3.350   6.956
 8653SOL    HW126858   6.960   3.282   7.020
 8653SOL    HW226859   6.945   3.344   6.870
 8654SOL     OW26860   0.735   0.051   3.515
 8654SOL    HW126861   0.821   0.102   3.522
 8654SOL    HW226862   0.752   6.983   3.534
 8655SOL     OW26863   6.262   6.073   4.354
 8655SOL    HW126864   6.183   6.086   4.414
 8655SOL    HW226865   6.240   6.106   4.263
 8656SOL     OW26866   5.956   2.235   1.288
 8656SOL    HW126867   5.961   2.157   1.226
 8656SOL    HW226868   6.028   2.226   1.358
 8657SOL     OW26869   3.285   4.026   6.760
 8657SOL    HW126870   3.252   3.932   6.756
 8657SOL    HW226871   3.369   4.029   6.814
 8658SOL     OW26872   6.611   5.080   0.171
 8658SOL    HW126873   6.626   5.087   0.270
 8658SOL    HW226874   6.697   5.058   0.126
 8659SOL     OW26875   5.580   0.546   4.616
 8659SOL    HW126876   5.484   0.567   4.600
 8659SOL    HW226877   5.615   0.489   4.542
 8660SOL     OW26878   5.895   4.145   0.996
 8660SOL    HW126879   5.944   4.085   0.933
 8660SOL    HW226880   5.891   4.103   1.087
 8661SOL     OW26881   6.746   4.099   1.500
 8661SOL    HW126882   6.691   4.055   1.571
 8661SOL    HW226883   6.803   4.031   1.455
 8662SOL     OW26884   0.068   6.782   0.587
 8662SOL    HW126885   0.126   6.852   0.628
 8662SOL    HW226886   0.066   6.795   0.488
 8663SOL     OW26887   2.416   5.493   0.138
 8663SOL    HW126888   2.393   5.589   0.156
 8663SOL    HW226889   2.445   5.483   0.043
 8664SOL     OW26890   4.626   5.856   0.093
 8664SOL    HW126891   4.721   5.860   0.123
 8664SOL    HW226892   4.566   5.851   0.173
 8665SOL     OW26893   5.415   5.194   5.294
 8665SOL    HW126894   5.403   5.123   5.364
 8665SOL    HW226895   5.333   5.251   5.290
 8666SOL     OW26896   5.255   2.748   4.307
 8666SOL    HW126897   5.165   2.785   4.331
 8666SOL    HW226898   5.270   2.756   4.209
 8667SOL     OW26899   4.668   1.398   3.896
 8667SOL    HW126900   4.586   1.443   3.861
 8667SOL    HW226901   4.726   1.466   3.942
 8668SOL     OW26902   3.901   1.694   4.104
 8668SOL    HW126903   3.821   1.699   4.164
 8668SOL    HW226904   3.891   1.616   4.042
 8669SOL     OW26905   4.109   0.527   5.541
 8669SOL    HW126906   4.153   0.554   5.455
 8669SOL    HW226907   4.061   0.440   5.528
 8670SOL     OW26908   3.808   5.541   4.293
 8670SOL    HW126909   3.737   5.597   4.337
 8670SOL    HW226910   3.898   5.576   4.318
 8671SOL     OW26911   5.800   6.747   3.441
 8671SOL    HW126912   5.781   6.828   3.497
 8671SOL    HW226913   5.728   6.737   3.373
 8672SOL     OW26914   3.802   4.987   4.756
 8672SOL    HW126915   3.708   4.963   4.729
 8672SOL    HW226916   3.836   5.060   4.696
 8673SOL     OW26917   5.800   2.101   0.522
 8673SOL    HW126918   5.761   2.144   0.604
 8673SOL    HW226919   5.741   2.120   0.444
 8674SOL     OW26920   0.367   0.063   3.095
 8674SOL    HW126921   0.445   0.077   3.034
 8674SOL    HW226922   0.400   0.046   3.188
 8675SOL     OW26923   2.172   1.338   2.607
 8675SOL    HW126924   2.122   1.418   2.638
 8675SOL    HW226925   2.118   1.290   2.538
 8676SOL     OW26926   4.640   0.491   2.960
 8676SOL    HW126927   4.591   0.527   2.881
 8676SOL    HW226928   4.636   0.391   2.958
 8677SOL     OW26929   2.766   4.224   5.818
 8677SOL    HW126930   2.816   4.143   5.850
 8677SOL    HW226931   2.786   4.239   5.721
 8678SOL     OW26932   1.042   6.641   6.192
 8678SOL    HW126933   0.977   6.693   6.248
 8678SOL    HW226934   1.043   6.546   6.221
 8679SOL     OW26935   0.016   2.647   4.855
 8679SOL    HW126936   0.069   2.564   4.836
 8679SOL    HW226937   0.056   2.695   4.933
 8680SOL     OW26938   1.483   3.292   0.031
 8680SOL    HW126939   1.526   3.326   0.114
 8680SOL    HW226940   1.517   3.344   6.981
 8681SOL     OW26941   3.541   4.197   0.625
 8681SOL    HW126942   3.503   4.112   0.590
 8681SOL    HW226943   3.528   4.201   0.724
 8682SOL     OW26944   2.232   6.044   3.279
 8682SOL    HW126945   2.142   6.069   3.316
 8682SOL    HW226946   2.291   6.012   3.353
 8683SOL     OW26947   6.883   3.193   0.108
 8683SOL    HW126948   6.795   3.235   0.130
 8683SOL    HW226949   6.878   3.095   0.121
 8684SOL     OW26950   6.256   3.244   4.325
 8684SOL    HW126951   6.214   3.271   4.412
 8684SOL    HW226952   6.351   3.218   4.340
 8685SOL     OW26953   1.390   2.495   5.919
 8685SOL    HW126954   1.398   2.577   5.976
 8685SOL    HW226955   1.318   2.436   5.956
 8686SOL     OW26956   6.486   2.531   3.472
 8686SOL    HW126957   6.535   2.596   3.531
 8686SOL    HW226958   6.475   2.444   3.521
 8687SOL     OW26959   3.380   0.218   3.274
 8687SOL    HW126960   3.436   0.221   3.192
 8687SOL    HW226961   3.421   0.275   3.345
 8688SOL     OW26962   2.362   0.323   1.747
 8688SOL    HW126963   2.326   0.353   1.836
 8688SOL    HW226964   2.296   0.344   1.675
 8689SOL     OW26965   4.435   5.743   0.297
 8689SOL    HW126966   4.358   5.805   0.310
 8689SOL    HW226967   4.460   5.702   0.385
 8690SOL     OW26968   0.339   1.115   3.035
 8690SOL    HW126969   0.333   1.041   2.967
 8690SOL    HW226970   0.250   1.162   3.041
 8691SOL     OW26971   5.257   2.418   0.109
 8691SOL    HW126972   5.198   2.417   0.190
 8691SOL    HW226973   5.218   2.478   0.040
 8692SOL     OW26974   2.263   1.685   4.286
 8692SOL    HW126975   2.265   1.619   4.211
 8692SOL    HW226976   2.171   1.723   4.295
 8693SOL     OW26977   5.246   2.231   0.790
 8693SOL    HW126978   5.282   2.138   0.800
 8693SOL    HW226979   5.322   2.296   0.795
 8694SOL     OW26980   5.089   0.131   5.992
 8694SOL    HW126981   5.176   0.156   6.036
 8694SOL    HW226982   5.068   0.197   5.920
 8695SOL     OW26983   4.748   4.423   5.511
 8695SOL    HW126984   4.720   4.388   5.601
 8695SOL    HW226985   4.831   4.375   5.481
 8696SOL     OW26986   2.433   5.811   1.662
 8696SOL    HW126987   2.520   5.846   1.696
 8696SOL    HW226988   2.443   5.781   1.567
 8697SOL     OW26989   6.305   4.025   0.886
 8697SOL    HW126990   6.318   3.975   0.800
 8697SOL    HW226991   6.310   4.124   0.867
 8698SOL     OW26992   5.533   5.868   4.323
 8698SOL    HW126993   5.497   5.813   4.247
 8698SOL    HW226994   5.631   5.881   4.310
 8699SOL     OW26995   1.283   1.689   5.146
 8699SOL    HW126996   1.200   1.671   5.094
 8699SOL    HW226997   1.266   1.759   5.215
 8700SOL     OW26998   2.961   1.313   5.789
 8700SOL    HW126999   2.957   1.409   5.816
 8700SOL    HW227000   2.981   1.306   5.692
 8701SOL     OW27001   0.300   1.856   4.990
 8701SOL    HW127002   0.378   1.918   4.998
 8701SOL    HW227003   0.325   1.778   4.933
 8702SOL     OW27004   5.212   5.920   0.168
 8702SOL    HW127005   5.182   5.832   0.132
 8702SOL    HW227006   5.235   5.911   0.265
 8703SOL     OW27007   2.364   5.905   0.801
 8703SOL    HW127008   2.412   5.938   0.720
 8703SOL    HW227009   2.384   5.964   0.879
 8704SOL     OW27010   0.058   4.527   1.985
 8704SOL    HW127011   7.020   4.555   2.054
 8704SOL    HW227012   0.149   4.524   2.026
 8705SOL     OW27013   5.055   0.405   5.840
 8705SOL    HW127014   5.109   0.484   5.869
 8705SOL    HW227015   4.958   0.427   5.848
 8706SOL     OW27016   5.360   1.904   0.467
 8706SOL    HW127017   5.283   1.936   0.411
 8706SOL    HW227018   5.410   1.833   0.418
 8707SOL     OW27019   5.126   2.565   5.927
 8707SOL    HW127020   5.139   2.514   5.842
 8707SOL    HW227021   5.158   2.659   5.915
 8708SOL     OW27022   4.223   1.402   1.448
 8708SOL    HW127023   4.133   1.420   1.407
 8708SOL    HW227024   4.263   1.489   1.479
 8709SOL     OW27025   0.080   4.086   1.093
 8709SOL    HW127026   0.116   4.037   1.014
 8709SOL    HW227027   0.099   4.033   1.176
 8710SOL     OW27028   1.945   3.408   3.497
 8710SOL    HW127029   1.859   3.416   3.548
 8710SOL    HW227030   1.928   3.361   3.410
 8711SOL     OW27031   6.862   0.835   3.642
 8711SOL    HW127032   6.787   0.776   3.670
 8711SOL    HW227033   6.864   0.916   3.701
 8712SOL     OW27034   3.160   1.875   5.068
 8712SOL    HW127035   3.105   1.809   5.016
 8712SOL    HW227036   3.101   1.950   5.098
 8713SOL     OW27037   0.101   4.567   3.580
 8713SOL    HW127038   0.135   4.605   3.666
 8713SOL    HW227039   0.136   4.474   3.569
 8714SOL     OW27040   1.709   1.185   5.654
 8714SOL    HW127041   1.756   1.209   5.739
 8714SOL    HW227042   1.611   1.175   5.673
 8715SOL     OW27043   5.894   1.784   1.492
 8715SOL    HW127044   5.872   1.880   1.509
 8715SOL    HW227045   5.847   1.726   1.560
 8716SOL     OW27046   0.913   1.788   0.887
 8716SOL    HW127047   0.868   1.877   0.879
 8716SOL    HW227048   0.954   1.764   0.799
 8717SOL     OW27049   3.893   3.613   1.458
 8717SOL    HW127050   3.936   3.649   1.375
 8717SOL    HW227051   3.945   3.642   1.538
 8718SOL     OW27052   6.198   3.097   5.408
 8718SOL    HW127053   6.164   3.052   5.326
 8718SOL    HW227054   6.123   3.142   5.456
 8719SOL     OW27055   0.221   0.181   5.953
 8719SOL    HW127056   0.202   0.099   6.006
 8719SOL    HW227057   0.291   0.161   5.884
 8720SOL     OW27058   5.411   4.083   5.311
 8720SOL    HW127059   5.445   4.173   5.283
 8720SOL    HW227060   5.434   4.068   5.407
 8721SOL     OW27061   6.994   2.424   4.386
 8721SOL    HW127062   6.913   2.409   4.444
 8721SOL    HW227063   7.008   2.522   4.373
 8722SOL     OW27064   4.027   2.634   0.315
 8722SOL    HW127065   4.021   2.564   0.244
 8722SOL    HW227066   4.060   2.593   0.400
 8723SOL     OW27067   6.532   5.221   1.371
 8723SOL    HW127068   6.631   5.227   1.372
 8723SOL    HW227069   6.504   5.125   1.367
 8724SOL     OW27070   5.369   0.600   6.029
 8724SOL    HW127071   5.463   0.598   6.064
 8724SOL    HW227072   5.366   0.661   5.949
 8725SOL     OW27073   2.491   5.942   0.563
 8725SOL    HW127074   2.570   5.960   0.506
 8725SOL    HW227075   2.464   5.846   0.553
 8726SOL     OW27076   6.313   0.329   1.364
 8726SOL    HW127077   6.234   0.269   1.366
 8726SOL    HW227078   6.381   0.293   1.300
 8727SOL     OW27079   6.516   6.141   1.263
 8727SOL    HW127080   6.599   6.141   1.319
 8727SOL    HW227081   6.472   6.230   1.268
 8728SOL     OW27082   2.822   7.026   5.423
 8728SOL    HW127083   2.778   0.029   5.339
 8728SOL    HW227084   2.905   6.975   5.400
 8729SOL     OW27085   5.097   5.873   4.150
 8729SOL    HW127086   5.086   5.966   4.183
 8729SOL    HW227087   5.137   5.817   4.222
 8730SOL     OW27088   0.147   5.698   1.817
 8730SOL    HW127089   0.128   5.685   1.915
 8730SOL    HW227090   0.078   5.650   1.763
 8731SOL     OW27091   1.359   1.364   2.428
 8731SOL    HW127092   1.329   1.460   2.427
 8731SOL    HW227093   1.333   1.321   2.342
 8732SOL     OW27094   5.606   3.661   1.821
 8732SOL    HW127095   5.587   3.593   1.750
 8732SOL    HW227096   5.531   3.727   1.825
 8733SOL     OW27097   1.025   6.675   1.630
 8733SOL    HW127098   0.930   6.684   1.600
 8733SOL    HW227099   1.059   6.584   1.605
 8734SOL     OW27100   6.684   5.799   1.319
 8734SOL    HW127101   6.772   5.846   1.321
 8734SOL    HW227102   6.654   5.779   1.412
 8735SOL     OW27103   0.069   1.931   6.713
 8735SOL    HW127104   0.152   1.922   6.658
 8735SOL    HW227105   0.028   1.841   6.728
 8736SOL     OW27106   0.437   4.851   6.602
 8736SOL    HW127107   0.483   4.782   6.658
 8736SOL    HW227108   0.504   4.894   6.541
 8737SOL     OW27109   4.020   5.647   6.075
 8737SOL    HW127110   4.047   5.568   6.131
 8737SOL    HW227111   4.042   5.627   5.979
 8738SOL     OW27112   1.131   3.647   4.358
 8738SOL    HW127113   1.203   3.578   4.369
 8738SOL    HW227114   1.059   3.630   4.425
 8739SOL     OW27115   0.079   3.044   5.355
 8739SOL    HW127116   7.015   3.049   5.319
 8739SOL    HW227117   0.096   3.122   5.415
 8740SOL     OW27118   2.247   6.440   0.857
 8740SOL    HW127119   2.277   6.403   0.769
 8740SOL    HW227120   2.201   6.528   0.843
 8741SOL     OW27121   1.464   3.317   2.666
 8741SOL    HW127122   1.436   3.397   2.718
 8741SOL    HW227123   1.562   3.302   2.677
 8742SOL     OW27124   4.324   0.004   1.686
 8742SOL    HW127125   4.300   0.036   1.777
 8742SOL    HW227126   4.277   6.946   1.667
 8743SOL     OW27127   2.586   5.170   2.783
 8743SOL    HW127128   2.501   5.153   2.834
 8743SOL    HW227129   2.622   5.260   2.807
 8744SOL     OW27130   4.096   2.110   6.323
 8744SOL    HW127131   4.086   2.102   6.422
 8744SOL    HW227132   4.189   2.137   6.301
 8745SOL     OW27133   6.822   2.238   6.142
 8745SOL    HW127134   6.898   2.292   6.176
 8745SOL    HW227135   6.793   2.173   6.213
 8746SOL     OW27136   5.366   4.746   5.682
 8746SOL    HW127137   5.388   4.653   5.651
 8746SOL    HW227138   5.296   4.786   5.623
 8747SOL     OW27139   1.889   2.346   4.117
 8747SOL    HW127140   1.983   2.310   4.118
 8747SOL    HW227141   1.886   2.432   4.168
 8748SOL     OW27142   1.521   7.016   6.841
 8748SOL    HW127143   1.421   7.025   6.848
 8748SOL    HW227144   1.563   0.077   6.855
 8749SOL     OW27145   3.813   0.416   3.540
 8749SOL    HW127146   3.873   0.360   3.484
 8749SOL    HW227147   3.729   0.437   3.489
 8750SOL     OW27148   2.216   1.552   5.393
 8750SOL    HW127149   2.203   1.577   5.297
 8750SOL    HW227150   2.158   1.474   5.416
 8751SOL     OW27151   1.249   6.931   3.053
 8751SOL    HW127152   1.257   6.922   2.954
 8751SOL    HW227153   1.261   7.027   3.079
 8752SOL     OW27154   1.655   2.338   5.898
 8752SOL    HW127155   1.631   2.305   5.989
 8752SOL    HW227156   1.589   2.406   5.869
 8753SOL     OW27157   5.239   1.557   4.433
 8753SOL    HW127158   5.204   1.612   4.357
 8753SOL    HW227159   5.337   1.575   4.445
 8754SOL     OW27160   1.421   1.782   5.651
 8754SOL    HW127161   1.326   1.767   5.621
 8754SOL    HW227162   1.448   1.707   5.712
 8755SOL     OW27163   1.971   1.372   0.690
 8755SOL    HW127164   1.938   1.467   0.696
 8755SOL    HW227165   1.898   1.314   0.653
 8756SOL     OW27166   2.173   3.320   4.183
 8756SOL    HW127167   2.203   3.237   4.230
 8756SOL    HW227168   2.157   3.392   4.251
 8757SOL     OW27169   4.825   6.331   5.176
 8757SOL    HW127170   4.808   6.317   5.274
 8757SOL    HW227171   4.832   6.242   5.130
 8758SOL     OW27172   6.209   6.536   1.025
 8758SOL    HW127173   6.166   6.531   1.115
 8758SOL    HW227174   6.222   6.443   0.990
 8759SOL     OW27175   5.073   0.610   5.623
 8759SOL    HW127176   5.052   0.519   5.659
 8759SOL    HW227177   5.085   0.605   5.524
 8760SOL     OW27178   1.649   2.151   3.869
 8760SOL    HW127179   1.573   2.150   3.804
 8760SOL    HW227180   1.715   2.221   3.843
 8761SOL     OW27181   4.538   6.859   0.200
 8761SOL    HW127182   4.505   6.776   0.154
 8761SOL    HW227183   4.486   6.938   0.168
 8762SOL     OW27184   0.725   4.359   0.758
 8762SOL    HW127185   0.814   4.338   0.718
 8762SOL    HW227186   0.738   4.403   0.847
 8763SOL     OW27187   0.369   6.534   6.370
 8763SOL    HW127188   0.277   6.500   6.352
 8763SOL    HW227189   0.421   6.464   6.421
 8764SOL     OW27190   4.187   1.816   4.869
 8764SOL    HW127191   4.202   1.880   4.945
 8764SOL    HW227192   4.093   1.782   4.873
 8765SOL     OW27193   6.305   0.523   4.294
 8765SOL    HW127194   6.396   0.560   4.309
 8765SOL    HW227195   6.312   0.438   4.242
 8766SOL     OW27196   2.189   4.879   2.456
 8766SOL    HW127197   2.110   4.880   2.518
 8766SOL    HW227198   2.210   4.785   2.430
 8767SOL     OW27199   4.376   1.271   3.623
 8767SOL    HW127200   4.409   1.195   3.680
 8767SOL    HW227201   4.362   1.352   3.680
 8768SOL     OW27202   1.495   3.397   6.744
 8768SOL    HW127203   1.557   3.470   6.774
 8768SOL    HW227204   1.514   3.375   6.648
 8769SOL     OW27205   1.717   0.277   5.536
 8769SOL    HW127206   1.653   0.280   5.459
 8769SOL    HW227207   1.753   0.369   5.553
 8770SOL     OW27208   5.300   3.062   1.723
 8770SOL    HW127209   5.391   3.083   1.687
 8770SOL    HW227210   5.251   3.147   1.740
 8771SOL     OW27211   0.802   1.429   6.570
 8771SOL    HW127212   0.884   1.375   6.549
 8771SOL    HW227213   0.724   1.368   6.584
 8772SOL     OW27214   5.292   1.191   6.949
 8772SOL    HW127215   5.283   1.141   6.863
 8772SOL    HW227216   5.226   1.156   7.016
 8773SOL     OW27217   2.523   2.522   2.941
 8773SOL    HW127218   2.433   2.480   2.937
 8773SOL    HW227219   2.584   2.465   2.998
 8774SOL     OW27220   1.292   0.949   0.882
 8774SOL    HW127221   1.248   0.960   0.793
 8774SOL    HW227222   1.284   1.034   0.934
 8775SOL     OW27223   6.775   0.148   3.692
 8775SOL    HW127224   6.827   0.180   3.613
 8775SOL    HW227225   6.681   0.129   3.665
 8776SOL     OW27226   3.178   2.996   4.898
 8776SOL    HW127227   3.104   3.061   4.877
 8776SOL    HW227228   3.172   2.968   4.993
 8777SOL     OW27229   6.352   6.310   1.499
 8777SOL    HW127230   6.446   6.344   1.496
 8777SOL    HW227231   6.300   6.360   1.569
 8778SOL     OW27232   0.358   2.310   3.479
 8778SOL    HW127233   0.372   2.211   3.472
 8778SOL    HW227234   0.412   2.357   3.410
 8779SOL     OW27235   0.859   4.801   0.653
 8779SOL    HW127236   0.770   4.756   0.662
 8779SOL    HW227237   0.865   4.877   0.718
 8780SOL     OW27238   1.305   5.827   4.759
 8780SOL    HW127239   1.241   5.806   4.686
 8780SOL    HW227240   1.398   5.828   4.723
 8781SOL     OW27241   0.367   1.644   2.262
 8781SOL    HW127242   0.406   1.613   2.175
 8781SOL    HW227243   0.324   1.734   2.248
 8782SOL     OW27244   4.064   1.419   2.850
 8782SOL    HW127245   4.034   1.364   2.928
 8782SOL    HW227246   4.084   1.359   2.773
 8783SOL     OW27247   5.790   3.342   4.732
 8783SOL    HW127248   5.887   3.366   4.739
 8783SOL    HW227249   5.759   3.357   4.638
 8784SOL     OW27250   5.433   4.674   5.333
 8784SOL    HW127251   5.455   4.647   5.426
 8784SOL    HW227252   5.377   4.758   5.335
 8785SOL     OW27253   6.394   4.532   6.075
 8785SOL    HW127254   6.362   4.469   6.004
 8785SOL    HW227255   6.361   4.624   6.056
 8786SOL     OW27256   1.801   6.821   0.136
 8786SOL    HW127257   1.770   6.860   0.050
 8786SOL    HW227258   1.755   6.733   0.152
 8787SOL     OW27259   1.304   3.701   1.175
 8787SOL    HW127260   1.263   3.791   1.163
 8787SOL    HW227261   1.272   3.661   1.260
 8788SOL     OW27262   1.033   1.599   5.044
 8788SOL    HW127263   0.957   1.536   5.031
 8788SOL    HW227264   1.074   1.621   4.956
 8789SOL     OW27265   0.313   6.783   6.393
 8789SOL    HW127266   0.341   6.688   6.381
 8789SOL    HW227267   0.214   6.790   6.383
 8790SOL     OW27268   5.574   1.558   0.039
 8790SOL    HW127269   5.639   1.590   6.999
 8790SOL    HW227270   5.560   1.629   0.108
 8791SOL     OW27271   5.027   6.683   5.556
 8791SOL    HW127272   4.940   6.673   5.605
 8791SOL    HW227273   5.012   6.672   5.458
 8792SOL     OW27274   5.190   0.031   3.103
 8792SOL    HW127275   5.091   0.026   3.113
 8792SOL    HW227276   5.226   6.969   3.078
 8793SOL     OW27277   0.972   5.972   4.135
 8793SOL    HW127278   0.882   6.002   4.104
 8793SOL    HW227279   0.985   5.876   4.112
 8794SOL     OW27280   2.072   6.454   2.505
 8794SOL    HW127281   2.080   6.436   2.603
 8794SOL    HW227282   2.016   6.536   2.490
 8795SOL     OW27283   2.198   6.202   5.711
 8795SOL    HW127284   2.140   6.133   5.755
 8795SOL    HW227285   2.211   6.278   5.775
 8796SOL     OW27286   5.450   2.465   5.015
 8796SOL    HW127287   5.380   2.469   5.087
 8796SOL    HW227288   5.406   2.462   4.926
 8797SOL     OW27289   0.453   6.771   6.617
 8797SOL    HW127290   0.546   6.733   6.609
 8797SOL    HW227291   0.419   6.795   6.527
 8798SOL     OW27292   4.817   3.757   5.317
 8798SOL    HW127293   4.898   3.785   5.264
 8798SOL    HW227294   4.768   3.686   5.267
 8799SOL     OW27295   3.028   5.303   2.864
 8799SOL    HW127296   2.976   5.265   2.788
 8799SOL    HW227297   3.014   5.246   2.945
 8800SOL     OW27298   4.793   4.787   6.827
 8800SOL    HW127299   4.794   4.755   6.732
 8800SOL    HW227300   4.701   4.819   6.850
 8801SOL     OW27301   2.533   1.026   4.963
 8801SOL    HW127302   2.554   1.101   4.901
 8801SOL    HW227303   2.456   0.974   4.928
 8802SOL     OW27304   2.678   6.580   2.586
 8802SOL    HW127305   2.669   6.643   2.664
 8802SOL    HW227306   2.754   6.518   2.602
 8803SOL     OW27307   3.920   6.240   0.506
 8803SOL    HW127308   3.846   6.269   0.565
 8803SOL    HW227309   3.895   6.154   0.460
 8804SOL     OW27310   4.835   0.518   1.111
 8804SOL    HW127311   4.807   0.534   1.017
 8804SOL    HW227312   4.793   0.586   1.171
 8805SOL     OW27313   0.594   0.335   2.952
 8805SOL    HW127314   0.607   0.342   3.051
 8805SOL    HW227315   0.523   0.400   2.923
 8806SOL     OW27316   2.069   4.787   6.866
 8806SOL    HW127317   2.017   4.710   6.901
 8806SOL    HW227318   2.122   4.758   6.787
 8807SOL     OW27319   1.350   5.990   6.427
 8807SOL    HW127320   1.359   5.891   6.441
 8807SOL    HW227321   1.317   6.008   6.334
 8808SOL     OW27322   5.886   1.398   1.043
 8808SOL    HW127323   5.955   1.437   0.982
 8808SOL    HW227324   5.808   1.460   1.048
 8809SOL     OW27325   5.839   3.983   1.225
 8809SOL    HW127326   5.781   4.016   1.300
 8809SOL    HW227327   5.927   3.954   1.262
 8810SOL     OW27328   4.256   1.428   4.198
 8810SOL    HW127329   4.169   1.380   4.186
 8810SOL    HW227330   4.245   1.524   4.172
 8811SOL     OW27331   1.163   1.177   2.843
 8811SOL    HW127332   1.154   1.260   2.787
 8811SOL    HW227333   1.177   1.098   2.784
 8812SOL     OW27334   2.200   0.774   1.043
 8812SOL    HW127335   2.269   0.840   1.072
 8812SOL    HW227336   2.223   0.738   0.953
 8813SOL     OW27337   1.923   5.814   1.652
 8813SOL    HW127338   1.945   5.753   1.576
 8813SOL    HW227339   1.865   5.889   1.619
 8814SOL     OW27340   6.092   0.822   6.295
 8814SOL    HW127341   6.110   0.852   6.388
 8814SOL    HW227342   6.122   0.893   6.231
 8815SOL     OW27343   0.445   6.083   2.488
 8815SOL    HW127344   0.451   6.183   2.487
 8815SOL    HW227345   0.534   6.044   2.508
 8816SOL     OW27346   0.917   5.709   1.464
 8816SOL    HW127347   0.837   5.707   1.524
 8816SOL    HW227348   0.911   5.788   1.403
 8817SOL     OW27349   1.771   5.187   5.696
 8817SOL    HW127350   1.847   5.197   5.632
 8817SOL    HW227351   1.772   5.264   5.760
 8818SOL     OW27352   0.495   5.435   3.950
 8818SOL    HW127353   0.509   5.529   3.983
 8818SOL    HW227354   0.401   5.406   3.972
 8819SOL     OW27355   4.969   6.552   4.149
 8819SOL    HW127356   4.999   6.559   4.244
 8819SOL    HW227357   5.046   6.573   4.088
 8820SOL     OW27358   1.347   2.439   3.709
 8820SOL    HW127359   1.363   2.526   3.664
 8820SOL    HW227360   1.320   2.455   3.804
 8821SOL     OW27361   2.131   1.094   6.114
 8821SOL    HW127362   2.197   1.019   6.123
 8821SOL    HW227363   2.146   1.141   6.027
 8822SOL     OW27364   0.116   2.408   3.226
 8822SOL    HW127365   0.024   2.399   3.187
 8822SOL    HW227366   0.184   2.382   3.158
 8823SOL     OW27367   1.979   6.216   2.025
 8823SOL    HW127368   1.965   6.282   2.099
 8823SOL    HW227369   1.914   6.141   2.034
 8824SOL     OW27370   3.843   4.137   0.652
 8824SOL    HW127371   3.860   4.216   0.711
 8824SOL    HW227372   3.745   4.118   0.648
 8825SOL     OW27373   0.931   1.387   1.673
 8825SOL    HW127374   0.975   1.399   1.584
 8825SOL    HW227375   0.997   1.347   1.737
 8826SOL     OW27376   5.107   1.645   6.846
 8826SOL    HW127377   5.176   1.673   6.912
 8826SOL    HW227378   5.139   1.563   6.798
 8827SOL     OW27379   1.171   1.925   3.439
 8827SOL    HW127380   1.100   1.893   3.501
 8827SOL    HW227381   1.180   1.862   3.362
 8828SOL     OW27382   2.662   6.750   2.801
 8828SOL    HW127383   2.566   6.777   2.811
 8828SOL    HW227384   2.721   6.830   2.815
 8829SOL     OW27385   0.293   1.954   0.670
 8829SOL    HW127386   0.234   2.031   0.645
 8829SOL    HW227387   0.360   1.938   0.598
 8830SOL     OW27388   0.524   2.441   1.172
 8830SOL    HW127389   0.495   2.515   1.111
 8830SOL    HW227390   0.622   2.426   1.161
 8831SOL     OW27391   6.399   0.703   2.885
 8831SOL    HW127392   6.328   0.632   2.888
 8831SOL    HW227393   6.408   0.745   2.975
 8832SOL     OW27394   6.286   0.889   2.718
 8832SOL    HW127395   6.202   0.930   2.754
 8832SOL    HW227396   6.316   0.816   2.780
 8833SOL     OW27397   2.079   4.488   3.777
 8833SOL    HW127398   2.050   4.504   3.872
 8833SOL    HW227399   2.143   4.411   3.774
 8834SOL     OW27400   5.701   4.125   5.075
 8834SOL    HW127401   5.638   4.051   5.096
 8834SOL    HW227402   5.751   4.104   4.991
 8835SOL     OW27403   0.058   6.478   6.656
 8835SOL    HW127404   0.122   6.522   6.720
 8835SOL    HW227405   6.997   6.520   6.664
 8836SOL     OW27406   4.717   1.617   0.646
 8836SOL    HW127407   4.668   1.686   0.699
 8836SOL    HW227408   4.657   1.538   0.630
 8837SOL     OW27409   0.192   1.001   1.993
 8837SOL    HW127410   0.102   0.966   1.967
 8837SOL    HW227411   0.193   1.021   2.092
 8838SOL     OW27412   2.309   5.525   4.103
 8838SOL    HW127413   2.343   5.581   4.027
 8838SOL    HW227414   2.217   5.555   4.127
 8839SOL     OW27415   6.550   6.749   3.870
 8839SOL    HW127416   6.587   6.785   3.785
 8839SOL    HW227417   6.504   6.822   3.920
 8840SOL     OW27418   5.160   2.095   2.331
 8840SOL    HW127419   5.219   2.015   2.317
 8840SOL    HW227420   5.154   2.115   2.428
 8841SOL     OW27421   1.712   1.420   4.794
 8841SOL    HW127422   1.683   1.433   4.889
 8841SOL    HW227423   1.631   1.409   4.736
 8842SOL     OW27424   2.264   3.043   1.825
 8842SOL    HW127425   2.257   3.129   1.775
 8842SOL    HW227426   2.343   2.991   1.792
 8843SOL     OW27427   0.166   3.267   4.902
 8843SOL    HW127428   0.177   3.168   4.902
 8843SOL    HW227429   0.205   3.305   4.986
 8844SOL     OW27430   6.756   1.454   6.708
 8844SOL    HW127431   6.695   1.401   6.768
 8844SOL    HW227432   6.834   1.397   6.683
 8845SOL     OW27433   5.692   4.595   6.976
 8845SOL    HW127434   5.671   4.527   6.906
 8845SOL    HW227435   5.665   4.561   0.037
 8846SOL     OW27436   1.841   4.761   3.529
 8846SOL    HW127437   1.778   4.803   3.593
 8846SOL    HW227438   1.823   4.663   3.522
 8847SOL     OW27439   2.932   0.548   2.656
 8847SOL    HW127440   2.875   0.471   2.626
 8847SOL    HW227441   2.879   0.633   2.649
 8848SOL     OW27442   1.545   0.618   3.041
 8848SOL    HW127443   1.511   0.541   2.987
 8848SOL    HW227444   1.513   0.703   3.001
 8849SOL     OW27445   3.077   6.692   0.907
 8849SOL    HW127446   2.994   6.647   0.873
 8849SOL    HW227447   3.051   6.780   0.949
 8850SOL     OW27448   3.546   2.937   6.924
 8850SOL    HW127449   3.500   2.851   6.945
 8850SOL    HW227450   3.530   3.003   6.998
 8851SOL     OW27451   1.177   3.083   3.022
 8851SOL    HW127452   1.196   3.055   3.116
 8851SOL    HW227453   1.108   3.156   3.022
 8852SOL     OW27454   0.792   1.486   5.772
 8852SOL    HW127455   0.796   1.582   5.799
 8852SOL    HW227456   0.884   1.451   5.756
 8853SOL     OW27457   4.522   0.923   0.661
 8853SOL    HW127458   4.578   0.892   0.738
 8853SOL    HW227459   4.577   0.980   0.601
 8854SOL     OW27460   0.564   2.764   4.545
 8854SOL    HW127461   0.546   2.707   4.465
 8854SOL    HW227462   0.657   2.746   4.578
 8855SOL     OW27463   5.651   4.949   1.228
 8855SOL    HW127464   5.744   4.919   1.249
 8855SOL    HW227465   5.654   5.022   1.160
 8856SOL     OW27466   0.256   6.320   5.415
 8856SOL    HW127467   0.204   6.362   5.340
 8856SOL    HW227468   0.232   6.223   5.420
 8857SOL     OW27469   6.590   1.565   6.075
 8857SOL    HW127470   6.553   1.645   6.122
 8857SOL    HW227471   6.529   1.539   6.001
 8858SOL     OW27472   6.397   6.254   4.506
 8858SOL    HW127473   6.372   6.169   4.461
 8858SOL    HW227474   6.327   6.278   4.574
 8859SOL     OW27475   1.304   6.651   3.938
 8859SOL    HW127476   1.213   6.662   3.899
 8859SOL    HW227477   1.319   6.721   4.008
 8860SOL     OW27478   0.572   3.803   2.596
 8860SOL    HW127479   0.528   3.886   2.562
 8860SOL    HW227480   0.544   3.786   2.690
 8861SOL     OW27481   4.638   2.521   0.824
 8861SOL    HW127482   4.725   2.567   0.807
 8861SOL    HW227483   4.563   2.574   0.785
 8862SOL     OW27484   4.998   4.563   4.751
 8862SOL    HW127485   5.002   4.653   4.793
 8862SOL    HW227486   4.973   4.495   4.820
 8863SOL     OW27487   2.063   3.954   3.410
 8863SOL    HW127488   1.996   3.998   3.350
 8863SOL    HW227489   2.047   3.984   3.504
 8864SOL     OW27490   6.360   1.550   5.426
 8864SOL    HW127491   6.327   1.532   5.334
 8864SOL    HW227492   6.413   1.634   5.427
 8865SOL     OW27493   2.889   1.472   0.247
 8865SOL    HW127494   2.924   1.473   0.153
 8865SOL    HW227495   2.842   1.558   0.266
 8866SOL     OW27496   5.726   6.458   1.880
 8866SOL    HW127497   5.729   6.465   1.979
 8866SOL    HW227498   5.652   6.396   1.853
 8867SOL     OW27499   6.314   4.079   2.757
 8867SOL    HW127500   6.406   4.091   2.718
 8867SOL    HW227501   6.253   4.041   2.687
 8868SOL     OW27502   6.917   3.398   3.859
 8868SOL    HW127503   6.864   3.442   3.931
 8868SOL    HW227504   6.930   3.301   3.881
 8869SOL     OW27505   3.581   6.852   3.451
 8869SOL    HW127506   3.676   6.862   3.480
 8869SOL    HW227507   3.565   6.907   3.370
 8870SOL     OW27508   1.327   0.844   3.600
 8870SOL    HW127509   1.308   0.940   3.620
 8870SOL    HW227510   1.415   0.836   3.553
 8871SOL     OW27511   6.987   0.695   3.011
 8871SOL    HW127512   6.908   0.752   2.988
 8871SOL    HW227513   0.042   0.740   2.979
 8872SOL     OW27514   6.483   4.889   4.277
 8872SOL    HW127515   6.443   4.798   4.286
 8872SOL    HW227516   6.421   4.948   4.224
 8873SOL     OW27517   1.964   1.474   3.036
 8873SOL    HW127518   2.055   1.444   3.007
 8873SOL    HW227519   1.935   1.553   2.981
 8874SOL     OW27520   3.345   6.184   0.955
 8874SOL    HW127521   3.339   6.101   0.900
 8874SOL    HW227522   3.311   6.262   0.902
 8875SOL     OW27523   6.979   3.412   4.274
 8875SOL    HW127524   0.038   3.364   4.281
 8875SOL    HW227525   6.994   3.502   4.235
 8876SOL     OW27526   3.895   0.494   6.398
 8876SOL    HW127527   3.988   0.521   6.375
 8876SOL    HW227528   3.833   0.571   6.382
 8877SOL     OW27529   1.562   3.889   1.218
 8877SOL    HW127530   1.505   3.892   1.300
 8877SOL    HW227531   1.586   3.982   1.191
 8878SOL     OW27532   5.012   3.669   1.141
 8878SOL    HW127533   4.919   3.701   1.122
 8878SOL    HW227534   5.076   3.713   1.079
 8879SOL     OW27535   6.263   5.079   2.836
 8879SOL    HW127536   6.313   5.113   2.756
 8879SOL    HW227537   6.326   5.029   2.896
 8880SOL     OW27538   4.021   0.966   3.903
 8880SOL    HW127539   4.085   0.897   3.939
 8880SOL    HW227540   4.071   1.032   3.848
 8881SOL     OW27541   4.445   5.099   4.450
 8881SOL    HW127542   4.540   5.078   4.472
 8881SOL    HW227543   4.413   5.036   4.378
 8882SOL     OW27544   4.539   0.568   0.721
 8882SOL    HW127545   4.463   0.609   0.771
 8882SOL    HW227546   4.540   0.469   0.735
 8883SOL     OW27547   6.545   6.006   4.983
 8883SOL    HW127548   6.600   5.927   4.957
 8883SOL    HW227549   6.592   6.090   4.956
 8884SOL     OW27550   5.233   3.233   5.044
 8884SOL    HW127551   5.137   3.208   5.037
 8884SOL    HW227552   5.284   3.158   5.088
 8885SOL     OW27553   5.998   6.078   0.705
 8885SOL    HW127554   6.076   6.057   0.645
 8885SOL    HW227555   5.988   6.177   0.714
 8886SOL     OW27556   4.547   6.131   6.280
 8886SOL    HW127557   4.630   6.174   6.316
 8886SOL    HW227558   4.468   6.188   6.303
 8887SOL     OW27559   4.647   0.745   1.971
 8887SOL    HW127560   4.727   0.686   1.960
 8887SOL    HW227561   4.565   0.689   1.977
 8888SOL     OW27562   2.506   2.027   2.730
 8888SOL    HW127563   2.510   2.008   2.828
 8888SOL    HW227564   2.598   2.050   2.697
 8889SOL     OW27565   1.128   5.802   6.507
 8889SOL    HW127566   1.161   5.894   6.484
 8889SOL    HW227567   1.110   5.796   6.605
 8890SOL     OW27568   0.560   6.480   0.316
 8890SOL    HW127569   0.474   6.531   0.317
 8890SOL    HW227570   0.633   6.538   0.281
 8891SOL     OW27571   6.375   4.008   6.985
 8891SOL    HW127572   6.327   4.096   6.978
 8891SOL    HW227573   6.310   3.934   6.968
 8892SOL     OW27574   3.204   5.346   4.232
 8892SOL    HW127575   3.143   5.426   4.226
 8892SOL    HW227576   3.187   5.297   4.317
 8893SOL     OW27577   1.146   5.060   4.538
 8893SOL    HW127578   1.204   5.032   4.615
 8893SOL    HW227579   1.051   5.066   4.569
 8894SOL     OW27580   5.096   1.815   0.713
 8894SOL    HW127581   5.180   1.798   0.660
 8894SOL    HW227582   5.026   1.749   0.687
 8895SOL     OW27583   0.007   3.727   0.426
 8895SOL    HW127584   0.026   3.749   0.522
 8895SOL    HW227585   0.057   3.791   0.367
 8896SOL     OW27586   0.156   2.512   4.652
 8896SOL    HW127587   0.215   2.587   4.683
 8896SOL    HW227588   0.111   2.539   4.566
 8897SOL     OW27589   1.615   4.239   4.144
 8897SOL    HW127590   1.684   4.172   4.170
 8897SOL    HW227591   1.659   4.326   4.124
 8898SOL     OW27592   4.527   4.733   2.833
 8898SOL    HW127593   4.429   4.737   2.810
 8898SOL    HW227594   4.573   4.671   2.770
 8899SOL     OW27595   1.151   3.324   4.596
 8899SOL    HW127596   1.200   3.253   4.544
 8899SOL    HW227597   1.155   3.303   4.693
 8900SOL     OW27598   4.810   2.292   3.551
 8900SOL    HW127599   4.732   2.293   3.613
 8900SOL    HW227600   4.780   2.318   3.459
 8901SOL     OW27601   1.815   3.671   4.469
 8901SOL    HW127602   1.825   3.586   4.416
 8901SOL    HW227603   1.892   3.681   4.531
 8902SOL     OW27604   0.414   4.589   0.401
 8902SOL    HW127605   0.437   4.678   0.439
 8902SOL    HW227606   0.434   4.518   0.469
 8903SOL     OW27607   1.175   6.536   5.438
 8903SOL    HW127608   1.079   6.543   5.410
 8903SOL    HW227609   1.179   6.516   5.536
 8904SOL     OW27610   0.484   0.843   3.449
 8904SOL    HW127611   0.404   0.873   3.500
 8904SOL    HW227612   0.505   0.749   3.472
 8905SOL     OW27613   1.315   3.712   2.444
 8905SOL    HW127614   1.305   3.648   2.368
 8905SOL    HW227615   1.235   3.771   2.449
 8906SOL     OW27616   6.270   0.345   0.174
 8906SOL    HW127617   6.216   0.273   0.130
 8906SOL    HW227618   6.341   0.303   0.230
 8907SOL     OW27619   2.853   3.397   5.140
 8907SOL    HW127620   2.879   3.416   5.046
 8907SOL    HW227621   2.866   3.300   5.160
 8908SOL     OW27622   1.363   5.077   6.978
 8908SOL    HW127623   1.370   5.050   6.882
 8908SOL    HW227624   1.420   5.157   6.995
 8909SOL     OW27625   2.284   6.830   0.967
 8909SOL    HW127626   2.308   6.735   0.946
 8909SOL    HW227627   2.364   6.888   0.956
 8910SOL     OW27628   2.272   0.403   3.416
 8910SOL    HW127629   2.352   0.456   3.387
 8910SOL    HW227630   2.204   0.465   3.457
 8911SOL     OW27631   4.170   2.337   3.932
 8911SOL    HW127632   4.201   2.421   3.888
 8911SOL    HW227633   4.249   2.285   3.964
 8912SOL     OW27634   3.637   3.785   4.156
 8912SOL    HW127635   3.723   3.817   4.196
 8912SOL    HW227636   3.630   3.686   4.168
 8913SOL     OW27637   5.303   6.843   6.525
 8913SOL    HW127638   5.236   6.772   6.504
 8913SOL    HW227639   5.255   6.927   6.550
 8914SOL     OW27640   4.644   5.195   6.183
 8914SOL    HW127641   4.576   5.253   6.229
 8914SOL    HW227642   4.613   5.101   6.182
 8915SOL     OW27643   1.417   1.126   3.601
 8915SOL    HW127644   1.500   1.128   3.656
 8915SOL    HW227645   1.417   1.201   3.536
 8916SOL     OW27646   4.579   1.408   0.551
 8916SOL    HW127647   4.536   1.326   0.589
 8916SOL    HW227648   4.552   1.419   0.456
 8917SOL     OW27649   5.723   1.824   0.554
 8917SOL    HW127650   5.774   1.794   0.473
 8917SOL    HW227651   5.746   1.920   0.573
 8918SOL     OW27652   1.128   3.449   2.599
 8918SOL    HW127653   1.132   3.449   2.499
 8918SOL    HW227654   1.130   3.543   2.632
 8919SOL     OW27655   6.486   3.600   1.408
 8919SOL    HW127656   6.562   3.563   1.356
 8919SOL    HW227657   6.449   3.530   1.469
 8920SOL     OW27658   6.332   1.662   6.957
 8920SOL    HW127659   6.304   1.665   0.025
 8920SOL    HW227660   6.416   1.716   6.945
 8921SOL     OW27661   2.052   2.594   2.388
 8921SOL    HW127662   2.007   2.679   2.415
 8921SOL    HW227663   2.150   2.600   2.406
 8922SOL     OW27664   3.974   6.606   4.294
 8922SOL    HW127665   3.975   6.561   4.383
 8922SOL    HW227666   3.963   6.537   4.222
 8923SOL     OW27667   2.098   1.925   4.634
 8923SOL    HW127668   2.030   1.914   4.562
 8923SOL    HW227669   2.081   2.010   4.683
 8924SOL     OW27670   5.852   5.383   5.164
 8924SOL    HW127671   5.758   5.350   5.171
 8924SOL    HW227672   5.859   5.449   5.090
 8925SOL     OW27673   1.300   6.495   3.310
 8925SOL    HW127674   1.359   6.418   3.285
 8925SOL    HW227675   1.262   6.536   3.227
 8926SOL     OW27676   5.433   2.094   6.452
 8926SOL    HW127677   5.529   2.121   6.458
 8926SOL    HW227678   5.415   2.019   6.515
 8927SOL     OW27679   1.429   1.174   5.614
 8927SOL    HW127680   1.387   1.256   5.576
 8927SOL    HW227681   1.393   1.093   5.567
 8928SOL     OW27682   1.360   6.469   5.252
 8928SOL    HW127683   1.392   6.530   5.179
 8928SOL    HW227684   1.278   6.507   5.294
 8929SOL     OW27685   0.041   2.847   4.607
 8929SOL    HW127686   6.983   2.897   4.602
 8929SOL    HW227687   0.039   2.784   4.685
 8930SOL     OW27688   2.309   4.313   3.592
 8930SOL    HW127689   2.303   4.327   3.493
 8930SOL    HW227690   2.266   4.226   3.615
 8931SOL     OW27691   3.763   2.472   1.144
 8931SOL    HW127692   3.856   2.436   1.141
 8931SOL    HW227693   3.700   2.406   1.102
 8932SOL     OW27694   0.441   3.423   3.312
 8932SOL    HW127695   0.386   3.388   3.388
 8932SOL    HW227696   0.504   3.493   3.345
 8933SOL     OW27697   3.574   1.997   5.223
 8933SOL    HW127698   3.644   2.002   5.294
 8933SOL    HW227699   3.517   2.079   5.227
 8934SOL     OW27700   3.763   5.921   3.343
 8934SOL    HW127701   3.803   5.945   3.254
 8934SOL    HW227702   3.685   5.980   3.361
 8935SOL     OW27703   0.378   4.536   1.356
 8935SOL    HW127704   0.342   4.465   1.417
 8935SOL    HW227705   0.307   4.606   1.342
 8936SOL     OW27706   2.076   2.236   0.752
 8936SOL    HW127707   2.117   2.185   0.827
 8936SOL    HW227708   1.997   2.288   0.786
 8937SOL     OW27709   0.618   5.712   5.421
 8937SOL    HW127710   0.614   5.766   5.337
 8937SOL    HW227711   0.679   5.757   5.486
 8938SOL     OW27712   5.545   5.363   1.241
 8938SOL    HW127713   5.565   5.303   1.319
 8938SOL    HW227714   5.553   5.310   1.157
 8939SOL     OW27715   5.004   2.442   4.747
 8939SOL    HW127716   4.953   2.427   4.662
 8939SOL    HW227717   4.964   2.519   4.797
 8940SOL     OW27718   5.585   0.757   2.797
 8940SOL    HW127719   5.626   0.667   2.782
 8940SOL    HW227720   5.621   0.796   2.881
 8941SOL     OW27721   5.234   2.121   6.015
 8941SOL    HW127722   5.270   2.164   5.932
 8941SOL    HW227723   5.307   2.071   6.061
 8942SOL     OW27724   0.578   2.510   5.952
 8942SOL    HW127725   0.543   2.419   5.930
 8942SOL    HW227726   0.541   2.576   5.887
 8943SOL     OW27727   5.301   4.002   1.008
 8943SOL    HW127728   5.280   3.909   0.977
 8943SOL    HW227729   5.292   4.066   0.932
 8944SOL     OW27730   4.232   5.594   0.689
 8944SOL    HW127731   4.235   5.613   0.787
 8944SOL    HW227732   4.173   5.516   0.672
 8945SOL     OW27733   2.317   1.155   4.072
 8945SOL    HW127734   2.361   1.174   3.984
 8945SOL    HW227735   2.240   1.092   4.058
 8946SOL     OW27736   3.763   1.896   4.535
 8946SOL    HW127737   3.849   1.931   4.572
 8946SOL    HW227738   3.693   1.967   4.541
 8947SOL     OW27739   4.449   4.059   5.314
 8947SOL    HW127740   4.404   3.970   5.301
 8947SOL    HW227741   4.380   4.127   5.339
 8948SOL     OW27742   6.423   5.557   3.071
 8948SOL    HW127743   6.326   5.555   3.092
 8948SOL    HW227744   6.455   5.652   3.066
 8949SOL     OW27745   2.058   6.290   0.298
 8949SOL    HW127746   1.990   6.289   0.225
 8949SOL    HW227747   2.137   6.234   0.272
 8950SOL     OW27748   4.838   2.605   4.296
 8950SOL    HW127749   4.756   2.569   4.250
 8950SOL    HW227750   4.892   2.658   4.230
 8951SOL     OW27751   1.529   2.295   5.469
 8951SOL    HW127752   1.499   2.385   5.435
 8951SOL    HW227753   1.628   2.286   5.454
 8952SOL     OW27754   6.524   0.677   2.645
 8952SOL    HW127755   6.613   0.708   2.677
 8952SOL    HW227756   6.456   0.694   2.716
 8953SOL     OW27757   1.129   3.780   0.137
 8953SOL    HW127758   1.049   3.784   0.196
 8953SOL    HW227759   1.179   3.867   0.143
 8954SOL     OW27760   1.924   6.018   6.105
 8954SOL    HW127761   1.970   5.954   6.167
 8954SOL    HW227762   1.826   5.996   6.102
 8955SOL     OW27763   6.487   3.922   3.354
 8955SOL    HW127764   6.525   3.891   3.441
 8955SOL    HW227765   6.434   3.849   3.311
 8956SOL     OW27766   1.422   0.780   5.865
 8956SOL    HW127767   1.437   0.687   5.898
 8956SOL    HW227768   1.331   0.811   5.893
 8957SOL     OW27769   3.077   4.893   1.988
 8957SOL    HW127770   3.064   4.839   1.905
 8957SOL    HW227771   3.172   4.890   2.016
 8958SOL     OW27772   2.350   6.803   4.907
 8958SOL    HW127773   2.257   6.838   4.921
 8958SOL    HW227774   2.359   6.714   4.953
 8959SOL     OW27775   1.919   4.593   0.467
 8959SOL    HW127776   1.833   4.634   0.498
 8959SOL    HW227777   1.996   4.650   0.497
 8960SOL     OW27778   3.760   5.678   1.246
 8960SOL    HW127779   3.786   5.705   1.153
 8960SOL    HW227780   3.807   5.593   1.270
 8961SOL     OW27781   0.823   2.014   3.673
 8961SOL    HW127782   0.733   1.981   3.702
 8961SOL    HW227783   0.853   1.964   3.593
 8962SOL     OW27784   5.657   0.339   3.429
 8962SOL    HW127785   5.713   0.258   3.409
 8962SOL    HW227786   5.645   0.347   3.528
 8963SOL     OW27787   6.047   0.981   4.247
 8963SOL    HW127788   6.034   1.010   4.341
 8963SOL    HW227789   5.958   0.965   4.203
 8964SOL     OW27790   5.708   5.079   2.741
 8964SOL    HW127791   5.772   5.111   2.671
 8964SOL    HW227792   5.759   5.030   2.813
 8965SOL     OW27793   1.391   5.169   1.612
 8965SOL    HW127794   1.364   5.260   1.581
 8965SOL    HW227795   1.396   5.107   1.534
 8966SOL     OW27796   2.416   2.811   5.611
 8966SOL    HW127797   2.374   2.901   5.600
 8966SOL    HW227798   2.489   2.816   5.679
 8967SOL     OW27799   4.199   0.336   0.067
 8967SOL    HW127800   4.173   0.272   0.140
 8967SOL    HW227801   4.150   0.312   7.012
 8968SOL     OW27802   4.557   5.555   1.859
 8968SOL    HW127803   4.508   5.565   1.773
 8968SOL    HW227804   4.656   5.553   1.841
 8969SOL     OW27805   6.492   0.728   4.118
 8969SOL    HW127806   6.573   0.779   4.090
 8969SOL    HW227807   6.442   0.779   4.188
 8970SOL     OW27808   3.788   2.048   1.501
 8970SOL    HW127809   3.802   2.135   1.548
 8970SOL    HW227810   3.789   1.973   1.567
 8971SOL     OW27811   4.303   5.731   2.539
 8971SOL    HW127812   4.240   5.700   2.467
 8971SOL    HW227813   4.345   5.817   2.511
 8972SOL     OW27814   5.819   0.353   5.090
 8972SOL    HW127815   5.779   0.407   5.163
 8972SOL    HW227816   5.796   0.393   5.002
 8973SOL     OW27817   1.530   5.286   0.106
 8973SOL    HW127818   1.527   5.323   0.199
 8973SOL    HW227819   1.592   5.208   0.103
 8974SOL     OW27820   0.767   3.302   4.518
 8974SOL    HW127821   0.767   3.250   4.432
 8974SOL    HW227822   0.672   3.318   4.547
 8975SOL     OW27823   3.003   6.764   0.426
 8975SOL    HW127824   2.916   6.809   0.404
 8975SOL    HW227825   3.067   6.775   0.350
 8976SOL     OW27826   1.003   5.692   4.148
 8976SOL    HW127827   0.964   5.654   4.232
 8976SOL    HW227828   0.947   5.663   4.070
 8977SOL     OW27829   5.975   1.522   6.303
 8977SOL    HW127830   5.984   1.497   6.399
 8977SOL    HW227831   5.932   1.447   6.252
 8978SOL     OW27832   6.125   6.743   0.596
 8978SOL    HW127833   6.138   6.719   0.692
 8978SOL    HW227834   6.037   6.787   0.584
 8979SOL     OW27835   1.968   4.119   4.795
 8979SOL    HW127836   1.946   4.215   4.817
 8979SOL    HW227837   2.067   4.109   4.785
 8980SOL     OW27838   3.515   3.117   4.542
 8980SOL    HW127839   3.578   3.081   4.610
 8980SOL    HW227840   3.421   3.103   4.573
 8981SOL     OW27841   3.684   1.793   5.079
 8981SOL    HW127842   3.611   1.733   5.046
 8981SOL    HW227843   3.647   1.854   5.149
 8982SOL     OW27844   2.829   4.350   0.829
 8982SOL    HW127845   2.746   4.400   0.856
 8982SOL    HW227846   2.807   4.286   0.755
 8983SOL     OW27847   4.504   5.277   0.272
 8983SOL    HW127848   4.485   5.187   0.234
 8983SOL    HW227849   4.420   5.318   0.307
 8984SOL     OW27850   1.691   5.695   3.133
 8984SOL    HW127851   1.727   5.764   3.070
 8984SOL    HW227852   1.595   5.713   3.152
 8985SOL     OW27853   3.979   3.081   6.387
 8985SOL    HW127854   4.048   3.013   6.366
 8985SOL    HW227855   3.954   3.131   6.304
 8986SOL     OW27856   4.089   5.820   2.710
 8986SOL    HW127857   4.076   5.883   2.634
 8986SOL    HW227858   4.180   5.779   2.705
 8987SOL     OW27859   5.494   6.265   1.890
 8987SOL    HW127860   5.466   6.170   1.900
 8987SOL    HW227861   5.439   6.323   1.950
 8988SOL     OW27862   1.028   5.379   4.443
 8988SOL    HW127863   0.980   5.344   4.523
 8988SOL    HW227864   1.127   5.371   4.458
 8989SOL     OW27865   3.695   3.045   6.443
 8989SOL    HW127866   3.793   3.049   6.461
 8989SOL    HW227867   3.647   3.017   6.526
 8990SOL     OW27868   0.087   5.521   3.716
 8990SOL    HW127869   0.110   5.439   3.664
 8990SOL    HW227870   0.159   5.540   3.783
 8991SOL     OW27871   1.237   2.206   5.119
 8991SOL    HW127872   1.312   2.189   5.183
 8991SOL    HW227873   1.256   2.160   5.032
 8992SOL     OW27874   6.069   1.835   6.711
 8992SOL    HW127875   6.158   1.867   6.677
 8992SOL    HW227876   5.997   1.898   6.682
 8993SOL     OW27877   4.854   2.422   6.383
 8993SOL    HW127878   4.773   2.460   6.338
 8993SOL    HW227879   4.934   2.432   6.324
 8994SOL     OW27880   1.717   5.133   4.350
 8994SOL    HW127881   1.785   5.073   4.307
 8994SOL    HW227882   1.672   5.187   4.280
 8995SOL     OW27883   6.866   1.699   1.183
 8995SOL    HW127884   6.953   1.697   1.134
 8995SOL    HW227885   6.835   1.793   1.192
 8996SOL     OW27886   5.040   4.881   6.097
 8996SOL    HW127887   5.091   4.797   6.080
 8996SOL    HW227888   4.975   4.897   6.022
 8997SOL     OW27889   5.042   1.586   4.606
 8997SOL    HW127890   5.039   1.496   4.650
 8997SOL    HW227891   5.116   1.587   4.539
 8998SOL     OW27892   6.585   3.781   4.303
 8998SOL    HW127893   6.670   3.802   4.255
 8998SOL    HW227894   6.509   3.830   4.260
 8999SOL     OW27895   4.625   6.723   5.898
 8999SOL    HW127896   4.544   6.688   5.944
 8999SOL    HW227897   4.607   6.816   5.866
 9000SOL     OW27898   2.142   3.659   1.815
 9000SOL    HW127899   2.100   3.702   1.895
 9000SOL    HW227900   2.161   3.563   1.834
 9001SOL     OW27901   0.613   5.042   2.349
 9001SOL    HW127902   0.668   5.125   2.359
 9001SOL    HW227903   0.517   5.067   2.338
 9002SOL     OW27904   1.062   4.474   6.732
 9002SOL    HW127905   0.987   4.529   6.769
 9002SOL    HW227906   1.113   4.432   6.807
 9003SOL     OW27907   5.640   0.970   1.359
 9003SOL    HW127908   5.660   0.961   1.262
 9003SOL    HW227909   5.554   0.923   1.379
 9004SOL     OW27910   4.023   4.583   0.374
 9004SOL    HW127911   3.979   4.631   0.298
 9004SOL    HW227912   4.004   4.485   0.367
 9005SOL     OW27913   5.763   1.196   5.786
 9005SOL    HW127914   5.840   1.257   5.768
 9005SOL    HW227915   5.717   1.225   5.870
 9006SOL     OW27916   3.396   6.574   0.428
 9006SOL    HW127917   3.477   6.518   0.410
 9006SOL    HW227918   3.370   6.565   0.524
 9007SOL     OW27919   2.725   1.231   3.189
 9007SOL    HW127920   2.627   1.210   3.179
 9007SOL    HW227921   2.735   1.312   3.246
 9008SOL     OW27922   0.294   5.934   2.722
 9008SOL    HW127923   0.212   5.932   2.665
 9008SOL    HW227924   0.374   5.951   2.663
 9009SOL     OW27925   4.052   5.378   0.621
 9009SOL    HW127926   4.055   5.292   0.570
 9009SOL    HW227927   3.985   5.439   0.578
 9010SOL     OW27928   2.041   6.495   4.228
 9010SOL    HW127929   1.944   6.504   4.206
 9010SOL    HW227930   2.056   6.518   4.324
 9011SOL     OW27931   3.837   1.189   2.566
 9011SOL    HW127932   3.794   1.214   2.479
 9011SOL    HW227933   3.837   1.089   2.574
 9012SOL     OW27934   1.963   5.997   0.016
 9012SOL    HW127935   1.878   6.039   7.012
 9012SOL    HW227936   1.949   5.961   0.108
 9013SOL     OW27937   1.734   6.517   4.218
 9013SOL    HW127938   1.692   6.466   4.143
 9013SOL    HW227939   1.700   6.611   4.217
 9014SOL     OW27940   5.486   2.435   2.852
 9014SOL    HW127941   5.501   2.514   2.910
 9014SOL    HW227942   5.533   2.356   2.890
 9015SOL     OW27943   5.410   2.171   0.528
 9015SOL    HW127944   5.321   2.216   0.539
 9015SOL    HW227945   5.397   2.072   0.535
 9016SOL     OW27946   5.430   5.489   6.259
 9016SOL    HW127947   5.445   5.416   6.193
 9016SOL    HW227948   5.398   5.571   6.211
 9017SOL     OW27949   3.211   0.441   4.863
 9017SOL    HW127950   3.286   0.469   4.923
 9017SOL    HW227951   3.201   0.508   4.789
 9018SOL     OW27952   4.219   3.554   6.363
 9018SOL    HW127953   4.266   3.503   6.292
 9018SOL    HW227954   4.212   3.497   6.445
 9019SOL     OW27955   0.268   3.100   3.482
 9019SOL    HW127956   0.194   3.083   3.417
 9019SOL    HW227957   0.280   3.198   3.494
 9020SOL     OW27958   5.955   6.121   1.769
 9020SOL    HW127959   5.974   6.200   1.828
 9020SOL    HW227960   5.892   6.059   1.816
 9021SOL     OW27961   0.043   0.916   3.972
 9021SOL    HW127962   0.066   0.892   4.067
 9021SOL    HW227963   0.024   0.832   3.921
 9022SOL     OW27964   4.341   2.597   5.948
 9022SOL    HW127965   4.322   2.663   6.021
 9022SOL    HW227966   4.439   2.600   5.926
 9023SOL     OW27967   5.174   3.773   0.917
 9023SOL    HW127968   5.213   3.685   0.890
 9023SOL    HW227969   5.124   3.813   0.840
 9024SOL     OW27970   1.894   4.996   6.423
 9024SOL    HW127971   1.815   4.938   6.408
 9024SOL    HW227972   1.875   5.088   6.389
 9025SOL     OW27973   0.547   5.705   0.754
 9025SOL    HW127974   0.500   5.679   0.669
 9025SOL    HW227975   0.531   5.635   0.823
 9026SOL     OW27976   4.086   1.619   0.273
 9026SOL    HW127977   4.154   1.680   0.314
 9026SOL    HW227978   4.072   1.540   0.333
 9027SOL     OW27979   7.003   3.832   3.580
 9027SOL    HW127980   0.051   3.772   3.558
 9027SOL    HW227981   6.926   3.813   3.519
 9028SOL     OW27982   3.439   4.281   5.693
 9028SOL    HW127983   3.481   4.279   5.603
 9028SOL    HW227984   3.415   4.375   5.717
 9029SOL     OW27985   4.344   6.740   5.010
 9029SOL    HW127986   4.374   6.785   5.093
 9029SOL    HW227987   4.404   6.765   4.934
 9030SOL     OW27988   2.598   1.748   3.661
 9030SOL    HW127989   2.596   1.833   3.713
 9030SOL    HW227990   2.690   1.709   3.662
 9031SOL     OW27991   4.444   0.571   4.587
 9031SOL    HW127992   4.369   0.627   4.553
 9031SOL    HW227993   4.417   0.475   4.587
 9032SOL     OW27994   4.520   3.771   1.564
 9032SOL    HW127995   4.523   3.871   1.562
 9032SOL    HW227996   4.583   3.737   1.635
 9033SOL     OW27997   1.489   5.891   3.315
 9033SOL    HW127998   1.583   5.889   3.350
 9033SOL    HW227999   1.432   5.947   3.375
 9034SOL     OW28000   3.525   6.264   4.683
 9034SOL    HW128001   3.495   6.191   4.623
 9034SOL    HW228002   3.472   6.347   4.664
 9035SOL     OW28003   1.107   5.060   0.618
 9035SOL    HW128004   1.072   5.153   0.610
 9035SOL    HW228005   1.046   5.006   0.675
 9036SOL     OW28006   1.412   3.592   5.963
 9036SOL    HW128007   1.502   3.550   5.971
 9036SOL    HW228008   1.383   3.627   6.053
 9037SOL     OW28009   0.780   2.141   2.950
 9037SOL    HW128010   0.747   2.047   2.943
 9037SOL    HW228011   0.825   2.166   2.864
 9038SOL     OW28012   4.488   3.076   5.662
 9038SOL    HW128013   4.497   3.115   5.570
 9038SOL    HW228014   4.519   3.143   5.730
 9039SOL     OW28015   3.306   5.316   0.026
 9039SOL    HW128016   3.369   5.251   0.070
 9039SOL    HW228017   3.333   5.409   0.050
 9040SOL     OW28018   1.895   1.908   0.848
 9040SOL    HW128019   1.983   1.942   0.882
 9040SOL    HW228020   1.822   1.938   0.910
 9041SOL     OW28021   6.911   2.166   1.221
 9041SOL    HW128022   6.944   2.194   1.311
 9041SOL    HW228023   6.990   2.147   1.162
 9042SOL     OW28024   4.060   5.927   6.160
 9042SOL    HW128025   4.060   5.828   6.145
 9042SOL    HW228026   4.135   5.969   6.109
 9043SOL     OW28027   2.973   1.956   0.364
 9043SOL    HW128028   3.070   1.933   0.365
 9043SOL    HW228029   2.943   1.979   0.457
 9044SOL     OW28030   0.794   0.675   6.349
 9044SOL    HW128031   0.802   0.750   6.283
 9044SOL    HW228032   0.763   0.711   6.437
 9045SOL     OW28033   3.987   0.595   3.287
 9045SOL    HW128034   4.024   0.683   3.258
 9045SOL    HW228035   3.887   0.595   3.276
 9046SOL     OW28036   3.116   3.989   2.974
 9046SOL    HW128037   3.032   4.042   2.989
 9046SOL    HW228038   3.124   3.966   2.877
 9047SOL     OW28039   0.901   4.334   6.177
 9047SOL    HW128040   0.826   4.269   6.167
 9047SOL    HW228041   0.983   4.295   6.135
 9048SOL     OW28042   6.409   1.811   6.125
 9048SOL    HW128043   6.454   1.801   6.214
 9048SOL    HW228044   6.310   1.801   6.136
 9049SOL     OW28045   3.029   6.685   6.308
 9049SOL    HW128046   3.105   6.622   6.289
 9049SOL    HW228047   2.943   6.643   6.281
 9050SOL     OW28048   0.648   4.573   1.432
 9050SOL    HW128049   0.676   4.661   1.471
 9050SOL    HW228050   0.549   4.573   1.418
 9051SOL     OW28051   2.415   1.889   0.888
 9051SOL    HW128052   2.470   1.972   0.880
 9051SOL    HW228053   2.462   1.813   0.842
 9052SOL     OW28054   1.494   3.101   5.125
 9052SOL    HW128055   1.572   3.152   5.162
 9052SOL    HW228056   1.471   3.025   5.186
 9053SOL     OW28057   1.480   1.521   0.524
 9053SOL    HW128058   1.475   1.454   0.598
 9053SOL    HW228059   1.472   1.613   0.562
 9054SOL     OW28060   2.228   5.639   3.644
 9054SOL    HW128061   2.221   5.540   3.648
 9054SOL    HW228062   2.186   5.673   3.560
 9055SOL     OW28063   0.135   4.002   4.752
 9055SOL    HW128064   0.062   4.015   4.819
 9055SOL    HW228065   0.202   3.938   4.788
 9056SOL     OW28066   6.744   1.927   2.663
 9056SOL    HW128067   6.757   1.983   2.581
 9056SOL    HW228068   6.723   1.833   2.636
 9057SOL     OW28069   4.723   2.027   4.198
 9057SOL    HW128070   4.777   2.089   4.140
 9057SOL    HW228071   4.779   1.997   4.275
 9058SOL     OW28072   1.925   0.798   6.219
 9058SOL    HW128073   1.950   0.854   6.297
 9058SOL    HW228074   1.831   0.818   6.191
 9059SOL     OW28075   1.490   2.063   2.558
 9059SOL    HW128076   1.477   1.985   2.497
 9059SOL    HW228077   1.415   2.128   2.546
 9060SOL     OW28078   5.771   2.652   4.627
 9060SOL    HW128079   5.804   2.561   4.600
 9060SOL    HW228080   5.770   2.659   4.726
 9061SOL     OW28081   4.696   5.639   2.687
 9061SOL    HW128082   4.712   5.673   2.594
 9061SOL    HW228083   4.599   5.648   2.709
 9062SOL     OW28084   1.934   5.516   0.897
 9062SOL    HW128085   2.007   5.484   0.957
 9062SOL    HW228086   1.956   5.493   0.802
 9063SOL     OW28087   3.144   1.928   2.201
 9063SOL    HW128088   3.167   1.945   2.105
 9063SOL    HW228089   3.179   2.002   2.257
 9064SOL     OW28090   6.162   2.948   0.036
 9064SOL    HW128091   6.072   2.930   0.076
 9064SOL    HW228092   6.185   2.876   6.999
 9065SOL     OW28093   2.390   1.128   0.320
 9065SOL    HW128094   2.313   1.067   0.336
 9065SOL    HW228095   2.462   1.110   0.387
 9066SOL     OW28096   4.849   6.816   0.241
 9066SOL    HW128097   4.865   6.832   0.338
 9066SOL    HW228098   4.751   6.806   0.224
 9067SOL     OW28099   1.962   6.613   3.439
 9067SOL    HW128100   1.863   6.617   3.447
 9067SOL    HW228101   1.988   6.606   3.343
 9068SOL     OW28102   1.864   5.783   6.892
 9068SOL    HW128103   1.860   5.821   6.799
 9068SOL    HW228104   1.908   5.849   6.953
 9069SOL     OW28105   1.597   2.292   6.722
 9069SOL    HW128106   1.526   2.353   6.687
 9069SOL    HW228107   1.620   2.318   6.816
 9070SOL     OW28108   1.348   4.297   3.716
 9070SOL    HW128109   1.410   4.375   3.709
 9070SOL    HW228110   1.260   4.319   3.673
 9071SOL     OW28111   5.817   6.807   6.759
 9071SOL    HW128112   5.802   6.873   6.832
 9071SOL    HW228113   5.734   6.801   6.702
 9072SOL     OW28114   5.720   4.754   6.340
 9072SOL    HW128115   5.669   4.717   6.262
 9072SOL    HW228116   5.693   4.706   6.423
 9073SOL     OW28117   1.890   0.605   1.899
 9073SOL    HW128118   1.833   0.536   1.945
 9073SOL    HW228119   1.842   0.692   1.898
 9074SOL     OW28120   1.212   6.558   3.034
 9074SOL    HW128121   1.280   6.556   2.961
 9074SOL    HW228122   1.154   6.639   3.025
 9075SOL     OW28123   0.040   1.064   2.497
 9075SOL    HW128124   0.119   1.029   2.548
 9075SOL    HW228125   6.995   1.085   2.561
 9076SOL     OW28126   6.502   1.365   5.525
 9076SOL    HW128127   6.451   1.433   5.473
 9076SOL    HW228128   6.439   1.299   5.566
 9077SOL     OW28129   6.229   6.089   2.061
 9077SOL    HW128130   6.144   6.043   2.087
 9077SOL    HW228131   6.306   6.043   2.104
 9078SOL     OW28132   3.530   2.900   4.712
 9078SOL    HW128133   3.463   2.887   4.639
 9078SOL    HW228134   3.560   2.811   4.746
 9079SOL     OW28135   3.388   0.409   5.666
 9079SOL    HW128136   3.383   0.339   5.738
 9079SOL    HW228137   3.311   0.472   5.676
 9080SOL     OW28138   4.918   2.190   0.433
 9080SOL    HW128139   5.003   2.238   0.453
 9080SOL    HW228140   4.916   2.165   0.336
 9081SOL     OW28141   5.637   6.838   2.134
 9081SOL    HW128142   5.637   6.933   2.103
 9081SOL    HW228143   5.713   6.824   2.198
 9082SOL     OW28144   3.244   1.507   3.401
 9082SOL    HW128145   3.266   1.484   3.496
 9082SOL    HW228146   3.254   1.606   3.388
 9083SOL     OW28147   4.185   4.795   4.416
 9083SOL    HW128148   4.175   4.754   4.507
 9083SOL    HW228149   4.112   4.862   4.401
 9084SOL     OW28150   3.270   3.483   3.136
 9084SOL    HW128151   3.198   3.453   3.198
 9084SOL    HW228152   3.298   3.576   3.161
 9085SOL     OW28153   1.068   2.319   0.478
 9085SOL    HW128154   0.982   2.311   0.428
 9085SOL    HW228155   1.068   2.254   0.554
 9086SOL     OW28156   0.254   3.904   0.861
 9086SOL    HW128157   0.258   3.807   0.839
 9086SOL    HW228158   0.333   3.928   0.918
 9087SOL     OW28159   4.936   4.039   1.656
 9087SOL    HW128160   4.843   4.076   1.655
 9087SOL    HW228161   4.950   3.987   1.740
 9088SOL     OW28162   4.945   6.898   0.541
 9088SOL    HW128163   4.933   6.799   0.544
 9088SOL    HW228164   5.039   6.919   0.513
 9089SOL     OW28165   4.648   0.301   5.742
 9089SOL    HW128166   4.704   0.383   5.753
 9089SOL    HW228167   4.704   0.226   5.710
 9090SOL     OW28168   6.379   1.330   4.232
 9090SOL    HW128169   6.390   1.235   4.263
 9090SOL    HW228170   6.448   1.350   4.163
 9091SOL     OW28171   2.944   3.139   6.789
 9091SOL    HW128172   2.920   3.136   6.886
 9091SOL    HW228173   2.861   3.156   6.735
 9092SOL     OW28174   0.261   2.991   6.731
 9092SOL    HW128175   0.220   2.900   6.738
 9092SOL    HW228176   0.355   2.988   6.765
 9093SOL     OW28177   1.625   6.047   5.802
 9093SOL    HW128178   1.634   6.038   5.901
 9093SOL    HW228179   1.704   6.007   5.757
 9094SOL     OW28180   0.705   3.729   2.083
 9094SOL    HW128181   0.781   3.668   2.061
 9094SOL    HW228182   0.664   3.764   1.999
 9095SOL     OW28183   6.524   5.968   5.238
 9095SOL    HW128184   6.531   6.002   5.144
 9095SOL    HW228185   6.584   6.020   5.298
 9096SOL     OW28186   6.835   6.001   3.183
 9096SOL    HW128187   6.782   5.931   3.136
 9096SOL    HW228188   6.926   5.966   3.204
 9097SOL     OW28189   1.644   2.064   5.807
 9097SOL    HW128190   1.644   2.164   5.814
 9097SOL    HW228191   1.624   2.038   5.712
 9098SOL     OW28192   1.683   3.741   4.101
 9098SOL    HW128193   1.604   3.680   4.099
 9098SOL    HW228194   1.767   3.687   4.088
 9099SOL     OW28195   3.068   2.611   6.558
 9099SOL    HW128196   3.108   2.666   6.631
 9099SOL    HW228197   2.971   2.599   6.574
 9100SOL     OW28198   0.870   4.533   3.401
 9100SOL    HW128199   0.803   4.472   3.444
 9100SOL    HW228200   0.913   4.485   3.325
 9101SOL     OW28201   0.991   2.501   1.516
 9101SOL    HW128202   0.924   2.555   1.568
 9101SOL    HW228203   0.968   2.404   1.524
 9102SOL     OW28204   4.399   6.782   3.352
 9102SOL    HW128205   4.352   6.697   3.327
 9102SOL    HW228206   4.460   6.765   3.430
 9103SOL     OW28207   6.427   1.183   0.651
 9103SOL    HW128208   6.462   1.266   0.608
 9103SOL    HW228209   6.370   1.208   0.729
 9104SOL     OW28210   5.868   2.140   6.706
 9104SOL    HW128211   5.941   2.158   6.640
 9104SOL    HW228212   5.781   2.172   6.669
 9105SOL     OW28213   1.640   0.794   6.107
 9105SOL    HW128214   1.613   0.751   6.021
 9105SOL    HW228215   1.615   0.735   6.184
 9106SOL     OW28216   1.656   4.347   0.571
 9106SOL    HW128217   1.678   4.350   0.474
 9106SOL    HW228218   1.589   4.419   0.592
 9107SOL     OW28219   2.507   1.450   0.510
 9107SOL    HW128220   2.496   1.550   0.513
 9107SOL    HW228221   2.604   1.427   0.519
 9108SOL     OW28222   5.785   5.578   6.563
 9108SOL    HW128223   5.741   5.490   6.544
 9108SOL    HW228224   5.727   5.632   6.624
 9109SOL     OW28225   5.038   3.539   2.368
 9109SOL    HW128226   4.991   3.511   2.452
 9109SOL    HW228227   4.999   3.490   2.290
 9110SOL     OW28228   1.519   6.231   4.429
 9110SOL    HW128229   1.456   6.167   4.472
 9110SOL    HW228230   1.469   6.289   4.365
 9111SOL     OW28231   4.640   2.560   6.271
 9111SOL    HW128232   4.570   2.603   6.326
 9111SOL    HW228233   4.659   2.616   6.190
 9112SOL     OW28234   1.259   5.582   1.744
 9112SOL    HW128235   1.297   5.544   1.829
 9112SOL    HW228236   1.163   5.555   1.735
 9113SOL     OW28237   5.587   1.174   3.961
 9113SOL    HW128238   5.662   1.145   4.021
 9113SOL    HW228239   5.536   1.094   3.930
 9114SOL     OW28240   1.473   6.240   5.669
 9114SOL    HW128241   1.524   6.170   5.719
 9114SOL    HW228242   1.384   6.204   5.643
 9115SOL     OW28243   5.320   4.441   4.106
 9115SOL    HW128244   5.261   4.521   4.095
 9115SOL    HW228245   5.300   4.396   4.193
 9116SOL     OW28246   1.626   0.113   3.544
 9116SOL    HW128247   1.676   0.186   3.498
 9116SOL    HW228248   1.615   0.035   3.482
 9117SOL     OW28249   2.763   6.313   0.023
 9117SOL    HW128250   2.670   6.345   0.039
 9117SOL    HW228251   2.827   6.368   0.076
 9118SOL     OW28252   6.204   4.382   2.194
 9118SOL    HW128253   6.294   4.380   2.150
 9118SOL    HW228254   6.214   4.360   2.291
 9119SOL     OW28255   3.434   0.227   0.261
 9119SOL    HW128256   3.515   0.226   0.319
 9119SOL    HW228257   3.389   0.138   0.264
 9120SOL     OW28258   5.810   4.047   4.847
 9120SOL    HW128259   5.904   4.029   4.818
 9120SOL    HW228260   5.750   3.977   4.808
 9121SOL     OW28261   3.054   0.827   4.947
 9121SOL    HW128262   3.005   0.802   4.864
 9121SOL    HW228263   3.000   0.803   5.028
 9122SOL     OW28264   1.539   3.477   1.927
 9122SOL    HW128265   1.479   3.555   1.945
 9122SOL    HW228266   1.617   3.480   1.990
 9123SOL     OW28267   0.256   6.840   4.213
 9123SOL    HW128268   0.219   6.785   4.289
 9123SOL    HW228269   0.200   6.824   4.131
 9124SOL     OW28270   2.593   5.601   0.664
 9124SOL    HW128271   2.522   5.567   0.603
 9124SOL    HW228272   2.604   5.537   0.741
 9125SOL     OW28273   4.837   6.227   1.304
 9125SOL    HW128274   4.873   6.231   1.211
 9125SOL    HW228275   4.818   6.132   1.329
 9126SOL     OW28276   4.071   4.529   0.716
 9126SOL    HW128277   3.982   4.548   0.675
 9126SOL    HW228278   4.103   4.440   0.686
 9127SOL     OW28279   6.708   4.716   4.576
 9127SOL    HW128280   6.730   4.813   4.571
 9127SOL    HW228281   6.690   4.681   4.484
 9128SOL     OW28282   5.823   4.430   6.030
 9128SOL    HW128283   5.886   4.504   6.054
 9128SOL    HW228284   5.863   4.374   5.958
 9129SOL     OW28285   0.955   3.521   0.826
 9129SOL    HW128286   0.942   3.458   0.749
 9129SOL    HW228287   0.964   3.614   0.792
 9130SOL     OW28288   2.982   3.840   4.947
 9130SOL    HW128289   2.907   3.905   4.934
 9130SOL    HW228290   2.982   3.773   4.872
 9131SOL     OW28291   4.705   2.708   0.096
 9131SOL    HW128292   4.717   2.795   0.050
 9131SOL    HW228293   4.780   2.647   0.072
 9132SOL     OW28294   0.135   4.065   3.581
 9132SOL    HW128295   0.111   3.969   3.570
 9132SOL    HW228296   0.070   4.121   3.529
 9133SOL     OW28297   5.725   0.620   0.849
 9133SOL    HW128298   5.818   0.623   0.886
 9133SOL    HW228299   5.726   0.652   0.754
 9134SOL     OW28300   4.702   4.910   0.832
 9134SOL    HW128301   4.795   4.873   0.825
 9134SOL    HW228302   4.701   4.982   0.901
 9135SOL     OW28303   6.416   6.456   2.428
 9135SOL    HW128304   6.455   6.525   2.367
 9135SOL    HW228305   6.359   6.393   2.375
 9136SOL     OW28306   6.593   4.340   0.072
 9136SOL    HW128307   6.611   4.258   0.017
 9136SOL    HW228308   6.495   4.358   0.074
 9137SOL     OW28309   4.982   6.212   5.656
 9137SOL    HW128310   5.049   6.149   5.616
 9137SOL    HW228311   4.973   6.193   5.754
 9138SOL     OW28312   2.456   3.555   0.139
 9138SOL    HW128313   2.551   3.559   0.109
 9138SOL    HW228314   2.434   3.636   0.193
 9139SOL     OW28315   6.714   6.966   0.431
 9139SOL    HW128316   6.761   6.979   0.518
 9139SOL    HW228317   6.691   6.869   0.420
 9140SOL     OW28318   1.661   3.731   3.365
 9140SOL    HW128319   1.710   3.757   3.448
 9140SOL    HW228320   1.636   3.634   3.370
 9141SOL     OW28321   0.003   5.204   4.867
 9141SOL    HW128322   0.060   5.283   4.889
 9141SOL    HW228323   7.023   5.145   4.948
 9142SOL     OW28324   1.193   4.496   4.666
 9142SOL    HW128325   1.145   4.462   4.585
 9142SOL    HW228326   1.247   4.422   4.706
 9143SOL     OW28327   6.879   4.330   2.139
 9143SOL    HW128328   6.786   4.291   2.137
 9143SOL    HW228329   6.909   4.348   2.045
 9144SOL     OW28330   2.805   4.711   5.369
 9144SOL    HW128331   2.724   4.761   5.339
 9144SOL    HW228332   2.828   4.641   5.302
 9145SOL     OW28333   1.629   6.010   6.079
 9145SOL    HW128334   1.575   5.931   6.106
 9145SOL    HW228335   1.597   6.091   6.129
 9146SOL     OW28336   5.500   3.025   3.208
 9146SOL    HW128337   5.503   3.085   3.127
 9146SOL    HW228338   5.499   3.081   3.291
 9147SOL     OW28339   4.147   0.128   5.346
 9147SOL    HW128340   4.239   0.156   5.318
 9147SOL    HW228341   4.093   0.104   5.265
 9148SOL     OW28342   5.619   5.728   1.424
 9148SOL    HW128343   5.580   5.685   1.506
 9148SOL    HW228344   5.671   5.809   1.452
 9149SOL     OW28345   0.166   3.970   1.320
 9149SOL    HW128346   0.198   3.885   1.363
 9149SOL    HW228347   0.173   4.045   1.386
 9150SOL     OW28348   2.432   3.358   0.318
 9150SOL    HW128349   2.432   3.426   0.245
 9150SOL    HW228350   2.338   3.333   0.340
 9151SOL     OW28351   1.630   3.196   3.958
 9151SOL    HW128352   1.659   3.128   3.890
 9151SOL    HW228353   1.599   3.149   4.040
 9152SOL     OW28354   1.691   4.218   2.724
 9152SOL    HW128355   1.607   4.266   2.702
 9152SOL    HW228356   1.717   4.237   2.819
 9153SOL     OW28357   0.652   3.188   6.356
 9153SOL    HW128358   0.569   3.134   6.340
 9153SOL    HW228359   0.645   3.276   6.309
 9154SOL     OW28360   5.932   5.497   3.007
 9154SOL    HW128361   6.004   5.458   2.949
 9154SOL    HW228362   5.933   5.452   3.095
 9155SOL     OW28363   1.303   6.280   2.819
 9155SOL    HW128364   1.359   6.219   2.762
 9155SOL    HW228365   1.362   6.348   2.863
 9156SOL     OW28366   6.627   3.950   6.191
 9156SOL    HW128367   6.529   3.932   6.200
 9156SOL    HW228368   6.654   4.019   6.257
 9157SOL     OW28369   2.028   4.550   5.972
 9157SOL    HW128370   2.074   4.469   5.936
 9157SOL    HW228371   1.941   4.562   5.925
 9158SOL     OW28372   6.488   4.112   4.702
 9158SOL    HW128373   6.580   4.101   4.665
 9158SOL    HW228374   6.494   4.149   4.795
 9159SOL     OW28375   2.397   1.617   3.924
 9159SOL    HW128376   2.347   1.553   3.983
 9159SOL    HW228377   2.425   1.570   3.840
 9160SOL     OW28378   1.165   3.911   1.059
 9160SOL    HW128379   1.162   3.966   1.142
 9160SOL    HW228380   1.119   3.960   0.984
 9161SOL     OW28381   6.627   4.191   2.170
 9161SOL    HW128382   6.579   4.108   2.198
 9161SOL    HW228383   6.568   4.244   2.109
 9162SOL     OW28384   4.414   2.192   1.924
 9162SOL    HW128385   4.363   2.194   2.010
 9162SOL    HW228386   4.382   2.116   1.868
 9163SOL     OW28387   2.358   2.254   3.468
 9163SOL    HW128388   2.316   2.344   3.478
 9163SOL    HW228389   2.457   2.262   3.476
 9164SOL     OW28390   2.405   6.509   6.592
 9164SOL    HW128391   2.434   6.415   6.612
 9164SOL    HW228392   2.311   6.507   6.558
 9165SOL     OW28393   6.232   1.811   5.687
 9165SOL    HW128394   6.135   1.803   5.667
 9165SOL    HW228395   6.250   1.897   5.735
 9166SOL     OW28396   4.909   6.519   1.719
 9166SOL    HW128397   4.912   6.615   1.689
 9166SOL    HW228398   4.826   6.476   1.683
 9167SOL     OW28399   1.962   1.550   4.868
 9167SOL    HW128400   1.891   1.620   4.859
 9167SOL    HW228401   1.927   1.462   4.837
 9168SOL     OW28402   6.313   6.093   4.904
 9168SOL    HW128403   6.271   6.154   4.971
 9168SOL    HW228404   6.403   6.064   4.938
 9169SOL     OW28405   0.046   6.206   1.752
 9169SOL    HW128406   0.052   6.306   1.745
 9169SOL    HW228407   0.066   6.178   1.846
 9170SOL     OW28408   1.170   0.872   5.933
 9170SOL    HW128409   1.194   0.926   6.013
 9170SOL    HW228410   1.126   0.930   5.865
 9171SOL     OW28411   3.977   5.390   6.403
 9171SOL    HW128412   3.911   5.322   6.372
 9171SOL    HW228413   3.932   5.479   6.410
 9172SOL     OW28414   4.559   1.838   5.127
 9172SOL    HW128415   4.591   1.923   5.169
 9172SOL    HW228416   4.534   1.856   5.031
 9173SOL     OW28417   5.668   3.686   5.191
 9173SOL    HW128418   5.677   3.785   5.180
 9173SOL    HW228419   5.624   3.647   5.110
 9174SOL     OW28420   6.991   5.221   1.602
 9174SOL    HW128421   6.985   5.245   1.505
 9174SOL    HW228422   7.027   5.299   1.654
 9175SOL     OW28423   2.387   6.984   0.500
 9175SOL    HW128424   2.418   6.980   0.595
 9175SOL    HW228425   2.307   0.015   0.493
 9176SOL     OW28426   1.431   1.809   2.367
 9176SOL    HW128427   1.517   1.834   2.410
 9176SOL    HW228428   1.395   1.887   2.315
 9177SOL     OW28429   0.402   5.525   3.425
 9177SOL    HW128430   0.477   5.520   3.358
 9177SOL    HW228431   0.320   5.482   3.387
 9178SOL     OW28432   1.363   4.495   1.755
 9178SOL    HW128433   1.290   4.526   1.815
 9178SOL    HW228434   1.452   4.518   1.795
 9179SOL     OW28435   3.031   5.549   4.265
 9179SOL    HW128436   3.032   5.543   4.365
 9179SOL    HW228437   3.054   5.642   4.237
 9180SOL     OW28438   0.383   1.384   5.419
 9180SOL    HW128439   0.352   1.297   5.457
 9180SOL    HW228440   0.451   1.424   5.480
 9181SOL     OW28441   2.472   2.707   3.441
 9181SOL    HW128442   2.529   2.745   3.369
 9181SOL    HW228443   2.454   2.611   3.422
 9182SOL     OW28444   0.746   1.724   2.351
 9182SOL    HW128445   0.681   1.700   2.423
 9182SOL    HW228446   0.788   1.812   2.372
 9183SOL     OW28447   1.795   1.679   6.323
 9183SOL    HW128448   1.736   1.638   6.393
 9183SOL    HW228449   1.806   1.614   6.247
 9184SOL     OW28450   4.128   3.219   0.906
 9184SOL    HW128451   4.141   3.153   0.980
 9184SOL    HW228452   4.061   3.287   0.933
 9185SOL     OW28453   1.534   0.655   6.321
 9185SOL    HW128454   1.607   0.677   6.386
 9185SOL    HW228455   1.491   0.569   6.348
 9186SOL     OW28456   4.608   0.881   6.156
 9186SOL    HW128457   4.631   0.884   6.059
 9186SOL    HW228458   4.624   0.970   6.198
 9187SOL     OW28459   5.734   2.390   1.006
 9187SOL    HW128460   5.762   2.485   1.004
 9187SOL    HW228461   5.646   2.380   0.959
 9188SOL     OW28462   1.582   0.354   1.610
 9188SOL    HW128463   1.648   0.427   1.591
 9188SOL    HW228464   1.568   0.347   1.709
 9189SOL     OW28465   4.236   1.226   6.024
 9189SOL    HW128466   4.188   1.303   6.066
 9189SOL    HW228467   4.194   1.204   5.936
 9190SOL     OW28468   5.000   1.593   5.374
 9190SOL    HW128469   5.088   1.546   5.384
 9190SOL    HW228470   4.929   1.526   5.352
 9191SOL     OW28471   5.549   0.096   1.126
 9191SOL    HW128472   5.615   0.052   1.186
 9191SOL    HW228473   5.523   0.033   1.053
 9192SOL     OW28474   4.928   3.482   3.830
 9192SOL    HW128475   4.935   3.469   3.929
 9192SOL    HW228476   4.851   3.544   3.811
 9193SOL     OW28477   3.713   2.910   3.398
 9193SOL    HW128478   3.654   2.884   3.322
 9193SOL    HW228479   3.793   2.960   3.364
 9194SOL     OW28480   4.422   5.592   2.736
 9194SOL    HW128481   4.382   5.503   2.761
 9194SOL    HW228482   4.367   5.633   2.664
 9195SOL     OW28483   0.615   2.701   2.764
 9195SOL    HW128484   0.553   2.661   2.831
 9195SOL    HW228485   0.570   2.777   2.718
 9196SOL     OW28486   5.072   6.830   4.075
 9196SOL    HW128487   4.993   6.883   4.046
 9196SOL    HW228488   5.050   6.779   4.158
 9197SOL     OW28489   4.254   2.338   5.967
 9197SOL    HW128490   4.287   2.432   5.977
 9197SOL    HW228491   4.193   2.316   6.043
 9198SOL     OW28492   5.839   2.051   5.430
 9198SOL    HW128493   5.850   2.095   5.341
 9198SOL    HW228494   5.864   2.115   5.502
 9199SOL     OW28495   2.181   2.743   6.252
 9199SOL    HW128496   2.104   2.696   6.295
 9199SOL    HW228497   2.147   2.818   6.194
 9200SOL     OW28498   5.734   6.210   0.830
 9200SOL    HW128499   5.818   6.259   0.806
 9200SOL    HW228500   5.757   6.128   0.881
 9201SOL     OW28501   1.109   3.914   2.413
 9201SOL    HW128502   1.086   3.953   2.324
 9201SOL    HW228503   1.100   3.984   2.484
 9202SOL     OW28504   2.721   5.773   3.974
 9202SOL    HW128505   2.796   5.783   4.040
 9202SOL    HW228506   2.639   5.739   4.021
 9203SOL     OW28507   4.547   0.701   6.492
 9203SOL    HW128508   4.540   0.602   6.476
 9203SOL    HW228509   4.608   0.742   6.424
 9204SOL     OW28510   5.059   4.782   2.484
 9204SOL    HW128511   4.964   4.804   2.507
 9204SOL    HW228512   5.099   4.728   2.559
 9205SOL     OW28513   4.925   3.015   1.734
 9205SOL    HW128514   5.005   3.061   1.773
 9205SOL    HW228515   4.846   3.031   1.793
 9206SOL     OW28516   0.579   5.884   3.610
 9206SOL    HW128517   0.643   5.854   3.539
 9206SOL    HW228518   0.618   5.962   3.659
 9207SOL     OW28519   4.211   6.250   6.405
 9207SOL    HW128520   4.208   6.296   6.317
 9207SOL    HW228521   4.251   6.311   6.474
 9208SOL     OW28522   4.639   4.101   1.733
 9208SOL    HW128523   4.632   4.105   1.633
 9208SOL    HW228524   4.566   4.155   1.774
 9209SOL     OW28525   3.990   0.105   2.623
 9209SOL    HW128526   3.937   0.154   2.553
 9209SOL    HW228527   4.033   0.025   2.582
 9210SOL     OW28528   1.416   6.493   0.778
 9210SOL    HW128529   1.338   6.494   0.841
 9210SOL    HW228530   1.383   6.503   0.685
 9211SOL     OW28531   4.833   1.293   6.111
 9211SOL    HW128532   4.893   1.317   6.035
 9211SOL    HW228533   4.752   1.352   6.110
 9212SOL     OW28534   5.753   3.846   5.500
 9212SOL    HW128535   5.771   3.930   5.449
 9212SOL    HW228536   5.825   3.833   5.569
 9213SOL     OW28537   6.648   6.841   2.056
 9213SOL    HW128538   6.607   6.931   2.042
 9213SOL    HW228539   6.736   6.851   2.102
 9214SOL     OW28540   2.103   2.414   5.350
 9214SOL    HW128541   2.169   2.451   5.416
 9214SOL    HW228542   2.152   2.358   5.283
 9215SOL     OW28543   0.397   2.819   2.968
 9215SOL    HW128544   0.329   2.756   2.931
 9215SOL    HW228545   0.425   2.788   3.059
 9216SOL     OW28546   2.262   5.789   3.893
 9216SOL    HW128547   2.344   5.845   3.900
 9216SOL    HW228548   2.281   5.708   3.838
 9217SOL     OW28549   3.628   1.556   6.596
 9217SOL    HW128550   3.597   1.651   6.594
 9217SOL    HW228551   3.721   1.552   6.633
 9218SOL     OW28552   5.307   5.563   6.484
 9218SOL    HW128553   5.216   5.557   6.444
 9218SOL    HW228554   5.375   5.537   6.415
 9219SOL     OW28555   3.167   2.299   5.648
 9219SOL    HW128556   3.135   2.318   5.555
 9219SOL    HW228557   3.091   2.266   5.703
 9220SOL     OW28558   0.379   6.391   3.481
 9220SOL    HW128559   0.409   6.484   3.459
 9220SOL    HW228560   0.420   6.361   3.567
 9221SOL     OW28561   2.382   1.325   0.948
 9221SOL    HW128562   2.301   1.272   0.923
 9221SOL    HW228563   2.357   1.422   0.956
 9222SOL     OW28564   1.619   3.431   4.508
 9222SOL    HW128565   1.621   3.479   4.596
 9222SOL    HW228566   1.708   3.391   4.490
 9223SOL     OW28567   6.958   3.172   4.839
 9223SOL    HW128568   6.898   3.230   4.784
 9223SOL    HW228569   7.022   3.228   4.890
 9224SOL     OW28570   2.535   4.966   3.104
 9224SOL    HW128571   2.522   4.868   3.114
 9224SOL    HW228572   2.448   5.013   3.119
 9225SOL     OW28573   5.956   5.516   6.121
 9225SOL    HW128574   5.905   5.576   6.182
 9225SOL    HW228575   5.960   5.424   6.160
 9226SOL     OW28576   1.156   0.654   0.228
 9226SOL    HW128577   1.231   0.654   0.162
 9226SOL    HW228578   1.183   0.602   0.309
 9227SOL     OW28579   2.974   3.979   0.488
 9227SOL    HW128580   2.966   4.034   0.572
 9227SOL    HW228581   2.989   3.883   0.513
 9228SOL     OW28582   3.753   3.411   5.112
 9228SOL    HW128583   3.719   3.412   5.018
 9228SOL    HW228584   3.753   3.504   5.149
 9229SOL     OW28585   6.692   5.093   0.426
 9229SOL    HW128586   6.784   5.120   0.454
 9229SOL    HW228587   6.626   5.127   0.493
 9230SOL     OW28588   4.421   1.316   4.931
 9230SOL    HW128589   4.460   1.401   4.965
 9230SOL    HW228590   4.489   1.269   4.874
 9231SOL     OW28591   6.877   6.263   2.361
 9231SOL    HW128592   6.902   6.220   2.448
 9231SOL    HW228593   6.787   6.231   2.333
 9232SOL     OW28594   1.032   5.325   2.663
 9232SOL    HW128595   1.107   5.346   2.600
 9232SOL    HW228596   0.975   5.406   2.676
 9233SOL     OW28597   1.261   6.434   5.678
 9233SOL    HW128598   1.228   6.399   5.766
 9233SOL    HW228599   1.348   6.390   5.655
 9234SOL     OW28600   2.425   3.487   6.435
 9234SOL    HW128601   2.476   3.412   6.393
 9234SOL    HW228602   2.329   3.462   6.442
 9235SOL     OW28603   1.884   2.342   3.432
 9235SOL    HW128604   1.853   2.322   3.339
 9235SOL    HW228605   1.963   2.284   3.453
 9236SOL     OW28606   1.380   3.232   6.273
 9236SOL    HW128607   1.403   3.139   6.245
 9236SOL    HW228608   1.446   3.264   6.342
 9237SOL     OW28609   6.293   5.542   2.698
 9237SOL    HW128610   6.204   5.534   2.745
 9237SOL    HW228611   6.277   5.566   2.602
 9238SOL     OW28612   1.913   3.111   4.716
 9238SOL    HW128613   1.826   3.090   4.672
 9238SOL    HW228614   1.903   3.194   4.772
 9239SOL     OW28615   0.948   4.710   6.837
 9239SOL    HW128616   1.001   4.715   6.922
 9239SOL    HW228617   0.896   4.794   6.824
 9240SOL     OW28618   4.270   1.533   3.424
 9240SOL    HW128619   4.301   1.446   3.462
 9240SOL    HW228620   4.177   1.553   3.457
 9241SOL     OW28621   5.556   6.906   0.432
 9241SOL    HW128622   5.469   6.872   0.396
 9241SOL    HW228623   5.539   6.963   0.512
 9242SOL     OW28624   1.697   2.304   0.938
 9242SOL    HW128625   1.746   2.225   0.975
 9242SOL    HW228626   1.629   2.335   1.005
 9243SOL     OW28627   1.710   0.370   0.153
 9243SOL    HW128628   1.766   0.290   0.176
 9243SOL    HW228629   1.694   0.373   0.055
 9244SOL     OW28630   3.542   6.237   6.056
 9244SOL    HW128631   3.601   6.210   5.980
 9244SOL    HW228632   3.497   6.156   6.094
 9245SOL     OW28633   1.412   5.160   2.919
 9245SOL    HW128634   1.332   5.135   2.865
 9245SOL    HW228635   1.459   5.077   2.950
 9246SOL     OW28636   4.981   0.061   6.776
 9246SOL    HW128637   4.899   0.013   6.807
 9246SOL    HW228638   5.008   0.026   6.686
 9247SOL     OW28639   4.029   5.542   3.115
 9247SOL    HW128640   4.125   5.569   3.113
 9247SOL    HW228641   4.022   5.444   3.099
 9248SOL     OW28642   2.326   0.849   6.742
 9248SOL    HW128643   2.344   0.940   6.779
 9248SOL    HW228644   2.358   0.780   6.807
 9249SOL     OW28645   2.263   6.706   0.424
 9249SOL    HW128646   2.350   6.661   0.446
 9249SOL    HW228647   2.275   6.764   0.343
 9250SOL     OW28648   0.182   2.968   3.694
 9250SOL    HW128649   0.083   2.971   3.681
 9250SOL    HW228650   0.227   3.016   3.618
 9251SOL     OW28651   3.193   1.681   0.957
 9251SOL    HW128652   3.265   1.740   0.922
 9251SOL    HW228653   3.106   1.704   0.914
 9252SOL     OW28654   5.616   1.264   5.059
 9252SOL    HW128655   5.629   1.316   5.144
 9252SOL    HW228656   5.687   1.194   5.051
 9253SOL     OW28657   1.207   5.620   4.915
 9253SOL    HW128658   1.230   5.715   4.896
 9253SOL    HW228659   1.270   5.584   4.984
 9254SOL     OW28660   0.340   5.022   2.348
 9254SOL    HW128661   0.360   4.968   2.429
 9254SOL    HW228662   0.258   5.077   2.364
 9255SOL     OW28663   6.848   4.332   0.621
 9255SOL    HW128664   6.893   4.354   0.707
 9255SOL    HW228665   6.769   4.273   0.638
 9256SOL     OW28666   3.302   6.611   0.696
 9256SOL    HW128667   3.268   6.518   0.711
 9256SOL    HW228668   3.233   6.677   0.727
 9257SOL     OW28669   5.825   5.765   4.622
 9257SOL    HW128670   5.777   5.690   4.667
 9257SOL    HW228671   5.923   5.752   4.632
 9258SOL     OW28672   3.610   5.559   0.855
 9258SOL    HW128673   3.589   5.500   0.933
 9258SOL    HW228674   3.709   5.565   0.845
 9259SOL     OW28675   0.760   2.014   6.951
 9259SOL    HW128676   0.743   1.976   6.860
 9259SOL    HW228677   0.673   2.032   6.997
 9260SOL     OW28678   5.198   3.712   4.753
 9260SOL    HW128679   5.193   3.764   4.668
 9260SOL    HW228680   5.109   3.715   4.800
 9261SOL     OW28681   2.426   1.824   1.157
 9261SOL    HW128682   2.432   1.850   1.060
 9261SOL    HW228683   2.383   1.897   1.209
 9262SOL     OW28684   6.830   6.155   6.109
 9262SOL    HW128685   6.816   6.062   6.145
 9262SOL    HW228686   6.769   6.171   6.032
 9263SOL     OW28687   1.944   4.577   3.054
 9263SOL    HW128688   1.911   4.630   3.133
 9263SOL    HW228689   1.869   4.523   3.016
 9264SOL     OW28690   5.519   4.340   6.498
 9264SOL    HW128691   5.588   4.282   6.455
 9264SOL    HW228692   5.429   4.320   6.458
 9265SOL     OW28693   6.020   1.379   1.651
 9265SOL    HW128694   6.015   1.370   1.750
 9265SOL    HW228695   6.110   1.416   1.626
 9266SOL     OW28696   1.624   4.544   0.918
 9266SOL    HW128697   1.559   4.595   0.976
 9266SOL    HW228698   1.702   4.603   0.896
 9267SOL     OW28699   6.728   0.779   4.466
 9267SOL    HW128700   6.736   0.789   4.565
 9267SOL    HW228701   6.691   0.863   4.427
 9268SOL     OW28702   0.373   0.018   1.273
 9268SOL    HW128703   0.365   6.966   1.214
 9268SOL    HW228704   0.375   7.017   1.369
 9269SOL     OW28705   3.551   1.150   0.140
 9269SOL    HW128706   3.539   1.051   0.132
 9269SOL    HW228707   3.608   1.171   0.219
 9270SOL     OW28708   2.493   0.472   6.777
 9270SOL    HW128709   2.402   0.486   6.737
 9270SOL    HW228710   2.536   0.561   6.793
 9271SOL     OW28711   1.357   5.798   5.194
 9271SOL    HW128712   1.437   5.741   5.174
 9271SOL    HW228713   1.298   5.750   5.258
 9272SOL     OW28714   6.695   6.507   6.081
 9272SOL    HW128715   6.645   6.421   6.075
 9272SOL    HW228716   6.725   6.534   5.989
 9273SOL     OW28717   5.346   4.210   3.102
 9273SOL    HW128718   5.259   4.259   3.102
 9273SOL    HW228719   5.359   4.167   3.192
 9274SOL     OW28720   0.556   3.095   0.726
 9274SOL    HW128721   0.558   3.195   0.724
 9274SOL    HW228722   0.622   3.058   0.661
 9275SOL     OW28723   5.402   0.743   0.669
 9275SOL    HW128724   5.485   0.719   0.618
 9275SOL    HW228725   5.386   0.841   0.661
 9276SOL     OW28726   2.665   4.826   6.920
 9276SOL    HW128727   2.738   4.880   6.879
 9276SOL    HW228728   2.580   4.841   6.869
 9277SOL     OW28729   4.567   5.065   2.260
 9277SOL    HW128730   4.554   5.162   2.280
 9277SOL    HW228731   4.662   5.048   2.235
 9278SOL     OW28732   0.482   0.078   5.452
 9278SOL    HW128733   0.477   0.041   5.544
 9278SOL    HW228734   0.458   0.006   5.386
 9279SOL     OW28735   3.551   5.318   1.794
 9279SOL    HW128736   3.501   5.274   1.720
 9279SOL    HW228737   3.513   5.410   1.811
 9280SOL     OW28738   1.873   6.348   2.889
 9280SOL    HW128739   1.880   6.351   2.989
 9280SOL    HW228740   1.896   6.257   2.857
 9281SOL     OW28741   1.992   5.958   0.872
 9281SOL    HW128742   1.950   6.020   0.938
 9281SOL    HW228743   2.042   6.010   0.803
 9282SOL     OW28744   3.207   6.768   4.998
 9282SOL    HW128745   3.259   6.807   4.921
 9282SOL    HW228746   3.224   6.821   5.081
 9283SOL     OW28747   4.317   6.646   1.242
 9283SOL    HW128748   4.314   6.746   1.246
 9283SOL    HW228749   4.392   6.617   1.184
 9284SOL     OW28750   4.370   4.274   5.818
 9284SOL    HW128751   4.286   4.225   5.794
 9284SOL    HW228752   4.380   4.274   5.918
 9285SOL     OW28753   0.663   5.797   2.997
 9285SOL    HW128754   0.595   5.737   2.955
 9285SOL    HW228755   0.755   5.760   2.982
 9286SOL     OW28756   3.961   0.039   1.622
 9286SOL    HW128757   4.005   0.018   1.709
 9286SOL    HW228758   4.003   0.121   1.582
 9287SOL     OW28759   4.037   4.023   6.035
 9287SOL    HW128760   4.029   3.929   6.068
 9287SOL    HW228761   4.082   4.023   5.946
 9288SOL     OW28762   3.661   1.790   1.748
 9288SOL    HW128763   3.717   1.849   1.806
 9288SOL    HW228764   3.583   1.841   1.713
 9289SOL     OW28765   4.707   6.868   0.665
 9289SOL    HW128766   4.686   6.957   0.705
 9289SOL    HW228767   4.788   6.876   0.607
 9290SOL     OW28768   5.369   1.183   4.362
 9290SOL    HW128769   5.332   1.238   4.287
 9290SOL    HW228770   5.395   1.242   4.438
 9291SOL     OW28771   0.812   3.769   6.019
 9291SOL    HW128772   0.841   3.843   5.959
 9291SOL    HW228773   0.772   3.696   5.963
 9292SOL     OW28774   0.693   0.718   6.590
 9292SOL    HW128775   0.757   0.673   6.653
 9292SOL    HW228776   0.688   0.815   6.611
 9293SOL     OW28777   4.999   2.273   3.756
 9293SOL    HW128778   4.977   2.339   3.827
 9293SOL    HW228779   4.932   2.279   3.682
 9294SOL     OW28780   4.474   0.251   5.955
 9294SOL    HW128781   4.396   0.189   5.948
 9294SOL    HW228782   4.520   0.256   5.867
 9295SOL     OW28783   6.262   1.237   5.058
 9295SOL    HW128784   6.279   1.199   5.149
 9295SOL    HW228785   6.299   1.175   4.989
 9296SOL     OW28786   2.318   5.027   6.080
 9296SOL    HW128787   2.403   4.985   6.113
 9296SOL    HW228788   2.259   4.957   6.041
 9297SOL     OW28789   6.269   5.926   2.432
 9297SOL    HW128790   6.341   5.919   2.363
 9297SOL    HW228791   6.297   5.991   2.503
 9298SOL     OW28792   1.211   4.239   6.173
 9298SOL    HW128793   1.243   4.187   6.252
 9298SOL    HW228794   1.247   4.332   6.178
 9299SOL     OW28795   2.100   2.725   4.551
 9299SOL    HW128796   2.042   2.740   4.631
 9299SOL    HW228797   2.136   2.632   4.553
 9300SOL     OW28798   2.162   5.588   5.298
 9300SOL    HW128799   2.188   5.682   5.318
 9300SOL    HW228800   2.243   5.530   5.297
 9301SOL     OW28801   0.057   4.239   4.069
 9301SOL    HW128802   0.113   4.156   4.073
 9301SOL    HW228803   0.040   4.272   4.162
 9302SOL     OW28804   2.177   4.071   4.497
 9302SOL    HW128805   2.216   4.121   4.421
 9302SOL    HW228806   2.238   4.077   4.576
 9303SOL     OW28807   2.563   4.461   0.151
 9303SOL    HW128808   2.562   4.362   0.160
 9303SOL    HW228809   2.474   4.499   0.177
 9304SOL     OW28810   5.008   5.504   6.509
 9304SOL    HW128811   5.017   5.436   6.437
 9304SOL    HW228812   5.080   5.490   6.577
 9305SOL     OW28813   1.722   2.043   1.039
 9305SOL    HW128814   1.737   2.040   1.138
 9305SOL    HW228815   1.624   2.029   1.020
 9306SOL     OW28816   0.023   6.415   4.887
 9306SOL    HW128817   7.004   6.346   4.942
 9306SOL    HW228818   0.103   6.374   4.844
 9307SOL     OW28819   1.867   3.657   1.585
 9307SOL    HW128820   1.804   3.615   1.520
 9307SOL    HW228821   1.829   3.744   1.616
 9308SOL     OW28822   2.191   3.309   1.703
 9308SOL    HW128823   2.230   3.347   1.787
 9308SOL    HW228824   2.233   3.353   1.623
 9309SOL     OW28825   5.057   5.347   6.751
 9309SOL    HW128826   5.148   5.330   6.788
 9309SOL    HW228827   4.999   5.268   6.766
 9310SOL     OW28828   6.039   5.548   6.587
 9310SOL    HW128829   6.090   5.588   6.511
 9310SOL    HW228830   5.941   5.562   6.572
 9311SOL     OW28831   4.996   4.184   0.438
 9311SOL    HW128832   4.984   4.218   0.345
 9311SOL    HW228833   5.093   4.180   0.460
 9312SOL     OW28834   0.474   3.085   3.089
 9312SOL    HW128835   0.496   3.002   3.037
 9312SOL    HW228836   0.539   3.095   3.164
 9313SOL     OW28837   0.479   0.539   2.262
 9313SOL    HW128838   0.574   0.571   2.253
 9313SOL    HW228839   0.418   0.618   2.263
 9314SOL     OW28840   5.240   4.660   1.328
 9314SOL    HW128841   5.225   4.758   1.339
 9314SOL    HW228842   5.283   4.643   1.239
 9315SOL     OW28843   5.313   6.194   5.989
 9315SOL    HW128844   5.342   6.284   6.021
 9315SOL    HW228845   5.214   6.183   6.004
 9316SOL     OW28846   4.787   0.777   6.330
 9316SOL    HW128847   4.795   0.677   6.329
 9316SOL    HW228848   4.739   0.807   6.247
 9317SOL     OW28849   3.374   5.898   3.043
 9317SOL    HW128850   3.462   5.890   2.997
 9317SOL    HW228851   3.312   5.954   2.988
 9318SOL     OW28852   3.892   0.010   1.958
 9318SOL    HW128853   3.835   6.964   1.923
 9318SOL    HW228854   3.853   0.044   2.044
 9319SOL     OW28855   4.349   2.231   6.933
 9319SOL    HW128856   4.272   2.294   6.943
 9319SOL    HW228857   4.368   2.187   7.020
 9320SOL     OW28858   6.479   6.559   6.942
 9320SOL    HW128859   6.415   6.516   7.006
 9320SOL    HW228860   6.519   6.490   6.883
 9321SOL     OW28861   0.550   2.979   4.992
 9321SOL    HW128862   0.491   2.898   4.987
 9321SOL    HW228863   0.600   2.978   5.079
 9322SOL     OW28864   5.781   3.156   6.771
 9322SOL    HW128865   5.843   3.226   6.808
 9322SOL    HW228866   5.694   3.198   6.747
 9323SOL     OW28867   0.641   2.176   5.816
 9323SOL    HW128868   0.681   2.196   5.906
 9323SOL    HW228869   0.695   2.221   5.745
 9324SOL     OW28870   0.922   4.192   1.673
 9324SOL    HW128871   0.908   4.106   1.723
 9324SOL    HW228872   0.865   4.192   1.590
 9325SOL     OW28873   0.780   4.068   3.725
 9325SOL    HW128874   0.878   4.063   3.705
 9325SOL    HW228875   0.765   4.112   3.813
 9326SOL     OW28876   4.236   4.105   1.269
 9326SOL    HW128877   4.162   4.056   1.224
 9326SOL    HW228878   4.319   4.099   1.212
 9327SOL     OW28879   2.465   0.881   3.450
 9327SOL    HW128880   2.468   0.940   3.369
 9327SOL    HW228881   2.376   0.889   3.494
 9328SOL     OW28882   2.547   0.530   3.725
 9328SOL    HW128883   2.550   0.511   3.823
 9328SOL    HW228884   2.589   0.454   3.675
 9329SOL     OW28885   0.012   5.593   0.103
 9329SOL    HW128886   0.086   5.637   0.154
 9329SOL    HW228887   0.016   5.494   0.117
 9330SOL     OW28888   6.679   6.180   0.175
 9330SOL    HW128889   6.620   6.147   0.101
 9330SOL    HW228890   6.622   6.222   0.245
 9331SOL     OW28891   1.934   3.528   3.875
 9331SOL    HW128892   1.858   3.474   3.839
 9331SOL    HW228893   1.925   3.535   3.975
 9332SOL     OW28894   5.881   5.816   0.816
 9332SOL    HW128895   5.817   5.854   0.881
 9332SOL    HW228896   5.940   5.889   0.780
 9333SOL     OW28897   3.222   3.703   1.269
 9333SOL    HW128898   3.163   3.671   1.343
 9333SOL    HW228899   3.173   3.696   1.182
 9334SOL     OW28900   5.798   5.819   5.852
 9334SOL    HW128901   5.877   5.790   5.906
 9334SOL    HW228902   5.827   5.884   5.782
 9335SOL     OW28903   0.844   3.235   1.622
 9335SOL    HW128904   0.830   3.136   1.620
 9335SOL    HW228905   0.811   3.275   1.537
 9336SOL     OW28906   5.469   0.800   5.799
 9336SOL    HW128907   5.447   0.757   5.711
 9336SOL    HW228908   5.558   0.845   5.792
 9337SOL     OW28909   2.423   1.187   5.675
 9337SOL    HW128910   2.520   1.168   5.686
 9337SOL    HW228911   2.404   1.281   5.704
 9338SOL     OW28912   5.471   6.562   0.217
 9338SOL    HW128913   5.478   6.658   0.187
 9338SOL    HW228914   5.553   6.512   0.188
 9339SOL     OW28915   0.016   3.892   5.813
 9339SOL    HW128916   6.957   3.848   5.794
 9339SOL    HW228917   0.011   3.940   5.901
 9340SOL     OW28918   3.265   4.910   1.196
 9340SOL    HW128919   3.343   4.863   1.156
 9340SOL    HW228920   3.274   4.912   1.295
 9341SOL     OW28921   4.974   5.089   6.645
 9341SOL    HW128922   4.875   5.079   6.637
 9341SOL    HW228923   5.013   5.113   6.556
 9342SOL     OW28924   3.043   0.364   4.633
 9342SOL    HW128925   3.127   0.310   4.635
 9342SOL    HW228926   2.984   0.335   4.708
 9343SOL     OW28927   4.576   3.785   1.174
 9343SOL    HW128928   4.662   3.828   1.201
 9343SOL    HW228929   4.593   3.690   1.148
 9344SOL     OW28930   5.915   0.147   5.425
 9344SOL    HW128931   5.979   0.100   5.364
 9344SOL    HW228932   5.893   0.237   5.388
 9345SOL     OW28933   0.428   4.861   0.508
 9345SOL    HW128934   0.385   4.939   0.463
 9345SOL    HW228935   0.362   4.817   0.569
 9346SOL     OW28936   5.783   6.349   1.405
 9346SOL    HW128937   5.755   6.273   1.345
 9346SOL    HW228938   5.877   6.336   1.434
 9347SOL     OW28939   3.784   5.788   0.990
 9347SOL    HW128940   3.690   5.754   0.985
 9347SOL    HW228941   3.804   5.843   0.909
 9348SOL     OW28942   2.438   5.668   2.204
 9348SOL    HW128943   2.492   5.584   2.197
 9348SOL    HW228944   2.348   5.652   2.164
 9349SOL     OW28945   0.039   6.120   2.038
 9349SOL    HW128946   7.020   6.208   2.044
 9349SOL    HW228947   0.137   6.135   2.029
 9350SOL     OW28948   6.697   0.714   6.624
 9350SOL    HW128949   6.750   0.630   6.636
 9350SOL    HW228950   6.599   0.691   6.617
 9351SOL     OW28951   3.877   3.180   5.660
 9351SOL    HW128952   3.935   3.246   5.611
 9351SOL    HW228953   3.865   3.099   5.604
 9352SOL     OW28954   3.465   3.138   6.315
 9352SOL    HW128955   3.418   3.181   6.393
 9352SOL    HW228956   3.535   3.076   6.350
 9353SOL     OW28957   0.281   3.626   0.772
 9353SOL    HW128958   0.260   3.530   0.792
 9353SOL    HW228959   0.319   3.634   0.679
 9354SOL     OW28960   4.714   1.635   1.758
 9354SOL    HW128961   4.722   1.697   1.836
 9354SOL    HW228962   4.730   1.686   1.673
 9355SOL     OW28963   6.635   1.000   3.152
 9355SOL    HW128964   6.552   0.944   3.157
 9355SOL    HW228965   6.610   1.096   3.146
 9356SOL     OW28966   4.268   4.762   2.780
 9356SOL    HW128967   4.306   4.727   2.695
 9356SOL    HW228968   4.195   4.827   2.760
 9357SOL     OW28969   3.154   3.076   0.710
 9357SOL    HW128970   3.135   2.998   0.650
 9357SOL    HW228971   3.069   3.111   0.749
 9358SOL     OW28972   5.107   4.413   1.814
 9358SOL    HW128973   5.202   4.444   1.802
 9358SOL    HW228974   5.049   4.456   1.744
 9359SOL     OW28975   5.595   4.560   6.150
 9359SOL    HW128976   5.522   4.504   6.189
 9359SOL    HW228977   5.673   4.501   6.128
 9360SOL     OW28978   1.532   0.206   5.305
 9360SOL    HW128979   1.538   0.287   5.246
 9360SOL    HW228980   1.553   0.124   5.251
 9361SOL     OW28981   2.713   0.735   2.501
 9361SOL    HW128982   2.627   0.784   2.487
 9361SOL    HW228983   2.713   0.651   2.447
 9362SOL     OW28984   2.029   1.911   2.985
 9362SOL    HW128985   1.994   1.999   2.952
 9362SOL    HW228986   2.128   1.908   2.970
 9363SOL     OW28987   2.331   6.403   1.894
 9363SOL    HW128988   2.265   6.444   1.957
 9363SOL    HW228989   2.315   6.305   1.889
 9364SOL     OW28990   5.494   5.192   0.691
 9364SOL    HW128991   5.510   5.103   0.650
 9364SOL    HW228992   5.514   5.264   0.624
 9365SOL     OW28993   2.013   1.240   5.094
 9365SOL    HW128994   2.067   1.317   5.127
 9365SOL    HW228995   1.991   1.180   5.171
 9366SOL     OW28996   2.838   2.034   0.823
 9366SOL    HW128997   2.871   1.945   0.854
 9366SOL    HW228998   2.864   2.104   0.890
 9367SOL     OW28999   6.812   5.788   3.522
 9367SOL    HW129000   6.898   5.835   3.502
 9367SOL    HW229001   6.758   5.842   3.586
 9368SOL     OW29002   3.911   3.019   1.329
 9368SOL    HW129003   3.878   2.929   1.358
 9368SOL    HW229004   3.961   3.063   1.404
 9369SOL     OW29005   0.086   2.234   5.312
 9369SOL    HW129006   0.083   2.293   5.393
 9369SOL    HW229007   0.104   2.290   5.231
 9370SOL     OW29008   6.150   0.389   3.557
 9370SOL    HW129009   6.199   0.466   3.596
 9370SOL    HW229010   6.060   0.381   3.600
 9371SOL     OW29011   0.847   6.651   0.473
 9371SOL    HW129012   0.928   6.710   0.479
 9371SOL    HW229013   0.797   6.655   0.560
 9372SOL     OW29014   6.952   6.118   6.507
 9372SOL    HW129015   6.983   6.115   6.602
 9372SOL    HW229016   6.857   6.149   6.505
 9373SOL     OW29017   4.563   1.667   3.840
 9373SOL    HW129018   4.641   1.683   3.899
 9373SOL    HW229019   4.528   1.755   3.806
 9374SOL     OW29020   5.298   3.852   0.496
 9374SOL    HW129021   5.385   3.843   0.544
 9374SOL    HW229022   5.272   3.765   0.455
 9375SOL     OW29023   0.764   1.512   4.183
 9375SOL    HW129024   0.862   1.498   4.199
 9375SOL    HW229025   0.712   1.439   4.226
 9376SOL     OW29026   2.148   2.994   2.052
 9376SOL    HW129027   2.054   2.964   2.040
 9376SOL    HW229028   2.190   3.007   1.962
 9377SOL     OW29029   6.026   5.670   3.724
 9377SOL    HW129030   5.957   5.621   3.672
 9377SOL    HW229031   6.109   5.679   3.669
 9378SOL     OW29032   3.092   6.123   0.770
 9378SOL    HW129033   3.157   6.051   0.745
 9378SOL    HW229034   3.011   6.116   0.712
 9379SOL     OW29035   5.301   4.529   4.845
 9379SOL    HW129036   5.333   4.435   4.842
 9379SOL    HW229037   5.334   4.578   4.764
 9380SOL     OW29038   5.711   6.386   6.406
 9380SOL    HW129039   5.625   6.339   6.425
 9380SOL    HW229040   5.749   6.354   6.319
 9381SOL     OW29041   2.833   1.152   7.007
 9381SOL    HW129042   2.881   1.214   6.946
 9381SOL    HW229043   2.823   1.194   0.069
 9382SOL     OW29044   4.757   2.300   2.362
 9382SOL    HW129045   4.694   2.263   2.294
 9382SOL    HW229046   4.838   2.336   2.317
 9383SOL     OW29047   5.034   5.973   5.531
 9383SOL    HW129048   5.059   5.898   5.470
 9383SOL    HW229049   4.944   5.955   5.570
 9384SOL     OW29050   5.324   5.806   1.424
 9384SOL    HW129051   5.408   5.856   1.408
 9384SOL    HW229052   5.318   5.730   1.359
 9385SOL     OW29053   3.468   1.211   3.161
 9385SOL    HW129054   3.451   1.232   3.258
 9385SOL    HW229055   3.408   1.266   3.104
 9386SOL     OW29056   3.273   0.166   4.296
 9386SOL    HW129057   3.271   0.190   4.393
 9386SOL    HW229058   3.345   0.098   4.280
 9387SOL     OW29059   4.152   6.861   0.027
 9387SOL    HW129060   4.133   6.765   0.005
 9387SOL    HW229061   4.131   6.918   6.976
 9388SOL     OW29062   0.086   0.520   2.588
 9388SOL    HW129063   0.053   0.547   2.498
 9388SOL    HW229064   0.176   0.561   2.604
 9389SOL     OW29065   2.725   0.687   6.472
 9389SOL    HW129066   2.751   0.605   6.524
 9389SOL    HW229067   2.635   0.718   6.501
 9390SOL     OW29068   3.288   5.870   2.248
 9390SOL    HW129069   3.384   5.888   2.227
 9390SOL    HW229070   3.235   5.954   2.234
 9391SOL     OW29071   0.601   0.886   5.171
 9391SOL    HW129072   0.606   0.855   5.266
 9391SOL    HW229073   0.577   0.983   5.168
 9392SOL     OW29074   1.529   6.403   4.715
 9392SOL    HW129075   1.449   6.411   4.655
 9392SOL    HW229076   1.608   6.445   4.671
 9393SOL     OW29077   3.832   2.358   5.289
 9393SOL    HW129078   3.866   2.451   5.276
 9393SOL    HW229079   3.878   2.297   5.224
 9394SOL     OW29080   5.121   2.155   2.616
 9394SOL    HW129081   5.026   2.132   2.595
 9394SOL    HW229082   5.123   2.241   2.669
 9395SOL     OW29083   1.497   3.116   6.824
 9395SOL    HW129084   1.507   3.131   6.922
 9395SOL    HW229085   1.483   3.203   6.777
 9396SOL     OW29086   6.866   0.506   6.677
 9396SOL    HW129087   6.854   0.429   6.740
 9396SOL    HW229088   6.957   0.503   6.638
 9397SOL     OW29089   2.995   0.408   0.663
 9397SOL    HW129090   2.911   0.453   0.693
 9397SOL    HW229091   3.003   0.319   0.707
 9398SOL     OW29092   2.669   1.691   6.464
 9398SOL    HW129093   2.631   1.625   6.529
 9398SOL    HW229094   2.620   1.778   6.472
 9399SOL     OW29095   7.014   0.794   5.478
 9399SOL    HW129096   6.998   0.834   5.388
 9399SOL    HW229097   7.009   0.694   5.471
 9400SOL     OW29098   5.251   2.480   2.987
 9400SOL    HW129099   5.272   2.572   3.020
 9400SOL    HW229100   5.322   2.451   2.923
 9401SOL     OW29101   3.082   0.197   2.906
 9401SOL    HW129102   3.127   0.113   2.875
 9401SOL    HW229103   3.024   0.233   2.834
 9402SOL     OW29104   2.634   5.116   6.362
 9402SOL    HW129105   2.683   5.042   6.315
 9402SOL    HW229106   2.535   5.098   6.358
 9403SOL     OW29107   5.124   0.878   4.299
 9403SOL    HW129108   5.090   0.787   4.275
 9403SOL    HW229109   5.063   0.948   4.262
 9404SOL     OW29110   0.677   4.208   6.043
 9404SOL    HW129111   0.734   4.248   5.971
 9404SOL    HW229112   0.587   4.250   6.040
 9405SOL     OW29113   5.926   6.849   1.314
 9405SOL    HW129114   5.867   6.804   1.247
 9405SOL    HW229115   5.963   6.781   1.377
 9406SOL     OW29116   0.065   1.178   4.986
 9406SOL    HW129117   0.120   1.095   4.987
 9406SOL    HW229118   7.028   1.176   5.062
 9407SOL     OW29119   3.416   6.266   2.705
 9407SOL    HW129120   3.331   6.224   2.739
 9407SOL    HW229121   3.490   6.246   2.769
 9408SOL     OW29122   4.024   1.772   6.370
 9408SOL    HW129123   4.001   1.676   6.352
 9408SOL    HW229124   3.959   1.831   6.324
 9409SOL     OW29125   5.654   4.185   3.047
 9409SOL    HW129126   5.575   4.166   3.106
 9409SOL    HW229127   5.722   4.237   3.098
 9410SOL     OW29128   4.533   6.482   2.790
 9410SOL    HW129129   4.544   6.553   2.859
 9410SOL    HW229130   4.519   6.524   2.701
 9411SOL     OW29131   4.832   5.618   0.765
 9411SOL    HW129132   4.908   5.666   0.720
 9411SOL    HW229133   4.867   5.535   0.810
 9412SOL     OW29134   6.429   2.481   1.170
 9412SOL    HW129135   6.332   2.488   1.191
 9412SOL    HW229136   6.440   2.458   1.073
 9413SOL     OW29137   3.907   6.036   5.699
 9413SOL    HW129138   3.834   6.063   5.762
 9413SOL    HW229139   3.940   6.117   5.650
 9414SOL     OW29140   2.417   1.959   1.926
 9414SOL    HW129141   2.375   1.897   1.992
 9414SOL    HW229142   2.463   2.033   1.976
 9415SOL     OW29143   2.699   0.533   1.965
 9415SOL    HW129144   2.771   0.598   1.992
 9415SOL    HW229145   2.669   0.482   2.045
 9416SOL     OW29146   0.752   2.894   1.478
 9416SOL    HW129147   0.706   2.882   1.566
 9416SOL    HW229148   0.851   2.885   1.490
 9417SOL     OW29149   2.520   5.895   4.762
 9417SOL    HW129150   2.424   5.885   4.734
 9417SOL    HW229151   2.531   5.981   4.812
 9418SOL     OW29152   3.681   4.884   0.593
 9418SOL    HW129153   3.676   4.859   0.690
 9418SOL    HW229154   3.599   4.936   0.568
 9419SOL     OW29155   3.681   6.759   5.830
 9419SOL    HW129156   3.583   6.777   5.818
 9419SOL    HW229157   3.732   6.845   5.827
 9420SOL     OW29158   0.587   1.309   4.260
 9420SOL    HW129159   0.489   1.325   4.271
 9420SOL    HW229160   0.606   1.212   4.275
 9421SOL     OW29161   1.882   4.510   5.621
 9421SOL    HW129162   1.948   4.475   5.555
 9421SOL    HW229163   1.882   4.610   5.618
 9422SOL     OW29164   4.066   1.257   2.230
 9422SOL    HW129165   4.100   1.334   2.284
 9422SOL    HW229166   3.966   1.261   2.226
 9423SOL     OW29167   4.695   1.117   4.958
 9423SOL    HW129168   4.635   1.122   4.879
 9423SOL    HW229169   4.723   1.210   4.985
 9424SOL     OW29170   2.946   6.455   4.779
 9424SOL    HW129171   2.977   6.478   4.687
 9424SOL    HW229172   2.907   6.363   4.779
 9425SOL     OW29173   1.544   3.213   4.236
 9425SOL    HW129174   1.487   3.286   4.198
 9425SOL    HW229175   1.544   3.219   4.336
 9426SOL     OW29176   3.429   6.701   0.043
 9426SOL    HW129177   3.444   6.775   7.006
 9426SOL    HW229178   3.515   6.652   0.059
 9427SOL     OW29179   3.084   5.167   4.052
 9427SOL    HW129180   3.021   5.118   4.112
 9427SOL    HW229181   3.140   5.230   4.106
 9428SOL     OW29182   5.178   6.435   2.845
 9428SOL    HW129183   5.136   6.347   2.825
 9428SOL    HW229184   5.111   6.495   2.889
 9429SOL     OW29185   0.383   3.950   2.388
 9429SOL    HW129186   0.448   3.970   2.314
 9429SOL    HW229187   0.379   4.030   2.450
 9430SOL     OW29188   5.814   6.610   1.671
 9430SOL    HW129189   5.814   6.570   1.763
 9430SOL    HW229190   5.731   6.584   1.623
 9431SOL     OW29191   6.677   4.562   2.088
 9431SOL    HW129192   6.727   4.526   2.009
 9431SOL    HW229193   6.689   4.661   2.093
 9432SOL     OW29194   6.449   6.778   4.281
 9432SOL    HW129195   6.471   6.783   4.184
 9432SOL    HW229196   6.374   6.713   4.295
 9433SOL     OW29197   2.992   4.866   4.846
 9433SOL    HW129198   3.067   4.928   4.869
 9433SOL    HW229199   2.981   4.798   4.919
 9434SOL     OW29200   5.036   5.106   2.610
 9434SOL    HW129201   5.111   5.059   2.656
 9434SOL    HW229202   4.957   5.045   2.603
 9435SOL     OW29203   1.399   0.648   4.167
 9435SOL    HW129204   1.463   0.572   4.158
 9435SOL    HW229205   1.434   0.713   4.234
 9436SOL     OW29206   2.375   2.440   6.619
 9436SOL    HW129207   2.337   2.528   6.592
 9436SOL    HW229208   2.373   2.432   6.719
 9437SOL     OW29209   1.130   5.083   4.257
 9437SOL    HW129210   1.122   4.985   4.243
 9437SOL    HW229211   1.104   5.105   4.351
 9438SOL     OW29212   1.018   6.041   2.121
 9438SOL    HW129213   1.060   6.127   2.095
 9438SOL    HW229214   1.069   6.000   2.197
 9439SOL     OW29215   0.439   2.704   1.642
 9439SOL    HW129216   0.429   2.628   1.579
 9439SOL    HW229217   0.534   2.735   1.642
 9440SOL     OW29218   5.143   6.458   5.653
 9440SOL    HW129219   5.095   6.542   5.629
 9440SOL    HW229220   5.077   6.385   5.668
 9441SOL     OW29221   1.509   4.679   5.447
 9441SOL    HW129222   1.512   4.738   5.366
 9441SOL    HW229223   1.463   4.727   5.522
 9442SOL     OW29224   0.413   3.966   2.021
 9442SOL    HW129225   0.353   4.012   1.956
 9442SOL    HW229226   0.391   3.996   2.114
 9443SOL     OW29227   1.768   3.741   1.965
 9443SOL    HW129228   1.798   3.830   2.001
 9443SOL    HW229229   1.726   3.754   1.876
 9444SOL     OW29230   0.390   3.724   6.914
 9444SOL    HW129231   0.310   3.780   6.895
 9444SOL    HW229232   0.405   3.660   6.838
 9445SOL     OW29233   5.939   3.334   1.439
 9445SOL    HW129234   6.033   3.367   1.429
 9445SOL    HW229235   5.905   3.357   1.530
 9446SOL     OW29236   6.295   5.876   1.538
 9446SOL    HW129237   6.339   5.872   1.449
 9446SOL    HW229238   6.309   5.789   1.586
 9447SOL     OW29239   5.690   2.867   1.957
 9447SOL    HW129240   5.728   2.846   2.047
 9447SOL    HW229241   5.633   2.949   1.963
 9448SOL     OW29242   6.104   6.663   0.286
 9448SOL    HW129243   6.112   6.762   0.298
 9448SOL    HW229244   6.183   6.618   0.329
 9449SOL     OW29245   6.843   5.422   5.464
 9449SOL    HW129246   6.773   5.453   5.527
 9449SOL    HW229247   6.933   5.429   5.508
 9450SOL     OW29248   3.394   4.948   4.229
 9450SOL    HW129249   3.369   4.941   4.133
 9450SOL    HW229250   3.318   4.916   4.286
 9451SOL     OW29251   4.655   4.706   6.018
 9451SOL    HW129252   4.707   4.627   6.051
 9451SOL    HW229253   4.629   4.690   5.922
 9452SOL     OW29254   2.145   4.275   1.491
 9452SOL    HW129255   2.176   4.315   1.405
 9452SOL    HW229256   2.223   4.260   1.551
 9453SOL     OW29257   3.375   4.936   2.358
 9453SOL    HW129258   3.348   4.871   2.286
 9453SOL    HW229259   3.328   5.023   2.344
 9454SOL     OW29260   2.140   2.828   5.279
 9454SOL    HW129261   2.203   2.852   5.205
 9454SOL    HW229262   2.129   2.907   5.340
 9455SOL     OW29263   3.207   1.744   1.690
 9455SOL    HW129264   3.303   1.768   1.698
 9455SOL    HW229265   3.169   1.784   1.606
 9456SOL     OW29266   1.249   3.236   1.290
 9456SOL    HW129267   1.235   3.305   1.220
 9456SOL    HW229268   1.214   3.269   1.377
 9457SOL     OW29269   0.540   3.379   0.755
 9457SOL    HW129270   0.536   3.469   0.798
 9457SOL    HW229271   0.591   3.386   0.669
 9458SOL     OW29272   6.963   5.674   5.024
 9458SOL    HW129273   6.949   5.711   4.933
 9458SOL    HW229274   6.875   5.654   5.067
 9459SOL     OW29275   5.723   5.840   1.716
 9459SOL    HW129276   5.633   5.799   1.701
 9459SOL    HW229277   5.768   5.855   1.628
 9460SOL     OW29278   1.102   2.241   5.443
 9460SOL    HW129279   1.114   2.332   5.404
 9460SOL    HW229280   1.056   2.182   5.377
 9461SOL     OW29281   1.223   1.007   3.874
 9461SOL    HW129282   1.301   0.945   3.860
 9461SOL    HW229283   1.144   0.953   3.903
 9462SOL     OW29284   0.817   3.207   2.268
 9462SOL    HW129285   0.841   3.300   2.296
 9462SOL    HW229286   0.853   3.142   2.335
 9463SOL     OW29287   5.478   1.726   0.284
 9463SOL    HW129288   5.406   1.722   0.215
 9463SOL    HW229289   5.561   1.764   0.243
 9464SOL     OW29290   5.615   0.546   6.149
 9464SOL    HW129291   5.713   0.561   6.139
 9464SOL    HW229292   5.596   0.505   6.238
 9465SOL     OW29293   6.282   0.762   3.938
 9465SOL    HW129294   6.348   0.723   4.002
 9465SOL    HW229295   6.248   0.849   3.973
 9466SOL     OW29296   2.780   2.442   6.361
 9466SOL    HW129297   2.833   2.462   6.444
 9466SOL    HW229298   2.721   2.363   6.377
 9467SOL     OW29299   1.973   3.375   1.878
 9467SOL    HW129300   2.061   3.385   1.925
 9467SOL    HW229301   1.988   3.330   1.790
 9468SOL     OW29302   6.716   2.869   5.973
 9468SOL    HW129303   6.731   2.935   6.046
 9468SOL    HW229304   6.753   2.904   5.887
 9469SOL     OW29305   6.402   4.882   1.845
 9469SOL    HW129306   6.356   4.956   1.795
 9469SOL    HW229307   6.345   4.853   1.922
 9470SOL     OW29308   5.210   3.517   0.845
 9470SOL    HW129309   5.278   3.508   0.772
 9470SOL    HW229310   5.181   3.426   0.874
 9471SOL     OW29311   0.092   1.793   5.899
 9471SOL    HW129312   0.112   1.891   5.889
 9471SOL    HW229313   7.022   1.780   5.902
 9472SOL     OW29314   6.324   4.141   3.431
 9472SOL    HW129315   6.380   4.059   3.418
 9472SOL    HW229316   6.228   4.119   3.414
 9473SOL     OW29317   3.194   5.153   5.250
 9473SOL    HW129318   3.139   5.085   5.297
 9473SOL    HW229319   3.276   5.173   5.304
 9474SOL     OW29320   4.666   5.351   2.682
 9474SOL    HW129321   4.571   5.322   2.673
 9474SOL    HW229322   4.670   5.451   2.681
 9475SOL     OW29323   2.338   3.552   1.356
 9475SOL    HW129324   2.357   3.454   1.345
 9475SOL    HW229325   2.267   3.564   1.425
 9476SOL     OW29326   3.607   3.798   5.417
 9476SOL    HW129327   3.567   3.736   5.350
 9476SOL    HW229328   3.630   3.885   5.374
 9477SOL     OW29329   1.245   2.627   1.484
 9477SOL    HW129330   1.157   2.587   1.510
 9477SOL    HW229331   1.318   2.561   1.500
 9478SOL     OW29332   5.689   4.799   5.466
 9478SOL    HW129333   5.678   4.784   5.368
 9478SOL    HW229334   5.680   4.712   5.514
 9479SOL     OW29335   6.214   5.944   6.215
 9479SOL    HW129336   6.168   5.863   6.252
 9479SOL    HW229337   6.198   5.950   6.117
 9480SOL     OW29338   5.469   4.897   6.855
 9480SOL    HW129339   5.445   4.927   6.947
 9480SOL    HW229340   5.480   4.977   6.796
 9481SOL     OW29341   0.369   3.708   2.231
 9481SOL    HW129342   0.372   3.786   2.294
 9481SOL    HW229343   0.357   3.742   2.137
 9482SOL     OW29344   4.428   0.187   2.348
 9482SOL    HW129345   4.449   0.282   2.369
 9482SOL    HW229346   4.386   0.144   2.428
 9483SOL     OW29347   1.765   1.861   6.876
 9483SOL    HW129348   1.811   1.919   6.944
 9483SOL    HW229349   1.694   1.914   6.830
 9484SOL     OW29350   6.847   1.746   3.590
 9484SOL    HW129351   6.825   1.840   3.565
 9484SOL    HW229352   6.946   1.731   3.585
 9485SOL     OW29353   1.163   0.394   2.594
 9485SOL    HW129354   1.141   0.459   2.521
 9485SOL    HW229355   1.224   0.323   2.559
 9486SOL     OW29356   3.131   5.709   1.843
 9486SOL    HW129357   3.227   5.730   1.828
 9486SOL    HW229358   3.096   5.766   1.917
 9487SOL     OW29359   3.194   2.966   3.854
 9487SOL    HW129360   3.257   2.972   3.931
 9487SOL    HW229361   3.158   2.873   3.847
 9488SOL     OW29362   1.910   6.912   0.772
 9488SOL    HW129363   1.940   6.980   0.705
 9488SOL    HW229364   1.811   6.901   0.767
 9489SOL     OW29365   3.825   4.817   0.835
 9489SOL    HW129366   3.803   4.741   0.774
 9489SOL    HW229367   3.922   4.842   0.823
 9490SOL     OW29368   5.140   1.304   1.308
 9490SOL    HW129369   5.080   1.243   1.361
 9490SOL    HW229370   5.087   1.346   1.235
 9491SOL     OW29371   5.868   5.117   6.562
 9491SOL    HW129372   5.857   5.190   6.630
 9491SOL    HW229373   5.782   5.102   6.514
 9492SOL     OW29374   2.969   4.105   1.758
 9492SOL    HW129375   3.053   4.125   1.707
 9492SOL    HW229376   2.993   4.060   1.844
 9493SOL     OW29377   4.866   6.567   3.232
 9493SOL    HW129378   4.858   6.536   3.326
 9493SOL    HW229379   4.931   6.643   3.227
 9494SOL     OW29380   4.001   3.341   5.482
 9494SOL    HW129381   4.093   3.355   5.518
 9494SOL    HW229382   3.960   3.430   5.461
 9495SOL     OW29383   6.144   2.290   5.426
 9495SOL    HW129384   6.232   2.250   5.450
 9495SOL    HW229385   6.076   2.267   5.495
 9496SOL     OW29386   5.954   4.429   6.897
 9496SOL    HW129387   5.945   4.455   6.993
 9496SOL    HW229388   5.949   4.512   6.840
 9497SOL     OW29389   5.833   5.691   6.313
 9497SOL    HW129390   5.803   5.669   6.406
 9497SOL    HW229391   5.763   5.745   6.268
 9498SOL     OW29392   3.759   0.710   6.373
 9498SOL    HW129393   3.665   0.745   6.375
 9498SOL    HW229394   3.799   0.725   6.283
 9499SOL     OW29395   3.865   4.391   5.311
 9499SOL    HW129396   3.936   4.444   5.264
 9499SOL    HW229397   3.902   4.303   5.339
 9500SOL     OW29398   5.138   6.202   1.659
 9500SOL    HW129399   5.186   6.285   1.687
 9500SOL    HW229400   5.167   6.177   1.567
 9501SOL     OW29401   2.969   1.703   4.927
 9501SOL    HW129402   3.012   1.614   4.913
 9501SOL    HW229403   2.876   1.701   4.889
 9502SOL     OW29404   6.021   2.838   5.743
 9502SOL    HW129405   6.098   2.888   5.703
 9502SOL    HW229406   5.981   2.778   5.674
 9503SOL     OW29407   1.469   6.836   1.085
 9503SOL    HW129408   1.502   6.742   1.096
 9503SOL    HW229409   1.437   6.871   1.174
 9504SOL     OW29410   0.582   2.781   6.578
 9504SOL    HW129411   0.571   2.747   6.671
 9504SOL    HW229412   0.625   2.871   6.580
 9505SOL     OW29413   5.780   2.978   3.097
 9505SOL    HW129414   5.683   2.990   3.117
 9505SOL    HW229415   5.820   2.914   3.163
 9506SOL     OW29416   6.556   4.135   0.330
 9506SOL    HW129417   6.560   4.042   0.367
 9506SOL    HW229418   6.620   4.143   0.253
 9507SOL     OW29419   0.882   1.810   3.503
 9507SOL    HW129420   0.869   1.723   3.550
 9507SOL    HW229421   0.842   1.805   3.411
 9508SOL     OW29422   6.005   2.231   0.378
 9508SOL    HW129423   5.976   2.155   0.436
 9508SOL    HW229424   5.927   2.291   0.359
 9509SOL     OW29425   2.479   6.154   5.574
 9509SOL    HW129426   2.382   6.136   5.591
 9509SOL    HW229427   2.534   6.109   5.644
 9510SOL     OW29428   6.706   4.837   3.361
 9510SOL    HW129429   6.711   4.931   3.396
 9510SOL    HW229430   6.780   4.783   3.401
 9511SOL     OW29431   0.561   1.570   0.768
 9511SOL    HW129432   0.648   1.579   0.718
 9511SOL    HW229433   0.544   1.653   0.821
 9512SOL     OW29434   0.946   2.437   3.790
 9512SOL    HW129435   0.981   2.521   3.833
 9512SOL    HW229436   0.947   2.363   3.856
 9513SOL     OW29437   2.335   4.261   3.882
 9513SOL    HW129438   2.409   4.249   3.816
 9513SOL    HW229439   2.309   4.172   3.920
 9514SOL     OW29440   2.205   2.723   6.871
 9514SOL    HW129441   2.107   2.739   6.861
 9514SOL    HW229442   2.222   2.624   6.876
 9515SOL     OW29443   2.057   5.498   6.539
 9515SOL    HW129444   2.150   5.522   6.510
 9515SOL    HW229445   1.996   5.575   6.520
 9516SOL     OW29446   4.948   3.452   4.118
 9516SOL    HW129447   4.989   3.363   4.132
 9516SOL    HW229448   4.893   3.477   4.198
 9517SOL     OW29449   0.605   5.544   2.334
 9517SOL    HW129450   0.633   5.457   2.374
 9517SOL    HW229451   0.568   5.603   2.406
 9518SOL     OW29452   0.994   2.449   6.272
 9518SOL    HW129453   1.044   2.496   6.199
 9518SOL    HW229454   0.932   2.513   6.318
 9519SOL     OW29455   3.588   3.587   3.259
 9519SOL    HW129456   3.567   3.654   3.188
 9519SOL    HW229457   3.529   3.507   3.247
 9520SOL     OW29458   6.373   0.172   5.708
 9520SOL    HW129459   6.334   0.091   5.750
 9520SOL    HW229460   6.375   0.247   5.774
 9521SOL     OW29461   3.497   0.431   1.176
 9521SOL    HW129462   3.544   0.493   1.239
 9521SOL    HW229463   3.557   0.353   1.155
 9522SOL     OW29464   3.827   6.397   2.476
 9522SOL    HW129465   3.740   6.424   2.517
 9522SOL    HW229466   3.810   6.329   2.404
 9523SOL     OW29467   2.595   5.238   4.033
 9523SOL    HW129468   2.664   5.181   4.078
 9523SOL    HW229469   2.640   5.311   3.982
 9524SOL     OW29470   1.901   4.593   1.297
 9524SOL    HW129471   1.952   4.668   1.340
 9524SOL    HW229472   1.824   4.568   1.356
 9525SOL     OW29473   1.968   2.950   5.775
 9525SOL    HW129474   1.995   3.020   5.708
 9525SOL    HW229475   1.970   2.860   5.731
 9526SOL     OW29476   5.115   4.551   6.863
 9526SOL    HW129477   5.123   4.585   6.956
 9526SOL    HW229478   5.168   4.611   6.802
 9527SOL     OW29479   4.164   6.908   3.353
 9527SOL    HW129480   4.257   6.873   3.360
 9527SOL    HW229481   4.144   6.964   3.433
 9528SOL     OW29482   5.557   2.006   1.480
 9528SOL    HW129483   5.533   1.926   1.426
 9528SOL    HW229484   5.485   2.074   1.472
 9529SOL     OW29485   6.306   1.502   1.667
 9529SOL    HW129486   6.287   1.579   1.728
 9529SOL    HW229487   6.402   1.505   1.638
 9530SOL     OW29488   0.795   5.395   4.003
 9530SOL    HW129489   0.829   5.489   3.997
 9530SOL    HW229490   0.706   5.389   3.958
 9531SOL     OW29491   3.526   5.219   2.494
 9531SOL    HW129492   3.517   5.241   2.396
 9531SOL    HW229493   3.436   5.221   2.536
 9532SOL     OW29494   6.418   5.299   2.673
 9532SOL    HW129495   6.453   5.270   2.583
 9532SOL    HW229496   6.347   5.369   2.660
 9533SOL     OW29497   2.151   4.296   3.080
 9533SOL    HW129498   2.076   4.340   3.030
 9533SOL    HW229499   2.192   4.225   3.023
 9534SOL     OW29500   5.551   4.351   4.565
 9534SOL    HW129501   5.529   4.325   4.659
 9534SOL    HW229502   5.589   4.444   4.565
 9535SOL     OW29503   0.965   1.004   5.751
 9535SOL    HW129504   0.978   1.058   5.834
 9535SOL    HW229505   0.889   1.042   5.699
 9536SOL     OW29506   4.023   3.776   5.013
 9536SOL    HW129507   4.118   3.772   5.045
 9536SOL    HW229508   4.022   3.811   4.919
 9537SOL     OW29509   1.347   1.385   3.513
 9537SOL    HW129510   1.333   1.484   3.521
 9537SOL    HW229511   1.265   1.337   3.542
 9538SOL     OW29512   3.759   1.000   4.905
 9538SOL    HW129513   3.715   1.025   4.991
 9538SOL    HW229514   3.809   0.914   4.917
 9539SOL     OW29515   3.833   3.231   2.605
 9539SOL    HW129516   3.781   3.298   2.658
 9539SOL    HW229517   3.861   3.155   2.664
 9540SOL     OW29518   4.800   4.692   3.900
 9540SOL    HW129519   4.870   4.726   3.837
 9540SOL    HW229520   4.844   4.637   3.971
 9541SOL     OW29521   1.839   5.964   5.670
 9541SOL    HW129522   1.890   5.998   5.591
 9541SOL    HW229523   1.816   5.867   5.656
 9542SOL     OW29524   6.265   4.307   4.041
 9542SOL    HW129525   6.340   4.243   4.025
 9542SOL    HW229526   6.267   4.379   3.972
 9543SOL     OW29527   2.170   0.795   6.071
 9543SOL    HW129528   2.080   0.751   6.070
 9543SOL    HW229529   2.183   0.846   5.985
 9544SOL     OW29530   5.283   3.471   4.141
 9544SOL    HW129531   5.245   3.445   4.230
 9544SOL    HW229532   5.382   3.458   4.141
 9545SOL     OW29533   1.614   4.639   1.841
 9545SOL    HW129534   1.626   4.670   1.747
 9545SOL    HW229535   1.704   4.626   1.883
 9546SOL     OW29536   2.620   2.139   6.397
 9546SOL    HW129537   2.566   2.061   6.364
 9546SOL    HW229538   2.699   2.152   6.338
 9547SOL     OW29539   3.901   6.144   3.970
 9547SOL    HW129540   3.955   6.085   3.910
 9547SOL    HW229541   3.963   6.197   4.028
 9548SOL     OW29542   0.992   4.741   0.073
 9548SOL    HW129543   0.945   4.804   0.134
 9548SOL    HW229544   0.944   4.654   0.072
 9549SOL     OW29545   4.295   2.915   1.231
 9549SOL    HW129546   4.323   2.947   1.322
 9549SOL    HW229547   4.258   2.822   1.239
 9550SOL     OW29548   5.204   2.816   1.343
 9550SOL    HW129549   5.183   2.882   1.414
 9550SOL    HW229550   5.127   2.809   1.280
 9551SOL     OW29551   6.846   2.306   6.628
 9551SOL    HW129552   6.757   2.331   6.590
 9551SOL    HW229553   6.857   2.206   6.624
 9552SOL     OW29554   3.268   2.135   6.844
 9552SOL    HW129555   3.348   2.165   6.895
 9552SOL    HW229556   3.237   2.209   6.784
 9553SOL     OW29557   5.457   1.770   6.848
 9553SOL    HW129558   5.452   1.848   6.910
 9553SOL    HW229559   5.541   1.718   6.867
 9554SOL     OW29560   2.244   6.626   4.066
 9554SOL    HW129561   2.337   6.594   4.085
 9554SOL    HW229562   2.178   6.565   4.112
 9555SOL     OW29563   0.036   0.501   3.728
 9555SOL    HW129564   0.002   0.407   3.735
 9555SOL    HW229565   7.019   0.559   3.795
 9556SOL     OW29566   2.237   4.640   0.315
 9556SOL    HW129567   2.224   4.561   0.254
 9556SOL    HW229568   2.286   4.611   0.397
 9557SOL     OW29569   5.314   0.373   1.883
 9557SOL    HW129570   5.363   0.402   1.801
 9557SOL    HW229571   5.216   0.364   1.862
 9558SOL     OW29572   5.118   6.453   6.277
 9558SOL    HW129573   5.099   6.358   6.303
 9558SOL    HW229574   5.033   6.502   6.262
 9559SOL     OW29575   1.699   4.306   0.254
 9559SOL    HW129576   1.631   4.380   0.251
 9559SOL    HW229577   1.791   4.345   0.256
 9560SOL     OW29578   3.088   6.649   2.190
 9560SOL    HW129579   3.039   6.683   2.110
 9560SOL    HW229580   3.058   6.555   2.210
 9561SOL     OW29581   1.018   1.180   0.725
 9561SOL    HW129582   0.992   1.253   0.662
 9561SOL    HW229583   1.044   1.099   0.673
 9562SOL     OW29584   3.217   5.567   3.829
 9562SOL    HW129585   3.233   5.538   3.734
 9562SOL    HW229586   3.286   5.525   3.888
 9563SOL     OW29587   0.893   5.946   1.352
 9563SOL    HW129588   0.932   6.015   1.291
 9563SOL    HW229589   0.820   5.988   1.407
 9564SOL     OW29590   1.315   0.080   0.413
 9564SOL    HW129591   1.312   7.009   0.427
 9564SOL    HW229592   1.357   0.099   0.324
 9565SOL     OW29593   3.384   1.783   4.538
 9565SOL    HW129594   3.446   1.705   4.527
 9565SOL    HW229595   3.375   1.831   4.451
 9566SOL     OW29596   2.469   0.038   0.791
 9566SOL    HW129597   2.569   0.047   0.783
 9566SOL    HW229598   2.437   0.092   0.869
 9567SOL     OW29599   6.864   4.807   1.152
 9567SOL    HW129600   6.886   4.712   1.177
 9567SOL    HW229601   6.917   4.869   1.209
 9568SOL     OW29602   4.234   1.631   6.696
 9568SOL    HW129603   4.163   1.670   6.755
 9568SOL    HW229604   4.324   1.657   6.731
 9569SOL     OW29605   5.428   0.842   2.176
 9569SOL    HW129606   5.340   0.818   2.136
 9569SOL    HW229607   5.491   0.765   2.168
 9570SOL     OW29608   6.994   3.411   1.244
 9570SOL    HW129609   6.926   3.484   1.252
 9570SOL    HW229610   6.977   3.342   1.314
 9571SOL     OW29611   2.987   2.491   6.966
 9571SOL    HW129612   2.989   2.395   6.940
 9571SOL    HW229613   2.896   2.529   6.946
 9572SOL     OW29614   2.196   3.839   3.780
 9572SOL    HW129615   2.162   3.771   3.715
 9572SOL    HW229616   2.176   3.809   3.873
 9573SOL     OW29617   6.429   1.043   4.598
 9573SOL    HW129618   6.350   0.989   4.572
 9573SOL    HW229619   6.462   1.013   4.687
 9574SOL     OW29620   3.493   2.963   1.417
 9574SOL    HW129621   3.450   2.873   1.427
 9574SOL    HW229622   3.423   3.034   1.420
 9575SOL     OW29623   6.212   6.413   1.696
 9575SOL    HW129624   6.186   6.377   1.786
 9575SOL    HW229625   6.235   6.509   1.705
 9576SOL     OW29626   0.741   0.037   6.943
 9576SOL    HW129627   0.806   7.017   7.001
 9576SOL    HW229628   0.652   0.039   6.988
 9577SOL     OW29629   6.206   5.158   2.088
 9577SOL    HW129630   6.145   5.127   2.015
 9577SOL    HW229631   6.210   5.089   2.160
 9578SOL     OW29632   1.527   2.543   2.902
 9578SOL    HW129633   1.547   2.531   2.999
 9578SOL    HW229634   1.612   2.544   2.849
 9579SOL     OW29635   5.778   6.400   2.276
 9579SOL    HW129636   5.706   6.452   2.230
 9579SOL    HW229637   5.773   6.305   2.248
 9580SOL     OW29638   4.668   4.770   2.320
 9580SOL    HW129639   4.665   4.869   2.306
 9580SOL    HW229640   4.734   4.729   2.257
 9581SOL     OW29641   5.872   1.340   0.129
 9581SOL    HW129642   5.958   1.325   0.080
 9581SOL    HW229643   5.891   1.386   0.215
 9582SOL     OW29644   4.471   5.738   4.247
 9582SOL    HW129645   4.494   5.834   4.261
 9582SOL    HW229646   4.372   5.726   4.260
 9583SOL     OW29647   3.454   4.551   1.626
 9583SOL    HW129648   3.513   4.593   1.695
 9583SOL    HW229649   3.441   4.454   1.647
 9584SOL     OW29650   2.100   4.515   4.479
 9584SOL    HW129651   2.155   4.432   4.474
 9584SOL    HW229652   2.108   4.565   4.392
 9585SOL     OW29653   4.630   5.654   1.327
 9585SOL    HW129654   4.590   5.644   1.236
 9585SOL    HW229655   4.728   5.634   1.322
 9586SOL     OW29656   4.576   5.102   1.944
 9586SOL    HW129657   4.586   5.085   1.847
 9586SOL    HW229658   4.492   5.059   1.977
 9587SOL     OW29659   2.981   6.272   1.736
 9587SOL    HW129660   3.022   6.189   1.773
 9587SOL    HW229661   2.967   6.262   1.638
 9588SOL     OW29662   6.388   5.692   0.743
 9588SOL    HW129663   6.348   5.766   0.797
 9588SOL    HW229664   6.319   5.621   0.727
 9589SOL     OW29665   1.884   3.979   6.247
 9589SOL    HW129666   1.950   3.907   6.227
 9589SOL    HW229667   1.914   4.031   6.327
 9590SOL     OW29668   5.159   1.450   2.403
 9590SOL    HW129669   5.077   1.493   2.367
 9590SOL    HW229670   5.143   1.422   2.498
 9591SOL     OW29671   3.168   0.428   6.150
 9591SOL    HW129672   3.258   0.472   6.155
 9591SOL    HW229673   3.179   0.329   6.157
 9592SOL     OW29674   2.595   4.740   6.418
 9592SOL    HW129675   2.660   4.678   6.374
 9592SOL    HW229676   2.507   4.736   6.371
 9593SOL     OW29677   1.515   1.658   4.980
 9593SOL    HW129678   1.441   1.697   5.035
 9593SOL    HW229679   1.584   1.728   4.963
 9594SOL     OW29680   0.705   6.164   4.096
 9594SOL    HW129681   0.737   6.229   4.164
 9594SOL    HW229682   0.774   6.155   4.023
 9595SOL     OW29683   0.156   3.252   3.925
 9595SOL    HW129684   0.083   3.188   3.901
 9595SOL    HW229685   0.123   3.314   3.996
 9596SOL     OW29686   0.376   6.373   0.726
 9596SOL    HW129687   0.381   6.325   0.813
 9596SOL    HW229688   0.382   6.306   0.651
 9597SOL     OW29689   0.857   3.672   2.925
 9597SOL    HW129690   0.856   3.572   2.920
 9597SOL    HW229691   0.776   3.703   2.975
 9598SOL     OW29692   1.361   3.540   2.894
 9598SOL    HW129693   1.297   3.614   2.913
 9598SOL    HW229694   1.450   3.577   2.869
 9599SOL     OW29695   3.378   0.148   3.740
 9599SOL    HW129696   3.345   0.123   3.831
 9599SOL    HW229697   3.304   0.137   3.673
 9600SOL     OW29698   3.189   0.361   0.921
 9600SOL    HW129699   3.145   0.376   1.009
 9600SOL    HW229700   3.146   0.283   0.875
 9601SOL     OW29701   6.684   4.460   1.230
 9601SOL    HW129702   6.656   4.451   1.134
 9601SOL    HW229703   6.729   4.377   1.260
 9602SOL     OW29704   5.134   4.030   5.334
 9602SOL    HW129705   5.218   4.067   5.296
 9602SOL    HW229706   5.155   3.967   5.408
 9603SOL     OW29707   5.551   6.361   5.506
 9603SOL    HW129708   5.645   6.349   5.538
 9603SOL    HW229709   5.490   6.373   5.584
 9604SOL     OW29710   5.152   0.117   0.694
 9604SOL    HW129711   5.060   0.158   0.688
 9604SOL    HW229712   5.189   0.132   0.785
 9605SOL     OW29713   6.583   5.759   3.884
 9605SOL    HW129714   6.561   5.831   3.949
 9605SOL    HW229715   6.533   5.675   3.908
 9606SOL     OW29716   1.252   1.207   6.471
 9606SOL    HW129717   1.315   1.245   6.539
 9606SOL    HW229718   1.159   1.236   6.491
 9607SOL     OW29719   3.688   2.512   6.053
 9607SOL    HW129720   3.628   2.432   6.061
 9607SOL    HW229721   3.645   2.590   6.098
 9608SOL     OW29722   6.551   4.161   2.611
 9608SOL    HW129723   6.546   4.240   2.551
 9608SOL    HW229724   6.638   4.162   2.661
 9609SOL     OW29725   4.087   2.554   6.299
 9609SOL    HW129726   4.161   2.616   6.324
 9609SOL    HW229727   4.000   2.602   6.302
 9610SOL     OW29728   1.590   3.653   2.836
 9610SOL    HW129729   1.582   3.707   2.751
 9610SOL    HW229730   1.631   3.710   2.907
 9611SOL     OW29731   1.806   0.297   1.304
 9611SOL    HW129732   1.761   0.325   1.389
 9611SOL    HW229733   1.825   0.379   1.249
 9612SOL     OW29734   0.823   3.100   2.669
 9612SOL    HW129735   0.853   3.077   2.576
 9612SOL    HW229736   0.832   3.018   2.726
 9613SOL     OW29737   6.133   6.098   3.859
 9613SOL    HW129738   6.132   6.166   3.786
 9613SOL    HW229739   6.067   6.026   3.839
 9614SOL     OW29740   4.915   1.862   2.768
 9614SOL    HW129741   4.971   1.810   2.703
 9614SOL    HW229742   4.905   1.810   2.853
 9615SOL     OW29743   2.551   2.498   1.201
 9615SOL    HW129744   2.606   2.581   1.213
 9615SOL    HW229745   2.610   2.418   1.210
 9616SOL     OW29746   3.516   3.148   0.417
 9616SOL    HW129747   3.599   3.144   0.472
 9616SOL    HW229748   3.487   3.055   0.394
 9617SOL     OW29749   2.157   2.700   4.104
 9617SOL    HW129750   2.178   2.613   4.059
 9617SOL    HW229751   2.154   2.773   4.036
 9618SOL     OW29752   3.110   0.827   0.676
 9618SOL    HW129753   3.055   0.787   0.602
 9618SOL    HW229754   3.076   0.919   0.695
 9619SOL     OW29755   2.372   0.938   5.580
 9619SOL    HW129756   2.281   0.950   5.541
 9619SOL    HW229757   2.393   1.016   5.640
 9620SOL     OW29758   5.266   0.184   4.622
 9620SOL    HW129759   5.284   0.247   4.698
 9620SOL    HW229760   5.175   0.144   4.633
 9621SOL     OW29761   1.754   2.587   2.275
 9621SOL    HW129762   1.797   2.652   2.339
 9621SOL    HW229763   1.780   2.611   2.181
 9622SOL     OW29764   6.223   1.046   1.022
 9622SOL    HW129765   6.283   0.967   1.028
 9622SOL    HW229766   6.249   1.103   0.944
 9623SOL     OW29767   3.746   3.341   6.378
 9623SOL    HW129768   3.697   3.256   6.397
 9623SOL    HW229769   3.818   3.324   6.311
 9624SOL     OW29770   6.105   3.286   2.968
 9624SOL    HW129771   6.030   3.301   3.032
 9624SOL    HW229772   6.079   3.216   2.902
 9625SOL     OW29773   6.211   6.309   0.503
 9625SOL    HW129774   6.145   6.254   0.451
 9625SOL    HW229775   6.301   6.265   0.501
 9626SOL     OW29776   3.665   5.905   6.727
 9626SOL    HW129777   3.667   5.969   6.650
 9626SOL    HW229778   3.669   5.811   6.693
 9627SOL     OW29779   1.625   5.927   6.376
 9627SOL    HW129780   1.533   5.952   6.404
 9627SOL    HW229781   1.675   6.009   6.349
 9628SOL     OW29782   4.474   5.831   1.530
 9628SOL    HW129783   4.542   5.786   1.472
 9628SOL    HW229784   4.383   5.813   1.493
 9629SOL     OW29785   2.811   6.649   1.150
 9629SOL    HW129786   2.734   6.616   1.205
 9629SOL    HW229787   2.894   6.651   1.207
 9630SOL     OW29788   6.687   0.273   5.952
 9630SOL    HW129789   6.696   0.173   5.951
 9630SOL    HW229790   6.738   0.311   5.875
 9631SOL     OW29791   6.495   6.810   6.768
 9631SOL    HW129792   6.502   6.711   6.781
 9631SOL    HW229793   6.586   6.848   6.752
 9632SOL     OW29794   1.625   6.654   1.989
 9632SOL    HW129795   1.585   6.586   2.049
 9632SOL    HW229796   1.725   6.645   1.988
 9633SOL     OW29797   6.349   5.224   6.682
 9633SOL    HW129798   6.447   5.203   6.689
 9633SOL    HW229799   6.334   5.321   6.699
 9634SOL     OW29800   1.156   6.825   4.588
 9634SOL    HW129801   1.078   6.888   4.586
 9634SOL    HW229802   1.198   6.827   4.679
 9635SOL     OW29803   2.444   5.191   4.863
 9635SOL    HW129804   2.513   5.259   4.883
 9635SOL    HW229805   2.466   5.146   4.776
 9636SOL     OW29806   4.524   1.549   5.011
 9636SOL    HW129807   4.524   1.640   5.052
 9636SOL    HW229808   4.447   1.541   4.948
 9637SOL     OW29809   1.929   1.853   6.634
 9637SOL    HW129810   1.854   1.874   6.696
 9637SOL    HW229811   1.969   1.938   6.600
 9638SOL     OW29812   6.581   3.040   5.114
 9638SOL    HW129813   6.539   3.087   5.191
 9638SOL    HW229814   6.661   3.092   5.084
 9639SOL     OW29815   4.304   1.292   2.510
 9639SOL    HW129816   4.340   1.211   2.463
 9639SOL    HW229817   4.285   1.364   2.444
 9640SOL     OW29818   2.070   2.288   2.664
 9640SOL    HW129819   1.999   2.354   2.643
 9640SOL    HW229820   2.087   2.287   2.763
 9641SOL     OW29821   6.034   6.170   0.387
 9641SOL    HW129822   6.055   6.204   0.295
 9641SOL    HW229823   6.020   6.071   0.383
 9642SOL     OW29824   3.013   0.842   4.379
 9642SOL    HW129825   3.085   0.858   4.446
 9642SOL    HW229826   3.054   0.811   4.293
 9643SOL     OW29827   4.658   4.832   3.616
 9643SOL    HW129828   4.749   4.868   3.596
 9643SOL    HW229829   4.656   4.734   3.594
 9644SOL     OW29830   1.723   2.438   6.216
 9644SOL    HW129831   1.717   2.338   6.204
 9644SOL    HW229832   1.729   2.459   6.313
 9645SOL     OW29833   2.995   5.234   4.915
 9645SOL    HW129834   3.085   5.193   4.924
 9645SOL    HW229835   3.003   5.323   4.869
 9646SOL     OW29836   3.785   4.955   2.525
 9646SOL    HW129837   3.728   4.899   2.585
 9646SOL    HW229838   3.738   5.040   2.503
 9647SOL     OW29839   6.512   3.292   0.484
 9647SOL    HW129840   6.555   3.313   0.396
 9647SOL    HW229841   6.516   3.194   0.501
 9648SOL     OW29842   4.756   3.163   0.705
 9648SOL    HW129843   4.658   3.146   0.695
 9648SOL    HW229844   4.770   3.231   0.777
 9649SOL     OW29845   2.094   5.731   0.383
 9649SOL    HW129846   2.064   5.659   0.321
 9649SOL    HW229847   2.111   5.693   0.473
 9650SOL     OW29848   6.653   6.536   1.691
 9650SOL    HW129849   6.693   6.466   1.750
 9650SOL    HW229850   6.672   6.626   1.729
 9651SOL     OW29851   0.549   1.113   6.451
 9651SOL    HW129852   0.646   1.097   6.469
 9651SOL    HW229853   0.525   1.077   6.361
 9652SOL     OW29854   0.468   5.576   2.953
 9652SOL    HW129855   0.372   5.600   2.968
 9652SOL    HW229856   0.485   5.484   2.988
 9653SOL     OW29857   5.840   5.064   4.330
 9653SOL    HW129858   5.927   5.081   4.376
 9653SOL    HW229859   5.851   5.076   4.231
 9654SOL     OW29860   2.475   2.965   1.680
 9654SOL    HW129861   2.553   2.902   1.678
 9654SOL    HW229862   2.412   2.941   1.606
 9655SOL     OW29863   7.014   2.011   0.130
 9655SOL    HW129864   6.922   1.974   0.144
 9655SOL    HW229865   0.022   2.043   0.217
 9656SOL     OW29866   3.353   0.685   3.073
 9656SOL    HW129867   3.334   0.627   2.994
 9656SOL    HW229868   3.269   0.731   3.102
 9657SOL     OW29869   6.465   0.594   4.808
 9657SOL    HW129870   6.412   0.514   4.834
 9657SOL    HW229871   6.545   0.565   4.755
 9658SOL     OW29872   6.524   2.611   1.974
 9658SOL    HW129873   6.444   2.555   1.997
 9658SOL    HW229874   6.495   2.691   1.923
 9659SOL     OW29875   0.455   4.501   6.881
 9659SOL    HW129876   0.475   4.491   6.978
 9659SOL    HW229877   0.358   4.485   6.865
 9660SOL     OW29878   0.748   5.222   0.291
 9660SOL    HW129879   0.686   5.151   0.325
 9660SOL    HW229880   0.700   5.278   0.224
 9661SOL     OW29881   4.273   6.527   0.930
 9661SOL    HW129882   4.317   6.439   0.947
 9661SOL    HW229883   4.235   6.563   1.015
 9662SOL     OW29884   6.442   1.071   4.240
 9662SOL    HW129885   6.375   0.998   4.258
 9662SOL    HW229886   6.459   1.077   4.142
 9663SOL     OW29887   2.378   5.613   2.855
 9663SOL    HW129888   2.469   5.635   2.819
 9663SOL    HW229889   2.366   5.514   2.856
 9664SOL     OW29890   3.801   6.214   2.259
 9664SOL    HW129891   3.826   6.117   2.258
 9664SOL    HW229892   3.802   6.250   2.166
 9665SOL     OW29893   5.732   4.175   4.457
 9665SOL    HW129894   5.641   4.215   4.470
 9665SOL    HW229895   5.798   4.249   4.442
 9666SOL     OW29896   5.730   4.945   3.568
 9666SOL    HW129897   5.639   4.942   3.609
 9666SOL    HW229898   5.795   4.981   3.635
 9667SOL     OW29899   4.100   3.771   3.791
 9667SOL    HW129900   4.040   3.851   3.789
 9667SOL    HW229901   4.109   3.738   3.885
 9668SOL     OW29902   0.355   0.651   5.579
 9668SOL    HW129903   0.429   0.686   5.637
 9668SOL    HW229904   0.395   0.607   5.498
 9669SOL     OW29905   1.365   5.848   0.641
 9669SOL    HW129906   1.400   5.830   0.732
 9669SOL    HW229907   1.267   5.830   0.638
 9670SOL     OW29908   5.130   4.925   0.051
 9670SOL    HW129909   5.114   4.972   0.138
 9670SOL    HW229910   5.066   4.958   7.011
 9671SOL     OW29911   0.018   6.006   5.632
 9671SOL    HW129912   6.985   5.933   5.603
 9671SOL    HW229913   0.023   6.008   5.731
 9672SOL     OW29914   0.247   6.162   4.529
 9672SOL    HW129915   0.184   6.226   4.486
 9672SOL    HW229916   0.310   6.126   4.461
 9673SOL     OW29917   2.890   3.889   6.732
 9673SOL    HW129918   2.923   3.795   6.744
 9673SOL    HW229919   2.949   3.938   6.669
 9674SOL     OW29920   3.501   6.004   2.532
 9674SOL    HW129921   3.459   6.076   2.587
 9674SOL    HW229922   3.512   6.036   2.437
 9675SOL     OW29923   6.706   1.913   1.744
 9675SOL    HW129924   6.664   1.883   1.830
 9675SOL    HW229925   6.687   1.847   1.672
 9676SOL     OW29926   0.240   3.532   4.451
 9676SOL    HW129927   0.261   3.617   4.402
 9676SOL    HW229928   0.237   3.456   4.385
 9677SOL     OW29929   1.999   3.258   6.183
 9677SOL    HW129930   1.946   3.263   6.098
 9677SOL    HW229931   2.060   3.337   6.189
 9678SOL     OW29932   3.392   2.958   3.385
 9678SOL    HW129933   3.301   2.963   3.345
 9678SOL    HW229934   3.401   3.027   3.456
 9679SOL     OW29935   1.024   2.764   1.789
 9679SOL    HW129936   1.117   2.768   1.825
 9679SOL    HW229937   0.984   2.856   1.789
 9680SOL     OW29938   5.895   5.945   3.717
 9680SOL    HW129939   5.933   5.855   3.736
 9680SOL    HW229940   5.864   5.949   3.622
 9681SOL     OW29941   2.395   0.767   3.058
 9681SOL    HW129942   2.491   0.792   3.072
 9681SOL    HW229943   2.377   0.757   2.960
 9682SOL     OW29944   6.185   4.330   2.766
 9682SOL    HW129945   6.226   4.394   2.830
 9682SOL    HW229946   6.242   4.248   2.761
 9683SOL     OW29947   4.584   6.182   6.947
 9683SOL    HW129948   4.674   6.138   6.947
 9683SOL    HW229949   4.563   6.214   6.855
 9684SOL     OW29950   1.155   3.268   4.864
 9684SOL    HW129951   1.071   3.280   4.916
 9684SOL    HW229952   1.234   3.282   4.923
 9685SOL     OW29953   1.233   2.986   0.204
 9685SOL    HW129954   1.247   2.930   0.122
 9685SOL    HW229955   1.258   2.934   0.285
 9686SOL     OW29956   6.376   0.753   1.884
 9686SOL    HW129957   6.364   0.832   1.824
 9686SOL    HW229958   6.441   0.689   1.843
 9687SOL     OW29959   2.947   0.535   4.143
 9687SOL    HW129960   3.026   0.590   4.115
 9687SOL    HW229961   2.971   0.438   4.141
 9688SOL     OW29962   0.004   1.339   2.798
 9688SOL    HW129963   0.082   1.279   2.785
 9688SOL    HW229964   0.002   1.408   2.725
 9689SOL     OW29965   2.301   6.309   6.290
 9689SOL    HW129966   2.400   6.307   6.301
 9689SOL    HW229967   2.275   6.261   6.206
 9690SOL     OW29968   6.429   4.635   1.137
 9690SOL    HW129969   6.484   4.638   1.221
 9690SOL    HW229970   6.353   4.700   1.145
 9691SOL     OW29971   1.839   4.911   2.430
 9691SOL    HW129972   1.837   4.868   2.340
 9691SOL    HW229973   1.809   5.006   2.423
 9692SOL     OW29974   2.669   5.601   1.871
 9692SOL    HW129975   2.664   5.678   1.935
 9692SOL    HW229976   2.706   5.633   1.784
 9693SOL     OW29977   6.205   6.052   1.723
 9693SOL    HW129978   6.113   6.090   1.735
 9693SOL    HW229979   6.208   5.998   1.638
 9694SOL     OW29980   1.608   2.680   6.677
 9694SOL    HW129981   1.551   2.621   6.620
 9694SOL    HW229982   1.639   2.629   6.758
 9695SOL     OW29983   6.440   4.235   1.519
 9695SOL    HW129984   6.387   4.200   1.442
 9695SOL    HW229985   6.513   4.170   1.541
 9696SOL     OW29986   4.066   3.668   1.657
 9696SOL    HW129987   4.074   3.678   1.756
 9696SOL    HW229988   4.151   3.697   1.613
 9697SOL     OW29989   0.994   5.690   0.253
 9697SOL    HW129990   0.956   5.610   0.298
 9697SOL    HW229991   0.926   5.764   0.252
 9698SOL     OW29992   5.985   1.970   4.979
 9698SOL    HW129993   5.897   1.924   4.996
 9698SOL    HW229994   5.968   2.060   4.940
 9699SOL     OW29995   1.599   3.456   0.214
 9699SOL    HW129996   1.649   3.420   0.293
 9699SOL    HW229997   1.564   3.547   0.236
 9700SOL     OW29998   3.326   3.797   4.911
 9700SOL    HW129999   3.374   3.826   4.993
 9700SOL    HW230000   3.282   3.875   4.868
 9701SOL     OW30001   4.736   5.241   4.786
 9701SOL    HW130002   4.750   5.159   4.842
 9701SOL    HW230003   4.808   5.308   4.807
 9702SOL     OW30004   4.580   1.024   0.200
 9702SOL    HW130005   4.607   1.104   0.148
 9702SOL    HW230006   4.486   1.034   0.232
 9703SOL     OW30007   2.921   6.113   4.244
 9703SOL    HW130008   2.840   6.063   4.275
 9703SOL    HW230009   2.915   6.130   4.145
 9704SOL     OW30010   3.561   0.269   3.062
 9704SOL    HW130011   3.537   0.356   3.105
 9704SOL    HW230012   3.657   0.272   3.034
 9705SOL     OW30013   3.469   3.902   0.492
 9705SOL    HW130014   3.380   3.856   0.501
 9705SOL    HW230015   3.541   3.841   0.525
 9706SOL     OW30016   5.496   3.217   3.012
 9706SOL    HW130017   5.553   3.296   3.036
 9706SOL    HW230018   5.481   3.216   2.913
 9707SOL     OW30019   2.793   5.522   2.251
 9707SOL    HW130020   2.732   5.507   2.174
 9707SOL    HW230021   2.808   5.620   2.263
 9708SOL     OW30022   2.336   1.455   3.507
 9708SOL    HW130023   2.266   1.426   3.442
 9708SOL    HW230024   2.344   1.555   3.504
 9709SOL     OW30025   1.738   5.884   2.951
 9709SOL    HW130026   1.684   5.968   2.938
 9709SOL    HW230027   1.760   5.844   2.862
 9710SOL     OW30028   0.606   0.591   3.405
 9710SOL    HW130029   0.656   0.569   3.488
 9710SOL    HW230030   0.521   0.537   3.402
 9711SOL     OW30031   1.228   3.935   5.369
 9711SOL    HW130032   1.225   3.994   5.288
 9711SOL    HW230033   1.321   3.903   5.383
 9712SOL     OW30034   4.994   1.820   3.799
 9712SOL    HW130035   5.051   1.753   3.751
 9712SOL    HW230036   4.940   1.871   3.732
 9713SOL     OW30037   6.874   5.117   2.814
 9713SOL    HW130038   6.777   5.134   2.834
 9713SOL    HW230039   6.898   5.162   2.728
 9714SOL     OW30040   2.119   2.194   1.331
 9714SOL    HW130041   2.170   2.245   1.262
 9714SOL    HW230042   2.096   2.255   1.407
 9715SOL     OW30043   5.130   5.657   4.981
 9715SOL    HW130044   5.139   5.754   4.957
 9715SOL    HW230045   5.039   5.625   4.953
 9716SOL     OW30046   4.544   2.125   6.768
 9716SOL    HW130047   4.474   2.157   6.831
 9716SOL    HW230048   4.508   2.049   6.714
 9717SOL     OW30049   5.709   5.457   3.863
 9717SOL    HW130050   5.776   5.426   3.796
 9717SOL    HW230051   5.626   5.401   3.856
 9718SOL     OW30052   4.373   3.460   1.511
 9718SOL    HW130053   4.337   3.426   1.598
 9718SOL    HW230054   4.322   3.542   1.484
 9719SOL     OW30055   0.448   1.730   0.009
 9719SOL    HW130056   0.438   1.666   6.962
 9719SOL    HW230057   0.477   1.681   0.091
 9720SOL     OW30058   6.622   0.386   2.214
 9720SOL    HW130059   6.546   0.396   2.150
 9720SOL    HW230060   6.621   0.461   2.280
 9721SOL     OW30061   6.842   3.784   2.531
 9721SOL    HW130062   6.755   3.823   2.559
 9721SOL    HW230063   6.915   3.818   2.591
 9722SOL     OW30064   1.009   0.394   4.104
 9722SOL    HW130065   0.961   0.466   4.053
 9722SOL    HW230066   0.963   0.307   4.090
 9723SOL     OW30067   0.475   0.706   3.733
 9723SOL    HW130068   0.436   0.795   3.758
 9723SOL    HW230069   0.402   0.645   3.701
 9724SOL     OW30070   3.714   2.418   1.537
 9724SOL    HW130071   3.796   2.459   1.498
 9724SOL    HW230072   3.674   2.481   1.604
 9725SOL     OW30073   4.247   3.461   5.562
 9725SOL    HW130074   4.251   3.397   5.638
 9725SOL    HW230075   4.339   3.498   5.546
 9726SOL     OW30076   4.916   6.536   4.771
 9726SOL    HW130077   5.006   6.569   4.799
 9726SOL    HW230078   4.885   6.588   4.691
 9727SOL     OW30079   1.461   2.644   5.697
 9727SOL    HW130080   1.531   2.714   5.716
 9727SOL    HW230081   1.459   2.579   5.773
 9728SOL     OW30082   2.560   5.822   7.006
 9728SOL    HW130083   2.462   5.825   6.985
 9728SOL    HW230084   2.596   5.732   6.983
 9729SOL     OW30085   2.886   5.186   2.668
 9729SOL    HW130086   2.794   5.153   2.690
 9729SOL    HW230087   2.888   5.214   2.572
 9730SOL     OW30088   6.478   3.024   2.776
 9730SOL    HW130089   6.426   2.969   2.842
 9730SOL    HW230090   6.417   3.093   2.735
 9731SOL     OW30091   3.821   4.645   1.046
 9731SOL    HW130092   3.827   4.708   0.969
 9731SOL    HW230093   3.735   4.594   1.041
 9732SOL     OW30094   6.518   6.469   2.680
 9732SOL    HW130095   6.459   6.450   2.601
 9732SOL    HW230096   6.523   6.568   2.693
 9733SOL     OW30097   4.988   4.380   5.764
 9733SOL    HW130098   5.051   4.395   5.840
 9733SOL    HW230099   4.907   4.331   5.797
 9734SOL     OW30100   5.505   2.369   4.209
 9734SOL    HW130101   5.521   2.435   4.283
 9734SOL    HW230102   5.590   2.319   4.191
 9735SOL     OW30103   1.647   4.544   1.419
 9735SOL    HW130104   1.653   4.456   1.465
 9735SOL    HW230105   1.669   4.617   1.485
 9736SOL     OW30106   3.537   1.063   0.625
 9736SOL    HW130107   3.603   1.070   0.550
 9736SOL    HW230108   3.522   0.967   0.647
 9737SOL     OW30109   4.014   2.195   5.110
 9737SOL    HW130110   4.071   2.272   5.079
 9737SOL    HW230111   4.052   2.157   5.194
 9738SOL     OW30112   1.204   0.923   2.738
 9738SOL    HW130113   1.132   0.867   2.780
 9738SOL    HW230114   1.291   0.874   2.742
 9739SOL     OW30115   5.386   4.511   1.778
 9739SOL    HW130116   5.397   4.598   1.825
 9739SOL    HW230117   5.393   4.525   1.679
 9740SOL     OW30118   6.713   4.374   2.851
 9740SOL    HW130119   6.766   4.426   2.919
 9740SOL    HW230120   6.643   4.433   2.811
 9741SOL     OW30121   4.466   2.361   2.224
 9741SOL    HW130122   4.418   2.280   2.190
 9741SOL    HW230123   4.528   2.394   2.153
 9742SOL     OW30124   5.038   1.123   4.065
 9742SOL    HW130125   5.001   1.140   4.156
 9742SOL    HW230126   4.964   1.121   3.998
 9743SOL     OW30127   1.640   3.036   5.910
 9743SOL    HW130128   1.611   2.964   5.973
 9743SOL    HW230129   1.601   3.124   5.939
 9744SOL     OW30130   1.942   1.090   1.852
 9744SOL    HW130131   1.881   1.011   1.850
 9744SOL    HW230132   1.970   1.113   1.758
 9745SOL     OW30133   7.012   2.592   5.223
 9745SOL    HW130134   0.048   2.665   5.243
 9745SOL    HW230135   6.921   2.631   5.209
 9746SOL     OW30136   6.200   0.932   4.904
 9746SOL    HW130137   6.137   0.883   4.844
 9746SOL    HW230138   6.280   0.876   4.922
 9747SOL     OW30139   0.557   6.817   6.186
 9747SOL    HW130140   0.478   6.864   6.225
 9747SOL    HW230141   0.595   6.872   6.111
 9748SOL     OW30142   0.459   6.068   4.351
 9748SOL    HW130143   0.428   6.041   4.260
 9748SOL    HW230144   0.528   6.003   4.383
 9749SOL     OW30145   0.472   4.309   4.067
 9749SOL    HW130146   0.450   4.396   4.113
 9749SOL    HW230147   0.436   4.311   3.974
 9750SOL     OW30148   4.011   4.897   3.771
 9750SOL    HW130149   3.912   4.907   3.777
 9750SOL    HW230150   4.036   4.861   3.681
 9751SOL     OW30151   1.824   2.775   0.581
 9751SOL    HW130152   1.761   2.752   0.656
 9751SOL    HW230153   1.867   2.691   0.547
 9752SOL     OW30154   4.524   1.237   6.004
 9752SOL    HW130155   4.544   1.290   6.086
 9752SOL    HW230156   4.436   1.190   6.016
 9753SOL     OW30157   0.242   5.345   5.437
 9753SOL    HW130158   0.171   5.379   5.374
 9753SOL    HW230159   0.213   5.257   5.475
 9754SOL     OW30160   1.076   1.329   6.258
 9754SOL    HW130161   0.987   1.370   6.239
 9754SOL    HW230162   1.083   1.310   6.356
 9755SOL     OW30163   3.700   4.904   5.486
 9755SOL    HW130164   3.723   4.809   5.466
 9755SOL    HW230165   3.682   4.915   5.583
 9756SOL     OW30166   5.934   2.397   6.439
 9756SOL    HW130167   5.890   2.442   6.516
 9756SOL    HW230168   5.916   2.449   6.355
 9757SOL     OW30169   6.190   2.560   3.762
 9757SOL    HW130170   6.163   2.484   3.702
 9757SOL    HW230171   6.250   2.525   3.834
 9758SOL     OW30172   2.969   0.342   6.820
 9758SOL    HW130173   2.885   0.312   6.866
 9758SOL    HW230174   2.973   0.302   6.728
 9759SOL     OW30175   3.318   5.958   0.795
 9759SOL    HW130176   3.319   5.891   0.721
 9759SOL    HW230177   3.280   5.915   0.877
 9760SOL     OW30178   6.050   4.654   5.913
 9760SOL    HW130179   6.061   4.618   5.821
 9760SOL    HW230180   6.132   4.706   5.938
 9761SOL     OW30181   5.533   5.630   1.663
 9761SOL    HW130182   5.441   5.667   1.646
 9761SOL    HW230183   5.526   5.546   1.716
 9762SOL     OW30184   2.458   1.592   5.128
 9762SOL    HW130185   2.465   1.496   5.103
 9762SOL    HW230186   2.427   1.645   5.049
 9763SOL     OW30187   2.522   1.639   0.819
 9763SOL    HW130188   2.576   1.585   0.883
 9763SOL    HW230189   2.437   1.592   0.799
 9764SOL     OW30190   1.126   1.926   2.207
 9764SOL    HW130191   1.049   1.969   2.160
 9764SOL    HW230192   1.208   1.982   2.196
 9765SOL     OW30193   0.324   1.795   5.449
 9765SOL    HW130194   0.361   1.779   5.540
 9765SOL    HW230195   0.335   1.892   5.425
 9766SOL     OW30196   2.702   0.240   2.522
 9766SOL    HW130197   2.656   0.317   2.478
 9766SOL    HW230198   2.672   0.154   2.481
 9767SOL     OW30199   5.175   0.228   4.920
 9767SOL    HW130200   5.083   0.188   4.920
 9767SOL    HW230201   5.228   0.191   4.997
 9768SOL     OW30202   4.501   2.438   2.500
 9768SOL    HW130203   4.473   2.476   2.412
 9768SOL    HW230204   4.580   2.378   2.487
 9769SOL     OW30205   0.722   1.981   1.777
 9769SOL    HW130206   0.646   2.043   1.759
 9769SOL    HW230207   0.774   1.966   1.693
 9770SOL     OW30208   5.606   5.004   6.189
 9770SOL    HW130209   5.587   5.096   6.155
 9770SOL    HW230210   5.704   4.985   6.181
 9771SOL     OW30211   3.788   5.768   6.145
 9771SOL    HW130212   3.882   5.741   6.125
 9771SOL    HW230213   3.734   5.687   6.169
 9772SOL     OW30214   6.380   0.479   1.571
 9772SOL    HW130215   6.291   0.523   1.582
 9772SOL    HW230216   6.380   0.425   1.488
 9773SOL     OW30217   6.199   5.699   3.090
 9773SOL    HW130218   6.169   5.737   3.002
 9773SOL    HW230219   6.236   5.773   3.147
 9774SOL     OW30220   0.145   4.902   3.371
 9774SOL    HW130221   0.047   4.881   3.373
 9774SOL    HW230222   0.198   4.818   3.379
 9775SOL     OW30223   2.440   2.692   4.585
 9775SOL    HW130224   2.497   2.610   4.580
 9775SOL    HW230225   2.403   2.713   4.495
 9776SOL     OW30226   0.532   5.500   4.803
 9776SOL    HW130227   0.560   5.464   4.892
 9776SOL    HW230228   0.594   5.573   4.776
 9777SOL     OW30229   5.402   4.751   6.081
 9777SOL    HW130230   5.483   4.693   6.092
 9777SOL    HW230231   5.396   4.815   6.157
 9778SOL     OW30232   4.428   0.718   2.554
 9778SOL    HW130233   4.376   0.775   2.618
 9778SOL    HW230234   4.365   0.679   2.486
 9779SOL     OW30235   2.679   1.908   5.928
 9779SOL    HW130236   2.619   1.883   5.851
 9779SOL    HW230237   2.630   1.970   5.989
 9780SOL     OW30238   3.506   4.707   0.126
 9780SOL    HW130239   3.431   4.641   0.134
 9780SOL    HW230240   3.531   4.741   0.216
 9781SOL     OW30241   1.929   4.970   4.198
 9781SOL    HW130242   1.925   4.899   4.267
 9781SOL    HW230243   2.023   5.004   4.190
 9782SOL     OW30244   6.638   0.655   1.020
 9782SOL    HW130245   6.665   0.562   0.995
 9782SOL    HW230246   6.717   0.704   1.056
 9783SOL     OW30247   4.866   1.240   2.268
 9783SOL    HW130248   4.792   1.279   2.213
 9783SOL    HW230249   4.952   1.244   2.218
 9784SOL     OW30250   4.883   0.800   3.885
 9784SOL    HW130251   4.846   0.788   3.977
 9784SOL    HW230252   4.866   0.893   3.854
 9785SOL     OW30253   0.473   3.099   1.555
 9785SOL    HW130254   0.490   3.048   1.639
 9785SOL    HW230255   0.443   3.192   1.578
 9786SOL     OW30256   2.705   6.523   5.012
 9786SOL    HW130257   2.687   6.568   4.924
 9786SOL    HW230258   2.802   6.530   5.034
 9787SOL     OW30259   5.343   4.251   2.011
 9787SOL    HW130260   5.322   4.338   1.968
 9787SOL    HW230261   5.441   4.233   2.004
 9788SOL     OW30262   0.384   1.156   5.574
 9788SOL    HW130263   0.334   1.070   5.588
 9788SOL    HW230264   0.379   1.211   5.657
 9789SOL     OW30265   2.233   5.947   4.723
 9789SOL    HW130266   2.178   6.024   4.691
 9789SOL    HW230267   2.224   5.939   4.823
 9790SOL     OW30268   6.367   1.799   4.569
 9790SOL    HW130269   6.388   1.777   4.664
 9790SOL    HW230270   6.412   1.885   4.543
 9791SOL     OW30271   0.806   2.423   1.124
 9791SOL    HW130272   0.823   2.439   1.027
 9791SOL    HW230273   0.869   2.477   1.179
 9792SOL     OW30274   4.361   5.440   2.043
 9792SOL    HW130275   4.422   5.479   1.973
 9792SOL    HW230276   4.305   5.513   2.082
 9793SOL     OW30277   4.556   6.331   2.341
 9793SOL    HW130278   4.601   6.272   2.408
 9793SOL    HW230279   4.473   6.369   2.381
 9794SOL     OW30280   3.576   2.914   6.662
 9794SOL    HW130281   3.486   2.905   6.618
 9794SOL    HW230282   3.563   2.930   6.760
 9795SOL     OW30283   1.928   3.574   4.162
 9795SOL    HW130284   2.008   3.542   4.212
 9795SOL    HW230285   1.853   3.510   4.175
 9796SOL     OW30286   3.545   4.951   6.911
 9796SOL    HW130287   3.514   5.009   6.835
 9796SOL    HW230288   3.644   4.954   6.917
 9797SOL     OW30289   5.049   2.842   5.238
 9797SOL    HW130290   5.029   2.753   5.280
 9797SOL    HW230291   4.993   2.912   5.281
 9798SOL     OW30292   1.693   1.921   1.301
 9798SOL    HW130293   1.611   1.864   1.312
 9798SOL    HW230294   1.682   2.005   1.355
 9799SOL     OW30295   3.044   3.964   2.014
 9799SOL    HW130296   3.027   3.867   2.027
 9799SOL    HW230297   3.018   4.014   2.096
 9800SOL     OW30298   4.336   5.095   6.408
 9800SOL    HW130299   4.387   5.175   6.375
 9800SOL    HW230300   4.365   5.073   6.501
 9801SOL     OW30301   4.563   4.848   6.975
 9801SOL    HW130302   4.571   4.843   0.046
 9801SOL    HW230303   4.466   4.852   6.949
 9802SOL     OW30304   6.945   3.716   1.162
 9802SOL    HW130305   6.922   3.682   1.254
 9802SOL    HW230306   0.016   3.712   1.150
 9803SOL     OW30307   6.152   0.869   6.554
 9803SOL    HW130308   6.208   0.912   6.625
 9803SOL    HW230309   6.064   0.841   6.593
 9804SOL     OW30310   5.303   5.366   4.518
 9804SOL    HW130311   5.376   5.434   4.507
 9804SOL    HW230312   5.283   5.324   4.430
 9805SOL     OW30313   2.758   4.637   0.321
 9805SOL    HW130314   2.772   4.705   0.248
 9805SOL    HW230315   2.689   4.571   0.293
 9806SOL     OW30316   6.828   1.441   2.979
 9806SOL    HW130317   6.801   1.531   2.946
 9806SOL    HW230318   6.890   1.398   2.913
 9807SOL     OW30319   3.604   2.586   0.866
 9807SOL    HW130320   3.620   2.488   0.858
 9807SOL    HW230321   3.687   2.631   0.898
 9808SOL     OW30322   1.103   1.276   4.812
 9808SOL    HW130323   1.064   1.342   4.748
 9808SOL    HW230324   1.147   1.202   4.761
 9809SOL     OW30325   1.310   0.955   4.941
 9809SOL    HW130326   1.211   0.945   4.936
 9809SOL    HW230327   1.332   1.034   4.998
 9810SOL     OW30328   3.694   0.940   3.505
 9810SOL    HW130329   3.752   1.018   3.481
 9810SOL    HW230330   3.738   0.886   3.576
 9811SOL     OW30331   1.267   6.909   2.792
 9811SOL    HW130332   1.182   6.961   2.791
 9811SOL    HW230333   1.262   6.837   2.723
 9812SOL     OW30334   4.964   2.635   5.405
 9812SOL    HW130335   4.880   2.666   5.449
 9812SOL    HW230336   4.990   2.546   5.442
 9813SOL     OW30337   6.610   4.629   0.131
 9813SOL    HW130338   6.566   4.540   0.120
 9813SOL    HW230339   6.642   4.662   0.043
 9814SOL     OW30340   0.011   0.156   5.565
 9814SOL    HW130341   0.049   0.245   5.540
 9814SOL    HW230342   6.941   0.165   5.579
 9815SOL     OW30343   6.547   3.922   2.990
 9815SOL    HW130344   6.610   3.874   3.050
 9815SOL    HW230345   6.542   3.874   2.902
 9816SOL     OW30346   0.013   6.838   6.332
 9816SOL    HW130347   6.992   6.906   6.385
 9816SOL    HW230348   6.997   6.749   6.342
 9817SOL     OW30349   3.028   0.037   6.417
 9817SOL    HW130350   3.069   6.977   6.441
 9817SOL    HW230351   2.952   0.022   6.354
 9818SOL     OW30352   1.004   6.723   3.324
 9818SOL    HW130353   0.996   6.674   3.237
 9818SOL    HW230354   0.998   6.657   3.399
 9819SOL     OW30355   7.025   3.556   4.580
 9819SOL    HW130356   0.015   3.550   4.678
 9819SOL    HW230357   0.082   3.546   4.529
 9820SOL     OW30358   4.177   1.934   5.902
 9820SOL    HW130359   4.114   2.002   5.940
 9820SOL    HW230360   4.159   1.921   5.805
 9821SOL     OW30361   4.031   3.112   1.556
 9821SOL    HW130362   4.045   3.036   1.619
 9821SOL    HW230363   4.010   3.195   1.609
 9822SOL     OW30364   3.634   6.566   5.513
 9822SOL    HW130365   3.595   6.645   5.465
 9822SOL    HW230366   3.642   6.587   5.610
 9823SOL     OW30367   2.485   6.691   3.203
 9823SOL    HW130368   2.549   6.697   3.280
 9823SOL    HW230369   2.499   6.605   3.155
 9824SOL     OW30370   0.929   5.970   5.229
 9824SOL    HW130371   1.003   5.903   5.234
 9824SOL    HW230372   0.939   6.025   5.146
 9825SOL     OW30373   5.921   6.430   4.957
 9825SOL    HW130374   5.938   6.336   4.986
 9825SOL    HW230375   5.903   6.486   5.038
 9826SOL     OW30376   1.965   5.604   5.086
 9826SOL    HW130377   1.962   5.512   5.045
 9826SOL    HW230378   2.024   5.603   5.166
 9827SOL     OW30379   1.383   4.811   1.569
 9827SOL    HW130380   1.477   4.835   1.545
 9827SOL    HW230381   1.356   4.729   1.520
 9828SOL     OW30382   4.535   2.549   4.437
 9828SOL    HW130383   4.575   2.594   4.357
 9828SOL    HW230384   4.468   2.481   4.406
 9829SOL     OW30385   4.470   5.618   5.490
 9829SOL    HW130386   4.389   5.571   5.523
 9829SOL    HW230387   4.505   5.570   5.409
 9830SOL     OW30388   5.873   1.895   3.232
 9830SOL    HW130389   5.910   1.913   3.141
 9830SOL    HW230390   5.798   1.829   3.225
 9831SOL     OW30391   0.565   4.201   2.741
 9831SOL    HW130392   0.602   4.179   2.832
 9831SOL    HW230393   0.631   4.175   2.671
 9832SOL     OW30394   4.665   5.394   4.548
 9832SOL    HW130395   4.659   5.352   4.457
 9832SOL    HW230396   4.652   5.324   4.618
 9833SOL     OW30397   3.867   3.664   3.624
 9833SOL    HW130398   3.931   3.619   3.687
 9833SOL    HW230399   3.773   3.639   3.648
 9834SOL     OW30400   2.588   6.573   5.895
 9834SOL    HW130401   2.533   6.512   5.951
 9834SOL    HW230402   2.681   6.578   5.931
 9835SOL     OW30403   3.893   3.885   3.979
 9835SOL    HW130404   3.851   3.964   3.936
 9835SOL    HW230405   3.927   3.911   4.070
 9836SOL     OW30406   0.235   4.124   6.018
 9836SOL    HW130407   0.305   4.054   6.016
 9836SOL    HW230408   0.145   4.082   6.027
 9837SOL     OW30409   5.485   2.075   3.232
 9837SOL    HW130410   5.508   1.979   3.214
 9837SOL    HW230411   5.454   2.084   3.327
 9838SOL     OW30412   1.984   6.903   1.488
 9838SOL    HW130413   1.920   6.938   1.419
 9838SOL    HW230414   1.939   6.833   1.543
 9839SOL     OW30415   5.029   0.026   3.753
 9839SOL    HW130416   5.104   0.021   3.819
 9839SOL    HW230417   5.059   7.016   3.665
 9840SOL     OW30418   6.323   1.645   6.692
 9840SOL    HW130419   6.235   1.658   6.647
 9840SOL    HW230420   6.309   1.641   6.791
 9841SOL     OW30421   0.200   6.594   2.864
 9841SOL    HW130422   0.140   6.531   2.814
 9841SOL    HW230423   0.152   6.631   2.943
 9842SOL     OW30424   3.343   0.719   6.609
 9842SOL    HW130425   3.258   0.764   6.581
 9842SOL    HW230426   3.322   0.645   6.674
 9843SOL     OW30427   0.382   0.308   1.319
 9843SOL    HW130428   0.318   0.371   1.275
 9843SOL    HW230429   0.351   0.214   1.305
 9844SOL     OW30430   4.627   0.310   4.013
 9844SOL    HW130431   4.537   0.305   3.969
 9844SOL    HW230432   4.698   0.291   3.945
 9845SOL     OW30433   1.851   3.510   2.578
 9845SOL    HW130434   1.763   3.515   2.531
 9845SOL    HW230435   1.925   3.505   2.511
 9846SOL     OW30436   5.882   2.587   1.840
 9846SOL    HW130437   5.951   2.655   1.817
 9846SOL    HW230438   5.869   2.525   1.763
 9847SOL     OW30439   4.091   4.349   6.678
 9847SOL    HW130440   4.069   4.277   6.612
 9847SOL    HW230441   4.013   4.412   6.686
 9848SOL     OW30442   3.256   4.044   5.657
 9848SOL    HW130443   3.345   4.089   5.653
 9848SOL    HW230444   3.224   4.024   5.564
 9849SOL     OW30445   0.684   2.485   4.414
 9849SOL    HW130446   0.604   2.427   4.402
 9849SOL    HW230447   0.744   2.445   4.484
 9850SOL     OW30448   1.820   0.256   4.265
 9850SOL    HW130449   1.821   0.197   4.346
 9850SOL    HW230450   1.791   0.203   4.186
 9851SOL     OW30451   3.920   5.297   4.877
 9851SOL    HW130452   3.921   5.374   4.941
 9851SOL    HW230453   3.873   5.219   4.918
 9852SOL     OW30454   2.085   0.093   0.192
 9852SOL    HW130455   2.142   0.043   0.258
 9852SOL    HW230456   2.107   0.190   0.196
 9853SOL     OW30457   6.999   4.373   3.396
 9853SOL    HW130458   6.913   4.409   3.360
 9853SOL    HW230459   7.011   4.406   3.490
 9854SOL     OW30460   0.884   4.564   5.953
 9854SOL    HW130461   0.938   4.587   6.034
 9854SOL    HW230462   0.832   4.644   5.923
 9855SOL     OW30463   0.905   5.047   1.074
 9855SOL    HW130464   0.943   5.134   1.104
 9855SOL    HW230465   0.978   4.979   1.068
 9856SOL     OW30466   5.654   3.922   3.223
 9856SOL    HW130467   5.629   4.004   3.274
 9856SOL    HW230468   5.624   3.841   3.273
 9857SOL     OW30469   4.404   0.189   5.265
 9857SOL    HW130470   4.434   0.144   5.181
 9857SOL    HW230471   4.444   0.281   5.271
 9858SOL     OW30472   6.725   6.325   1.884
 9858SOL    HW130473   6.808   6.348   1.934
 9858SOL    HW230474   6.646   6.337   1.944
 9859SOL     OW30475   6.978   5.253   3.060
 9859SOL    HW130476   7.002   5.226   3.153
 9859SOL    HW230477   6.957   5.172   3.006
 9860SOL     OW30478   1.352   3.023   4.840
 9860SOL    HW130479   1.399   3.100   4.797
 9860SOL    HW230480   1.368   3.024   4.938
 9861SOL     OW30481   3.619   2.046   2.887
 9861SOL    HW130482   3.642   2.095   2.803
 9861SOL    HW230483   3.567   1.964   2.864
 9862SOL     OW30484   1.052   4.217   0.127
 9862SOL    HW130485   1.134   4.240   0.180
 9862SOL    HW230486   1.003   4.143   0.173
 9863SOL     OW30487   4.121   5.982   1.263
 9863SOL    HW130488   4.214   5.949   1.277
 9863SOL    HW230489   4.119   6.082   1.269
 9864SOL     OW30490   2.375   5.445   5.552
 9864SOL    HW130491   2.387   5.478   5.646
 9864SOL    HW230492   2.290   5.392   5.546
 9865SOL     OW30493   0.889   5.372   6.001
 9865SOL    HW130494   0.959   5.316   6.044
 9865SOL    HW230495   0.925   5.463   5.983
 9866SOL     OW30496   6.968   5.120   5.325
 9866SOL    HW130497   0.002   5.158   5.393
 9866SOL    HW230498   6.875   5.152   5.344
 9867SOL     OW30499   3.934   1.802   2.440
 9867SOL    HW130500   3.966   1.719   2.485
 9867SOL    HW230501   4.005   1.835   2.377
 9868SOL     OW30502   2.328   4.512   3.989
 9868SOL    HW130503   2.323   4.420   3.950
 9868SOL    HW230504   2.335   4.579   3.916
 9869SOL     OW30505   6.337   2.844   0.888
 9869SOL    HW130506   6.361   2.918   0.825
 9869SOL    HW230507   6.376   2.863   0.978
 9870SOL     OW30508   2.283   2.018   2.332
 9870SOL    HW130509   2.187   2.045   2.343
 9870SOL    HW230510   2.340   2.099   2.329
 9871SOL     OW30511   5.869   5.537   3.530
 9871SOL    HW130512   5.785   5.553   3.478
 9871SOL    HW230513   5.947   5.569   3.477
 9872SOL     OW30514   0.422   4.808   5.929
 9872SOL    HW130515   0.486   4.885   5.930
 9872SOL    HW230516   0.354   4.823   5.857
 9873SOL     OW30517   1.346   1.413   5.525
 9873SOL    HW130518   1.329   1.440   5.431
 9873SOL    HW230519   1.317   1.486   5.587
 9874SOL     OW30520   0.146   2.975   5.012
 9874SOL    HW130521   0.154   2.907   5.085
 9874SOL    HW230522   0.055   3.015   5.013
 9875SOL     OW30523   6.423   5.870   1.266
 9875SOL    HW130524   6.451   5.965   1.248
 9875SOL    HW230525   6.503   5.811   1.264
 9876SOL     OW30526   1.154   6.269   3.421
 9876SOL    HW130527   1.158   6.355   3.371
 9876SOL    HW230528   1.093   6.279   3.500
 9877SOL     OW30529   1.005   5.064   5.173
 9877SOL    HW130530   0.912   5.038   5.146
 9877SOL    HW230531   1.015   5.051   5.272
 9878SOL     OW30532   3.347   2.878   6.477
 9878SOL    HW130533   3.361   2.936   6.397
 9878SOL    HW230534   3.290   2.800   6.451
 9879SOL     OW30535   6.941   5.101   5.786
 9879SOL    HW130536   6.940   5.015   5.837
 9879SOL    HW230537   6.848   5.135   5.777
 9880SOL     OW30538   2.359   0.990   1.066
 9880SOL    HW130539   2.335   1.047   1.145
 9880SOL    HW230540   2.450   1.014   1.034
 9881SOL     OW30541   6.283   1.520   3.707
 9881SOL    HW130542   6.234   1.607   3.701
 9881SOL    HW230543   6.332   1.516   3.795
 9882SOL     OW30544   3.474   3.094   5.351
 9882SOL    HW130545   3.558   3.135   5.316
 9882SOL    HW230546   3.439   3.029   5.284
 9883SOL     OW30547   2.128   0.268   2.326
 9883SOL    HW130548   2.206   0.261   2.264
 9883SOL    HW230549   2.147   0.218   2.410
 9884SOL     OW30550   3.057   2.631   5.333
 9884SOL    HW130551   3.120   2.579   5.275
 9884SOL    HW230552   3.080   2.615   5.429
 9885SOL     OW30553   5.100   3.076   5.513
 9885SOL    HW130554   5.024   3.066   5.576
 9885SOL    HW230555   5.066   3.094   5.421
 9886SOL     OW30556   3.593   5.822   1.495
 9886SOL    HW130557   3.515   5.760   1.501
 9886SOL    HW230558   3.577   5.901   1.555
 9887SOL     OW30559   3.029   1.702   6.879
 9887SOL    HW130560   3.037   1.714   6.780
 9887SOL    HW230561   3.076   1.778   6.925
 9888SOL     OW30562   6.542   6.813   3.558
 9888SOL    HW130563   6.640   6.810   3.575
 9888SOL    HW230564   6.514   6.731   3.507
 9889SOL     OW30565   7.001   6.222   3.076
 9889SOL    HW130566   6.969   6.298   3.021
 9889SOL    HW230567   6.926   6.156   3.089
 9890SOL     OW30568   0.871   3.522   1.962
 9890SOL    HW130569   0.845   3.512   1.866
 9890SOL    HW230570   0.911   3.437   1.995
 9891SOL     OW30571   5.485   5.416   1.845
 9891SOL    HW130572   5.521   5.332   1.886
 9891SOL    HW230573   5.391   5.431   1.877
 9892SOL     OW30574   1.379   5.203   3.982
 9892SOL    HW130575   1.376   5.109   3.947
 9892SOL    HW230576   1.427   5.261   3.916
 9893SOL     OW30577   5.437   5.020   4.856
 9893SOL    HW130578   5.416   4.942   4.916
 9893SOL    HW230579   5.524   5.004   4.810
 9894SOL     OW30580   4.741   2.837   5.541
 9894SOL    HW130581   4.700   2.898   5.473
 9894SOL    HW230582   4.816   2.884   5.587
 9895SOL     OW30583   5.605   2.010   6.942
 9895SOL    HW130584   5.684   2.055   6.901
 9895SOL    HW230585   5.529   2.075   6.948
 9896SOL     OW30586   4.646   2.958   6.942
 9896SOL    HW130587   4.567   2.986   6.886
 9896SOL    HW230588   4.657   3.022   7.017
 9897SOL     OW30589   6.942   1.909   3.941
 9897SOL    HW130590   6.878   1.985   3.946
 9897SOL    HW230591   6.914   1.838   4.006
 9898SOL     OW30592   1.102   5.059   5.702
 9898SOL    HW130593   1.003   5.074   5.710
 9898SOL    HW230594   1.133   4.998   5.775
 9899SOL     OW30595   4.857   4.971   2.292
 9899SOL    HW130596   4.901   4.889   2.254
 9899SOL    HW230597   4.922   5.021   2.348
 9900SOL     OW30598   0.947   3.703   3.375
 9900SOL    HW130599   0.948   3.605   3.354
 9900SOL    HW230600   1.031   3.746   3.342
 9901SOL     OW30601   2.471   1.848   5.743
 9901SOL    HW130602   2.544   1.825   5.680
 9901SOL    HW230603   2.392   1.789   5.727
 9902SOL     OW30604   4.623   3.607   0.289
 9902SOL    HW130605   4.543   3.667   0.292
 9902SOL    HW230606   4.638   3.577   0.194
 9903SOL     OW30607   3.902   0.762   0.969
 9903SOL    HW130608   3.994   0.785   1.003
 9903SOL    HW230609   3.834   0.819   1.015
 9904SOL     OW30610   0.193   0.110   1.956
 9904SOL    HW130611   0.223   0.064   2.040
 9904SOL    HW230612   0.130   0.185   1.979
 9905SOL     OW30613   1.850   5.941   6.664
 9905SOL    HW130614   1.757   5.961   6.631
 9905SOL    HW230615   1.905   6.024   6.662
 9906SOL     OW30616   3.810   3.776   5.904
 9906SOL    HW130617   3.813   3.676   5.903
 9906SOL    HW230618   3.903   3.812   5.897
 9907SOL     OW30619   1.610   6.373   2.924
 9907SOL    HW130620   1.710   6.369   2.914
 9907SOL    HW230621   1.569   6.403   2.838
 9908SOL     OW30622   0.932   3.339   4.980
 9908SOL    HW130623   0.838   3.314   4.955
 9908SOL    HW230624   0.933   3.373   5.074
 9909SOL     OW30625   3.489   0.058   2.851
 9909SOL    HW130626   3.522   0.083   2.942
 9909SOL    HW230627   3.392   0.032   2.858
 9910SOL     OW30628   1.035   4.580   1.358
 9910SOL    HW130629   1.047   4.674   1.390
 9910SOL    HW230630   1.039   4.579   1.258
 9911SOL     OW30631   3.838   4.852   3.319
 9911SOL    HW130632   3.786   4.913   3.378
 9911SOL    HW230633   3.781   4.822   3.243
 9912SOL     OW30634   4.350   0.266   1.232
 9912SOL    HW130635   4.326   0.202   1.159
 9912SOL    HW230636   4.338   0.222   1.320
 9913SOL     OW30637   4.265   2.384   2.651
 9913SOL    HW130638   4.248   2.381   2.749
 9913SOL    HW230639   4.363   2.387   2.634
 9914SOL     OW30640   1.848   5.697   5.539
 9914SOL    HW130641   1.812   5.604   5.525
 9914SOL    HW230642   1.888   5.704   5.630
 9915SOL     OW30643   5.565   3.479   4.179
 9915SOL    HW130644   5.619   3.400   4.205
 9915SOL    HW230645   5.603   3.562   4.220
 9916SOL     OW30646   2.507   3.386   0.764
 9916SOL    HW130647   2.547   3.305   0.807
 9916SOL    HW230648   2.414   3.364   0.732
 9917SOL     OW30649   2.000   3.370   5.152
 9917SOL    HW130650   1.994   3.468   5.136
 9917SOL    HW230651   2.085   3.334   5.113
 9918SOL     OW30652   2.287   0.930   4.838
 9918SOL    HW130653   2.337   0.942   4.752
 9918SOL    HW230654   2.190   0.922   4.819
 9919SOL     OW30655   6.964   5.396   2.719
 9919SOL    HW130656   6.999   5.397   2.625
 9919SOL    HW230657   0.012   5.398   2.783
 9920SOL     OW30658   4.243   6.458   2.183
 9920SOL    HW130659   4.292   6.384   2.229
 9920SOL    HW230660   4.146   6.455   2.209
 9921SOL     OW30661   4.767   6.934   3.558
 9921SOL    HW130662   4.731   7.027   3.562
 9921SOL    HW230663   4.723   6.878   3.628
 9922SOL     OW30664   4.868   3.388   1.351
 9922SOL    HW130665   4.837   3.300   1.388
 9922SOL    HW230666   4.803   3.419   1.282
 9923SOL     OW30667   6.379   0.915   6.104
 9923SOL    HW130668   6.310   0.970   6.151
 9923SOL    HW230669   6.416   0.846   6.167
 9924SOL     OW30670   4.893   0.965   2.832
 9924SOL    HW130671   4.821   1.005   2.775
 9924SOL    HW230672   4.940   1.038   2.881
 9925SOL     OW30673   2.966   2.263   4.795
 9925SOL    HW130674   3.030   2.331   4.829
 9925SOL    HW230675   2.965   2.184   4.857
 9926SOL     OW30676   1.565   1.099   0.012
 9926SOL    HW130677   1.610   1.111   6.952
 9926SOL    HW230678   1.487   1.162   0.018
 9927SOL     OW30679   0.720   2.040   2.397
 9927SOL    HW130680   0.799   2.092   2.430
 9927SOL    HW230681   0.657   2.024   2.473
 9928SOL     OW30682   6.871   3.282   2.907
 9928SOL    HW130683   6.946   3.317   2.962
 9928SOL    HW230684   6.827   3.357   2.858
 9929SOL     OW30685   1.713   4.063   5.711
 9929SOL    HW130686   1.738   4.096   5.621
 9929SOL    HW230687   1.641   4.121   5.750
 9930SOL     OW30688   0.649   5.636   0.089
 9930SOL    HW130689   0.633   5.541   0.061
 9930SOL    HW230690   0.575   5.694   0.056
 9931SOL     OW30691   2.780   5.286   6.826
 9931SOL    HW130692   2.842   5.359   6.851
 9931SOL    HW230693   2.832   5.202   6.810
 9932SOL     OW30694   1.873   2.432   0.787
 9932SOL    HW130695   1.806   2.392   0.849
 9932SOL    HW230696   1.908   2.517   0.826
 9933SOL     OW30697   0.936   1.458   2.415
 9933SOL    HW130698   0.843   1.465   2.450
 9933SOL    HW230699   0.963   1.544   2.371
 9934SOL     OW30700   4.628   1.627   6.971
 9934SOL    HW130701   4.721   1.657   6.988
 9934SOL    HW230702   4.628   1.529   6.952
 9935SOL     OW30703   2.704   2.358   0.890
 9935SOL    HW130704   2.785   2.323   0.938
 9935SOL    HW230705   2.622   2.333   0.942
 9936SOL     OW30706   5.933   6.032   6.118
 9936SOL    HW130707   5.846   5.990   6.092
 9936SOL    HW230708   6.007   5.989   6.067
 9937SOL     OW30709   1.384   0.288   3.356
 9937SOL    HW130710   1.390   0.256   3.451
 9937SOL    HW230711   1.452   0.360   3.341
 9938SOL     OW30712   6.894   1.141   3.669
 9938SOL    HW130713   6.980   1.190   3.687
 9938SOL    HW230714   6.833   1.153   3.748
 9939SOL     OW30715   3.160   4.140   1.451
 9939SOL    HW130716   3.067   4.173   1.438
 9939SOL    HW230717   3.203   4.128   1.362
 9940SOL     OW30718   0.428   1.001   3.755
 9940SOL    HW130719   0.342   1.041   3.785
 9940SOL    HW230720   0.437   1.012   3.656
 9941SOL     OW30721   5.514   4.935   0.636
 9941SOL    HW130722   5.584   4.904   0.700
 9941SOL    HW230723   5.440   4.868   0.632
 9942SOL     OW30724   5.653   5.381   3.069
 9942SOL    HW130725   5.621   5.327   2.991
 9942SOL    HW230726   5.745   5.416   3.049
 9943SOL     OW30727   1.411   3.886   6.187
 9943SOL    HW130728   1.461   3.804   6.213
 9943SOL    HW230729   1.313   3.867   6.187
 9944SOL     OW30730   1.056   5.464   6.303
 9944SOL    HW130731   1.027   5.396   6.236
 9944SOL    HW230732   1.016   5.442   6.392
 9945SOL     OW30733   6.409   3.695   6.617
 9945SOL    HW130734   6.485   3.737   6.666
 9945SOL    HW230735   6.444   3.640   6.541
 9946SOL     OW30736   5.002   2.315   1.616
 9946SOL    HW130737   4.973   2.221   1.634
 9946SOL    HW230738   4.974   2.373   1.693
 9947SOL     OW30739   0.353   1.987   3.433
 9947SOL    HW130740   0.329   1.976   3.337
 9947SOL    HW230741   0.400   1.905   3.466
 9948SOL     OW30742   5.764   0.204   4.741
 9948SOL    HW130743   5.760   0.123   4.684
 9948SOL    HW230744   5.857   0.217   4.775
 9949SOL     OW30745   6.564   4.578   2.736
 9949SOL    HW130746   6.636   4.643   2.712
 9949SOL    HW230747   6.483   4.595   2.680
 9950SOL     OW30748   5.026   4.159   5.124
 9950SOL    HW130749   4.930   4.140   5.104
 9950SOL    HW230750   5.052   4.113   5.209
 9951SOL     OW30751   7.020   1.940   3.040
 9951SOL    HW130752   7.016   1.841   3.049
 9951SOL    HW230753   6.943   1.972   2.985
 9952SOL     OW30754   1.297   4.830   2.213
 9952SOL    HW130755   1.376   4.833   2.151
 9952SOL    HW230756   1.213   4.834   2.160
 9953SOL     OW30757   6.065   3.703   4.064
 9953SOL    HW130758   6.049   3.638   4.138
 9953SOL    HW230759   5.986   3.704   4.002
 9954SOL     OW30760   3.526   0.746   0.842
 9954SOL    HW130761   3.451   0.709   0.896
 9954SOL    HW230762   3.567   0.823   0.892
 9955SOL     OW30763   5.836   4.426   1.300
 9955SOL    HW130764   5.935   4.438   1.292
 9955SOL    HW230765   5.814   4.392   1.391
 9956SOL     OW30766   2.178   3.148   3.837
 9956SOL    HW130767   2.194   3.245   3.859
 9956SOL    HW230768   2.173   3.136   3.738
 9957SOL     OW30769   5.497   0.420   0.798
 9957SOL    HW130770   5.545   0.502   0.830
 9957SOL    HW230771   5.405   0.445   0.768
 9958SOL     OW30772   5.594   5.625   0.293
 9958SOL    HW130773   5.562   5.541   0.336
 9958SOL    HW230774   5.694   5.629   0.296
 9959SOL     OW30775   4.955   5.475   0.281
 9959SOL    HW130776   5.007   5.395   0.310
 9959SOL    HW230777   4.858   5.460   0.301
 9960SOL     OW30778   6.800   0.390   0.186
 9960SOL    HW130779   6.895   0.363   0.171
 9960SOL    HW230780   6.779   0.468   0.128
 9961SOL     OW30781   3.346   5.436   0.701
 9961SOL    HW130782   3.417   5.436   0.771
 9961SOL    HW230783   3.308   5.529   0.692
 9962SOL     OW30784   3.369   0.288   1.373
 9962SOL    HW130785   3.414   0.328   1.293
 9962SOL    HW230786   3.432   0.224   1.418
 9963SOL     OW30787   1.039   0.504   5.574
 9963SOL    HW130788   1.104   0.445   5.526
 9963SOL    HW230789   1.077   0.596   5.581
 9964SOL     OW30790   4.359   4.720   6.131
 9964SOL    HW130791   4.406   4.808   6.141
 9964SOL    HW230792   4.274   4.733   6.079
 9965SOL     OW30793   3.251   5.205   3.854
 9965SOL    HW130794   3.165   5.201   3.905
 9965SOL    HW230795   3.231   5.208   3.756
 9966SOL     OW30796   3.290   5.280   2.594
 9966SOL    HW130797   3.256   5.361   2.640
 9966SOL    HW230798   3.225   5.252   2.523
 9967SOL     OW30799   6.778   0.102   3.161
 9967SOL    HW130800   6.739   0.178   3.214
 9967SOL    HW230801   6.852   0.137   3.103
 9968SOL     OW30802   4.375   6.673   0.051
 9968SOL    HW130803   4.365   6.588   0.102
 9968SOL    HW230804   4.397   6.651   6.984
 9969SOL     OW30805   0.637   5.616   4.312
 9969SOL    HW130806   0.727   5.579   4.336
 9969SOL    HW230807   0.637   5.715   4.328
 9970SOL     OW30808   6.609   3.462   1.901
 9970SOL    HW130809   6.612   3.555   1.864
 9970SOL    HW230810   6.620   3.465   2.001
 9971SOL     OW30811   0.263   5.163   4.262
 9971SOL    HW130812   0.358   5.164   4.291
 9971SOL    HW230813   0.252   5.223   4.183
 9972SOL     OW30814   3.402   4.220   5.963
 9972SOL    HW130815   3.378   4.126   5.985
 9972SOL    HW230816   3.434   4.225   5.868
 9973SOL     OW30817   2.356   2.516   3.268
 9973SOL    HW130818   2.366   2.593   3.205
 9973SOL    HW230819   2.436   2.457   3.261
 9974SOL     OW30820   1.186   2.217   3.139
 9974SOL    HW130821   1.136   2.299   3.111
 9974SOL    HW230822   1.278   2.218   3.099
 9975SOL     OW30823   2.443   4.526   6.905
 9975SOL    HW130824   2.480   4.555   6.817
 9975SOL    HW230825   2.467   4.430   6.921
 9976SOL     OW30826   4.002   5.018   5.666
 9976SOL    HW130827   3.909   5.008   5.700
 9976SOL    HW230828   4.015   5.110   5.630
 9977SOL     OW30829   4.587   6.939   5.507
 9977SOL    HW130830   4.537   6.854   5.490
 9977SOL    HW230831   4.580   6.964   5.603
 9978SOL     OW30832   1.096   3.267   6.569
 9978SOL    HW130833   1.061   3.350   6.526
 9978SOL    HW230834   1.142   3.290   6.655
 9979SOL     OW30835   3.496   3.575   5.302
 9979SOL    HW130836   3.455   3.537   5.219
 9979SOL    HW230837   3.544   3.502   5.352
 9980SOL     OW30838   1.987   1.489   1.237
 9980SOL    HW130839   2.031   1.570   1.275
 9980SOL    HW230840   2.001   1.486   1.138
 9981SOL     OW30841   6.302   1.825   0.210
 9981SOL    HW130842   6.221   1.771   0.189
 9981SOL    HW230843   6.319   1.824   0.308
 9982SOL     OW30844   2.009   2.073   4.401
 9982SOL    HW130845   2.064   2.096   4.320
 9982SOL    HW230846   1.914   2.097   4.385
 9983SOL     OW30847   0.908   3.451   2.356
 9983SOL    HW130848   0.953   3.536   2.327
 9983SOL    HW230849   0.845   3.471   2.431
 9984SOL     OW30850   0.238   5.180   1.151
 9984SOL    HW130851   0.198   5.172   1.060
 9984SOL    HW230852   0.320   5.123   1.157
 9985SOL     OW30853   5.033   4.485   0.230
 9985SOL    HW130854   5.093   4.546   0.178
 9985SOL    HW230855   5.060   4.390   0.214
 9986SOL     OW30856   5.729   5.183   0.273
 9986SOL    HW130857   5.769   5.130   0.348
 9986SOL    HW230858   5.722   5.126   0.192
 9987SOL     OW30859   5.983   2.566   1.424
 9987SOL    HW130860   6.041   2.536   1.347
 9987SOL    HW230861   5.889   2.576   1.392
 9988SOL     OW30862   5.684   6.657   3.891
 9988SOL    HW130863   5.612   6.633   3.826
 9988SOL    HW230864   5.646   6.663   3.983
 9989SOL     OW30865   0.050   5.718   2.281
 9989SOL    HW130866   0.114   5.662   2.334
 9989SOL    HW230867   7.022   5.658   2.223
 9990SOL     OW30868   0.092   6.776   3.674
 9990SOL    HW130869   0.067   6.824   3.590
 9990SOL    HW230870   0.066   6.830   3.753
 9991SOL     OW30871   1.867   5.000   3.092
 9991SOL    HW130872   1.907   5.043   3.173
 9991SOL    HW230873   1.936   4.945   3.046
 9992SOL     OW30874   2.397   5.159   0.717
 9992SOL    HW130875   2.439   5.097   0.650
 9992SOL    HW230876   2.393   5.114   0.806
 9993SOL     OW30877   3.965   6.892   4.880
 9993SOL    HW130878   4.047   6.847   4.914
 9993SOL    HW230879   3.884   6.842   4.910
 9994SOL     OW30880   5.902   5.196   4.700
 9994SOL    HW130881   5.921   5.189   4.798
 9994SOL    HW230882   5.810   5.233   4.686
 9995SOL     OW30883   3.572   1.262   5.352
 9995SOL    HW130884   3.660   1.302   5.327
 9995SOL    HW230885   3.560   1.269   5.451
 9996SOL     OW30886   2.919   3.643   0.776
 9996SOL    HW130887   2.870   3.714   0.725
 9996SOL    HW230888   2.922   3.668   0.873
 9997SOL     OW30889   6.228   3.019   3.556
 9997SOL    HW130890   6.279   2.942   3.595
 9997SOL    HW230891   6.255   3.032   3.461
 9998SOL     OW30892   4.969   4.556   2.665
 9998SOL    HW130893   4.985   4.522   2.758
 9998SOL    HW230894   5.055   4.552   2.614
 9999SOL     OW30895   1.060   6.713   3.839
 9999SOL    HW130896   1.061   6.812   3.824
 9999SOL    HW230897   0.965   6.683   3.854
10000SOL     OW30898   4.681   2.442   1.131
10000SOL    HW130899   4.767   2.491   1.121
10000SOL    HW230900   4.635   2.436   1.042
10001SOL     OW30901   3.862   5.950   1.928
10001SOL    HW130902   3.835   5.962   1.832
10001SOL    HW230903   3.826   5.864   1.962
10002SOL     OW30904   2.983   1.154   1.865
10002SOL    HW130905   2.927   1.206   1.800
10002SOL    HW230906   2.928   1.128   1.944
10003SOL     OW30907   1.649   1.072   3.770
10003SOL    HW130908   1.647   1.071   3.870
10003SOL    HW230909   1.668   0.980   3.735
10004SOL     OW30910   6.123   4.286   4.551
10004SOL    HW130911   6.158   4.195   4.572
10004SOL    HW230912   6.200   4.351   4.545
10005SOL     OW30913   2.337   5.377   3.202
10005SOL    HW130914   2.386   5.423   3.276
10005SOL    HW230915   2.316   5.283   3.228
10006SOL     OW30916   5.833   0.423   5.393
10006SOL    HW130917   5.840   0.457   5.487
10006SOL    HW230918   5.900   0.470   5.335
10007SOL     OW30919   1.430   4.995   4.343
10007SOL    HW130920   1.344   5.021   4.385
10007SOL    HW230921   1.501   5.061   4.367
10008SOL     OW30922   3.933   1.474   5.583
10008SOL    HW130923   3.835   1.483   5.603
10008SOL    HW230924   3.954   1.379   5.561
10009SOL     OW30925   1.011   3.681   2.240
10009SOL    HW130926   1.028   3.765   2.291
10009SOL    HW230927   1.098   3.638   2.216
10010SOL     OW30928   2.647   3.878   0.269
10010SOL    HW130929   2.549   3.857   0.271
10010SOL    HW230930   2.690   3.840   0.351
10011SOL     OW30931   1.878   3.311   6.858
10011SOL    HW130932   1.889   3.378   6.931
10011SOL    HW230933   1.862   3.221   6.897
10012SOL     OW30934   5.925   2.591   3.052
10012SOL    HW130935   5.925   2.641   2.965
10012SOL    HW230936   5.939   2.656   3.126
10013SOL     OW30937   0.176   5.973   5.180
10013SOL    HW130938   0.176   6.010   5.273
10013SOL    HW230939   0.249   5.905   5.171
10014SOL     OW30940   1.073   0.608   3.297
10014SOL    HW130941   0.973   0.609   3.290
10014SOL    HW230942   1.113   0.612   3.206
10015SOL     OW30943   4.330   5.350   6.015
10015SOL    HW130944   4.234   5.360   6.043
10015SOL    HW230945   4.339   5.270   5.956
10016SOL     OW30946   2.110   0.225   3.732
10016SOL    HW130947   2.054   0.148   3.702
10016SOL    HW230948   2.195   0.191   3.773
10017SOL     OW30949   2.422   2.262   2.321
10017SOL    HW130950   2.380   2.350   2.300
10017SOL    HW230951   2.516   2.276   2.352
10018SOL     OW30952   6.680   3.310   5.763
10018SOL    HW130953   6.686   3.212   5.783
10018SOL    HW230954   6.595   3.329   5.714
10019SOL     OW30955   0.534   2.062   2.199
10019SOL    HW130956   0.605   2.047   2.267
10019SOL    HW230957   0.458   1.999   2.216
10020SOL     OW30958   6.116   0.941   2.214
10020SOL    HW130959   6.087   1.030   2.248
10020SOL    HW230960   6.036   0.883   2.201
10021SOL     OW30961   1.137   3.253   2.347
10021SOL    HW130962   1.128   3.182   2.416
10021SOL    HW230963   1.053   3.306   2.342
10022SOL     OW30964   2.580   4.924   6.602
10022SOL    HW130965   2.595   4.853   6.534
10022SOL    HW230966   2.530   5.000   6.560
10023SOL     OW30967   0.634   0.487   6.246
10023SOL    HW130968   0.686   0.566   6.275
10023SOL    HW230969   0.663   0.406   6.297
10024SOL     OW30970   1.582   4.950   2.657
10024SOL    HW130971   1.657   4.975   2.597
10024SOL    HW230972   1.609   4.963   2.752
10025SOL     OW30973   1.264   4.488   1.437
10025SOL    HW130974   1.167   4.512   1.433
10025SOL    HW230975   1.296   4.498   1.532
10026SOL     OW30976   5.115   1.831   4.323
10026SOL    HW130977   5.123   1.901   4.251
10026SOL    HW230978   5.190   1.843   4.388
10027SOL     OW30979   2.647   1.732   5.293
10027SOL    HW130980   2.600   1.675   5.226
10027SOL    HW230981   2.695   1.807   5.246
10028SOL     OW30982   4.203   0.440   0.993
10028SOL    HW130983   4.162   0.418   1.082
10028SOL    HW230984   4.132   0.463   0.928
10029SOL     OW30985   0.539   3.985   4.755
10029SOL    HW130986   0.545   3.957   4.660
10029SOL    HW230987   0.620   3.955   4.805
10030SOL     OW30988   2.571   6.975   5.017
10030SOL    HW130989   2.665   6.961   4.986
10030SOL    HW230990   2.511   6.909   4.972
10031SOL     OW30991   2.958   4.856   3.552
10031SOL    HW130992   2.944   4.814   3.462
10031SOL    HW230993   2.962   4.955   3.542
10032SOL     OW30994   3.071   6.361   5.110
10032SOL    HW130995   3.159   6.395   5.078
10032SOL    HW230996   3.057   6.268   5.076
10033SOL     OW30997   3.086   1.352   3.740
10033SOL    HW130998   3.031   1.360   3.657
10033SOL    HW230999   3.027   1.361   3.821
10034SOL     OW31000   2.382   0.837   3.881
10034SOL    HW131001   2.306   0.883   3.927
10034SOL    HW231002   2.453   0.904   3.859
10035SOL     OW31003   6.148   2.591   2.497
10035SOL    HW131004   6.055   2.605   2.464
10035SOL    HW231005   6.164   2.493   2.510
10036SOL     OW31006   0.024   0.712   6.843
10036SOL    HW131007   0.108   0.740   6.889
10036SOL    HW231008   0.044   0.634   6.783
10037SOL     OW31009   6.319   6.969   6.953
10037SOL    HW131010   6.389   6.917   6.905
10037SOL    HW231011   6.230   6.925   6.939
10038SOL     OW31012   4.481   6.484   6.329
10038SOL    HW131013   4.488   6.583   6.315
10038SOL    HW231014   4.573   6.444   6.325
10039SOL     OW31015   6.678   5.797   2.695
10039SOL    HW131016   6.690   5.833   2.603
10039SOL    HW231017   6.750   5.834   2.755
10040SOL     OW31018   3.171   6.443   1.123
10040SOL    HW131019   3.194   6.500   1.044
10040SOL    HW231020   3.109   6.370   1.094
10041SOL     OW31021   7.002   5.020   5.081
10041SOL    HW131022   6.918   4.967   5.074
10041SOL    HW231023   7.008   5.060   5.172
10042SOL     OW31024   0.306   0.419   4.922
10042SOL    HW131025   0.300   0.324   4.953
10042SOL    HW231026   0.402   0.446   4.916
10043SOL     OW31027   0.719   0.508   3.698
10043SOL    HW131028   0.629   0.542   3.729
10043SOL    HW231029   0.781   0.586   3.689
10044SOL     OW31030   2.828   1.618   6.241
10044SOL    HW131031   2.844   1.714   6.215
10044SOL    HW231032   2.742   1.611   6.291
10045SOL     OW31033   3.793   6.754   5.058
10045SOL    HW131034   3.744   6.667   5.050
10045SOL    HW231035   3.857   6.749   5.135
10046SOL     OW31036   0.000   2.697   1.508
10046SOL    HW131037   0.019   2.615   1.454
10046SOL    HW231038   0.085   2.749   1.521
10047SOL     OW31039   0.202   2.228   4.369
10047SOL    HW131040   0.194   2.131   4.393
10047SOL    HW231041   0.111   2.269   4.367
10048SOL     OW31042   4.052   2.065   1.427
10048SOL    HW131043   3.960   2.069   1.466
10048SOL    HW231044   4.076   1.970   1.406
10049SOL     OW31045   1.543   7.008   5.115
10049SOL    HW131046   1.539   6.908   5.111
10049SOL    HW231047   1.474   0.018   5.054
10050SOL     OW31048   5.014   2.728   3.653
10050SOL    HW131049   5.093   2.736   3.713
10050SOL    HW231050   5.029   2.653   3.588
10051SOL     OW31051   5.857   2.796   5.290
10051SOL    HW131052   5.829   2.728   5.222
10051SOL    HW231053   5.934   2.849   5.255
10052SOL     OW31054   0.633   3.165   1.318
10052SOL    HW131055   0.633   3.085   1.258
10052SOL    HW231056   0.586   3.144   1.403
10053SOL     OW31057   2.941   5.693   3.800
10053SOL    HW131058   2.871   5.693   3.871
10053SOL    HW231059   3.017   5.634   3.828
10054SOL     OW31060   3.598   5.686   4.805
10054SOL    HW131061   3.690   5.700   4.768
10054SOL    HW231062   3.531   5.733   4.747
10055SOL     OW31063   5.967   2.661   5.552
10055SOL    HW131064   5.900   2.587   5.548
10055SOL    HW231065   5.963   2.715   5.468
10056SOL     OW31066   6.490   4.954   1.345
10056SOL    HW131067   6.564   4.886   1.352
10056SOL    HW231068   6.435   4.935   1.264
10057SOL     OW31069   3.314   2.133   3.950
10057SOL    HW131070   3.411   2.116   3.932
10057SOL    HW231071   3.302   2.156   4.047
10058SOL     OW31072   0.911   5.349   3.745
10058SOL    HW131073   0.985   5.288   3.717
10058SOL    HW231074   0.907   5.353   3.845
10059SOL     OW31075   5.950   0.565   0.985
10059SOL    HW131076   5.949   0.581   1.084
10059SOL    HW231077   6.039   0.592   0.949
10060SOL     OW31078   2.685   2.796   1.640
10060SOL    HW131079   2.769   2.831   1.680
10060SOL    HW231080   2.662   2.708   1.682
10061SOL     OW31081   6.172   1.525   4.644
10061SOL    HW131082   6.193   1.440   4.595
10061SOL    HW231083   6.257   1.573   4.665
10062SOL     OW31084   6.662   6.535   3.005
10062SOL    HW131085   6.632   6.593   3.080
10062SOL    HW231086   6.606   6.452   3.002
10063SOL     OW31087   1.352   3.057   3.527
10063SOL    HW131088   1.433   3.003   3.552
10063SOL    HW231089   1.273   3.024   3.578
10064SOL     OW31090   5.555   6.615   4.139
10064SOL    HW131091   5.544   6.623   4.238
10064SOL    HW231092   5.479   6.662   4.093
10065SOL     OW31093   1.480   6.465   3.538
10065SOL    HW131094   1.398   6.476   3.482
10065SOL    HW231095   1.504   6.368   3.541
10066SOL     OW31096   0.722   6.821   3.567
10066SOL    HW131097   0.662   6.744   3.590
10066SOL    HW231098   0.771   6.851   3.649
10067SOL     OW31099   3.982   5.011   4.070
10067SOL    HW131100   4.049   5.009   3.997
10067SOL    HW231101   3.965   5.106   4.097
10068SOL     OW31102   5.224   3.644   5.257
10068SOL    HW131103   5.168   3.693   5.191
10068SOL    HW231104   5.180   3.646   5.347
10069SOL     OW31105   2.705   1.456   3.341
10069SOL    HW131106   2.609   1.479   3.328
10069SOL    HW231107   2.761   1.537   3.327
10070SOL     OW31108   0.887   6.669   4.616
10070SOL    HW131109   0.864   6.765   4.632
10070SOL    HW231110   0.959   6.663   4.547
10071SOL     OW31111   5.448   5.784   4.911
10071SOL    HW131112   5.367   5.831   4.944
10071SOL    HW231113   5.438   5.764   4.813
10072SOL     OW31114   1.005   6.762   3.025
10072SOL    HW131115   1.074   6.826   3.060
10072SOL    HW231116   0.933   6.813   2.978
10073SOL     OW31117   6.944   4.825   6.109
10073SOL    HW131118   7.000   4.903   6.137
10073SOL    HW231119   6.955   4.750   6.174
10074SOL     OW31120   2.194   0.413   6.493
10074SOL    HW131121   2.174   0.462   6.408
10074SOL    HW231122   2.291   0.389   6.495
10075SOL     OW31123   0.652   2.617   4.007
10075SOL    HW131124   0.716   2.682   3.967
10075SOL    HW231125   0.576   2.601   3.943
10076SOL     OW31126   5.151   6.894   4.596
10076SOL    HW131127   5.178   6.833   4.670
10076SOL    HW231128   5.113   6.978   4.635
10077SOL     OW31129   4.350   1.804   6.057
10077SOL    HW131130   4.333   1.706   6.046
10077SOL    HW231131   4.279   1.856   6.009
10078SOL     OW31132   5.823   0.083   5.847
10078SOL    HW131133   5.872   0.004   5.884
10078SOL    HW231134   5.787   0.060   5.756
10079SOL     OW31135   0.301   3.312   1.289
10079SOL    HW131136   0.384   3.277   1.331
10079SOL    HW231137   0.317   3.331   1.192
10080SOL     OW31138   1.944   2.795   6.869
10080SOL    HW131139   1.914   2.767   6.960
10080SOL    HW231140   1.888   2.872   6.838
10081SOL     OW31141   0.474   0.557   6.650
10081SOL    HW131142   0.395   0.560   6.589
10081SOL    HW231143   0.552   0.602   6.606
10082SOL     OW31144   5.918   1.873   1.852
10082SOL    HW131145   5.904   1.804   1.781
10082SOL    HW231146   5.976   1.947   1.816
10083SOL     OW31147   5.021   0.623   4.199
10083SOL    HW131148   4.945   0.666   4.149
10083SOL    HW231149   4.984   0.564   4.270
10084SOL     OW31150   2.687   1.213   5.678
10084SOL    HW131151   2.776   1.206   5.722
10084SOL    HW231152   2.663   1.310   5.666
10085SOL     OW31153   0.672   5.949   2.604
10085SOL    HW131154   0.706   6.005   2.680
10085SOL    HW231155   0.749   5.920   2.548
10086SOL     OW31156   6.041   4.208   2.086
10086SOL    HW131157   6.092   4.280   2.134
10086SOL    HW231158   5.997   4.246   2.005
10087SOL     OW31159   1.698   0.666   4.051
10087SOL    HW131160   1.660   0.588   4.101
10087SOL    HW231161   1.637   0.744   4.060
10088SOL     OW31162   0.509   6.953   4.554
10088SOL    HW131163   0.479   7.010   4.477
10088SOL    HW231164   0.501   6.856   4.529
10089SOL     OW31165   1.562   2.721   1.824
10089SOL    HW131166   1.604   2.655   1.886
10089SOL    HW231167   1.625   2.742   1.750
10090SOL     OW31168   1.425   4.279   0.955
10090SOL    HW131169   1.518   4.292   0.919
10090SOL    HW231170   1.412   4.337   1.035
10091SOL     OW31171   0.825   2.752   4.646
10091SOL    HW131172   0.811   2.829   4.708
10091SOL    HW231173   0.921   2.746   4.620
10092SOL     OW31174   1.866   3.906   5.155
10092SOL    HW131175   1.848   3.953   5.068
10092SOL    HW231176   1.780   3.894   5.205
10093SOL     OW31177   6.459   5.503   5.993
10093SOL    HW131178   6.444   5.419   6.045
10093SOL    HW231179   6.436   5.488   5.897
10094SOL     OW31180   1.831   1.770   2.240
10094SOL    HW131181   1.914   1.716   2.252
10094SOL    HW231182   1.758   1.712   2.203
10095SOL     OW31183   0.005   0.817   6.030
10095SOL    HW131184   0.007   0.750   5.957
10095SOL    HW231185   6.947   0.811   6.079
10096SOL     OW31186   0.539   5.668   2.567
10096SOL    HW131187   0.561   5.753   2.616
10096SOL    HW231188   0.471   5.616   2.619
10097SOL     OW31189   1.437   0.720   0.865
10097SOL    HW131190   1.400   0.643   0.917
10097SOL    HW231191   1.382   0.801   0.883
10098SOL     OW31192   2.418   4.925   6.809
10098SOL    HW131193   2.350   4.854   6.790
10098SOL    HW231194   2.479   4.934   6.730
10099SOL     OW31195   6.593   4.490   5.050
10099SOL    HW131196   6.511   4.547   5.059
10099SOL    HW231197   6.636   4.508   4.962
10100SOL     OW31198   5.081   0.671   4.669
10100SOL    HW131199   5.088   0.760   4.714
10100SOL    HW231200   5.059   0.601   4.737
10101SOL     OW31201   0.079   4.742   2.339
10101SOL    HW131202   7.016   4.700   2.343
10101SOL    HW231203   0.116   4.751   2.431
10102SOL     OW31204   3.009   1.577   1.756
10102SOL    HW131205   3.095   1.627   1.755
10102SOL    HW231206   2.970   1.580   1.848
10103SOL     OW31207   2.664   1.600   5.989
10103SOL    HW131208   2.667   1.692   6.029
10103SOL    HW231209   2.634   1.534   6.058
10104SOL     OW31210   1.026   5.388   5.149
10104SOL    HW131211   1.105   5.367   5.092
10104SOL    HW231212   0.996   5.305   5.196
10105SOL     OW31213   1.882   0.428   6.906
10105SOL    HW131214   1.885   0.522   6.938
10105SOL    HW231215   1.967   0.407   6.856
10106SOL     OW31216   5.373   6.160   0.563
10106SOL    HW131217   5.408   6.075   0.603
10106SOL    HW231218   5.449   6.223   0.546
10107SOL     OW31219   5.720   1.667   5.906
10107SOL    HW131220   5.697   1.700   5.815
10107SOL    HW231221   5.644   1.613   5.943
10108SOL     OW31222   6.603   0.023   0.165
10108SOL    HW131223   6.595   6.969   0.108
10108SOL    HW231224   6.617   7.024   0.260
10109SOL     OW31225   4.366   5.348   3.780
10109SOL    HW131226   4.381   5.439   3.819
10109SOL    HW231227   4.280   5.311   3.814
10110SOL     OW31228   3.715   0.554   6.023
10110SOL    HW131229   3.757   0.540   5.933
10110SOL    HW231230   3.672   0.470   6.054
10111SOL     OW31231   0.424   2.887   2.718
10111SOL    HW131232   0.426   2.869   2.817
10111SOL    HW231233   0.355   2.957   2.699
10112SOL     OW31234   4.772   4.351   5.960
10112SOL    HW131235   4.853   4.393   6.003
10112SOL    HW231236   4.706   4.325   6.031
10113SOL     OW31237   3.816   6.939   6.944
10113SOL    HW131238   3.753   6.960   7.019
10113SOL    HW231239   3.875   7.018   6.927
10114SOL     OW31240   5.132   0.983   0.977
10114SOL    HW131241   5.208   1.042   0.951
10114SOL    HW231242   5.048   1.037   0.981
10115SOL     OW31243   1.856   2.369   3.823
10115SOL    HW131244   1.788   2.442   3.832
10115SOL    HW231245   1.885   2.339   3.914
10116SOL     OW31246   0.969   1.149   1.399
10116SOL    HW131247   1.045   1.161   1.462
10116SOL    HW231248   0.940   1.053   1.400
10117SOL     OW31249   5.507   0.374   5.928
10117SOL    HW131250   5.449   0.445   5.969
10117SOL    HW231251   5.544   0.408   5.842
10118SOL     OW31252   6.921   5.561   2.123
10118SOL    HW131253   6.845   5.585   2.062
10118SOL    HW231254   6.885   5.520   2.207
10119SOL     OW31255   2.267   0.607   5.605
10119SOL    HW131256   2.269   0.641   5.699
10119SOL    HW231257   2.233   0.513   5.605
10120SOL     OW31258   6.934   3.133   3.898
10120SOL    HW131259   6.920   3.090   3.809
10120SOL    HW231260   6.957   3.063   3.966
10121SOL     OW31261   6.187   4.621   4.795
10121SOL    HW131262   6.286   4.612   4.805
10121SOL    HW231263   6.161   4.717   4.800
10122SOL     OW31264   5.525   3.574   0.278
10122SOL    HW131265   5.456   3.579   0.350
10122SOL    HW231266   5.568   3.484   0.280
10123SOL     OW31267   6.915   6.097   0.621
10123SOL    HW131268   6.834   6.078   0.566
10123SOL    HW231269   6.938   6.017   0.677
10124SOL     OW31270   3.153   4.132   0.144
10124SOL    HW131271   3.204   4.217   0.149
10124SOL    HW231272   3.080   4.140   0.077
10125SOL     OW31273   1.558   0.335   1.884
10125SOL    HW131274   1.596   0.386   1.960
10125SOL    HW231275   1.497   0.263   1.918
10126SOL     OW31276   6.307   5.031   0.850
10126SOL    HW131277   6.255   4.953   0.885
10126SOL    HW231278   6.261   5.116   0.876
10127SOL     OW31279   3.628   5.622   5.375
10127SOL    HW131280   3.564   5.604   5.449
10127SOL    HW231281   3.608   5.562   5.298
10128SOL     OW31282   0.083   2.188   1.014
10128SOL    HW131283   0.153   2.147   1.071
10128SOL    HW231284   0.110   2.281   0.989
10129SOL     OW31285   6.039   2.527   3.447
10129SOL    HW131286   6.014   2.620   3.473
10129SOL    HW231287   6.135   2.526   3.417
10130SOL     OW31288   6.663   5.958   1.797
10130SOL    HW131289   6.581   6.007   1.828
10130SOL    HW231290   6.731   6.024   1.765
10131SOL     OW31291   0.511   0.947   1.889
10131SOL    HW131292   0.420   0.909   1.875
10131SOL    HW231293   0.506   1.025   1.951
10132SOL     OW31294   2.935   6.452   2.671
10132SOL    HW131295   2.899   6.369   2.713
10132SOL    HW231296   2.993   6.501   2.736
10133SOL     OW31297   4.654   5.930   3.616
10133SOL    HW131298   4.729   5.888   3.668
10133SOL    HW231299   4.651   5.892   3.524
10134SOL     OW31300   0.086   1.716   3.608
10134SOL    HW131301   0.165   1.724   3.548
10134SOL    HW231302   0.088   1.789   3.676
10135SOL     OW31303   3.981   4.891   2.924
10135SOL    HW131304   3.893   4.906   2.969
10135SOL    HW231305   3.973   4.915   2.827
10136SOL     OW31306   6.573   0.403   3.614
10136SOL    HW131307   6.539   0.330   3.673
10136SOL    HW231308   6.673   0.408   3.622
10137SOL     OW31309   6.476   5.414   4.425
10137SOL    HW131310   6.476   5.385   4.329
10137SOL    HW231311   6.423   5.499   4.433
10138SOL     OW31312   5.945   1.778   6.963
10138SOL    HW131313   6.008   1.747   6.892
10138SOL    HW231314   5.937   1.878   6.959
10139SOL     OW31315   3.669   2.873   3.123
10139SOL    HW131316   3.570   2.861   3.122
10139SOL    HW231317   3.705   2.865   3.030
10140SOL     OW31318   6.858   5.060   0.067
10140SOL    HW131319   6.864   5.031   7.000
10140SOL    HW231320   6.920   5.005   0.123
10141SOL     OW31321   1.836   1.313   4.348
10141SOL    HW131322   1.927   1.314   4.390
10141SOL    HW231323   1.779   1.244   4.393
10142SOL     OW31324   4.116   5.815   4.782
10142SOL    HW131325   4.155   5.904   4.807
10142SOL    HW231326   4.186   5.744   4.792
10143SOL     OW31327   4.936   0.187   1.415
10143SOL    HW131328   4.878   0.196   1.334
10143SOL    HW231329   4.879   0.174   1.496
10144SOL     OW31330   3.084   5.831   4.432
10144SOL    HW131331   3.160   5.895   4.441
10144SOL    HW231332   2.998   5.878   4.454
10145SOL     OW31333   2.881   5.909   5.699
10145SOL    HW131334   2.938   5.850   5.755
10145SOL    HW231335   2.794   5.862   5.680
10146SOL     OW31336   4.091   5.338   4.105
10146SOL    HW131337   4.119   5.434   4.119
10146SOL    HW231338   4.167   5.278   4.130
10147SOL     OW31339   4.945   4.428   4.269
10147SOL    HW131340   5.025   4.370   4.254
10147SOL    HW231341   4.863   4.371   4.278
10148SOL     OW31342   5.698   5.746   0.640
10148SOL    HW131343   5.775   5.778   0.694
10148SOL    HW231344   5.728   5.671   0.580
10149SOL     OW31345   4.148   2.299   1.321
10149SOL    HW131346   4.206   2.349   1.384
10149SOL    HW231347   4.102   2.225   1.370
10150SOL     OW31348   4.846   4.323   0.608
10150SOL    HW131349   4.899   4.255   0.557
10150SOL    HW231350   4.828   4.289   0.700
10151SOL     OW31351   1.359   0.042   6.238
10151SOL    HW131352   1.293   0.013   6.307
10151SOL    HW231353   1.452   0.033   6.275
10152SOL     OW31354   0.242   5.216   3.782
10152SOL    HW131355   0.313   5.258   3.726
10152SOL    HW231356   0.237   5.263   3.870
10153SOL     OW31357   4.795   6.200   3.752
10153SOL    HW131358   4.871   6.160   3.701
10153SOL    HW231359   4.827   6.279   3.803
10154SOL     OW31360   6.884   5.490   5.900
10154SOL    HW131361   6.984   5.484   5.905
10154SOL    HW231362   6.847   5.405   5.863
10155SOL     OW31363   3.909   0.919   5.921
10155SOL    HW131364   3.866   0.883   5.839
10155SOL    HW231365   3.873   1.011   5.940
10156SOL     OW31366   5.242   0.236   2.182
10156SOL    HW131367   5.217   0.141   2.168
10156SOL    HW231368   5.231   0.260   2.278
10157SOL     OW31369   5.747   1.153   6.337
10157SOL    HW131370   5.749   1.055   6.360
10157SOL    HW231371   5.840   1.189   6.337
10158SOL     OW31372   4.383   3.482   0.131
10158SOL    HW131373   4.377   3.464   0.229
10158SOL    HW231374   4.407   3.578   0.117
10159SOL     OW31375   2.157   2.190   6.227
10159SOL    HW131376   2.153   2.229   6.319
10159SOL    HW231377   2.085   2.230   6.170
10160SOL     OW31378   0.883   4.896   3.618
10160SOL    HW131379   0.831   4.852   3.691
10160SOL    HW231380   0.962   4.840   3.595
10161SOL     OW31381   3.577   5.356   6.406
10161SOL    HW131382   3.601   5.284   6.341
10161SOL    HW231383   3.494   5.403   6.375
10162SOL     OW31384   2.606   2.731   6.129
10162SOL    HW131385   2.602   2.753   6.226
10162SOL    HW231386   2.523   2.681   6.103
10163SOL     OW31387   6.732   3.988   5.944
10163SOL    HW131388   6.677   3.924   5.890
10163SOL    HW231389   6.699   3.988   6.039
10164SOL     OW31390   6.336   2.925   5.038
10164SOL    HW131391   6.421   2.958   5.078
10164SOL    HW231392   6.344   2.921   4.939
10165SOL     OW31393   0.816   2.321   4.592
10165SOL    HW131394   0.868   2.293   4.511
10165SOL    HW231395   0.870   2.302   4.674
10166SOL     OW31396   2.561   1.728   2.012
10166SOL    HW131397   2.542   1.812   1.961
10166SOL    HW231398   2.644   1.740   2.066
10167SOL     OW31399   4.905   0.758   6.588
10167SOL    HW131400   4.843   0.754   6.509
10167SOL    HW231401   4.920   0.854   6.613
10168SOL     OW31402   6.696   4.098   4.300
10168SOL    HW131403   6.686   4.075   4.397
10168SOL    HW231404   6.770   4.042   4.261
10169SOL     OW31405   6.568   4.781   3.129
10169SOL    HW131406   6.610   4.784   3.220
10169SOL    HW231407   6.604   4.856   3.073
10170SOL     OW31408   1.474   4.042   5.162
10170SOL    HW131409   1.486   4.134   5.125
10170SOL    HW231410   1.435   3.982   5.092
10171SOL     OW31411   6.670   4.300   5.500
10171SOL    HW131412   6.719   4.351   5.429
10171SOL    HW231413   6.736   4.261   5.564
10172SOL     OW31414   4.874   0.372   2.754
10172SOL    HW131415   4.789   0.425   2.744
10172SOL    HW231416   4.950   0.435   2.766
10173SOL     OW31417   1.538   1.646   1.359
10173SOL    HW131418   1.477   1.572   1.388
10173SOL    HW231419   1.622   1.607   1.320
10174SOL     OW31420   6.324   4.675   2.641
10174SOL    HW131421   6.278   4.643   2.558
10174SOL    HW231422   6.266   4.743   2.686
10175SOL     OW31423   6.414   2.332   5.249
10175SOL    HW131424   6.407   2.308   5.346
10175SOL    HW231425   6.463   2.260   5.200
10176SOL     OW31426   1.890   3.600   6.719
10176SOL    HW131427   1.980   3.605   6.763
10176SOL    HW231428   1.834   3.532   6.766
10177SOL     OW31429   2.981   6.430   0.283
10177SOL    HW131430   3.065   6.469   0.243
10177SOL    HW231431   2.957   6.481   0.365
10178SOL     OW31432   6.024   2.461   4.352
10178SOL    HW131433   6.067   2.376   4.323
10178SOL    HW231434   6.009   2.459   4.451
10179SOL     OW31435   1.391   2.583   6.235
10179SOL    HW131436   1.341   2.623   6.312
10179SOL    HW231437   1.378   2.484   6.236
10180SOL     OW31438   2.507   5.746   5.528
10180SOL    HW131439   2.428   5.706   5.481
10180SOL    HW231440   2.543   5.822   5.473
10181SOL     OW31441   6.078   3.080   1.474
10181SOL    HW131442   6.067   3.180   1.476
10181SOL    HW231443   5.988   3.037   1.463
10182SOL     OW31444   5.790   0.716   1.415
10182SOL    HW131445   5.758   0.810   1.408
10182SOL    HW231446   5.717   0.654   1.386
10183SOL     OW31447   1.222   1.782   6.569
10183SOL    HW131448   1.207   1.727   6.486
10183SOL    HW231449   1.171   1.741   6.645
10184SOL     OW31450   4.603   1.474   6.204
10184SOL    HW131451   4.651   1.560   6.223
10184SOL    HW231452   4.517   1.494   6.157
10185SOL     OW31453   4.837   7.016   1.002
10185SOL    HW131454   4.933   6.988   1.006
10185SOL    HW231455   4.780   6.936   0.985
10186SOL     OW31456   4.661   2.746   3.284
10186SOL    HW131457   4.685   2.788   3.372
10186SOL    HW231458   4.687   2.808   3.210
10187SOL     OW31459   0.692   2.215   1.985
10187SOL    HW131460   0.617   2.189   2.047
10187SOL    HW231461   0.654   2.236   1.895
10188SOL     OW31462   4.018   6.490   0.509
10188SOL    HW131463   3.994   6.394   0.520
10188SOL    HW231464   3.983   6.542   0.587
10189SOL     OW31465   2.156   6.499   5.098
10189SOL    HW131466   2.143   6.422   5.036
10189SOL    HW231467   2.253   6.513   5.114
10190SOL     OW31468   4.384   2.636   0.032
10190SOL    HW131469   4.376   2.620   0.130
10190SOL    HW231470   4.300   2.610   7.014
10191SOL     OW31471   5.178   4.563   6.487
10191SOL    HW131472   5.096   4.523   6.528
10191SOL    HW231473   5.169   4.662   6.483
10192SOL     OW31474   3.404   1.019   5.106
10192SOL    HW131475   3.452   0.957   5.169
10192SOL    HW231476   3.382   0.971   5.021
10193SOL     OW31477   4.570   4.083   0.830
10193SOL    HW131478   4.584   3.984   0.831
10193SOL    HW231479   4.504   4.107   0.759
10194SOL     OW31480   5.903   4.337   5.594
10194SOL    HW131481   5.818   4.284   5.596
10194SOL    HW231482   5.961   4.305   5.519
10195SOL     OW31483   6.837   4.849   1.532
10195SOL    HW131484   6.859   4.789   1.608
10195SOL    HW231485   6.914   4.910   1.513
10196SOL     OW31486   6.798   1.344   4.896
10196SOL    HW131487   6.842   1.315   4.981
10196SOL    HW231488   6.849   1.420   4.856
10197SOL     OW31489   6.438   0.577   5.621
10197SOL    HW131490   6.415   0.549   5.714
10197SOL    HW231491   6.532   0.552   5.600
10198SOL     OW31492   3.838   0.271   2.437
10198SOL    HW131493   3.746   0.289   2.402
10198SOL    HW231494   3.883   0.358   2.458
10199SOL     OW31495   1.125   2.803   5.549
10199SOL    HW131496   1.149   2.894   5.516
10199SOL    HW231497   1.153   2.794   5.645
10200SOL     OW31498   5.971   2.930   1.085
10200SOL    HW131499   5.912   3.004   1.117
10200SOL    HW231500   6.058   2.933   1.134
10201SOL     OW31501   1.104   4.310   1.020
10201SOL    HW131502   1.131   4.255   1.100
10201SOL    HW231503   1.096   4.251   0.940
10202SOL     OW31504   4.003   1.175   5.515
10202SOL    HW131505   4.033   1.202   5.423
10202SOL    HW231506   3.924   1.115   5.507
10203SOL     OW31507   5.996   2.745   4.912
10203SOL    HW131508   6.044   2.661   4.937
10203SOL    HW231509   5.898   2.728   4.910
10204SOL     OW31510   5.127   6.954   6.232
10204SOL    HW131511   5.046   6.916   6.189
10204SOL    HW231512   5.197   6.883   6.240
10205SOL     OW31513   1.154   0.661   6.884
10205SOL    HW131514   1.146   0.568   6.921
10205SOL    HW231515   1.185   0.656   6.789
10206SOL     OW31516   1.041   0.799   5.547
10206SOL    HW131517   1.026   0.880   5.605
10206SOL    HW231518   1.126   0.811   5.495
10207SOL     OW31519   1.454   1.564   5.809
10207SOL    HW131520   1.542   1.518   5.822
10207SOL    HW231521   1.384   1.518   5.864
10208SOL     OW31522   6.251   4.883   5.022
10208SOL    HW131523   6.165   4.841   4.993
10208SOL    HW231524   6.257   4.975   4.984
10209SOL     OW31525   6.823   6.882   6.531
10209SOL    HW131526   6.823   6.981   6.515
10209SOL    HW231527   6.735   6.844   6.505
10210SOL     OW31528   4.109   5.914   1.751
10210SOL    HW131529   4.039   5.976   1.789
10210SOL    HW231530   4.070   5.864   1.674
10211SOL     OW31531   4.332   5.968   5.624
10211SOL    HW131532   4.305   6.063   5.613
10211SOL    HW231533   4.301   5.935   5.713
10212SOL     OW31534   0.850   0.148   6.037
10212SOL    HW131535   0.842   0.098   5.951
10212SOL    HW231536   0.895   0.236   6.021
10213SOL     OW31537   5.178   1.968   0.256
10213SOL    HW131538   5.090   1.923   0.270
10213SOL    HW231539   5.198   1.972   0.158
10214SOL     OW31540   0.308   2.976   1.338
10214SOL    HW131541   0.352   3.024   1.414
10214SOL    HW231542   0.223   3.024   1.314
10215SOL     OW31543   3.468   3.369   2.468
10215SOL    HW131544   3.528   3.342   2.393
10215SOL    HW231545   3.518   3.368   2.554
10216SOL     OW31546   6.822   0.171   2.050
10216SOL    HW131547   6.872   0.128   2.124
10216SOL    HW231548   6.845   0.269   2.046
10217SOL     OW31549   3.053   1.212   3.319
10217SOL    HW131550   3.006   1.152   3.254
10217SOL    HW231551   3.063   1.303   3.279
10218SOL     OW31552   1.278   2.637   2.796
10218SOL    HW131553   1.363   2.588   2.816
10218SOL    HW231554   1.262   2.637   2.697
10219SOL     OW31555   0.482   1.049   2.620
10219SOL    HW131556   0.465   1.144   2.592
10219SOL    HW231557   0.574   1.022   2.591
10220SOL     OW31558   3.368   2.655   1.693
10220SOL    HW131559   3.320   2.570   1.675
10220SOL    HW231560   3.462   2.635   1.722
10221SOL     OW31561   1.077   6.006   3.186
10221SOL    HW131562   1.014   6.050   3.250
10221SOL    HW231563   1.171   6.036   3.206
10222SOL     OW31564   3.114   4.059   4.529
10222SOL    HW131565   3.071   4.147   4.548
10222SOL    HW231566   3.140   4.054   4.433
10223SOL     OW31567   0.990   5.477   1.767
10223SOL    HW131568   0.915   5.541   1.781
10223SOL    HW231569   0.972   5.393   1.818
10224SOL     OW31570   5.971   4.017   3.089
10224SOL    HW131571   5.961   3.924   3.126
10224SOL    HW231572   6.066   4.031   3.062
10225SOL     OW31573   2.354   3.511   6.075
10225SOL    HW131574   2.451   3.516   6.101
10225SOL    HW231575   2.346   3.528   5.977
10226SOL     OW31576   4.484   2.872   0.206
10226SOL    HW131577   4.414   2.821   0.257
10226SOL    HW231578   4.520   2.814   0.133
10227SOL     OW31579   5.431   3.734   1.198
10227SOL    HW131580   5.371   3.655   1.194
10227SOL    HW231581   5.443   3.772   1.106
10228SOL     OW31582   5.254   0.618   0.864
10228SOL    HW131583   5.189   0.685   0.901
10228SOL    HW231584   5.291   0.650   0.777
10229SOL     OW31585   0.314   3.739   4.302
10229SOL    HW131586   0.407   3.728   4.265
10229SOL    HW231587   0.299   3.835   4.325
10230SOL     OW31588   6.994   6.378   2.042
10230SOL    HW131589   7.002   6.476   2.026
10230SOL    HW231590   6.998   6.360   2.141
10231SOL     OW31591   1.715   5.531   3.356
10231SOL    HW131592   1.710   5.584   3.271
10231SOL    HW231593   1.657   5.575   3.425
10232SOL     OW31594   4.925   5.846   3.717
10232SOL    HW131595   4.987   5.855   3.639
10232SOL    HW231596   4.971   5.875   3.800
10233SOL     OW31597   4.277   4.379   6.344
10233SOL    HW131598   4.214   4.446   6.382
10233SOL    HW231599   4.232   4.327   6.271
10234SOL     OW31600   6.998   0.675   1.653
10234SOL    HW131601   0.038   0.613   1.615
10234SOL    HW231602   6.923   0.685   1.587
10235SOL     OW31603   1.401   1.049   3.166
10235SOL    HW131604   1.342   0.990   3.221
10235SOL    HW231605   1.416   1.135   3.214
10236SOL     OW31606   2.272   6.757   1.786
10236SOL    HW131607   2.349   6.693   1.786
10236SOL    HW231608   2.298   6.842   1.741
10237SOL     OW31609   0.292   3.450   6.493
10237SOL    HW131610   0.273   3.368   6.547
10237SOL    HW231611   0.310   3.425   6.398
10238SOL     OW31612   3.637   5.980   1.278
10238SOL    HW131613   3.631   5.905   1.344
10238SOL    HW231614   3.732   6.005   1.263
10239SOL     OW31615   1.927   2.856   4.383
10239SOL    HW131616   1.843   2.816   4.420
10239SOL    HW231617   2.004   2.833   4.443
10240SOL     OW31618   3.014   6.221   1.017
10240SOL    HW131619   2.928   6.260   0.982
10240SOL    HW231620   3.064   6.180   0.941
10241SOL     OW31621   3.891   2.229   1.714
10241SOL    HW131622   3.949   2.310   1.704
10241SOL    HW231623   3.808   2.254   1.765
10242SOL     OW31624   0.009   2.607   7.004
10242SOL    HW131625   0.039   2.513   7.024
10242SOL    HW231626   0.037   2.667   0.051
10243SOL     OW31627   2.528   5.378   0.844
10243SOL    HW131628   2.481   5.305   0.793
10243SOL    HW231629   2.467   5.412   0.915
10244SOL     OW31630   2.464   4.109   1.404
10244SOL    HW131631   2.454   4.195   1.353
10244SOL    HW231632   2.527   4.122   1.480
10245SOL     OW31633   4.061   4.271   0.542
10245SOL    HW131634   4.134   4.203   0.552
10245SOL    HW231635   3.979   4.238   0.588
10246SOL     OW31636   3.469   3.505   4.655
10246SOL    HW131637   3.375   3.496   4.621
10246SOL    HW231638   3.533   3.466   4.589
10247SOL     OW31639   0.770   2.686   4.931
10247SOL    HW131640   0.742   2.705   4.837
10247SOL    HW231641   0.870   2.690   4.937
10248SOL     OW31642   1.146   0.002   3.575
10248SOL    HW131643   1.210   6.988   3.511
10248SOL    HW231644   1.064   0.032   3.525
10249SOL     OW31645   2.885   4.864   6.307
10249SOL    HW131646   2.860   4.887   6.213
10249SOL    HW231647   2.867   4.767   6.323
10250SOL     OW31648   4.839   2.125   0.178
10250SOL    HW131649   4.770   2.196   0.173
10250SOL    HW231650   4.864   2.096   0.086
10251SOL     OW31651   2.062   0.183   4.668
10251SOL    HW131652   2.067   0.214   4.762
10251SOL    HW231653   2.111   0.247   4.608
10252SOL     OW31654   5.405   4.240   6.096
10252SOL    HW131655   5.483   4.204   6.045
10252SOL    HW231656   5.384   4.179   6.172
10253SOL     OW31657   3.993   6.861   6.696
10253SOL    HW131658   3.918   6.902   6.643
10253SOL    HW231659   4.032   6.930   6.756
10254SOL     OW31660   5.338   1.054   4.609
10254SOL    HW131661   5.323   1.031   4.513
10254SOL    HW231662   5.435   1.042   4.632
10255SOL     OW31663   3.959   5.378   1.968
10255SOL    HW131664   4.045   5.332   1.988
10255SOL    HW231665   3.883   5.319   1.995
10256SOL     OW31666   4.039   0.915   2.945
10256SOL    HW131667   3.966   0.916   3.014
10256SOL    HW231668   4.081   1.006   2.940
10257SOL     OW31669   3.404   5.147   2.833
10257SOL    HW131670   3.347   5.185   2.760
10257SOL    HW231671   3.480   5.209   2.852
10258SOL     OW31672   1.922   1.484   1.703
10258SOL    HW131673   2.020   1.488   1.723
10258SOL    HW231674   1.901   1.547   1.628
10259SOL     OW31675   0.694   3.717   3.763
10259SOL    HW131676   0.697   3.727   3.663
10259SOL    HW231677   0.632   3.785   3.801
10260SOL     OW31678   1.142   1.129   3.585
10260SOL    HW131679   1.233   1.126   3.627
10260SOL    HW231680   1.148   1.098   3.490
10261SOL     OW31681   6.688   3.439   1.272
10261SOL    HW131682   6.681   3.435   1.173
10261SOL    HW231683   6.718   3.349   1.307
10262SOL     OW31684   3.412   1.441   7.013
10262SOL    HW131685   3.429   1.435   6.915
10262SOL    HW231686   3.399   1.537   0.010
10263SOL     OW31687   6.002   0.636   1.611
10263SOL    HW131688   6.007   0.679   1.701
10263SOL    HW231689   5.936   0.684   1.554
10264SOL     OW31690   6.759   5.220   6.786
10264SOL    HW131691   6.775   5.121   6.788
10264SOL    HW231692   6.804   5.259   6.707
10265SOL     OW31693   1.879   1.739   0.299
10265SOL    HW131694   1.930   1.753   0.384
10265SOL    HW231695   1.939   1.699   0.230
10266SOL     OW31696   2.931   3.533   2.297
10266SOL    HW131697   2.881   3.540   2.383
10266SOL    HW231698   3.021   3.493   2.314
10267SOL     OW31699   5.981   0.931   0.933
10267SOL    HW131700   6.076   0.951   0.957
10267SOL    HW231701   5.966   0.953   0.837
10268SOL     OW31702   4.216   0.673   1.292
10268SOL    HW131703   4.316   0.681   1.299
10268SOL    HW231704   4.189   0.679   1.196
10269SOL     OW31705   2.465   1.877   6.601
10269SOL    HW131706   2.450   1.843   6.694
10269SOL    HW231707   2.439   1.974   6.597
10270SOL     OW31708   3.010   6.398   2.169
10270SOL    HW131709   2.912   6.387   2.149
10270SOL    HW231710   3.040   6.323   2.228
10271SOL     OW31711   1.289   2.045   6.855
10271SOL    HW131712   1.219   2.034   6.925
10271SOL    HW231713   1.260   1.999   6.771
10272SOL     OW31714   6.514   0.189   4.606
10272SOL    HW131715   6.552   0.097   4.617
10272SOL    HW231716   6.416   0.187   4.625
10273SOL     OW31717   2.317   5.078   3.259
10273SOL    HW131718   2.224   5.100   3.230
10273SOL    HW231719   2.315   5.039   3.351
10274SOL     OW31720   0.197   4.966   5.387
10274SOL    HW131721   0.197   5.026   5.307
10274SOL    HW231722   0.203   4.871   5.357
10275SOL     OW31723   0.341   0.501   2.947
10275SOL    HW131724   0.380   0.575   3.002
10275SOL    HW231725   0.304   0.431   3.008
10276SOL     OW31726   3.664   5.850   5.929
10276SOL    HW131727   3.681   5.766   5.876
10276SOL    HW231728   3.710   5.843   6.017
10277SOL     OW31729   0.496   6.695   4.482
10277SOL    HW131730   0.431   6.634   4.436
10277SOL    HW231731   0.586   6.653   4.484
10278SOL     OW31732   0.016   0.556   5.354
10278SOL    HW131733   0.033   0.547   5.256
10278SOL    HW231734   0.091   0.514   5.405
10279SOL     OW31735   1.732   5.831   4.202
10279SOL    HW131736   1.703   5.926   4.215
10279SOL    HW231737   1.795   5.806   4.275
10280SOL     OW31738   5.561   3.956   0.335
10280SOL    HW131739   5.551   3.913   0.424
10280SOL    HW231740   5.658   3.971   0.315
10281SOL     OW31741   6.917   2.298   4.124
10281SOL    HW131742   6.979   2.293   4.046
10281SOL    HW231743   6.950   2.365   4.190
10282SOL     OW31744   5.201   3.823   3.270
10282SOL    HW131745   5.227   3.919   3.274
10282SOL    HW231746   5.263   3.774   3.209
10283SOL     OW31747   0.628   3.684   0.762
10283SOL    HW131748   0.718   3.693   0.806
10283SOL    HW231749   0.583   3.773   0.761
10284SOL     OW31750   0.368   3.003   3.893
10284SOL    HW131751   0.293   2.977   3.833
10284SOL    HW231752   0.357   3.098   3.921
10285SOL     OW31753   5.403   6.149   4.776
10285SOL    HW131754   5.412   6.138   4.875
10285SOL    HW231755   5.490   6.126   4.732
10286SOL     OW31756   2.746   1.379   4.455
10286SOL    HW131757   2.689   1.412   4.530
10286SOL    HW231758   2.701   1.302   4.410
10287SOL     OW31759   2.287   5.634   3.110
10287SOL    HW131760   2.340   5.633   3.025
10287SOL    HW231761   2.314   5.557   3.168
10288SOL     OW31762   3.777   6.979   5.678
10288SOL    HW131763   3.860   7.015   5.636
10288SOL    HW231764   3.701   6.983   5.613
10289SOL     OW31765   2.813   5.847   6.478
10289SOL    HW131766   2.791   5.860   6.574
10289SOL    HW231767   2.846   5.754   6.463
10290SOL     OW31768   3.050   3.197   2.364
10290SOL    HW131769   3.121   3.260   2.395
10290SOL    HW231770   2.992   3.242   2.297
10291SOL     OW31771   2.390   1.412   2.725
10291SOL    HW131772   2.461   1.343   2.709
10291SOL    HW231773   2.317   1.401   2.657
10292SOL     OW31774   6.178   6.458   6.589
10292SOL    HW131775   6.148   6.552   6.602
10292SOL    HW231776   6.271   6.458   6.551
10293SOL     OW31777   0.835   4.200   4.266
10293SOL    HW131778   0.927   4.187   4.302
10293SOL    HW231779   0.807   4.296   4.277
10294SOL     OW31780   3.584   1.623   1.999
10294SOL    HW131781   3.591   1.669   1.910
10294SOL    HW231782   3.537   1.535   1.987
10295SOL     OW31783   0.964   2.204   6.929
10295SOL    HW131784   0.887   2.141   6.938
10295SOL    HW231785   0.997   2.202   6.834
10296SOL     OW31786   5.932   1.373   6.060
10296SOL    HW131787   5.954   1.470   6.051
10296SOL    HW231788   6.016   1.319   6.050
10297SOL     OW31789   2.966   1.611   6.571
10297SOL    HW131790   2.891   1.660   6.527
10297SOL    HW231791   3.016   1.557   6.502
10298SOL     OW31792   0.537   2.328   2.692
10298SOL    HW131793   0.505   2.390   2.764
10298SOL    HW231794   0.605   2.375   2.636
10299SOL     OW31795   4.197   6.185   2.588
10299SOL    HW131796   4.109   6.225   2.617
10299SOL    HW231797   4.243   6.145   2.667
10300SOL     OW31798   0.310   3.304   1.568
10300SOL    HW131799   0.251   3.236   1.609
10300SOL    HW231800   0.276   3.328   1.477
10301SOL     OW31801   3.919   1.251   6.342
10301SOL    HW131802   3.872   1.179   6.392
10301SOL    HW231803   3.988   1.293   6.401
10302SOL     OW31804   2.877   5.952   4.551
10302SOL    HW131805   2.857   5.873   4.609
10302SOL    HW231806   2.799   5.970   4.491
10303SOL     OW31807   0.719   5.980   4.887
10303SOL    HW131808   0.632   6.030   4.891
10303SOL    HW231809   0.795   6.045   4.885
10304SOL     OW31810   6.578   6.776   0.071
10304SOL    HW131811   6.524   6.782   0.155
10304SOL    HW231812   6.540   6.704   0.012
10305SOL     OW31813   2.293   4.068   5.868
10305SOL    HW131814   2.206   4.025   5.842
10305SOL    HW231815   2.324   4.028   5.954
10306SOL     OW31816   5.200   0.196   1.492
10306SOL    HW131817   5.238   0.287   1.473
10306SOL    HW231818   5.107   0.191   1.455
10307SOL     OW31819   2.399   0.338   5.046
10307SOL    HW131820   2.442   0.368   5.131
10307SOL    HW231821   2.342   0.258   5.064
10308SOL     OW31822   2.674   4.729   2.826
10308SOL    HW131823   2.603   4.776   2.773
10308SOL    HW231824   2.650   4.632   2.834
10309SOL     OW31825   6.349   1.002   5.222
10309SOL    HW131826   6.255   1.006   5.257
10309SOL    HW231827   6.382   0.908   5.227
10310SOL     OW31828   2.985   2.910   5.779
10310SOL    HW131829   2.970   3.006   5.753
10310SOL    HW231830   2.992   2.904   5.879
10311SOL     OW31831   5.531   6.301   6.973
10311SOL    HW131832   5.456   6.311   0.009
10311SOL    HW231833   5.542   6.384   6.920
10312SOL     OW31834   4.694   0.063   1.901
10312SOL    HW131835   4.612   0.120   1.894
10312SOL    HW231836   4.679   7.020   1.969
10313SOL     OW31837   4.895   6.478   2.973
10313SOL    HW131838   4.931   6.488   3.065
10313SOL    HW231839   4.850   6.562   2.945
10314SOL     OW31840   0.821   0.147   0.907
10314SOL    HW131841   0.808   0.078   0.978
10314SOL    HW231842   0.907   0.130   0.859
10315SOL     OW31843   5.293   6.419   3.626
10315SOL    HW131844   5.221   6.426   3.557
10315SOL    HW231845   5.335   6.329   3.621
10316SOL     OW31846   0.337   2.595   6.730
10316SOL    HW131847   0.436   2.600   6.717
10316SOL    HW231848   0.307   2.670   6.788
10317SOL     OW31849   3.247   5.979   5.910
10317SOL    HW131850   3.178   5.908   5.897
10317SOL    HW231851   3.297   5.962   5.995
10318SOL     OW31852   6.044   6.409   0.152
10318SOL    HW131853   5.947   6.386   0.160
10318SOL    HW231854   6.062   6.494   0.202
10319SOL     OW31855   6.991   4.622   4.433
10319SOL    HW131856   6.979   4.568   4.517
10319SOL    HW231857   6.921   4.596   4.367
10320SOL     OW31858   0.730   0.138   3.832
10320SOL    HW131859   0.661   0.149   3.760
10320SOL    HW231860   0.789   0.219   3.834
10321SOL     OW31861   5.579   2.342   1.981
10321SOL    HW131862   5.485   2.333   1.948
10321SOL    HW231863   5.581   2.332   2.080
10322SOL     OW31864   4.643   4.399   4.889
10322SOL    HW131865   4.666   4.449   4.806
10322SOL    HW231866   4.555   4.431   4.924
10323SOL     OW31867   0.197   4.437   5.118
10323SOL    HW131868   0.246   4.401   5.039
10323SOL    HW231869   0.196   4.537   5.114
10324SOL     OW31870   3.225   3.393   2.235
10324SOL    HW131871   3.284   3.313   2.225
10324SOL    HW231872   3.261   3.469   2.182
10325SOL     OW31873   0.686   6.078   3.056
10325SOL    HW131874   0.692   5.978   3.051
10325SOL    HW231875   0.683   6.107   3.152
10326SOL     OW31876   5.742   3.509   6.564
10326SOL    HW131877   5.771   3.523   6.659
10326SOL    HW231878   5.797   3.436   6.523
10327SOL     OW31879   2.740   4.008   1.288
10327SOL    HW131880   2.651   4.051   1.298
10327SOL    HW231881   2.749   3.934   1.354
10328SOL     OW31882   6.671   3.002   1.962
10328SOL    HW131883   6.622   3.078   1.918
10328SOL    HW231884   6.735   2.963   1.896
10329SOL     OW31885   3.456   1.741   2.986
10329SOL    HW131886   3.361   1.732   2.956
10329SOL    HW231887   3.502   1.653   2.979
10330SOL     OW31888   4.511   0.370   1.452
10330SOL    HW131889   4.414   0.346   1.445
10330SOL    HW231890   4.524   0.432   1.529
10331SOL     OW31891   6.337   5.680   0.239
10331SOL    HW131892   6.357   5.630   0.154
10331SOL    HW231893   6.275   5.755   0.219
10332SOL     OW31894   1.211   1.167   0.367
10332SOL    HW131895   1.311   1.177   0.374
10332SOL    HW231896   1.189   1.070   0.356
10333SOL     OW31897   1.169   5.689   4.542
10333SOL    HW131898   1.205   5.690   4.449
10333SOL    HW231899   1.186   5.599   4.584
10334SOL     OW31900   3.231   0.147   3.986
10334SOL    HW131901   3.315   0.168   4.037
10334SOL    HW231902   3.176   0.230   3.979
10335SOL     OW31903   0.484   3.429   5.694
10335SOL    HW131904   0.453   3.523   5.686
10335SOL    HW231905   0.524   3.414   5.785
10336SOL     OW31906   5.402   0.295   2.834
10336SOL    HW131907   5.444   0.373   2.788
10336SOL    HW231908   5.473   0.237   2.874
10337SOL     OW31909   6.159   5.252   0.379
10337SOL    HW131910   6.234   5.315   0.399
10337SOL    HW231911   6.149   5.188   0.456
10338SOL     OW31912   1.917   6.641   1.994
10338SOL    HW131913   1.919   6.740   1.986
10338SOL    HW231914   2.002   6.610   2.038
10339SOL     OW31915   6.749   2.318   5.877
10339SOL    HW131916   6.766   2.274   5.965
10339SOL    HW231917   6.671   2.381   5.886
10340SOL     OW31918   2.114   3.711   6.492
10340SOL    HW131919   2.126   3.683   6.396
10340SOL    HW231920   2.018   3.696   6.518
10341SOL     OW31921   2.327   2.547   2.645
10341SOL    HW131922   2.346   2.574   2.550
10341SOL    HW231923   2.344   2.625   2.706
10342SOL     OW31924   1.406   0.606   3.760
10342SOL    HW131925   1.334   0.586   3.826
10342SOL    HW231926   1.376   0.678   3.697
10343SOL     OW31927   2.245   5.656   0.830
10343SOL    HW131928   2.271   5.605   0.912
10343SOL    HW231929   2.282   5.749   0.837
10344SOL     OW31930   4.016   4.775   6.448
10344SOL    HW131931   4.042   4.861   6.403
10344SOL    HW231932   3.951   4.795   6.521
10345SOL     OW31933   1.079   2.974   4.823
10345SOL    HW131934   1.036   3.032   4.754
10345SOL    HW231935   1.178   2.989   4.823
10346SOL     OW31936   0.788   6.102   1.859
10346SOL    HW131937   0.764   6.110   1.955
10346SOL    HW231938   0.737   6.025   1.819
10347SOL     OW31939   4.765   1.599   3.613
10347SOL    HW131940   4.830   1.666   3.576
10347SOL    HW231941   4.781   1.587   3.711
10348SOL     OW31942   6.228   3.881   0.649
10348SOL    HW131943   6.248   3.979   0.641
10348SOL    HW231944   6.299   3.829   0.602
10349SOL     OW31945   0.086   6.431   6.358
10349SOL    HW131946   0.086   6.427   6.458
10349SOL    HW231947   0.056   6.343   6.321
10350SOL     OW31948   3.038   6.881   5.420
10350SOL    HW131949   3.034   6.800   5.479
10350SOL    HW231950   3.087   6.954   5.467
10351SOL     OW31951   4.424   5.090   5.810
10351SOL    HW131952   4.399   5.031   5.733
10351SOL    HW231953   4.511   5.135   5.790
10352SOL     OW31954   3.948   2.440   5.889
10352SOL    HW131955   3.982   2.413   5.979
10352SOL    HW231956   3.934   2.358   5.833
10353SOL     OW31957   6.806   2.632   4.724
10353SOL    HW131958   6.748   2.696   4.775
10353SOL    HW231959   6.890   2.616   4.775
10354SOL     OW31960   5.327   1.363   2.140
10354SOL    HW131961   5.355   1.445   2.089
10354SOL    HW231962   5.249   1.386   2.199
10355SOL     OW31963   2.421   5.890   2.368
10355SOL    HW131964   2.461   5.820   2.309
10355SOL    HW231965   2.357   5.945   2.315
10356SOL     OW31966   0.089   4.065   5.295
10356SOL    HW131967   0.119   4.008   5.218
10356SOL    HW231968   7.026   4.037   5.324
10357SOL     OW31969   2.419   1.769   6.853
10357SOL    HW131970   2.451   1.795   6.944
10357SOL    HW231971   2.410   1.669   6.849
10358SOL     OW31972   0.088   1.907   1.582
10358SOL    HW131973   0.173   1.884   1.629
10358SOL    HW231974   0.025   1.951   1.646
10359SOL     OW31975   0.256   1.198   1.825
10359SOL    HW131976   0.242   1.106   1.860
10359SOL    HW231977   0.173   1.229   1.776
10360SOL     OW31978   5.580   6.145   3.395
10360SOL    HW131979   5.544   6.147   3.489
10360SOL    HW231980   5.679   6.163   3.398
10361SOL     OW31981   2.607   5.191   1.752
10361SOL    HW131982   2.636   5.178   1.847
10361SOL    HW231983   2.546   5.270   1.746
10362SOL     OW31984   1.724   4.332   4.613
10362SOL    HW131985   1.774   4.249   4.587
10362SOL    HW231986   1.680   4.371   4.532
10363SOL     OW31987   5.274   0.962   3.493
10363SOL    HW131988   5.365   0.945   3.531
10363SOL    HW231989   5.211   0.892   3.527
10364SOL     OW31990   2.034   4.787   1.412
10364SOL    HW131991   2.110   4.833   1.367
10364SOL    HW231992   2.049   4.787   1.511
10365SOL     OW31993   4.840   5.604   0.055
10365SOL    HW131994   4.909   5.563   0.114
10365SOL    HW231995   4.752   5.603   0.101
10366SOL     OW31996   3.301   6.455   3.111
10366SOL    HW131997   3.323   6.369   3.156
10366SOL    HW231998   3.204   6.475   3.123
10367SOL     OW31999   6.627   2.686   3.662
10367SOL    HW132000   6.707   2.727   3.618
10367SOL    HW232001   6.562   2.758   3.687
10368SOL     OW32002   2.142   0.860   1.614
10368SOL    HW132003   2.110   0.950   1.643
10368SOL    HW232004   2.216   0.831   1.674
10369SOL     OW32005   3.641   2.529   0.024
10369SOL    HW132006   3.594   2.601   0.076
10369SOL    HW232007   3.702   2.478   0.085
10370SOL     OW32008   3.790   0.835   5.658
10370SOL    HW132009   3.709   0.778   5.643
10370SOL    HW232010   3.873   0.780   5.645
10371SOL     OW32011   4.952   6.555   5.294
10371SOL    HW132012   4.908   6.494   5.228
10371SOL    HW232013   5.044   6.521   5.314
10372SOL     OW32014   1.808   0.860   3.720
10372SOL    HW132015   1.865   0.779   3.732
10372SOL    HW232016   1.828   0.902   3.631
10373SOL     OW32017   0.831   6.053   4.546
10373SOL    HW132018   0.801   6.079   4.638
10373SOL    HW232019   0.812   6.128   4.483
10374SOL     OW32020   2.704   2.273   2.884
10374SOL    HW132021   2.780   2.286   2.948
10374SOL    HW232022   2.669   2.362   2.856
10375SOL     OW32023   5.662   2.260   0.712
10375SOL    HW132024   5.572   2.298   0.735
10375SOL    HW232025   5.678   2.177   0.766
10376SOL     OW32026   0.866   1.106   3.865
10376SOL    HW132027   0.869   1.033   3.797
10376SOL    HW232028   0.771   1.120   3.894
10377SOL     OW32029   1.095   0.284   4.333
10377SOL    HW132030   1.171   0.221   4.344
10377SOL    HW232031   1.075   0.296   4.236
10378SOL     OW32032   0.193   0.020   6.606
10378SOL    HW132033   0.152   0.059   6.524
10378SOL    HW232034   0.176   6.950   6.609
10379SOL     OW32035   5.304   1.524   3.973
10379SOL    HW132036   5.306   1.600   4.039
10379SOL    HW232037   5.277   1.440   4.020
10380SOL     OW32038   5.044   0.402   2.078
10380SOL    HW132039   4.985   0.406   2.159
10380SOL    HW232040   5.127   0.351   2.101
10381SOL     OW32041   4.771   4.916   5.508
10381SOL    HW132042   4.811   4.825   5.498
10381SOL    HW232043   4.732   4.926   5.600
10382SOL     OW32044   2.440   5.215   0.239
10382SOL    HW132045   2.414   5.308   0.266
10382SOL    HW232046   2.512   5.219   0.170
10383SOL     OW32047   0.338   2.403   0.550
10383SOL    HW132048   0.343   2.503   0.548
10383SOL    HW232049   0.428   2.365   0.528
10384SOL     OW32050   6.172   0.152   7.012
10384SOL    HW132051   6.229   0.070   7.009
10384SOL    HW232052   6.076   0.126   7.024
10385SOL     OW32053   5.965   1.515   6.561
10385SOL    HW132054   5.932   1.567   6.640
10385SOL    HW232055   6.010   1.431   6.593
10386SOL     OW32056   6.143   2.606   5.864
10386SOL    HW132057   6.076   2.677   5.846
10386SOL    HW232058   6.223   2.646   5.909
10387SOL     OW32059   1.930   3.011   3.209
10387SOL    HW132060   1.868   3.026   3.286
10387SOL    HW232061   2.023   2.997   3.244
10388SOL     OW32062   1.669   4.773   2.858
10388SOL    HW132063   1.643   4.836   2.931
10388SOL    HW232064   1.662   4.679   2.892
10389SOL     OW32065   0.729   5.059   3.162
10389SOL    HW132066   0.689   4.979   3.206
10389SOL    HW232067   0.677   5.141   3.186
10390SOL     OW32068   1.362   3.277   3.716
10390SOL    HW132069   1.347   3.190   3.762
10390SOL    HW232070   1.395   3.260   3.623
10391SOL     OW32071   2.439   6.625   6.187
10391SOL    HW132072   2.361   6.633   6.125
10391SOL    HW232073   2.440   6.703   6.250
10392SOL     OW32074   6.502   5.360   0.224
10392SOL    HW132075   6.565   5.296   0.179
10392SOL    HW232076   6.454   5.414   0.154
10393SOL     OW32077   1.379   1.195   3.991
10393SOL    HW132078   1.473   1.189   3.958
10393SOL    HW232079   1.325   1.120   3.952
10394SOL     OW32080   1.916   6.581   7.008
10394SOL    HW132081   1.872   6.669   7.023
10394SOL    HW232082   1.851   6.508   0.002
10395SOL     OW32083   0.377   1.299   4.726
10395SOL    HW132084   0.406   1.315   4.821
10395SOL    HW232085   0.279   1.318   4.718
10396SOL     OW32086   0.335   0.240   5.282
10396SOL    HW132087   0.242   0.212   5.303
10396SOL    HW232088   0.399   0.182   5.332
10397SOL     OW32089   3.916   1.551   2.665
10397SOL    HW132090   3.973   1.520   2.741
10397SOL    HW232091   3.826   1.577   2.700
10398SOL     OW32092   6.769   2.466   2.716
10398SOL    HW132093   6.696   2.526   2.748
10398SOL    HW232094   6.819   2.510   2.641
10399SOL     OW32095   5.936   1.692   5.413
10399SOL    HW132096   5.967   1.763   5.350
10399SOL    HW232097   5.911   1.734   5.501
10400SOL     OW32098   2.334   4.701   1.681
10400SOL    HW132099   2.332   4.800   1.696
10400SOL    HW232100   2.354   4.655   1.767
10401SOL     OW32101   0.238   6.359   1.396
10401SOL    HW132102   0.230   6.278   1.454
10401SOL    HW232103   0.154   6.370   1.343
10402SOL     OW32104   0.457   3.237   4.265
10402SOL    HW132105   0.456   3.137   4.254
10402SOL    HW232106   0.502   3.261   4.350
10403SOL     OW32107   5.097   1.192   2.126
10403SOL    HW132108   5.095   1.107   2.178
10403SOL    HW232109   5.191   1.225   2.119
10404SOL     OW32110   0.525   6.353   3.721
10404SOL    HW132111   0.443   6.356   3.778
10404SOL    HW232112   0.561   6.260   3.719
10405SOL     OW32113   1.544   6.475   6.111
10405SOL    HW132114   1.638   6.479   6.145
10405SOL    HW232115   1.542   6.502   6.015
10406SOL     OW32116   2.557   4.886   6.086
10406SOL    HW132117   2.654   4.903   6.071
10406SOL    HW232118   2.531   4.801   6.041
10407SOL     OW32119   1.013   1.245   6.839
10407SOL    HW132120   1.070   1.165   6.859
10407SOL    HW232121   1.053   1.326   6.880
10408SOL     OW32122   4.252   5.045   3.527
10408SOL    HW132123   4.249   5.084   3.435
10408SOL    HW232124   4.187   4.969   3.533
10409SOL     OW32125   6.248   5.074   2.338
10409SOL    HW132126   6.233   5.173   2.326
10409SOL    HW232127   6.173   5.035   2.392
10410SOL     OW32128   5.923   6.944   0.824
10410SOL    HW132129   5.897   6.953   0.920
10410SOL    HW232130   6.005   6.888   0.816
10411SOL     OW32131   2.078   4.384   2.707
10411SOL    HW132132   2.084   4.483   2.719
10411SOL    HW232133   2.158   4.352   2.656
10412SOL     OW32134   0.686   2.246   0.129
10412SOL    HW132135   0.708   2.295   0.045
10412SOL    HW232136   0.596   2.203   0.121
10413SOL     OW32137   0.439   1.960   6.658
10413SOL    HW132138   0.396   2.047   6.636
10413SOL    HW232139   0.373   1.886   6.647
10414SOL     OW32140   5.553   6.853   5.245
10414SOL    HW132141   5.584   6.933   5.195
10414SOL    HW232142   5.630   6.814   5.296
10415SOL     OW32143   0.711   5.387   3.418
10415SOL    HW132144   0.737   5.296   3.452
10415SOL    HW232145   0.776   5.416   3.348
10416SOL     OW32146   5.107   0.516   6.453
10416SOL    HW132147   5.105   0.557   6.362
10416SOL    HW232148   5.014   0.507   6.488
10417SOL     OW32149   3.907   5.177   4.596
10417SOL    HW132150   3.972   5.167   4.520
10417SOL    HW232151   3.844   5.252   4.576
10418SOL     OW32152   6.360   3.871   6.342
10418SOL    HW132153   6.262   3.858   6.326
10418SOL    HW232154   6.397   3.791   6.390
10419SOL     OW32155   2.563   1.536   4.597
10419SOL    HW132156   2.556   1.582   4.685
10419SOL    HW232157   2.475   1.539   4.550
10420SOL     OW32158   5.524   3.736   3.357
10420SOL    HW132159   5.488   3.746   3.450
10420SOL    HW232160   5.470   3.667   3.308
10421SOL     OW32161   0.841   4.600   4.048
10421SOL    HW132162   0.786   4.610   3.965
10421SOL    HW232163   0.858   4.690   4.088
10422SOL     OW32164   6.524   3.811   5.438
10422SOL    HW132165   6.533   3.905   5.469
10422SOL    HW232166   6.455   3.805   5.365
10423SOL     OW32167   2.440   4.841   4.237
10423SOL    HW132168   2.467   4.765   4.178
10423SOL    HW232169   2.347   4.827   4.269
10424SOL     OW32170   3.346   1.089   0.347
10424SOL    HW132171   3.335   1.114   0.443
10424SOL    HW232172   3.268   1.033   0.318
10425SOL     OW32173   1.387   2.628   0.812
10425SOL    HW132174   1.334   2.634   0.727
10425SOL    HW232175   1.459   2.560   0.801
10426SOL     OW32176   6.260   1.994   6.518
10426SOL    HW132177   6.221   1.944   6.440
10426SOL    HW232178   6.207   2.077   6.534
10427SOL     OW32179   5.368   0.743   4.329
10427SOL    HW132180   5.346   0.692   4.412
10427SOL    HW232181   5.294   0.807   4.309
10428SOL     OW32182   2.399   0.416   4.293
10428SOL    HW132183   2.463   0.358   4.244
10428SOL    HW232184   2.444   0.503   4.317
10429SOL     OW32185   1.317   2.768   1.254
10429SOL    HW132186   1.345   2.688   1.201
10429SOL    HW232187   1.299   2.741   1.348
10430SOL     OW32188   3.083   0.171   3.615
10430SOL    HW132189   3.116   0.093   3.562
10430SOL    HW232190   3.054   0.244   3.554
10431SOL     OW32191   4.283   0.143   3.078
10431SOL    HW132192   4.230   0.140   2.993
10431SOL    HW232193   4.235   0.198   3.145
10432SOL     OW32194   0.462   5.598   6.378
10432SOL    HW132195   0.486   5.672   6.316
10432SOL    HW232196   0.424   5.522   6.326
10433SOL     OW32197   2.815   0.037   2.904
10433SOL    HW132198   2.851   0.086   2.825
10433SOL    HW232199   2.721   0.066   2.922
10434SOL     OW32200   5.253   0.947   5.712
10434SOL    HW132201   5.315   1.022   5.692
10434SOL    HW232202   5.306   0.864   5.732
10435SOL     OW32203   2.291   1.972   0.266
10435SOL    HW132204   2.268   1.960   0.169
10435SOL    HW232205   2.219   2.023   0.311
10436SOL     OW32206   6.797   3.633   5.022
10436SOL    HW132207   6.848   3.691   4.958
10436SOL    HW232208   6.860   3.570   5.067
10437SOL     OW32209   5.610   6.638   4.665
10437SOL    HW132210   5.677   6.703   4.699
10437SOL    HW232211   5.606   6.558   4.726
10438SOL     OW32212   6.745   5.675   6.796
10438SOL    HW132213   6.841   5.695   6.778
10438SOL    HW232214   6.727   5.680   6.894
10439SOL     OW32215   6.410   5.787   4.622
10439SOL    HW132216   6.341   5.794   4.695
10439SOL    HW232217   6.496   5.754   4.660
10440SOL     OW32218   6.152   2.643   1.020
10440SOL    HW132219   6.171   2.741   1.022
10440SOL    HW232220   6.124   2.616   0.928
10441SOL     OW32221   4.463   1.770   6.801
10441SOL    HW132222   4.513   1.693   6.840
10441SOL    HW232223   4.525   1.848   6.788
10442SOL     OW32224   2.090   1.584   5.129
10442SOL    HW132225   2.075   1.573   5.031
10442SOL    HW232226   2.030   1.655   5.165
10443SOL     OW32227   0.662   1.621   1.448
10443SOL    HW132228   0.668   1.524   1.427
10443SOL    HW232229   0.718   1.641   1.528
10444SOL     OW32230   4.057   4.915   4.765
10444SOL    HW132231   4.126   4.981   4.734
10444SOL    HW232232   3.967   4.946   4.736
10445SOL     OW32233   0.664   3.460   3.096
10445SOL    HW132234   0.564   3.457   3.106
10445SOL    HW232235   0.706   3.399   3.163
10446SOL     OW32236   2.615   4.464   5.537
10446SOL    HW132237   2.665   4.511   5.610
10446SOL    HW232238   2.678   4.406   5.485
10447SOL     OW32239   0.295   2.343   2.479
10447SOL    HW132240   0.333   2.383   2.563
10447SOL    HW232241   0.361   2.353   2.405
10448SOL     OW32242   2.080   6.493   1.526
10448SOL    HW132243   2.016   6.550   1.577
10448SOL    HW232244   2.038   6.404   1.507
10449SOL     OW32245   3.796   5.085   5.019
10449SOL    HW132246   3.702   5.118   5.017
10449SOL    HW232247   3.816   5.036   4.934
10450SOL     OW32248   6.761   0.575   5.381
10450SOL    HW132249   6.844   0.559   5.328
10450SOL    HW232250   6.684   0.590   5.318
10451SOL     OW32251   3.350   1.220   3.421
10451SOL    HW132252   3.321   1.315   3.415
10451SOL    HW232253   3.271   1.160   3.402
10452SOL     OW32254   6.249   2.656   4.585
10452SOL    HW132255   6.313   2.635   4.511
10452SOL    HW232256   6.270   2.599   4.664
10453SOL     OW32257   4.542   6.246   3.846
10453SOL    HW132258   4.492   6.168   3.807
10453SOL    HW232259   4.635   6.246   3.811
10454SOL     OW32260   6.458   1.417   6.358
10454SOL    HW132261   6.458   1.498   6.417
10454SOL    HW232262   6.516   1.432   6.279
10455SOL     OW32263   0.173   5.416   3.333
10455SOL    HW132264   0.140   5.322   3.319
10455SOL    HW232265   0.160   5.469   3.249
10456SOL     OW32266   1.178   5.241   6.591
10456SOL    HW132267   1.133   5.152   6.587
10456SOL    HW232268   1.113   5.313   6.566
10457SOL     OW32269   3.610   2.467   6.795
10457SOL    HW132270   3.634   2.499   6.887
10457SOL    HW232271   3.693   2.451   6.742
10458SOL     OW32272   0.227   5.961   6.972
10458SOL    HW132273   0.130   5.970   6.996
10458SOL    HW232274   0.235   5.936   6.875
10459SOL     OW32275   6.192   5.293   1.549
10459SOL    HW132276   6.246   5.335   1.476
10459SOL    HW232277   6.101   5.271   1.514
10460SOL     OW32278   0.005   0.746   0.847
10460SOL    HW132279   7.025   0.656   0.805
10460SOL    HW232280   6.956   0.803   0.820
10461SOL     OW32281   0.220   5.130   6.399
10461SOL    HW132282   0.250   5.214   6.355
10461SOL    HW232283   0.205   5.147   6.497
10462SOL     OW32284   4.187   2.252   6.688
10462SOL    HW132285   4.235   2.216   6.768
10462SOL    HW232286   4.115   2.189   6.661
10463SOL     OW32287   4.859   2.013   6.633
10463SOL    HW132288   4.804   2.065   6.566
10463SOL    HW232289   4.956   2.025   6.612
10464SOL     OW32290   6.658   5.004   2.268
10464SOL    HW132291   6.634   5.027   2.174
10464SOL    HW232292   6.582   4.957   2.312
10465SOL     OW32293   5.358   4.238   1.418
10465SOL    HW132294   5.443   4.218   1.467
10465SOL    HW232295   5.299   4.157   1.419
10466SOL     OW32296   6.317   4.374   5.842
10466SOL    HW132297   6.248   4.417   5.783
10466SOL    HW232298   6.404   4.367   5.793
10467SOL     OW32299   0.955   3.335   0.590
10467SOL    HW132300   1.003   3.298   0.510
10467SOL    HW232301   0.968   3.275   0.668
10468SOL     OW32302   1.887   4.457   3.574
10468SOL    HW132303   1.941   4.480   3.655
10468SOL    HW232304   1.924   4.373   3.533
10469SOL     OW32305   0.289   1.374   3.980
10469SOL    HW132306   0.195   1.402   3.996
10469SOL    HW232307   0.292   1.275   3.964
10470SOL     OW32308   2.115   3.313   2.744
10470SOL    HW132309   2.128   3.320   2.645
10470SOL    HW232310   2.095   3.218   2.769
10471SOL     OW32311   2.651   6.630   6.530
10471SOL    HW132312   2.716   6.625   6.606
10471SOL    HW232313   2.567   6.581   6.556
10472SOL     OW32314   4.173   4.969   6.659
10472SOL    HW132315   4.105   5.041   6.671
10472SOL    HW232316   4.129   4.888   6.619
10473SOL     OW32317   5.824   4.636   0.887
10473SOL    HW132318   5.858   4.610   0.796
10473SOL    HW232319   5.797   4.553   0.937
10474SOL     OW32320   5.734   1.071   4.856
10474SOL    HW132321   5.683   0.998   4.902
10474SOL    HW232322   5.808   1.102   4.916
10475SOL     OW32323   1.537   5.649   1.445
10475SOL    HW132324   1.505   5.649   1.540
10475SOL    HW232325   1.605   5.577   1.433
10476SOL     OW32326   4.766   6.361   0.449
10476SOL    HW132327   4.837   6.416   0.493
10476SOL    HW232328   4.804   6.314   0.370
10477SOL     OW32329   6.928   5.739   3.807
10477SOL    HW132330   6.829   5.729   3.792
10477SOL    HW232331   6.977   5.673   3.751
10478SOL     OW32332   0.041   1.057   6.730
10478SOL    HW132333   6.975   1.023   6.724
10478SOL    HW232334   0.058   1.093   6.821
10479SOL     OW32335   0.678   2.697   1.993
10479SOL    HW132336   0.719   2.607   1.978
10479SOL    HW232337   0.609   2.690   2.065
10480SOL     OW32338   2.522   0.090   2.904
10480SOL    HW132339   2.489   0.177   2.867
10480SOL    HW232340   2.460   0.058   2.976
10481SOL     OW32341   6.907   0.768   2.190
10481SOL    HW132342   6.835   0.793   2.125
10481SOL    HW232343   6.946   0.852   2.228
10482SOL     OW32344   5.125   3.248   4.072
10482SOL    HW132345   5.156   3.343   4.069
10482SOL    HW232346   5.178   3.197   4.139
10483SOL     OW32347   6.331   6.342   0.040
10483SOL    HW132348   6.239   6.335   0.078
10483SOL    HW232349   6.394   6.375   0.110
10484SOL     OW32350   6.417   1.148   2.836
10484SOL    HW132351   6.419   1.064   2.783
10484SOL    HW232352   6.498   1.203   2.814
10485SOL     OW32353   5.402   4.098   5.593
10485SOL    HW132354   5.331   4.159   5.628
10485SOL    HW232355   5.439   4.043   5.667
10486SOL     OW32356   5.193   3.098   2.028
10486SOL    HW132357   5.233   3.153   2.100
10486SOL    HW232358   5.227   3.004   2.035
10487SOL     OW32359   5.585   6.523   1.540
10487SOL    HW132360   5.662   6.490   1.486
10487SOL    HW232361   5.504   6.469   1.520
10488SOL     OW32362   2.388   2.422   6.879
10488SOL    HW132363   2.454   2.422   6.954
10488SOL    HW232364   2.366   2.327   6.855
10489SOL     OW32365   1.115   5.596   6.004
10489SOL    HW132366   1.081   5.658   6.075
10489SOL    HW232367   1.168   5.648   5.937
10490SOL     OW32368   0.126   0.395   4.084
10490SOL    HW132369   0.042   0.426   4.128
10490SOL    HW232370   0.192   0.368   4.155
10491SOL     OW32371   0.897   4.299   5.893
10491SOL    HW132372   0.899   4.305   5.794
10491SOL    HW232373   0.893   4.391   5.932
10492SOL     OW32374   4.227   3.767   5.791
10492SOL    HW132375   4.303   3.741   5.732
10492SOL    HW232376   4.194   3.686   5.840
10493SOL     OW32377   3.292   0.746   1.213
10493SOL    HW132378   3.250   0.676   1.270
10493SOL    HW232379   3.319   0.706   1.125
10494SOL     OW32380   5.741   2.266   4.168
10494SOL    HW132381   5.769   2.303   4.079
10494SOL    HW232382   5.778   2.173   4.178
10495SOL     OW32383   1.466   6.656   0.013
10495SOL    HW132384   1.508   6.637   6.953
10495SOL    HW232385   1.481   6.578   0.074
10496SOL     OW32386   6.614   0.221   5.574
10496SOL    HW132387   6.606   0.242   5.476
10496SOL    HW232388   6.522   0.214   5.614
10497SOL     OW32389   1.240   1.168   1.044
10497SOL    HW132390   1.152   1.122   1.051
10497SOL    HW232391   1.290   1.159   1.131
10498SOL     OW32392   2.833   5.574   6.053
10498SOL    HW132393   2.808   5.478   6.050
10498SOL    HW232394   2.925   5.583   6.091
10499SOL     OW32395   3.450   5.553   3.537
10499SOL    HW132396   3.534   5.545   3.483
10499SOL    HW232397   3.471   5.595   3.625
10500SOL     OW32398   1.384   2.032   6.288
10500SOL    HW132399   1.286   2.034   6.305
10500SOL    HW232400   1.409   1.947   6.241
10501SOL     OW32401   1.667   3.255   3.041
10501SOL    HW132402   1.636   3.164   3.013
10501SOL    HW232403   1.589   3.311   3.068
10502SOL     OW32404   3.110   6.354   6.550
10502SOL    HW132405   3.081   6.437   6.597
10502SOL    HW232406   3.192   6.317   6.594
10503SOL     OW32407   2.526   3.249   6.318
10503SOL    HW132408   2.503   3.153   6.336
10503SOL    HW232409   2.624   3.257   6.302
10504SOL     OW32410   2.825   3.341   0.560
10504SOL    HW132411   2.744   3.390   0.526
10504SOL    HW232412   2.842   3.368   0.655
10505SOL     OW32413   7.009   6.342   1.288
10505SOL    HW132414   6.974   6.390   1.368
10505SOL    HW232415   6.973   6.385   1.205
10506SOL     OW32416   0.934   4.344   5.620
10506SOL    HW132417   1.005   4.277   5.600
10506SOL    HW232418   0.882   4.363   5.537
10507SOL     OW32419   1.017   0.342   5.187
10507SOL    HW132420   1.017   0.438   5.216
10507SOL    HW232421   0.950   0.330   5.114
10508SOL     OW32422   5.056   4.467   2.926
10508SOL    HW132423   5.153   4.482   2.906
10508SOL    HW232424   5.017   4.549   2.968
10509SOL     OW32425   1.948   0.168   5.816
10509SOL    HW132426   1.872   0.180   5.879
10509SOL    HW232427   1.987   0.257   5.792
10510SOL     OW32428   6.615   5.803   0.018
10510SOL    HW132429   6.557   5.794   6.965
10510SOL    HW232430   6.585   5.881   0.072
10511SOL     OW32431   5.463   2.744   6.978
10511SOL    HW132432   5.510   2.707   0.029
10511SOL    HW232433   5.445   2.671   6.913
10512SOL     OW32434   3.342   6.640   6.664
10512SOL    HW132435   3.342   6.540   6.662
10512SOL    HW232436   3.436   6.674   6.667
10513SOL     OW32437   6.614   2.160   0.315
10513SOL    HW132438   6.596   2.130   0.408
10513SOL    HW232439   6.625   2.080   0.255
10514SOL     OW32440   0.197   4.421   1.578
10514SOL    HW132441   0.267   4.390   1.644
10514SOL    HW232442   0.143   4.494   1.619
10515SOL     OW32443   6.358   2.172   4.704
10515SOL    HW132444   6.421   2.223   4.763
10515SOL    HW232445   6.366   2.206   4.611
10516SOL     OW32446   4.160   0.600   6.340
10516SOL    HW132447   4.104   0.559   6.267
10516SOL    HW232448   4.245   0.635   6.301
10517SOL     OW32449   0.356   1.711   3.099
10517SOL    HW132450   0.438   1.746   3.054
10517SOL    HW232451   0.291   1.678   3.030
10518SOL     OW32452   0.971   6.736   1.134
10518SOL    HW132453   0.982   6.796   1.213
10518SOL    HW232454   0.885   6.686   1.143
10519SOL     OW32455   2.681   3.528   5.296
10519SOL    HW132456   2.751   3.499   5.231
10519SOL    HW232457   2.666   3.626   5.286
10520SOL     OW32458   4.106   2.884   6.241
10520SOL    HW132459   4.041   2.841   6.178
10520SOL    HW232460   4.197   2.888   6.199
10521SOL     OW32461   6.613   5.751   1.591
10521SOL    HW132462   6.550   5.679   1.620
10521SOL    HW232463   6.631   5.813   1.668
10522SOL     OW32464   5.903   0.484   2.170
10522SOL    HW132465   5.984   0.435   2.203
10522SOL    HW232466   5.822   0.450   2.218
10523SOL     OW32467   0.127   5.666   6.898
10523SOL    HW132468   0.223   5.639   6.904
10523SOL    HW232469   0.081   5.646   6.985
10524SOL     OW32470   3.133   0.764   4.114
10524SOL    HW132471   3.174   0.820   4.042
10524SOL    HW232472   3.205   0.720   4.167
10525SOL     OW32473   2.834   6.196   4.693
10525SOL    HW132474   2.808   6.269   4.629
10525SOL    HW232475   2.876   6.121   4.643
10526SOL     OW32476   5.613   6.551   2.614
10526SOL    HW132477   5.543   6.512   2.674
10526SOL    HW232478   5.704   6.527   2.649
10527SOL     OW32479   1.249   2.626   4.824
10527SOL    HW132480   1.324   2.601   4.886
10527SOL    HW232481   1.276   2.707   4.771
10528SOL     OW32482   6.488   4.841   4.882
10528SOL    HW132483   6.411   4.851   4.945
10528SOL    HW232484   6.483   4.752   4.836
10529SOL     OW32485   6.353   6.568   3.822
10529SOL    HW132486   6.421   6.638   3.844
10529SOL    HW232487   6.285   6.564   3.896
10530SOL     OW32488   1.856   1.621   6.046
10530SOL    HW132489   1.832   1.714   6.018
10530SOL    HW232490   1.956   1.614   6.056
10531SOL     OW32491   1.927   2.644   5.320
10531SOL    HW132492   2.002   2.709   5.305
10531SOL    HW232493   1.965   2.553   5.336
10532SOL     OW32494   3.417   2.561   5.715
10532SOL    HW132495   3.382   2.595   5.628
10532SOL    HW232496   3.353   2.583   5.789
10533SOL     OW32497   2.631   1.405   6.195
10533SOL    HW132498   2.592   1.388   6.286
10533SOL    HW232499   2.729   1.421   6.203
10534SOL     OW32500   6.148   5.494   1.170
10534SOL    HW132501   6.150   5.580   1.220
10534SOL    HW232502   6.109   5.510   1.079
10535SOL     OW32503   7.001   1.021   2.228
10535SOL    HW132504   6.957   1.104   2.193
10535SOL    HW232505   0.019   1.041   2.314
10536SOL     OW32506   4.554   0.220   2.981
10536SOL    HW132507   4.621   0.216   3.055
10536SOL    HW232508   4.465   0.192   3.016
10537SOL     OW32509   0.788   4.797   1.532
10537SOL    HW132510   0.869   4.853   1.512
10537SOL    HW232511   0.805   4.742   1.614
10538SOL     OW32512   5.254   3.680   0.092
10538SOL    HW132513   5.256   3.621   0.011
10538SOL    HW232514   5.316   3.758   0.079
10539SOL     OW32515   0.337   3.047   5.788
10539SOL    HW132516   0.399   3.017   5.861
10539SOL    HW232517   0.390   3.064   5.705
10540SOL     OW32518   2.595   0.713   6.849
10540SOL    HW132519   2.590   0.811   6.830
10540SOL    HW232520   2.637   0.700   6.939
10541SOL     OW32521   3.540   2.401   0.326
10541SOL    HW132522   3.527   2.481   0.384
10541SOL    HW232523   3.464   2.395   0.260
10542SOL     OW32524   0.711   2.587   0.243
10542SOL    HW132525   0.666   2.661   0.293
10542SOL    HW232526   0.688   2.499   0.285
10543SOL     OW32527   2.011   1.137   5.722
10543SOL    HW132528   1.939   1.171   5.782
10543SOL    HW232529   1.989   1.160   5.627
10544SOL     OW32530   0.816   2.454   2.011
10544SOL    HW132531   0.752   2.378   2.006
10544SOL    HW232532   0.882   2.438   2.084
10545SOL     OW32533   5.699   6.939   2.451
10545SOL    HW132534   5.718   6.920   2.548
10545SOL    HW232535   5.779   6.916   2.396
10546SOL     OW32536   2.897   1.016   4.015
10546SOL    HW132537   2.913   1.113   4.036
10546SOL    HW232538   2.982   0.965   4.028
10547SOL     OW32539   4.083   1.414   1.011
10547SOL    HW132540   4.013   1.368   1.066
10547SOL    HW232541   4.148   1.460   1.072
10548SOL     OW32542   4.907   4.059   4.777
10548SOL    HW132543   4.852   4.076   4.858
10548SOL    HW232544   4.927   3.962   4.770
10549SOL     OW32545   1.276   0.802   1.937
10549SOL    HW132546   1.287   0.712   1.979
10549SOL    HW232547   1.181   0.832   1.948
10550SOL     OW32548   4.908   0.194   4.445
10550SOL    HW132549   4.913   0.132   4.367
10550SOL    HW232550   4.920   0.288   4.414
10551SOL     OW32551   1.242   2.788   5.815
10551SOL    HW132552   1.315   2.745   5.763
10551SOL    HW232553   1.277   2.868   5.862
10552SOL     OW32554   3.088   2.297   5.371
10552SOL    HW132555   3.006   2.293   5.313
10552SOL    HW232556   3.148   2.370   5.338
10553SOL     OW32557   3.041   4.586   6.868
10553SOL    HW132558   2.996   4.522   6.929
10553SOL    HW232559   3.131   4.551   6.842
10554SOL     OW32560   6.628   4.369   6.146
10554SOL    HW132561   6.635   4.307   6.068
10554SOL    HW232562   6.552   4.433   6.130
10555SOL     OW32563   3.106   2.072   1.263
10555SOL    HW132564   3.128   2.105   1.355
10555SOL    HW232565   3.038   1.999   1.268
10556SOL     OW32566   2.164   3.059   4.592
10556SOL    HW132567   2.067   3.062   4.616
10556SOL    HW232568   2.211   2.993   4.651
10557SOL     OW32569   6.333   2.784   3.683
10557SOL    HW132570   6.342   2.834   3.769
10557SOL    HW232571   6.259   2.717   3.691
10558SOL     OW32572   5.136   6.189   5.200
10558SOL    HW132573   5.088   6.227   5.278
10558SOL    HW232574   5.117   6.245   5.118
10559SOL     OW32575   4.261   2.265   0.238
10559SOL    HW132576   4.312   2.324   0.301
10559SOL    HW232577   4.316   2.185   0.216
10560SOL     OW32578   0.436   2.971   4.256
10560SOL    HW132579   0.345   2.983   4.216
10560SOL    HW232580   0.428   2.966   4.356
10561SOL     OW32581   2.516   4.054   6.937
10561SOL    HW132582   2.576   4.051   6.857
10561SOL    HW232583   2.570   4.042   7.020
10562SOL     OW32584   3.530   0.891   0.211
10562SOL    HW132585   3.442   0.903   0.257
10562SOL    HW232586   3.604   0.915   0.273
10563SOL     OW32587   1.597   1.633   4.552
10563SOL    HW132588   1.645   1.683   4.624
10563SOL    HW232589   1.572   1.542   4.586
10564SOL     OW32590   6.322   1.934   1.957
10564SOL    HW132591   6.258   1.997   1.913
10564SOL    HW232592   6.298   1.923   2.053
10565SOL     OW32593   5.491   1.853   4.855
10565SOL    HW132594   5.406   1.814   4.891
10565SOL    HW232595   5.550   1.779   4.822
10566SOL     OW32596   4.187   4.583   6.561
10566SOL    HW132597   4.103   4.628   6.530
10566SOL    HW232598   4.164   4.495   6.603
10567SOL     OW32599   1.757   4.916   3.993
10567SOL    HW132600   1.696   4.838   4.007
10567SOL    HW232601   1.804   4.937   4.078
10568SOL     OW32602   4.113   1.151   3.261
10568SOL    HW132603   4.199   1.156   3.312
10568SOL    HW232604   4.036   1.163   3.324
10569SOL     OW32605   5.941   3.104   4.289
10569SOL    HW132606   5.852   3.143   4.267
10569SOL    HW232607   6.012   3.173   4.275
10570SOL     OW32608   1.635   4.681   2.540
10570SOL    HW132609   1.689   4.761   2.514
10570SOL    HW232610   1.677   4.599   2.502
10571SOL     OW32611   6.062   6.834   3.904
10571SOL    HW132612   6.135   6.879   3.853
10571SOL    HW232613   5.976   6.880   3.887
10572SOL     OW32614   6.375   3.636   2.033
10572SOL    HW132615   6.334   3.564   2.090
10572SOL    HW232616   6.470   3.613   2.014
10573SOL     OW32617   5.939   4.909   5.643
10573SOL    HW132618   5.890   4.907   5.730
10573SOL    HW232619   5.881   4.953   5.574
10574SOL     OW32620   0.540   1.957   3.188
10574SOL    HW132621   0.443   1.967   3.164
10574SOL    HW232622   0.572   2.038   3.236
10575SOL     OW32623   0.874   6.910   5.462
10575SOL    HW132624   0.849   7.005   5.441
10575SOL    HW232625   0.969   6.906   5.493
10576SOL     OW32626   1.637   5.142   3.590
10576SOL    HW132627   1.637   5.170   3.494
10576SOL    HW232628   1.715   5.184   3.637
10577SOL     OW32629   1.193   1.919   5.305
10577SOL    HW132630   1.098   1.921   5.276
10577SOL    HW232631   1.217   2.005   5.350
10578SOL     OW32632   6.421   0.857   5.842
10578SOL    HW132633   6.392   0.885   5.933
10578SOL    HW232634   6.483   0.926   5.804
10579SOL     OW32635   4.306   1.753   0.355
10579SOL    HW132636   4.289   1.850   0.370
10579SOL    HW232637   4.381   1.742   0.289
10580SOL     OW32638   6.443   6.075   0.031
10580SOL    HW132639   6.446   6.051   6.963
10580SOL    HW232640   6.392   6.160   0.044
10581SOL     OW32641   5.312   1.219   3.454
10581SOL    HW132642   5.349   1.256   3.539
10581SOL    HW232643   5.303   1.120   3.461
10582SOL     OW32644   3.921   4.729   6.868
10582SOL    HW132645   3.909   4.814   6.921
10582SOL    HW232646   3.860   4.659   6.905
10583SOL     OW32647   4.463   1.727   0.703
10583SOL    HW132648   4.529   1.785   0.655
10583SOL    HW232649   4.371   1.747   0.670
10584SOL     OW32650   5.853   0.232   1.764
10584SOL    HW132651   5.764   0.270   1.791
10584SOL    HW232652   5.905   0.300   1.713
10585SOL     OW32653   1.314   3.746   6.480
10585SOL    HW132654   1.403   3.776   6.515
10585SOL    HW232655   1.246   3.754   6.553
10586SOL     OW32656   3.776   0.655   6.696
10586SOL    HW132657   3.768   0.713   6.776
10586SOL    HW232658   3.844   0.693   6.633
10587SOL     OW32659   6.429   4.183   1.120
10587SOL    HW132660   6.424   4.103   1.059
10587SOL    HW232661   6.510   4.175   1.178
10588SOL     OW32662   6.722   5.358   2.621
10588SOL    HW132663   6.817   5.365   2.650
10588SOL    HW232664   6.661   5.379   2.697
10589SOL     OW32665   6.139   1.749   3.892
10589SOL    HW132666   6.162   1.841   3.922
10589SOL    HW232667   6.186   1.682   3.949
10590SOL     OW32668   1.170   0.644   3.946
10590SOL    HW132669   1.118   0.722   3.980
10590SOL    HW232670   1.107   0.567   3.931
10591SOL     OW32671   1.315   2.904   0.886
10591SOL    HW132672   1.346   2.810   0.899
10591SOL    HW232673   1.261   2.933   0.965
10592SOL     OW32674   6.639   1.441   0.038
10592SOL    HW132675   6.728   1.398   0.054
10592SOL    HW232676   6.599   1.404   6.983
10593SOL     OW32677   1.848   5.115   0.967
10593SOL    HW132678   1.773   5.059   0.933
10593SOL    HW232679   1.816   5.208   0.982
10594SOL     OW32680   0.461   2.017   4.472
10594SOL    HW132681   0.497   1.924   4.468
10594SOL    HW232682   0.506   2.066   4.547
10595SOL     OW32683   3.463   5.953   6.114
10595SOL    HW132684   3.515   5.895   6.051
10595SOL    HW232685   3.505   5.948   6.205
10596SOL     OW32686   3.617   1.145   1.372
10596SOL    HW132687   3.571   1.069   1.419
10596SOL    HW232688   3.701   1.111   1.329
10597SOL     OW32689   1.693   0.256   4.543
10597SOL    HW132690   1.642   0.197   4.482
10597SOL    HW232691   1.668   0.351   4.526
10598SOL     OW32692   1.562   2.234   0.130
10598SOL    HW132693   1.464   2.222   0.144
10598SOL    HW232694   1.579   2.321   0.084
10599SOL     OW32695   5.204   1.391   6.702
10599SOL    HW132696   5.133   1.330   6.738
10599SOL    HW232697   5.294   1.349   6.713
10600SOL     OW32698   2.142   3.086   6.483
10600SOL    HW132699   2.079   3.040   6.419
10600SOL    HW232700   2.209   3.020   6.517
10601SOL     OW32701   2.985   6.776   5.925
10601SOL    HW132702   2.931   6.703   5.968
10601SOL    HW232703   3.081   6.748   5.921
10602SOL     OW32704   4.671   1.146   1.960
10602SOL    HW132705   4.709   1.235   1.987
10602SOL    HW232706   4.689   1.079   2.032
10603SOL     OW32707   1.574   5.298   4.820
10603SOL    HW132708   1.620   5.265   4.738
10603SOL    HW232709   1.566   5.397   4.816
10604SOL     OW32710   7.013   4.317   5.204
10604SOL    HW132711   0.003   4.219   5.209
10604SOL    HW232712   0.069   4.367   5.183
10605SOL     OW32713   1.816   4.999   6.783
10605SOL    HW132714   1.906   4.956   6.773
10605SOL    HW232715   1.744   4.932   6.761
10606SOL     OW32716   0.679   0.674   2.744
10606SOL    HW132717   0.776   0.650   2.751
10606SOL    HW232718   0.641   0.635   2.660
10607SOL     OW32719   5.417   4.970   0.075
10607SOL    HW132720   5.343   5.021   0.030
10607SOL    HW232721   5.434   5.010   0.166
10608SOL     OW32722   6.095   1.756   3.431
10608SOL    HW132723   6.157   1.804   3.493
10608SOL    HW232724   6.048   1.822   3.373
10609SOL     OW32725   3.856   6.283   1.500
10609SOL    HW132726   3.802   6.292   1.417
10609SOL    HW232727   3.869   6.373   1.541
10610SOL     OW32728   1.588   3.098   5.649
10610SOL    HW132729   1.589   3.065   5.744
10610SOL    HW232730   1.591   3.198   5.649
10611SOL     OW32731   5.420   2.582   6.246
10611SOL    HW132732   5.511   2.550   6.272
10611SOL    HW232733   5.424   2.625   6.156
10612SOL     OW32734   1.942   0.020   0.539
10612SOL    HW132735   1.950   6.970   0.478
10612SOL    HW232736   1.867   0.079   0.508
10613SOL     OW32737   0.569   6.506   5.875
10613SOL    HW132738   0.500   6.550   5.818
10613SOL    HW232739   0.589   6.414   5.840
10614SOL     OW32740   6.642   1.067   4.431
10614SOL    HW132741   6.587   1.056   4.347
10614SOL    HW232742   6.581   1.075   4.509
10615SOL     OW32743   6.090   5.734   5.440
10615SOL    HW132744   6.171   5.776   5.481
10615SOL    HW232745   6.042   5.680   5.510
10616SOL     OW32746   2.803   5.764   0.289
10616SOL    HW132747   2.754   5.677   0.295
10616SOL    HW232748   2.886   5.752   0.235
10617SOL     OW32749   1.120   2.045   6.445
10617SOL    HW132750   1.136   1.950   6.472
10617SOL    HW232751   1.177   2.106   6.500
10618SOL     OW32752   6.069   3.771   1.030
10618SOL    HW132753   5.987   3.820   1.001
10618SOL    HW232754   6.123   3.744   0.950
10619SOL     OW32755   1.141   4.068   3.944
10619SOL    HW132756   1.150   3.977   3.984
10619SOL    HW232757   1.172   4.137   4.010
10620SOL     OW32758   1.508   5.839   4.551
10620SOL    HW132759   1.552   5.762   4.505
10620SOL    HW232760   1.578   5.902   4.584
10621SOL     OW32761   2.764   5.922   0.983
10621SOL    HW132762   2.811   6.010   0.993
10621SOL    HW232763   2.695   5.913   1.055
10622SOL     OW32764   4.227   1.086   1.461
10622SOL    HW132765   4.318   1.060   1.494
10622SOL    HW232766   4.211   1.183   1.481
10623SOL     OW32767   6.703   1.617   3.789
10623SOL    HW132768   6.753   1.672   3.723
10623SOL    HW232769   6.649   1.547   3.741
10624SOL     OW32770   2.157   0.476   3.919
10624SOL    HW132771   2.154   0.449   4.015
10624SOL    HW232772   2.215   0.412   3.868
10625SOL     OW32773   0.242   3.387   6.924
10625SOL    HW132774   0.282   3.420   7.009
10625SOL    HW232775   0.146   3.363   6.938
10626SOL     OW32776   0.311   2.701   1.217
10626SOL    HW132777   0.351   2.688   1.126
10626SOL    HW232778   0.326   2.795   1.247
10627SOL     OW32779   6.102   5.822   4.299
10627SOL    HW132780   6.117   5.735   4.347
10627SOL    HW232781   6.166   5.891   4.333
10628SOL     OW32782   6.370   5.765   6.047
10628SOL    HW132783   6.429   5.684   6.057
10628SOL    HW232784   6.406   5.823   5.974
10629SOL     OW32785   2.712   5.479   5.670
10629SOL    HW132786   2.693   5.565   5.716
10629SOL    HW232787   2.675   5.482   5.577
10630SOL     OW32788   0.132   1.442   3.255
10630SOL    HW132789   0.181   1.367   3.299
10630SOL    HW232790   0.034   1.421   3.253
10631SOL     OW32791   1.075   6.669   4.382
10631SOL    HW132792   1.120   6.718   4.456
10631SOL    HW232793   1.039   6.734   4.315
10632SOL     OW32794   0.389   2.485   5.492
10632SOL    HW132795   0.436   2.428   5.426
10632SOL    HW232796   0.310   2.436   5.529
10633SOL     OW32797   1.138   5.085   1.307
10633SOL    HW132798   1.158   5.167   1.254
10633SOL    HW232799   1.064   5.105   1.371
10634SOL     OW32800   3.087   6.916   1.687
10634SOL    HW132801   3.173   6.876   1.656
10634SOL    HW232802   3.031   6.845   1.731
10635SOL     OW32803   2.424   1.311   1.221
10635SOL    HW132804   2.496   1.379   1.234
10635SOL    HW232805   2.413   1.292   1.123
10636SOL     OW32806   0.579   2.242   1.709
10636SOL    HW132807   0.620   2.265   1.621
10636SOL    HW232808   0.480   2.239   1.701
10637SOL     OW32809   3.721   4.617   5.427
10637SOL    HW132810   3.632   4.577   5.404
10637SOL    HW232811   3.792   4.571   5.374
10638SOL     OW32812   6.670   6.962   5.577
10638SOL    HW132813   6.694   0.029   5.557
10638SOL    HW232814   6.572   6.956   5.598
10639SOL     OW32815   2.474   0.907   4.345
10639SOL    HW132816   2.543   0.947   4.285
10639SOL    HW232817   2.398   0.873   4.289
10640SOL     OW32818   4.082   0.094   0.475
10640SOL    HW132819   4.156   0.030   0.457
10640SOL    HW232820   4.072   0.157   0.398
10641SOL     OW32821   4.937   1.051   6.629
10641SOL    HW132822   4.983   1.098   6.705
10641SOL    HW232823   4.839   1.045   6.648
10642SOL     OW32824   6.646   3.020   1.117
10642SOL    HW132825   6.740   3.014   1.152
10642SOL    HW232826   6.647   3.021   1.017
10643SOL     OW32827   3.299   3.508   5.636
10643SOL    HW132828   3.267   3.496   5.542
10643SOL    HW232829   3.367   3.437   5.658
10644SOL     OW32830   3.912   1.270   4.583
10644SOL    HW132831   3.823   1.281   4.538
10644SOL    HW232832   3.947   1.359   4.610
10645SOL     OW32833   2.778   0.892   5.062
10645SOL    HW132834   2.748   0.798   5.050
10645SOL    HW232835   2.725   0.953   5.002
10646SOL     OW32836   0.564   3.873   6.650
10646SOL    HW132837   0.530   3.780   6.637
10646SOL    HW232838   0.639   3.872   6.716
10647SOL     OW32839   0.495   5.082   0.733
10647SOL    HW132840   0.436   5.070   0.654
10647SOL    HW232841   0.549   5.165   0.723
10648SOL     OW32842   4.447   3.564   6.703
10648SOL    HW132843   4.479   3.620   6.627
10648SOL    HW232844   4.451   3.467   6.677
10649SOL     OW32845   0.210   4.521   5.706
10649SOL    HW132846   0.142   4.562   5.767
10649SOL    HW232847   0.289   4.489   5.759
10650SOL     OW32848   3.158   6.921   3.556
10650SOL    HW132849   3.247   6.876   3.566
10650SOL    HW232850   3.101   6.901   3.636
10651SOL     OW32851   3.806   6.738   6.086
10651SOL    HW132852   3.761   6.706   6.002
10651SOL    HW232853   3.770   6.828   6.111
10652SOL     OW32854   3.552   0.912   6.797
10652SOL    HW132855   3.526   0.975   6.724
10652SOL    HW232856   3.568   0.821   6.758
10653SOL     OW32857   5.428   3.338   3.814
10653SOL    HW132858   5.400   3.433   3.825
10653SOL    HW232859   5.360   3.290   3.758
10654SOL     OW32860   4.185   0.886   1.036
10654SOL    HW132861   4.258   0.819   1.024
10654SOL    HW232862   4.183   0.947   0.956
10655SOL     OW32863   3.150   5.908   1.629
10655SOL    HW132864   3.202   5.938   1.709
10655SOL    HW232865   3.118   5.814   1.643
10656SOL     OW32866   6.695   3.064   6.190
10656SOL    HW132867   6.671   3.071   6.287
10656SOL    HW232868   6.726   3.153   6.156
10657SOL     OW32869   5.959   0.614   1.250
10657SOL    HW132870   5.899   0.656   1.318
10657SOL    HW232871   6.053   0.617   1.282
10658SOL     OW32872   0.564   5.407   5.054
10658SOL    HW132873   0.650   5.456   5.069
10658SOL    HW232874   0.507   5.414   5.135
10659SOL     OW32875   5.091   0.697   0.516
10659SOL    HW132876   5.083   0.751   0.599
10659SOL    HW232877   5.187   0.673   0.501
10660SOL     OW32878   5.067   5.098   5.598
10660SOL    HW132879   4.995   5.151   5.555
10660SOL    HW232880   5.121   5.157   5.658
10661SOL     OW32881   0.330   0.595   2.670
10661SOL    HW132882   0.316   0.576   2.767
10661SOL    HW232883   0.417   0.554   2.641
10662SOL     OW32884   6.120   1.563   0.603
10662SOL    HW132885   6.161   1.483   0.561
10662SOL    HW232886   6.179   1.643   0.589
10663SOL     OW32887   6.944   0.627   0.410
10663SOL    HW132888   6.970   0.716   0.449
10663SOL    HW232889   6.969   0.624   0.313
10664SOL     OW32890   2.108   4.478   6.812
10664SOL    HW132891   2.205   4.496   6.802
10664SOL    HW232892   2.057   4.539   6.751
10665SOL     OW32893   6.438   1.051   0.396
10665SOL    HW132894   6.482   1.001   0.471
10665SOL    HW232895   6.431   1.147   0.420
10666SOL     OW32896   1.219   6.722   0.312
10666SOL    HW132897   1.157   6.783   0.361
10666SOL    HW232898   1.287   6.777   0.263
10667SOL     OW32899   3.402   1.778   5.165
10667SOL    HW132900   3.324   1.809   5.111
10667SOL    HW232901   3.460   1.856   5.187
10668SOL     OW32902   2.448   0.845   5.862
10668SOL    HW132903   2.541   0.871   5.837
10668SOL    HW232904   2.390   0.842   5.781
10669SOL     OW32905   1.034   6.381   6.250
10669SOL    HW132906   1.099   6.370   6.325
10669SOL    HW232907   0.973   6.302   6.247
10670SOL     OW32908   6.851   4.618   5.683
10670SOL    HW132909   6.761   4.662   5.689
10670SOL    HW232910   6.899   4.651   5.602
10671SOL     OW32911   1.545   1.774   3.324
10671SOL    HW132912   1.502   1.859   3.291
10671SOL    HW232913   1.638   1.768   3.288
10672SOL     OW32914   6.690   2.833   0.619
10672SOL    HW132915   6.782   2.866   0.640
10672SOL    HW232916   6.695   2.738   0.589
10673SOL     OW32917   3.344   3.517   5.074
10673SOL    HW132918   3.263   3.504   5.016
10673SOL    HW232919   3.427   3.504   5.019
10674SOL     OW32920   4.097   1.947   2.277
10674SOL    HW132921   4.080   2.007   2.199
10674SOL    HW232922   4.139   2.000   2.351
10675SOL     OW32923   0.555   0.731   6.113
10675SOL    HW132924   0.635   0.786   6.139
10675SOL    HW232925   0.563   0.640   6.153
10676SOL     OW32926   6.926   0.493   6.952
10676SOL    HW132927   6.971   0.562   6.896
10676SOL    HW232928   6.983   0.473   0.003
10677SOL     OW32929   7.013   0.899   0.503
10677SOL    HW132930   6.947   0.896   0.578
10677SOL    HW232931   6.974   0.952   0.427
10678SOL     OW32932   2.730   6.183   3.404
10678SOL    HW132933   2.665   6.258   3.420
10678SOL    HW232934   2.727   6.120   3.482
10679SOL     OW32935   5.844   5.285   3.666
10679SOL    HW132936   5.905   5.211   3.692
10679SOL    HW232937   5.895   5.355   3.616
10680SOL     OW32938   1.660   2.460   3.557
10680SOL    HW132939   1.737   2.413   3.514
10680SOL    HW232940   1.578   2.448   3.502
10681SOL     OW32941   0.632   1.502   5.558
10681SOL    HW132942   0.653   1.596   5.532
10681SOL    HW232943   0.684   1.477   5.639
10682SOL     OW32944   6.841   1.706   2.899
10682SOL    HW132945   6.788   1.788   2.921
10682SOL    HW232946   6.821   1.678   2.805
10683SOL     OW32947   1.630   1.411   4.198
10683SOL    HW132948   1.630   1.506   4.230
10683SOL    HW232949   1.696   1.358   4.252
10684SOL     OW32950   5.934   5.879   0.285
10684SOL    HW132951   5.936   5.820   0.367
10684SOL    HW232952   5.952   5.823   0.204
10685SOL     OW32953   7.004   2.634   1.766
10685SOL    HW132954   6.973   2.681   1.683
10685SOL    HW232955   0.036   2.695   1.818
10686SOL     OW32956   3.892   4.328   0.854
10686SOL    HW132957   3.842   4.343   0.940
10686SOL    HW232958   3.987   4.306   0.874
10687SOL     OW32959   0.159   5.063   1.709
10687SOL    HW132960   0.089   5.132   1.691
10687SOL    HW232961   0.170   5.050   1.808
10688SOL     OW32962   6.944   5.938   2.281
10688SOL    HW132963   6.992   5.851   2.269
10688SOL    HW232964   6.974   6.002   2.211
10689SOL     OW32965   0.545   0.690   1.673
10689SOL    HW132966   0.511   0.618   1.733
10689SOL    HW232967   0.486   0.770   1.680
10690SOL     OW32968   4.343   5.900   2.202
10690SOL    HW132969   4.422   5.857   2.160
10690SOL    HW232970   4.361   5.916   2.299
10691SOL     OW32971   6.636   1.267   1.552
10691SOL    HW132972   6.611   1.237   1.644
10691SOL    HW232973   6.561   1.322   1.514
10692SOL     OW32974   4.907   6.151   4.457
10692SOL    HW132975   4.883   6.063   4.499
10692SOL    HW232976   4.871   6.153   4.364
10693SOL     OW32977   5.587   2.225   2.996
10693SOL    HW132978   5.661   2.172   2.953
10693SOL    HW232979   5.591   2.213   3.095
10694SOL     OW32980   4.362   6.232   0.906
10694SOL    HW132981   4.447   6.234   0.958
10694SOL    HW232982   4.370   6.166   0.831
10695SOL     OW32983   5.985   2.770   4.482
10695SOL    HW132984   5.908   2.736   4.535
10695SOL    HW232985   6.066   2.715   4.502
10696SOL     OW32986   6.129   7.028   1.222
10696SOL    HW132987   6.055   6.965   1.245
10696SOL    HW232988   6.105   0.052   1.141
10697SOL     OW32989   2.215   6.168   3.735
10697SOL    HW132990   2.285   6.229   3.698
10697SOL    HW232991   2.222   6.078   3.690
10698SOL     OW32992   2.927   0.726   3.166
10698SOL    HW132993   2.978   0.682   3.093
10698SOL    HW232994   2.947   0.682   3.253
10699SOL     OW32995   1.743   2.551   2.762
10699SOL    HW132996   1.791   2.632   2.795
10699SOL    HW232997   1.763   2.537   2.665
10700SOL     OW32998   6.186   0.642   2.066
10700SOL    HW132999   6.250   0.660   1.991
10700SOL    HW233000   6.190   0.717   2.132
10701SOL     OW33001   3.602   6.257   0.929
10701SOL    HW133002   3.503   6.245   0.927
10701SOL    HW233003   3.640   6.207   1.007
10702SOL     OW33004   5.980   3.350   0.989
10702SOL    HW133005   6.058   3.388   1.040
10702SOL    HW233006   5.898   3.403   1.009
10703SOL     OW33007   3.930   3.077   4.333
10703SOL    HW133008   3.903   3.017   4.258
10703SOL    HW233009   3.921   3.028   4.420
10704SOL     OW33010   5.604   6.542   2.133
10704SOL    HW133011   5.582   6.634   2.167
10704SOL    HW233012   5.519   6.495   2.110
10705SOL     OW33013   1.201   2.835   6.520
10705SOL    HW133014   1.300   2.824   6.506
10705SOL    HW233015   1.169   2.767   6.585
10706SOL     OW33016   3.607   1.651   1.431
10706SOL    HW133017   3.700   1.676   1.404
10706SOL    HW233018   3.610   1.570   1.488
10707SOL     OW33019   6.402   6.670   6.196
10707SOL    HW133020   6.484   6.701   6.244
10707SOL    HW233021   6.321   6.693   6.250
10708SOL     OW33022   4.641   1.143   1.309
10708SOL    HW133023   4.600   1.232   1.330
10708SOL    HW233024   4.693   1.111   1.389
10709SOL     OW33025   0.744   6.701   5.939
10709SOL    HW133026   0.671   6.638   5.913
10709SOL    HW233027   0.763   6.692   6.036
10710SOL     OW33028   6.567   5.804   3.046
10710SOL    HW133029   6.634   5.733   3.066
10710SOL    HW233030   6.545   5.803   2.948
10711SOL     OW33031   2.328   5.820   5.247
10711SOL    HW133032   2.377   5.747   5.198
10711SOL    HW233033   2.390   5.896   5.263
10712SOL     OW33034   4.739   1.382   5.032
10712SOL    HW133035   4.653   1.428   5.011
10712SOL    HW233036   4.759   1.390   5.130
10713SOL     OW33037   1.655   6.353   1.386
10713SOL    HW133038   1.712   6.432   1.362
10713SOL    HW233039   1.627   6.360   1.482
10714SOL     OW33040   0.034   5.700   5.780
10714SOL    HW133041   7.028   5.718   5.872
10714SOL    HW233042   6.991   5.722   5.713
10715SOL     OW33043   5.840   1.200   3.822
10715SOL    HW133044   5.837   1.245   3.732
10715SOL    HW233045   5.748   1.199   3.862
10716SOL     OW33046   6.410   0.851   3.145
10716SOL    HW133047   6.358   0.937   3.142
10716SOL    HW233048   6.354   0.780   3.188
10717SOL     OW33049   6.235   6.535   2.104
10717SOL    HW133050   6.310   6.602   2.101
10717SOL    HW233051   6.163   6.571   2.163
10718SOL     OW33052   0.695   3.630   5.807
10718SOL    HW133053   0.685   3.622   5.707
10718SOL    HW233054   0.690   3.538   5.847
10719SOL     OW33055   3.693   0.931   2.329
10719SOL    HW133056   3.611   0.950   2.275
10719SOL    HW233057   3.740   0.851   2.292
10720SOL     OW33058   0.523   3.275   6.927
10720SOL    HW133059   0.433   3.317   6.920
10720SOL    HW233060   0.550   3.269   7.023
10721SOL     OW33061   4.719   2.769   3.876
10721SOL    HW133062   4.743   2.861   3.844
10721SOL    HW233063   4.799   2.729   3.922
10722SOL     OW33064   0.415   3.974   1.086
10722SOL    HW133065   0.435   4.066   1.051
10722SOL    HW233066   0.380   3.980   1.179
10723SOL     OW33067   5.935   4.575   0.141
10723SOL    HW133068   5.889   4.645   0.087
10723SOL    HW233069   5.910   4.585   0.238
10724SOL     OW33070   4.073   6.958   5.869
10724SOL    HW133071   4.021   6.873   5.857
10724SOL    HW233072   4.031   7.013   5.942
10725SOL     OW33073   6.519   0.003   5.229
10725SOL    HW133074   6.593   6.970   5.199
10725SOL    HW233075   6.446   6.978   5.270
10726SOL     OW33076   5.615   1.400   4.783
10726SOL    HW133077   5.606   1.332   4.855
10726SOL    HW233078   5.708   1.397   4.746
10727SOL     OW33079   2.501   6.402   0.092
10727SOL    HW133080   2.453   6.485   0.065
10727SOL    HW233081   2.450   6.356   0.164
10728SOL     OW33082   5.865   6.252   3.726
10728SOL    HW133083   5.871   6.296   3.637
10728SOL    HW233084   5.865   6.153   3.714
10729SOL     OW33085   5.737   2.778   4.343
10729SOL    HW133086   5.826   2.796   4.383
10729SOL    HW233087   5.740   2.693   4.290
10730SOL     OW33088   2.045   5.579   4.229
10730SOL    HW133089   2.018   5.594   4.323
10730SOL    HW233090   2.007   5.492   4.196
10731SOL     OW33091   4.935   6.389   6.896
10731SOL    HW133092   4.909   6.338   6.978
10731SOL    HW233093   4.946   6.326   6.820
10732SOL     OW33094   6.375   6.434   3.059
10732SOL    HW133095   6.403   6.365   2.993
10732SOL    HW233096   6.275   6.441   3.060
10733SOL     OW33097   0.481   1.022   6.159
10733SOL    HW133098   0.490   1.084   6.081
10733SOL    HW233099   0.384   1.000   6.173
10734SOL     OW33100   1.899   0.513   4.325
10734SOL    HW133101   1.876   0.417   4.309
10734SOL    HW233102   1.878   0.536   4.421
10735SOL     OW33103   6.730   6.766   1.809
10735SOL    HW133104   6.723   6.793   1.905
10735SOL    HW233105   6.799   6.822   1.764
10736SOL     OW33106   5.218   6.672   3.423
10736SOL    HW133107   5.233   6.702   3.518
10736SOL    HW233108   5.260   6.582   3.410
10737SOL     OW33109   5.985   0.992   1.821
10737SOL    HW133110   5.944   1.011   1.731
10737SOL    HW233111   5.950   0.905   1.855
10738SOL     OW33112   3.586   0.178   1.124
10738SOL    HW133113   3.655   0.187   1.052
10738SOL    HW233114   3.548   0.086   1.123
10739SOL     OW33115   5.693   3.066   3.909
10739SOL    HW133116   5.603   3.076   3.950
10739SOL    HW233117   5.749   3.006   3.966
10740SOL     OW33118   2.730   0.817   6.250
10740SOL    HW133119   2.658   0.886   6.251
10740SOL    HW233120   2.744   0.780   6.342
10741SOL     OW33121   1.430   2.187   3.699
10741SOL    HW133122   1.405   2.282   3.716
10741SOL    HW233123   1.411   2.164   3.603
10742SOL     OW33124   6.492   6.778   2.631
10742SOL    HW133125   6.397   6.766   2.658
10742SOL    HW233126   6.502   6.861   2.578
10743SOL     OW33127   2.894   1.869   5.300
10743SOL    HW133128   2.900   1.783   5.248
10743SOL    HW233129   2.985   1.910   5.306
10744SOL     OW33130   2.302   1.038   0.634
10744SOL    HW133131   2.365   1.113   0.653
10744SOL    HW233132   2.338   0.954   0.674
10745SOL     OW33133   1.843   4.602   1.954
10745SOL    HW133134   1.798   4.516   1.978
10745SOL    HW233135   1.941   4.587   1.942
10746SOL     OW33136   2.213   5.897   6.699
10746SOL    HW133137   2.180   5.985   6.666
10746SOL    HW233138   2.255   5.846   6.624
10747SOL     OW33139   6.448   1.318   4.589
10747SOL    HW133140   6.436   1.220   4.604
10747SOL    HW233141   6.427   1.368   4.673
10748SOL     OW33142   3.114   6.579   1.596
10748SOL    HW133143   3.207   6.569   1.630
10748SOL    HW233144   3.050   6.580   1.673
10749SOL     OW33145   5.754   4.302   1.550
10749SOL    HW133146   5.694   4.259   1.482
10749SOL    HW233147   5.793   4.232   1.610
10750SOL     OW33148   4.268   2.167   4.250
10750SOL    HW133149   4.349   2.204   4.205
10750SOL    HW233150   4.190   2.171   4.188
10751SOL     OW33151   0.137   5.879   4.296
10751SOL    HW133152   0.173   5.836   4.213
10751SOL    HW233153   0.055   5.931   4.274
10752SOL     OW33154   6.512   6.470   0.224
10752SOL    HW133155   6.608   6.470   0.253
10752SOL    HW233156   6.456   6.512   0.296
10753SOL     OW33157   5.202   0.491   4.004
10753SOL    HW133158   5.171   0.583   4.027
10753SOL    HW233159   5.187   0.474   3.907
10754SOL     OW33160   0.967   4.639   2.315
10754SOL    HW133161   0.960   4.638   2.215
10754SOL    HW233162   0.999   4.729   2.345
10755SOL     OW33163   0.250   2.966   0.948
10755SOL    HW133164   0.297   2.900   0.889
10755SOL    HW233165   0.219   2.920   1.031
10756SOL     OW33166   1.342   0.758   0.614
10756SOL    HW133167   1.369   0.748   0.709
10756SOL    HW233168   1.254   0.713   0.599
10757SOL     OW33169   0.448   3.361   2.122
10757SOL    HW133170   0.372   3.354   2.187
10757SOL    HW233171   0.522   3.413   2.164
10758SOL     OW33172   0.906   0.247   0.228
10758SOL    HW133173   0.846   0.196   0.167
10758SOL    HW233174   0.859   0.328   0.262
10759SOL     OW33175   2.841   2.773   5.554
10759SOL    HW133176   2.851   2.813   5.645
10759SOL    HW233177   2.755   2.806   5.513
10760SOL     OW33178   1.006   4.716   6.548
10760SOL    HW133179   1.014   4.623   6.512
10760SOL    HW233180   0.995   4.713   6.647
10761SOL     OW33181   1.034   1.600   5.326
10761SOL    HW133182   1.027   1.570   5.231
10761SOL    HW233183   0.955   1.658   5.348
10762SOL     OW33184   2.855   6.005   6.031
10762SOL    HW133185   2.823   6.099   6.021
10762SOL    HW233186   2.780   5.947   6.062
10763SOL     OW33187   4.911   0.644   3.091
10763SOL    HW133188   4.907   0.703   3.172
10763SOL    HW233189   4.820   0.609   3.069
10764SOL     OW33190   5.055   6.562   4.420
10764SOL    HW133191   5.053   6.660   4.398
10764SOL    HW233192   5.139   6.541   4.470
10765SOL     OW33193   0.561   1.688   1.831
10765SOL    HW133194   0.642   1.673   1.773
10765SOL    HW233195   0.580   1.654   1.923
10766SOL     OW33196   2.337   5.042   0.024
10766SOL    HW133197   2.379   5.125   0.060
10766SOL    HW233198   2.407   4.985   7.009
10767SOL     OW33199   1.370   5.026   6.720
10767SOL    HW133200   1.323   5.102   6.674
10767SOL    HW233201   1.399   4.959   6.652
10768SOL     OW33202   5.448   6.273   6.448
10768SOL    HW133203   5.413   6.363   6.421
10768SOL    HW233204   5.452   6.267   6.547
10769SOL     OW33205   3.022   3.194   4.439
10769SOL    HW133206   2.959   3.234   4.373
10769SOL    HW233207   3.100   3.154   4.391
10770SOL     OW33208   5.684   0.010   3.189
10770SOL    HW133209   5.673   6.941   3.211
10770SOL    HW233210   5.750   0.051   3.253
10771SOL     OW33211   4.383   5.892   5.903
10771SOL    HW133212   4.415   5.823   5.839
10771SOL    HW233213   4.284   5.884   5.914
10772SOL     OW33214   5.790   5.239   2.519
10772SOL    HW133215   5.756   5.323   2.478
10772SOL    HW233216   5.748   5.160   2.473
10773SOL     OW33217   0.097   3.897   1.642
10773SOL    HW133218   0.076   3.833   1.716
10773SOL    HW233219   0.047   3.869   1.560
10774SOL     OW33220   0.762   3.704   0.468
10774SOL    HW133221   0.849   3.666   0.500
10774SOL    HW233222   0.687   3.667   0.523
10775SOL     OW33223   1.769   3.962   0.876
10775SOL    HW133224   1.705   3.989   0.804
10775SOL    HW233225   1.804   4.044   0.922
10776SOL     OW33226   0.489   2.618   3.594
10776SOL    HW133227   0.585   2.638   3.573
10776SOL    HW233228   0.442   2.584   3.513
10777SOL     OW33229   2.008   0.625   1.656
10777SOL    HW133230   1.962   0.617   1.744
10777SOL    HW233231   2.066   0.706   1.655
10778SOL     OW33232   4.805   0.084   2.804
10778SOL    HW133233   4.815   0.183   2.805
10778SOL    HW233234   4.721   0.060   2.754
10779SOL     OW33235   5.666   3.192   5.674
10779SOL    HW133236   5.743   3.255   5.683
10779SOL    HW233237   5.687   3.123   5.605
10780SOL     OW33238   2.122   5.187   4.602
10780SOL    HW133239   2.029   5.196   4.638
10780SOL    HW233240   2.152   5.274   4.566
10781SOL     OW33241   5.737   2.232   4.475
10781SOL    HW133242   5.662   2.293   4.500
10781SOL    HW233243   5.720   2.196   4.383
10782SOL     OW33244   0.715   1.417   5.317
10782SOL    HW133245   0.698   1.423   5.416
10782SOL    HW233246   0.705   1.507   5.276
10783SOL     OW33247   0.837   2.305   3.589
10783SOL    HW133248   0.828   2.205   3.590
10783SOL    HW233249   0.872   2.336   3.678
10784SOL     OW33250   4.284   5.657   3.173
10784SOL    HW133251   4.364   5.666   3.115
10784SOL    HW233252   4.234   5.744   3.175
10785SOL     OW33253   1.364   5.455   1.947
10785SOL    HW133254   1.433   5.386   1.925
10785SOL    HW233255   1.286   5.412   1.991
10786SOL     OW33256   4.266   1.716   2.139
10786SOL    HW133257   4.173   1.738   2.168
10786SOL    HW233258   4.329   1.786   2.174
10787SOL     OW33259   3.570   1.572   3.391
10787SOL    HW133260   3.506   1.628   3.444
10787SOL    HW233261   3.596   1.621   3.308
10788SOL     OW33262   1.879   4.136   0.074
10788SOL    HW133263   1.803   4.192   0.107
10788SOL    HW233264   1.959   4.195   0.061
10789SOL     OW33265   6.567   1.060   2.248
10789SOL    HW133266   6.547   1.028   2.340
10789SOL    HW233267   6.492   1.035   2.187
10790SOL     OW33268   0.470   1.804   5.678
10790SOL    HW133269   0.434   1.896   5.659
10790SOL    HW233270   0.570   1.806   5.675
10791SOL     OW33271   1.633   2.504   3.142
10791SOL    HW133272   1.658   2.600   3.153
10791SOL    HW233273   1.607   2.466   3.230
10792SOL     OW33274   3.843   1.490   2.007
10792SOL    HW133275   3.931   1.534   2.021
10792SOL    HW233276   3.769   1.556   2.024
10793SOL     OW33277   3.965   1.497   4.394
10793SOL    HW133278   3.868   1.521   4.393
10793SOL    HW233279   4.018   1.576   4.425
10794SOL     OW33280   5.132   2.309   0.550
10794SOL    HW133281   5.149   2.272   0.641
10794SOL    HW233282   5.158   2.405   0.547
10795SOL     OW33283   6.892   3.424   3.611
10795SOL    HW133284   6.850   3.334   3.602
10795SOL    HW233285   6.934   3.432   3.702
10796SOL     OW33286   0.110   0.002   6.131
10796SOL    HW133287   0.108   6.955   6.196
10796SOL    HW233288   0.018   0.042   6.123
10797SOL     OW33289   4.298   4.505   7.013
10797SOL    HW133290   4.287   4.583   0.046
10797SOL    HW233291   4.348   4.533   6.931
10798SOL     OW33292   2.097   6.404   6.897
10798SOL    HW133293   2.053   6.469   6.959
10798SOL    HW233294   2.050   6.405   6.809
10799SOL     OW33295   2.699   1.465   2.883
10799SOL    HW133296   2.792   1.432   2.870
10799SOL    HW233297   2.644   1.394   2.927
10800SOL     OW33298   2.504   0.049   5.354
10800SOL    HW133299   2.524   0.111   5.430
10800SOL    HW233300   2.410   0.016   5.362
10801SOL     OW33301   3.208   6.491   6.265
10801SOL    HW133302   3.254   6.436   6.335
10801SOL    HW233303   3.268   6.499   6.185
10802SOL     OW33304   0.536   5.273   4.353
10802SOL    HW133305   0.474   5.340   4.312
10802SOL    HW233306   0.628   5.284   4.316
10803SOL     OW33307   0.005   4.176   4.579
10803SOL    HW133308   0.031   4.109   4.649
10803SOL    HW233309   0.002   4.267   4.620
10804SOL     OW33310   4.950   4.712   0.922
10804SOL    HW133311   4.942   4.649   0.845
10804SOL    HW233312   4.929   4.665   1.007
10805SOL     OW33313   3.913   5.953   0.400
10805SOL    HW133314   3.991   5.955   0.338
10805SOL    HW233315   3.934   5.893   0.478
10806SOL     OW33316   6.006   4.283   6.465
10806SOL    HW133317   5.979   4.226   6.388
10806SOL    HW233318   5.942   4.270   6.540
10807SOL     OW33319   4.327   1.126   4.381
10807SOL    HW133320   4.313   1.114   4.282
10807SOL    HW233321   4.322   1.223   4.404
10808SOL     OW33322   0.260   1.969   0.297
10808SOL    HW133323   0.347   2.004   0.263
10808SOL    HW233324   0.198   2.046   0.316
10809SOL     OW33325   3.127   1.366   2.562
10809SOL    HW133326   3.090   1.444   2.512
10809SOL    HW233327   3.165   1.398   2.649
10810SOL     OW33328   1.966   1.571   6.534
10810SOL    HW133329   1.938   1.664   6.508
10810SOL    HW233330   1.897   1.532   6.594
10811SOL     OW33331   4.513   4.507   6.247
10811SOL    HW133332   4.465   4.475   6.329
10811SOL    HW233333   4.463   4.585   6.208
10812SOL     OW33334   6.416   2.747   2.251
10812SOL    HW133335   6.473   2.788   2.179
10812SOL    HW233336   6.333   2.710   2.210
10813SOL     OW33337   3.713   5.436   2.726
10813SOL    HW133338   3.615   5.456   2.716
10813SOL    HW233339   3.766   5.516   2.698
10814SOL     OW33340   1.940   6.122   4.905
10814SOL    HW133341   1.847   6.141   4.874
10814SOL    HW233342   1.937   6.061   4.984
10815SOL     OW33343   4.936   2.011   3.341
10815SOL    HW133344   4.847   2.056   3.345
10815SOL    HW233345   4.925   1.915   3.313
10816SOL     OW33346   2.047   2.257   1.891
10816SOL    HW133347   2.039   2.247   1.990
10816SOL    HW233348   2.076   2.169   1.851
10817SOL     OW33349   4.428   0.157   2.026
10817SOL    HW133350   4.338   0.199   2.031
10817SOL    HW233351   4.474   0.167   2.114
10818SOL     OW33352   4.572   2.872   6.595
10818SOL    HW133353   4.595   2.946   6.659
10818SOL    HW233354   4.495   2.820   6.631
10819SOL     OW33355   0.517   3.945   5.587
10819SOL    HW133356   0.477   4.034   5.610
10819SOL    HW233357   0.482   3.915   5.498
10820SOL     OW33358   6.639   0.419   4.675
10820SOL    HW133359   6.720   0.433   4.617
10820SOL    HW233360   6.586   0.342   4.640
10821SOL     OW33361   6.953   6.826   0.984
10821SOL    HW133362   7.012   6.826   1.064
10821SOL    HW233363   6.958   6.916   0.940
10822SOL     OW33364   0.387   4.590   0.138
10822SOL    HW133365   0.397   4.607   0.236
10822SOL    HW233366   0.375   4.492   0.123
10823SOL     OW33367   1.402   1.870   1.230
10823SOL    HW133368   1.311   1.833   1.212
10823SOL    HW233369   1.456   1.801   1.278
10824SOL     OW33370   5.811   0.469   3.237
10824SOL    HW133371   5.775   0.449   3.328
10824SOL    HW233372   5.846   0.563   3.235
10825SOL     OW33373   3.858   1.437   1.640
10825SOL    HW133374   3.923   1.423   1.565
10825SOL    HW233375   3.884   1.519   1.692
10826SOL     OW33376   6.449   2.845   1.236
10826SOL    HW133377   6.529   2.888   1.192
10826SOL    HW233378   6.476   2.757   1.274
10827SOL     OW33379   1.373   2.709   3.582
10827SOL    HW133380   1.361   2.675   3.489
10827SOL    HW233381   1.456   2.764   3.587
10828SOL     OW33382   1.090   5.886   0.520
10828SOL    HW133383   1.095   5.975   0.475
10828SOL    HW233384   0.998   5.849   0.511
10829SOL     OW33385   2.112   3.883   1.660
10829SOL    HW133386   2.139   3.814   1.727
10829SOL    HW233387   2.180   3.886   1.587
10830SOL     OW33388   4.695   1.063   3.452
10830SOL    HW133389   4.697   1.133   3.524
10830SOL    HW233390   4.746   1.095   3.373
10831SOL     OW33391   5.237   2.831   2.186
10831SOL    HW133392   5.296   2.801   2.111
10831SOL    HW233393   5.201   2.750   2.234
10832SOL     OW33394   0.010   3.044   2.862
10832SOL    HW133395   0.073   3.061   2.938
10832SOL    HW233396   6.978   3.122   2.851
10833SOL     OW33397   2.764   7.020   4.052
10833SOL    HW133398   2.729   6.930   4.078
10833SOL    HW233399   2.848   7.009   3.999
10834SOL     OW33400   0.230   0.910   5.575
10834SOL    HW133401   0.260   0.830   5.626
10834SOL    HW233402   0.173   0.881   5.498
10835SOL     OW33403   6.738   2.756   1.777
10835SOL    HW133404   6.793   2.699   1.837
10835SOL    HW233405   6.645   2.763   1.813
10836SOL     OW33406   1.552   2.866   1.203
10836SOL    HW133407   1.542   2.954   1.156
10836SOL    HW233408   1.462   2.825   1.216
10837SOL     OW33409   1.523   5.942   1.406
10837SOL    HW133410   1.528   5.850   1.445
10837SOL    HW233411   1.427   5.971   1.400
10838SOL     OW33412   6.725   0.266   0.428
10838SOL    HW133413   6.777   0.182   0.413
10838SOL    HW233414   6.733   0.325   0.348
10839SOL     OW33415   1.838   1.597   6.978
10839SOL    HW133416   1.843   1.686   6.935
10839SOL    HW233417   1.925   1.577   7.024
10840SOL     OW33418   3.871   5.646   2.646
10840SOL    HW133419   3.800   5.699   2.600
10840SOL    HW233420   3.945   5.707   2.674
10841SOL     OW33421   4.832   3.277   6.107
10841SOL    HW133422   4.761   3.341   6.136
10841SOL    HW233423   4.921   3.311   6.136
10842SOL     OW33424   6.512   2.894   1.553
10842SOL    HW133425   6.608   2.885   1.530
10842SOL    HW233426   6.460   2.818   1.515
10843SOL     OW33427   0.306   0.747   2.231
10843SOL    HW133428   0.372   0.803   2.281
10843SOL    HW233429   0.220   0.742   2.282
10844SOL     OW33430   3.162   0.003   3.309
10844SOL    HW133431   3.136   6.994   3.398
10844SOL    HW233432   3.240   0.064   3.320
10845SOL     OW33433   2.096   3.230   1.019
10845SOL    HW133434   2.164   3.288   0.973
10845SOL    HW233435   2.139   3.143   1.045
10846SOL     OW33436   3.918   1.722   1.721
10846SOL    HW133437   3.965   1.721   1.633
10846SOL    HW233438   3.819   1.719   1.706
10847SOL     OW33439   4.371   2.937   5.868
10847SOL    HW133440   4.444   2.975   5.812
10847SOL    HW233441   4.321   2.868   5.816
10848SOL     OW33442   1.200   0.543   0.537
10848SOL    HW133443   1.108   0.580   0.529
10848SOL    HW233444   1.197   0.444   0.528
10849SOL     OW33445   2.328   5.290   3.927
10849SOL    HW133446   2.415   5.265   3.970
10849SOL    HW233447   2.293   5.374   3.968
10850SOL     OW33448   5.660   0.584   2.373
10850SOL    HW133449   5.625   0.592   2.279
10850SOL    HW233450   5.606   0.641   2.434
10851SOL     OW33451   4.243   1.886   6.473
10851SOL    HW133452   4.162   1.833   6.447
10851SOL    HW233453   4.270   1.946   6.397
10852SOL     OW33454   7.012   0.233   5.861
10852SOL    HW133455   0.081   0.232   5.885
10852SOL    HW233456   6.984   0.142   5.830
10853SOL     OW33457   2.360   0.507   4.860
10853SOL    HW133458   2.426   0.499   4.785
10853SOL    HW233459   2.375   0.433   4.925
10854SOL     OW33460   6.924   6.099   0.980
10854SOL    HW133461   6.853   6.058   1.039
10854SOL    HW233462   6.912   6.198   0.978
10855SOL     OW33463   1.307   5.415   1.500
10855SOL    HW133464   1.216   5.410   1.458
10855SOL    HW233465   1.313   5.498   1.556
10856SOL     OW33466   6.198   0.484   6.789
10856SOL    HW133467   6.204   0.423   6.709
10856SOL    HW233468   6.127   0.449   6.851
10857SOL     OW33469   6.652   0.368   4.960
10857SOL    HW133470   6.617   0.377   4.867
10857SOL    HW233471   6.646   0.272   4.988
10858SOL     OW33472   1.736   2.290   0.356
10858SOL    HW133473   1.715   2.254   0.266
10858SOL    HW233474   1.651   2.312   0.404
10859SOL     OW33475   1.288   5.607   3.032
10859SOL    HW133476   1.305   5.517   2.991
10859SOL    HW233477   1.326   5.609   3.124
10860SOL     OW33478   6.384   3.437   1.690
10860SOL    HW133479   6.383   3.522   1.742
10860SOL    HW233480   6.457   3.378   1.724
10861SOL     OW33481   2.848   3.179   1.189
10861SOL    HW133482   2.790   3.216   1.261
10861SOL    HW233483   2.837   3.233   1.106
10862SOL     OW33484   3.848   3.821   5.591
10862SOL    HW133485   3.792   3.880   5.533
10862SOL    HW233486   3.798   3.798   5.674
10863SOL     OW33487   2.040   0.464   3.223
10863SOL    HW133488   2.021   0.511   3.137
10863SOL    HW233489   1.967   0.483   3.288
10864SOL     OW33490   3.316   4.297   1.633
10864SOL    HW133491   3.290   4.235   1.559
10864SOL    HW233492   3.233   4.331   1.677
10865SOL     OW33493   4.045   1.513   2.397
10865SOL    HW133494   4.137   1.551   2.406
10865SOL    HW233495   4.006   1.499   2.488
10866SOL     OW33496   0.317   3.656   3.613
10866SOL    HW133497   0.248   3.692   3.550
10866SOL    HW233498   0.362   3.732   3.659
10867SOL     OW33499   4.548   2.593   6.859
10867SOL    HW133500   4.498   2.622   6.942
10867SOL    HW233501   4.618   2.527   6.884
10868SOL     OW33502   1.733   0.013   4.794
10868SOL    HW133503   1.636   0.024   4.770
10868SOL    HW233504   1.789   0.027   4.713
10869NA      NA33505   0.094   1.027   6.052
10870NA      NA33506   4.506   4.504   5.197
10871NA      NA33507   1.475   4.739   2.709
10872NA      NA33508   5.750   3.949   3.004
10873NA      NA33509   3.767   2.413   5.501
10874NA      NA33510   2.264   4.850   0.206
10875NA      NA33511   1.676   5.384   6.713
10876NA      NA33512   4.032   4.483   1.327
10877NA      NA33513   4.813   4.580   0.231
10878NA      NA33514   3.340   1.285   0.149
10879NA      NA33515   5.546   7.007   1.777
10880NA      NA33516   2.532   6.364   5.472
10881NA      NA33517   4.170   5.037   1.895
10882NA      NA33518   3.879   3.694   6.653
   7.02847   7.02847   7.02847
