Generated by trjconv : CNT in water t=  64.00000
33518
    1C        C    1   2.848   2.772   4.748
    1C        C    2   2.900   2.720   4.868
    1C        C    3   2.836   2.767   4.984
    1C        C    4   2.852   2.773   4.259
    1C        C    5   2.906   2.730   4.383
    1C        C    6   2.851   2.774   4.505
    1C        C    7   3.017   2.641   4.628
    1C        C    8   2.903   2.725   4.626
    1C        C    9   3.082   2.608   4.749
    1C        C   10   3.006   2.627   4.866
    1C        C   11   3.182   2.490   4.975
    1C        C   12   3.058   2.556   4.976
    1C        C   13   2.851   2.771   3.771
    1C        C   14   2.904   2.721   3.892
    1C        C   15   2.861   2.778   4.014
    1C        C   16   3.018   2.640   4.138
    1C        C   17   2.905   2.726   4.137
    1C        C   18   3.081   2.611   4.261
    1C        C   19   3.024   2.652   4.383
    1C        C   20   3.209   2.551   4.507
    1C        C   21   3.080   2.609   4.506
    1C        C   22   3.282   2.533   4.627
    1C        C   23   3.212   2.549   4.748
    1C        C   24   3.417   2.481   4.865
    1C        C   25   3.275   2.504   4.867
    1C        C   26   3.493   2.488   4.982
    1C        C   27   2.851   2.768   3.281
    1C        C   28   2.901   2.720   3.405
    1C        C   29   2.849   2.766   3.528
    1C        C   30   3.019   2.638   3.650
    1C        C   31   2.905   2.721   3.650
    1C        C   32   3.077   2.599   3.772
    1C        C   33   3.015   2.634   3.894
    1C        C   34   3.209   2.548   4.020
    1C        C   35   3.078   2.601   4.016
    1C        C   36   3.279   2.532   4.141
    1C        C   37   3.212   2.559   4.263
    1C        C   38   3.415   2.505   4.380
    1C        C   39   3.276   2.527   4.385
    1C        C   40   3.489   2.497   4.501
    1C        C   41   3.420   2.504   4.624
    1C        C   42   3.634   2.485   4.746
    1C        C   43   3.492   2.482   4.744
    1C        C   44   3.710   2.482   4.864
    1C        C   45   3.632   2.481   4.980
    1C        C   46   2.840   2.754   2.794
    1C        C   47   2.894   2.709   2.916
    1C        C   48   2.844   2.758   3.038
    1C        C   49   3.014   2.631   3.164
    1C        C   50   2.899   2.713   3.160
    1C        C   51   3.078   2.598   3.286
    1C        C   52   3.016   2.639   3.407
    1C        C   53   3.211   2.549   3.528
    1C        C   54   3.082   2.606   3.527
    1C        C   55   3.280   2.527   3.650
    1C        C   56   3.207   2.542   3.770
    1C        C   57   3.410   2.504   3.895
    1C        C   58   3.271   2.527   3.894
    1C        C   59   3.484   2.503   4.016
    1C        C   60   3.417   2.501   4.140
    1C        C   61   3.631   2.504   4.257
    1C        C   62   3.490   2.497   4.261
    1C        C   63   3.701   2.507   4.380
    1C        C   64   3.630   2.499   4.501
    1C        C   65   3.837   2.543   4.623
    1C        C   66   3.701   2.507   4.623
    1C        C   67   3.908   2.562   4.744
    1C        C   68   3.846   2.522   4.864
    1C        C   69   4.053   2.585   4.982
    1C        C   70   3.925   2.527   4.979
    1C        C   71   2.825   2.731   2.308
    1C        C   72   2.886   2.695   2.429
    1C        C   73   2.836   2.749   2.549
    1C        C   74   3.010   2.627   2.673
    1C        C   75   2.893   2.706   2.671
    1C        C   76   3.072   2.593   2.795
    1C        C   77   3.014   2.633   2.918
    1C        C   78   3.202   2.540   3.037
    1C        C   79   3.072   2.595   3.041
    1C        C   80   3.273   2.527   3.159
    1C        C   81   3.209   2.545   3.284
    1C        C   82   3.415   2.499   3.403
    1C        C   83   3.275   2.519   3.406
    1C        C   84   3.485   2.490   3.525
    1C        C   85   3.419   2.501   3.650
    1C        C   86   3.625   2.501   3.770
    1C        C   87   3.484   2.494   3.775
    1C        C   88   3.696   2.513   3.892
    1C        C   89   3.625   2.510   4.015
    1C        C   90   3.837   2.550   4.134
    1C        C   91   3.700   2.518   4.135
    1C        C   92   3.902   2.573   4.257
    1C        C   93   3.836   2.549   4.380
    1C        C   94   4.032   2.631   4.501
    1C        C   95   3.903   2.574   4.502
    1C        C   96   4.096   2.667   4.622
    1C        C   97   4.033   2.629   4.743
    1C        C   98   4.195   2.761   4.863
    1C        C   99   4.100   2.654   4.866
    1C        C  100   4.219   2.840   4.977
    1C        C  101   2.834   2.738   2.067
    1C        C  102   2.993   2.593   2.189
    1C        C  103   2.882   2.683   2.187
    1C        C  104   3.066   2.572   2.309
    1C        C  105   3.003   2.615   2.428
    1C        C  106   3.200   2.537   2.551
    1C        C  107   3.071   2.593   2.550
    1C        C  108   3.270   2.517   2.672
    1C        C  109   3.202   2.538   2.794
    1C        C  110   3.411   2.501   2.913
    1C        C  111   3.270   2.515   2.916
    1C        C  112   3.483   2.500   3.035
    1C        C  113   3.413   2.507   3.157
    1C        C  114   3.624   2.508   3.280
    1C        C  115   3.483   2.505   3.279
    1C        C  116   3.695   2.504   3.402
    1C        C  117   3.626   2.495   3.525
    1C        C  118   3.832   2.543   3.645
    1C        C  119   3.695   2.507   3.647
    1C        C  120   3.896   2.572   3.768
    1C        C  121   3.833   2.546   3.892
    1C        C  122   4.029   2.638   4.011
    1C        C  123   3.904   2.572   4.011
    1C        C  124   4.086   2.679   4.133
    1C        C  125   4.024   2.645   4.256
    1C        C  126   4.193   2.768   4.374
    1C        C  127   4.088   2.674   4.378
    1C        C  128   4.242   2.818   4.497
    1C        C  129   4.199   2.763   4.619
    1C        C  130   4.323   2.935   4.741
    1C        C  131   4.246   2.815   4.742
    1C        C  132   4.356   3.007   4.858
    1C        C  133   4.290   2.959   4.971
    1C        C  134   3.172   2.463   2.080
    1C        C  135   3.039   2.508   2.083
    1C        C  136   3.261   2.479   2.186
    1C        C  137   3.198   2.519   2.306
    1C        C  138   3.405   2.482   2.427
    1C        C  139   3.266   2.511   2.429
    1C        C  140   3.478   2.479   2.547
    1C        C  141   3.410   2.493   2.670
    1C        C  142   3.623   2.496   2.791
    1C        C  143   3.482   2.493   2.791
    1C        C  144   3.693   2.507   2.913
    1C        C  145   3.625   2.497   3.036
    1C        C  146   3.834   2.533   3.156
    1C        C  147   3.695   2.507   3.157
    1C        C  148   3.900   2.560   3.278
    1C        C  149   3.833   2.538   3.401
    1C        C  150   4.027   2.624   3.524
    1C        C  151   3.899   2.563   3.523
    1C        C  152   4.081   2.671   3.646
    1C        C  153   4.024   2.632   3.769
    1C        C  154   4.197   2.764   3.887
    1C        C  155   4.088   2.674   3.887
    1C        C  156   4.248   2.814   4.008
    1C        C  157   4.198   2.765   4.131
    1C        C  158   4.340   2.923   4.253
    1C        C  159   4.247   2.816   4.253
    1C        C  160   4.375   2.984   4.376
    1C        C  161   4.331   2.928   4.498
    1C        C  162   4.440   3.112   4.618
    1C        C  163   4.371   2.989   4.619
    1C        C  164   4.468   3.186   4.735
    1C        C  165   4.433   3.126   4.858
    1C        C  166   4.517   3.318   4.975
    1C        C  167   4.479   3.184   4.976
    1C        C  168   3.477   2.440   2.073
    1C        C  169   3.401   2.460   2.189
    1C        C  170   3.619   2.461   2.311
    1C        C  171   3.477   2.457   2.308
    1C        C  172   3.694   2.486   2.428
    1C        C  173   3.618   2.493   2.547
    1C        C  174   3.829   2.540   2.667
    1C        C  175   3.691   2.509   2.667
    1C        C  176   3.895   2.567   2.789
    1C        C  177   3.830   2.545   2.912
    1C        C  178   4.025   2.625   3.034
    1C        C  179   3.900   2.559   3.034
    1C        C  180   4.086   2.660   3.157
    1C        C  181   4.026   2.625   3.280
    1C        C  182   4.193   2.753   3.398
    1C        C  183   4.090   2.657   3.402
    1C        C  184   4.244   2.803   3.520
    1C        C  185   4.192   2.759   3.643
    1C        C  186   4.337   2.919   3.763
    1C        C  187   4.245   2.812   3.763
    1C        C  188   4.382   2.977   3.884
    1C        C  189   4.337   2.924   4.007
    1C        C  190   4.448   3.102   4.129
    1C        C  191   4.382   2.978   4.130
    1C        C  192   4.472   3.169   4.251
    1C        C  193   4.442   3.108   4.375
    1C        C  194   4.504   3.313   4.489
    1C        C  195   4.470   3.176   4.496
    1C        C  196   4.521   3.385   4.610
    1C        C  197   4.513   3.321   4.735
    1C        C  198   4.553   3.534   4.851
    1C        C  199   4.529   3.393   4.857
    1C        C  200   4.585   3.623   4.958
    1C        C  201   3.617   2.428   2.075
    1C        C  202   3.827   2.515   2.182
    1C        C  203   3.695   2.461   2.191
    1C        C  204   3.897   2.542   2.303
    1C        C  205   3.832   2.516   2.426
    1C        C  206   4.024   2.618   2.545
    1C        C  207   3.899   2.553   2.545
    1C        C  208   4.082   2.663   2.666
    1C        C  209   4.022   2.630   2.789
    1C        C  210   4.197   2.747   2.908
    1C        C  211   4.083   2.663   2.911
    1C        C  212   4.249   2.796   3.030
    1C        C  213   4.197   2.746   3.152
    1C        C  214   4.335   2.908   3.274
    1C        C  215   4.243   2.801   3.274
    1C        C  216   4.373   2.968   3.396
    1C        C  217   4.333   2.913   3.519
    1C        C  218   4.438   3.102   3.639
    1C        C  219   4.372   2.977   3.639
    1C        C  220   4.468   3.166   3.761
    1C        C  221   4.449   3.101   3.885
    1C        C  222   4.508   3.305   4.002
    1C        C  223   4.478   3.167   4.007
    1C        C  224   4.514   3.375   4.124
    1C        C  225   4.504   3.306   4.247
    1C        C  226   4.515   3.523   4.367
    1C        C  227   4.513   3.382   4.366
    1C        C  228   4.513   3.596   4.488
    1C        C  229   4.523   3.526   4.610
    1C        C  230   4.505   3.743   4.726
    1C        C  231   4.529   3.603   4.729
    1C        C  232   4.494   3.821   4.844
    1C        C  233   4.543   3.756   4.958
    1C        C  234   4.028   2.599   2.067
    1C        C  235   3.902   2.542   2.067
    1C        C  236   4.090   2.645   2.185
    1C        C  237   4.023   2.608   2.303
    1C        C  238   4.201   2.734   2.422
    1C        C  239   4.087   2.649   2.422
    1C        C  240   4.253   2.787   2.541
    1C        C  241   4.198   2.744   2.664
    1C        C  242   4.336   2.906   2.782
    1C        C  243   4.249   2.795   2.785
    1C        C  244   4.377   2.961   2.906
    1C        C  245   4.337   2.906   3.030
    1C        C  246   4.440   3.091   3.147
    1C        C  247   4.379   2.964   3.151
    1C        C  248   4.465   3.155   3.271
    1C        C  249   4.439   3.093   3.395
    1C        C  250   4.497   3.302   3.513
    1C        C  251   4.468   3.163   3.515
    1C        C  252   4.510   3.371   3.635
    1C        C  253   4.504   3.303   3.758
    1C        C  254   4.520   3.516   3.879
    1C        C  255   4.516   3.375   3.879
    1C        C  256   4.514   3.588   4.001
    1C        C  257   4.521   3.516   4.123
    1C        C  258   4.491   3.729   4.242
    1C        C  259   4.517   3.590   4.243
    1C        C  260   4.472   3.802   4.361
    1C        C  261   4.492   3.736   4.484
    1C        C  262   4.427   3.941   4.605
    1C        C  263   4.478   3.809   4.604
    1C        C  264   4.399   4.010   4.725
    1C        C  265   4.432   3.948   4.847
    1C        C  266   4.316   4.134   4.959
    1C        C  267   4.388   4.014   4.963
    1C        C  268   4.264   2.775   2.060
    1C        C  269   4.202   2.730   2.178
    1C        C  270   4.349   2.887   2.301
    1C        C  271   4.254   2.780   2.299
    1C        C  272   4.392   2.952   2.418
    1C        C  273   4.344   2.896   2.539
    1C        C  274   4.443   3.086   2.660
    1C        C  275   4.382   2.959   2.660
    1C        C  276   4.473   3.151   2.782
    1C        C  277   4.444   3.086   2.904
    1C        C  278   4.508   3.291   3.024
    1C        C  279   4.469   3.155   3.025
    1C        C  280   4.512   3.362   3.147
    1C        C  281   4.500   3.292   3.269
    1C        C  282   4.513   3.509   3.388
    1C        C  283   4.509   3.367   3.388
    1C        C  284   4.509   3.580   3.510
    1C        C  285   4.515   3.513   3.634
    1C        C  286   4.488   3.723   3.755
    1C        C  287   4.518   3.584   3.756
    1C        C  288   4.473   3.793   3.876
    1C        C  289   4.489   3.727   4.000
    1C        C  290   4.427   3.933   4.118
    1C        C  291   4.471   3.798   4.120
    1C        C  292   4.396   4.000   4.238
    1C        C  293   4.422   3.934   4.360
    1C        C  294   4.319   4.121   4.478
    1C        C  295   4.393   4.001   4.482
    1C        C  296   4.278   4.183   4.598
    1C        C  297   4.324   4.131   4.721
    1C        C  298   4.204   4.316   4.837
    1C        C  299   4.287   4.200   4.839
    1C        C  300   4.173   4.405   4.945
    1C        C  301   4.352   2.882   2.063
    1C        C  302   4.469   3.067   2.179
    1C        C  303   4.400   2.942   2.180
    1C        C  304   4.485   3.144   2.297
    1C        C  305   4.445   3.083   2.418
    1C        C  306   4.511   3.288   2.535
    1C        C  307   4.469   3.153   2.539
    1C        C  308   4.521   3.357   2.658
    1C        C  309   4.506   3.288   2.781
    1C        C  310   4.517   3.502   2.899
    1C        C  311   4.519   3.360   2.901
    1C        C  312   4.516   3.573   3.021
    1C        C  313   4.516   3.503   3.144
    1C        C  314   4.490   3.716   3.266
    1C        C  315   4.511   3.577   3.264
    1C        C  316   4.478   3.788   3.387
    1C        C  317   4.489   3.720   3.510
    1C        C  318   4.419   3.922   3.630
    1C        C  319   4.466   3.789   3.632
    1C        C  320   4.391   3.990   3.751
    1C        C  321   4.418   3.924   3.872
    1C        C  322   4.317   4.110   3.990
    1C        C  323   4.393   3.991   3.994
    1C        C  324   4.277   4.172   4.110
    1C        C  325   4.320   4.119   4.234
    1C        C  326   4.187   4.286   4.354
    1C        C  327   4.280   4.179   4.355
    1C        C  328   4.136   4.342   4.473
    1C        C  329   4.185   4.290   4.595
    1C        C  330   4.024   4.431   4.714
    1C        C  331   4.141   4.350   4.714
    1C        C  332   3.967   4.485   4.831
    1C        C  333   4.055   4.481   4.939
    1C        C  334   4.551   3.270   2.062
    1C        C  335   4.536   3.131   2.069
    1C        C  336   4.540   3.352   2.175
    1C        C  337   4.520   3.281   2.296
    1C        C  338   4.523   3.500   2.414
    1C        C  339   4.522   3.359   2.414
    1C        C  340   4.520   3.572   2.536
    1C        C  341   4.521   3.498   2.656
    1C        C  342   4.490   3.712   2.775
    1C        C  343   4.510   3.572   2.776
    1C        C  344   4.474   3.780   2.898
    1C        C  345   4.488   3.711   3.020
    1C        C  346   4.419   3.912   3.140
    1C        C  347   4.468   3.780   3.142
    1C        C  348   4.392   3.979   3.261
    1C        C  349   4.429   3.921   3.385
    1C        C  350   4.324   4.107   3.502
    1C        C  351   4.395   3.985   3.506
    1C        C  352   4.277   4.168   3.620
    1C        C  353   4.317   4.110   3.743
    1C        C  354   4.178   4.267   3.870
    1C        C  355   4.276   4.165   3.866
    1C        C  356   4.124   4.320   3.989
    1C        C  357   4.180   4.274   4.111
    1C        C  358   4.013   4.406   4.231
    1C        C  359   4.131   4.329   4.232
    1C        C  360   3.955   4.452   4.351
    1C        C  361   4.021   4.424   4.473
    1C        C  362   3.828   4.518   4.592
    1C        C  363   3.960   4.466   4.593
    1C        C  364   3.760   4.546   4.713
    1C        C  365   3.837   4.541   4.831
    1C        C  366   3.632   4.598   4.949
    1C        C  367   3.769   4.573   4.949
    1C        C  368   4.505   3.562   2.054
    1C        C  369   4.528   3.493   2.174
    1C        C  370   4.501   3.710   2.285
    1C        C  371   4.518   3.570   2.291
    1C        C  372   4.492   3.781   2.407
    1C        C  373   4.500   3.711   2.530
    1C        C  374   4.424   3.910   2.651
    1C        C  375   4.478   3.779   2.652
    1C        C  376   4.391   3.974   2.773
    1C        C  377   4.429   3.914   2.896
    1C        C  378   4.319   4.097   3.014
    1C        C  379   4.394   3.978   3.017
    1C        C  380   4.276   4.156   3.135
    1C        C  381   4.313   4.096   3.258
    1C        C  382   4.177   4.259   3.378
    1C        C  383   4.272   4.155   3.380
    1C        C  384   4.128   4.314   3.499
    1C        C  385   4.179   4.270   3.623
    1C        C  386   4.010   4.394   3.743
    1C        C  387   4.125   4.312   3.747
    1C        C  388   3.946   4.431   3.863
    1C        C  389   4.005   4.396   3.986
    1C        C  390   3.820   4.496   4.108
    1C        C  391   3.947   4.434   4.109
    1C        C  392   3.753   4.517   4.230
    1C        C  393   3.822   4.501   4.352
    1C        C  394   3.616   4.553   4.474
    1C        C  395   3.755   4.533   4.472
    1C        C  396   3.545   4.565   4.595
    1C        C  397   3.619   4.559   4.715
    1C        C  398   3.410   4.554   4.842
    1C        C  399   3.550   4.573   4.838
    1C        C  400   3.343   4.519   4.960
    1C        C  401   4.504   3.701   2.050
    1C        C  402   4.446   3.916   2.165
    1C        C  403   4.488   3.781   2.164
    1C        C  404   4.411   3.978   2.287
    1C        C  405   4.443   3.913   2.409
    1C        C  406   4.326   4.095   2.524
    1C        C  407   4.400   3.974   2.528
    1C        C  408   4.276   4.147   2.645
    1C        C  409   4.312   4.091   2.770
    1C        C  410   4.175   4.252   2.889
    1C        C  411   4.273   4.151   2.892
    1C        C  412   4.123   4.300   3.011
    1C        C  413   4.178   4.258   3.135
    1C        C  414   4.003   4.379   3.253
    1C        C  415   4.120   4.301   3.256
    1C        C  416   3.942   4.411   3.377
    1C        C  417   4.006   4.385   3.500
    1C        C  418   3.816   4.482   3.619
    1C        C  419   3.946   4.426   3.621
    1C        C  420   3.749   4.508   3.740
    1C        C  421   3.815   4.485   3.863
    1C        C  422   3.610   4.533   3.986
    1C        C  423   3.749   4.507   3.986
    1C        C  424   3.544   4.536   4.111
    1C        C  425   3.613   4.540   4.234
    1C        C  426   3.399   4.547   4.358
    1C        C  427   3.540   4.553   4.354
    1C        C  428   3.328   4.551   4.480
    1C        C  429   3.404   4.563   4.599
    1C        C  430   3.197   4.518   4.722
    1C        C  431   3.337   4.546   4.722
    1C        C  432   3.129   4.493   4.844
    1C        C  433   3.206   4.495   4.961
    1C        C  434   4.388   4.125   2.054
    1C        C  435   4.440   3.996   2.050
    1C        C  436   4.309   4.171   2.165
    1C        C  437   4.333   4.097   2.283
    1C        C  438   4.185   4.253   2.403
    1C        C  439   4.288   4.156   2.403
    1C        C  440   4.132   4.306   2.523
    1C        C  441   4.178   4.249   2.644
    1C        C  442   4.007   4.377   2.766
    1C        C  443   4.123   4.296   2.765
    1C        C  444   3.945   4.414   2.888
    1C        C  445   4.006   4.378   3.010
    1C        C  446   3.811   4.470   3.130
    1C        C  447   3.942   4.417   3.131
    1C        C  448   3.746   4.492   3.254
    1C        C  449   3.813   4.469   3.376
    1C        C  450   3.608   4.526   3.497
    1C        C  451   3.747   4.499   3.497
    1C        C  452   3.538   4.533   3.620
    1C        C  453   3.609   4.528   3.742
    1C        C  454   3.398   4.542   3.866
    1C        C  455   3.539   4.541   3.864
    1C        C  456   3.331   4.529   3.990
    1C        C  457   3.403   4.536   4.112
    1C        C  458   3.195   4.502   4.237
    1C        C  459   3.332   4.535   4.235
    1C        C  460   3.125   4.483   4.359
    1C        C  461   3.191   4.517   4.480
    1C        C  462   2.998   4.434   4.605
    1C        C  463   3.125   4.495   4.603
    1C        C  464   2.935   4.399   4.727
    1C        C  465   2.996   4.439   4.849
    1C        C  466   2.803   4.338   4.962
    1C        C  467   2.909   4.429   4.963
    1C        C  468   4.120   4.282   2.045
    1C        C  469   4.189   4.250   2.162
    1C        C  470   4.005   4.369   2.280
    1C        C  471   4.122   4.289   2.282
    1C        C  472   3.945   4.406   2.403
    1C        C  473   4.011   4.378   2.525
    1C        C  474   3.813   4.465   2.644
    1C        C  475   3.943   4.411   2.645
    1C        C  476   3.746   4.493   2.766
    1C        C  477   3.816   4.471   2.887
    1C        C  478   3.607   4.519   3.010
    1C        C  479   3.745   4.492   3.008
    1C        C  480   3.535   4.523   3.132
    1C        C  481   3.607   4.514   3.254
    1C        C  482   3.395   4.524   3.376
    1C        C  483   3.536   4.527   3.376
    1C        C  484   3.326   4.529   3.499
    1C        C  485   3.397   4.540   3.621
    1C        C  486   3.189   4.506   3.748
    1C        C  487   3.327   4.536   3.744
    1C        C  488   3.123   4.482   3.870
    1C        C  489   3.193   4.502   3.992
    1C        C  490   3.002   4.416   4.116
    1C        C  491   3.127   4.482   4.115
    1C        C  492   2.939   4.385   4.239
    1C        C  493   2.995   4.428   4.361
    1C        C  494   2.827   4.303   4.485
    1C        C  495   2.937   4.392   4.485
    1C        C  496   2.774   4.260   4.609
    1C        C  497   2.817   4.320   4.729
    1C        C  498   2.664   4.166   4.847
    1C        C  499   2.751   4.277   4.847
    1C        C  500   2.583   4.123   4.952
    1C        C  501   4.001   4.354   2.041
    1C        C  502   3.817   4.467   2.156
    1C        C  503   3.944   4.406   2.158
    1C        C  504   3.746   4.483   2.277
    1C        C  505   3.814   4.458   2.398
    1C        C  506   3.608   4.506   2.521
    1C        C  507   3.746   4.479   2.520
    1C        C  508   3.535   4.516   2.641
    1C        C  509   3.607   4.517   2.763
    1C        C  510   3.397   4.522   2.887
    1C        C  511   3.539   4.521   2.887
    1C        C  512   3.324   4.520   3.008
    1C        C  513   3.394   4.530   3.130
    1C        C  514   3.187   4.491   3.257
    1C        C  515   3.325   4.523   3.253
    1C        C  516   3.123   4.466   3.380
    1C        C  517   3.189   4.495   3.502
    1C        C  518   2.998   4.413   3.624
    1C        C  519   3.124   4.477   3.626
    1C        C  520   2.938   4.382   3.748
    1C        C  521   2.998   4.416   3.872
    1C        C  522   2.831   4.289   3.996
    1C        C  523   2.940   4.378   3.995
    1C        C  524   2.786   4.241   4.121
    1C        C  525   2.829   4.297   4.243
    1C        C  526   2.690   4.137   4.366
    1C        C  527   2.776   4.249   4.365
    1C        C  528   2.646   4.082   4.488
    1C        C  529   2.685   4.150   4.606
    1C        C  530   2.588   3.962   4.732
    1C        C  531   2.644   4.092   4.728
    1C        C  532   2.544   3.901   4.853
    1C        C  533   2.528   3.995   4.960
    1C        C  534   3.617   4.561   2.046
    1C        C  535   3.750   4.515   2.043
    1C        C  536   3.534   4.537   2.159
    1C        C  537   3.607   4.511   2.279
    1C        C  538   3.393   4.510   2.401
    1C        C  539   3.535   4.510   2.400
    1C        C  540   3.323   4.511   2.523
    1C        C  541   3.394   4.519   2.645
    1C        C  542   3.185   4.489   2.766
    1C        C  543   3.323   4.519   2.767
    1C        C  544   3.118   4.466   2.889
    1C        C  545   3.186   4.486   3.011
    1C        C  546   2.996   4.400   3.136
    1C        C  547   3.122   4.465   3.135
    1C        C  548   2.936   4.364   3.258
    1C        C  549   2.996   4.404   3.380
    1C        C  550   2.830   4.278   3.506
    1C        C  551   2.937   4.370   3.504
    1C        C  552   2.781   4.233   3.630
    1C        C  553   2.838   4.282   3.750
    1C        C  554   2.701   4.123   3.877
    1C        C  555   2.791   4.231   3.873
    1C        C  556   2.661   4.067   4.001
    1C        C  557   2.699   4.130   4.122
    1C        C  558   2.597   3.945   4.246
    1C        C  559   2.660   4.071   4.245
    1C        C  560   2.566   3.882   4.369
    1C        C  561   2.593   3.951   4.489
    1C        C  562   2.532   3.752   4.617
    1C        C  563   2.562   3.890   4.613
    1C        C  564   2.517   3.681   4.738
    1C        C  565   2.523   3.760   4.856
    1C        C  566   2.544   3.547   4.979
    1C        C  567   2.525   3.685   4.974
    1C        C  568   3.324   4.479   2.039
    1C        C  569   3.395   4.508   2.157
    1C        C  570   3.185   4.471   2.282
    1C        C  571   3.322   4.507   2.279
    1C        C  572   3.116   4.452   2.404
    1C        C  573   3.186   4.477   2.524
    1C        C  574   2.989   4.401   2.649
    1C        C  575   3.116   4.464   2.646
    1C        C  576   2.932   4.362   2.772
    1C        C  577   2.993   4.400   2.893
    1C        C  578   2.825   4.271   3.015
    1C        C  579   2.935   4.359   3.015
    1C        C  580   2.776   4.221   3.138
    1C        C  581   2.829   4.272   3.259
    1C        C  582   2.692   4.117   3.386
    1C        C  583   2.781   4.227   3.384
    1C        C  584   2.658   4.059   3.511
    1C        C  585   2.696   4.120   3.632
    1C        C  586   2.603   3.933   3.757
    1C        C  587   2.660   4.062   3.756
    1C        C  588   2.578   3.871   3.881
    1C        C  589   2.604   3.938   4.003
    1C        C  590   2.537   3.739   4.129
    1C        C  591   2.571   3.876   4.126
    1C        C  592   2.527   3.673   4.254
    1C        C  593   2.532   3.745   4.375
    1C        C  594   2.511   3.535   4.500
    1C        C  595   2.525   3.675   4.498
    1C        C  596   2.519   3.464   4.622
    1C        C  597   2.517   3.539   4.742
    1C        C  598   2.539   3.328   4.861
    1C        C  599   2.526   3.469   4.864
    1C        C  600   2.536   3.253   4.979
    1C        C  601   3.192   4.439   2.043
    1C        C  602   2.982   4.391   2.156
    1C        C  603   3.116   4.440   2.161
    1C        C  604   2.924   4.362   2.282
    1C        C  605   2.985   4.400   2.404
    1C        C  606   2.818   4.274   2.526
    1C        C  607   2.925   4.366   2.528
    1C        C  608   2.770   4.224   2.649
    1C        C  609   2.824   4.271   2.771
    1C        C  610   2.684   4.111   2.894
    1C        C  611   2.776   4.218   2.893
    1C        C  612   2.647   4.054   3.018
    1C        C  613   2.688   4.111   3.141
    1C        C  614   2.591   3.928   3.268
    1C        C  615   2.651   4.056   3.266
    1C        C  616   2.568   3.864   3.392
    1C        C  617   2.594   3.933   3.512
    1C        C  618   2.531   3.733   3.639
    1C        C  619   2.572   3.868   3.636
    1C        C  620   2.517   3.666   3.763
    1C        C  621   2.532   3.737   3.884
    1C        C  622   2.510   3.529   4.013
    1C        C  623   2.521   3.670   4.007
    1C        C  624   2.517   3.458   4.134
    1C        C  625   2.520   3.532   4.255
    1C        C  626   2.544   3.325   4.380
    1C        C  627   2.518   3.464   4.378
    1C        C  628   2.563   3.255   4.501
    1C        C  629   2.544   3.325   4.622
    1C        C  630   2.600   3.118   4.745
    1C        C  631   2.553   3.252   4.743
    1C        C  632   2.619   3.049   4.868
    1C        C  633   2.567   3.117   4.983
    1C        C  634   2.779   4.303   2.053
    1C        C  635   2.892   4.385   2.044
    1C        C  636   2.754   4.227   2.168
    1C        C  637   2.814   4.273   2.287
    1C        C  638   2.677   4.109   2.409
    1C        C  639   2.761   4.223   2.408
    1C        C  640   2.645   4.047   2.532
    1C        C  641   2.685   4.111   2.652
    1C        C  642   2.580   3.925   2.776
    1C        C  643   2.644   4.051   2.773
    1C        C  644   2.558   3.862   2.900
    1C        C  645   2.590   3.925   3.023
    1C        C  646   2.525   3.725   3.146
    1C        C  647   2.566   3.860   3.146
    1C        C  648   2.511   3.660   3.271
    1C        C  649   2.530   3.727   3.393
    1C        C  650   2.511   3.520   3.521
    1C        C  651   2.517   3.662   3.518
    1C        C  652   2.520   3.452   3.644
    1C        C  653   2.514   3.525   3.765
    1C        C  654   2.536   3.319   3.888
    1C        C  655   2.513   3.458   3.890
    1C        C  656   2.557   3.251   4.010
    1C        C  657   2.543   3.319   4.134
    1C        C  658   2.617   3.124   4.257
    1C        C  659   2.565   3.256   4.258
    1C        C  660   2.640   3.058   4.379
    1C        C  661   2.608   3.121   4.501
    1C        C  662   2.716   2.938   4.625
    1C        C  663   2.636   3.055   4.623
    1C        C  664   2.754   2.879   4.747
    1C        C  665   2.702   2.933   4.868
    1C        C  666   2.744   2.871   4.986
    1C        C  667   2.684   4.021   2.053
    1C        C  668   2.684   4.104   2.165
    1C        C  669   2.590   3.913   2.290
    1C        C  670   2.647   4.044   2.287
    1C        C  671   2.558   3.851   2.413
    1C        C  672   2.580   3.921   2.534
    1C        C  673   2.515   3.720   2.659
    1C        C  674   2.552   3.856   2.656
    1C        C  675   2.509   3.652   2.783
    1C        C  676   2.522   3.725   2.903
    1C        C  677   2.508   3.513   3.029
    1C        C  678   2.513   3.654   3.025
    1C        C  679   2.508   3.445   3.153
    1C        C  680   2.504   3.519   3.274
    1C        C  681   2.536   3.312   3.400
    1C        C  682   2.513   3.452   3.397
    1C        C  683   2.558   3.243   3.522
    1C        C  684   2.546   3.313   3.644
    1C        C  685   2.610   3.116   3.770
    1C        C  686   2.557   3.247   3.768
    1C        C  687   2.646   3.057   3.893
    1C        C  688   2.611   3.120   4.014
    1C        C  689   2.720   2.938   4.138
    1C        C  690   2.641   3.055   4.136
    1C        C  691   2.760   2.880   4.261
    1C        C  692   2.715   2.938   4.382
    1C        C  693   2.758   2.881   4.504
    1C        C  694   2.626   3.894   2.056
    1C        C  695   2.526   3.705   2.175
    1C        C  696   2.570   3.839   2.172
    1C        C  697   2.505   3.640   2.299
    1C        C  698   2.520   3.716   2.417
    1C        C  699   2.489   3.507   2.544
    1C        C  700   2.497   3.648   2.539
    1C        C  701   2.506   3.437   2.666
    1C        C  702   2.509   3.510   2.786
    1C        C  703   2.533   3.300   2.911
    1C        C  704   2.512   3.439   2.908
    1C        C  705   2.549   3.234   3.036
    1C        C  706   2.538   3.307   3.156
    1C        C  707   2.603   3.108   3.276
    1C        C  708   2.556   3.241   3.280
    1C        C  709   2.637   3.048   3.399
    1C        C  710   2.609   3.111   3.522
    1C        C  711   2.711   2.931   3.650
    1C        C  712   2.635   3.050   3.647
    1C        C  713   2.759   2.878   3.772
    1C        C  714   2.725   2.940   3.894
    1C        C  715   2.767   2.884   4.016
    1C        C  716   2.456   3.494   2.061
    1C        C  717   2.495   3.629   2.062
    1C        C  718   2.471   3.423   2.184
    1C        C  719   2.485   3.499   2.303
    1C        C  720   2.517   3.291   2.425
    1C        C  721   2.489   3.430   2.426
    1C        C  722   2.543   3.225   2.547
    1C        C  723   2.525   3.297   2.668
    1C        C  724   2.592   3.096   2.791
    1C        C  725   2.545   3.229   2.790
    1C        C  726   2.624   3.032   2.913
    1C        C  727   2.597   3.101   3.033
    1C        C  728   2.712   2.924   3.161
    1C        C  729   2.631   3.040   3.155
    1C        C  730   2.754   2.871   3.285
    1C        C  731   2.716   2.931   3.407
    1C        C  732   2.761   2.876   3.529
    1C        C  733   2.484   3.194   2.074
    1C        C  734   2.494   3.282   2.183
    1C        C  735   2.580   3.086   2.306
    1C        C  736   2.524   3.216   2.306
    1C        C  737   2.616   3.022   2.427
    1C        C  738   2.596   3.094   2.546
    1C        C  739   2.702   2.912   2.671
    1C        C  740   2.630   3.034   2.670
    1C        C  741   2.744   2.857   2.795
    1C        C  742   2.697   2.911   2.917
    1C        C  743   2.752   2.865   3.039
    1C        C  744   2.548   3.071   2.073
    1C        C  745   2.685   2.897   2.187
    1C        C  746   2.609   3.016   2.187
    1C        C  747   2.732   2.839   2.306
    1C        C  748   2.691   2.902   2.426
    1C        C  749   2.741   2.854   2.549
    1C        C  750   2.740   2.840   2.071
    1C        C  751   3.665   2.345   1.962
    1C        O  752   3.685   2.222   1.980
    1C        O  753   3.632   2.377   1.830
    1C        C  754   4.637   3.058   1.989
    1C        O  755   4.595   3.001   1.885
    1C        O  756   4.777   3.074   1.989
    1C        C  757   4.445   4.218   1.954
    1C        O  758   4.553   4.280   1.971
    1C        O  759   4.424   4.175   1.822
    1C        C  760   3.610   4.694   1.979
    1C        O  761   3.628   4.802   2.041
    1C        O  762   3.546   4.713   1.857
    1C        C  763   2.903   4.461   1.917
    1C        O  764   2.959   4.423   1.811
    1C        O  765   2.835   4.582   1.901
    1C        C  766   2.335   3.478   1.976
    1C        O  767   2.339   3.451   1.853
    1C        O  768   2.212   3.530   2.017
    1C        C  769   4.709   3.591   5.033
    1C        O  770   4.716   3.616   5.156
    1C        O  771   4.832   3.612   4.969
    1C        C  772   4.285   4.471   5.016
    1C        O  773   4.329   4.447   5.132
    1C        O  774   4.376   4.557   4.954
    1C        C  775   4.123   2.568   5.111
    1C        O  776   4.243   2.532   5.126
    1C        O  777   4.077   2.628   5.229
    1C        C  778   2.877   4.551   5.041
    1C        O  779   2.868   4.658   4.975
    1C        O  780   2.771   4.565   5.131
    1C        C  781   2.488   3.043   5.085
    1C        O  782   2.380   2.989   5.049
    1C        O  783   2.486   3.068   5.222
    1C        C  784   2.409   4.002   5.048
    1C        O  785   2.290   4.000   5.006
    1C        O  786   2.413   3.944   5.176
    1C        C  787   2.958   2.450   1.973
    1C        O  788   2.955   2.488   1.853
    1C        O  789   2.859   2.354   1.991
    1C        C  790   3.196   2.380   5.073
    1C        O  791   3.157   2.264   5.044
    1C        O  792   3.194   2.416   5.209
    1C        H  793   4.274   3.020   5.058
    1C        H  794   4.180   2.816   5.074
    1C        H  795   4.551   3.118   5.020
    1C        H  796   4.528   3.364   5.071
    1C        H  797   4.574   3.814   5.043
    1C        H  798   4.397   3.970   5.059
    1C        H  799   4.316   4.188   5.052
    1C        H  800   4.044   4.562   5.008
    1C        H  801   3.807   4.553   5.047
    1C        H  802   3.594   4.682   5.003
    1C        H  803   3.396   4.515   5.053
    1C        H  804   3.155   4.502   5.055
    1C        H  805   3.899   2.466   5.063
    1C        H  806   3.674   2.435   5.067
    1C        H  807   3.008   2.553   5.070
    1C        H  808   3.445   2.461   5.074
    1C        H  809   2.860   2.724   5.079
    1C        H  810   2.680   2.881   5.072
    1C        H  811   2.473   3.289   5.058
    1C        H  812   2.568   3.505   5.074
    1C        H  813   2.473   3.726   5.059
    1C        H  814   2.544   4.201   5.016
    1C        H  815   2.768   4.308   5.058
    1C        H  816   2.711   2.870   1.972
    1C        H  817   2.888   2.716   1.977
    1C        H  818   3.205   2.403   1.997
    1C        H  819   3.427   2.419   1.981
    1C        H  820   3.859   2.530   1.969
    1C        H  821   4.066   2.623   1.970
    1C        H  822   4.256   2.718   1.970
    1C        H  823   4.360   2.932   1.969
    1C        H  824   4.612   3.309   1.984
    1C        H  825   4.453   3.511   1.977
    1C        H  826   4.576   3.736   1.979
    1C        H  827   3.785   4.498   1.944
    1C        H  828   3.989   4.412   1.952
    1C        H  829   4.132   4.218   1.960
    1C        H  830   4.505   3.971   1.968
    1C        H  831   2.616   3.840   1.964
    1C        H  832   2.732   4.051   1.961
    1C        H  833   2.691   4.346   2.010
    1C        H  834   3.376   4.484   1.945
    1C        H  835   3.177   4.354   1.980
    1C        H  836   2.553   3.012   1.984
    1C        H  837   2.388   3.197   2.027
    1C        H  838   2.514   3.672   1.966
    2V3OU   H29  839   2.800   3.559   1.088
    2V3OU   C27  840   2.777   3.510   1.186
    2V3OU   H27  841   2.723   3.581   1.253
    2V3OU   H28  842   2.727   3.411   1.169
    2V3OU   O11  843   2.908   3.474   1.230
    2V3OU   C15  844   2.924   3.393   1.340
    2V3OU   C13  845   3.054   3.374   1.391
    2V3OU   C14  846   3.076   3.264   1.475
    2V3OU   C16  847   2.969   3.190   1.525
    2V3OU    H6  848   2.989   3.104   1.591
    2V3OU   C12  849   3.214   3.229   1.512
    2V3OU    O2  850   3.240   3.127   1.580
    2V3OU   C10  851   3.326   3.312   1.466
    2V3OU    C8  852   3.457   3.269   1.486
    2V3OU   O10  853   3.485   3.153   1.552
    2V3OU   H26  854   3.402   3.117   1.587
    2V3OU    C6  855   3.564   3.345   1.430
    2V3OU    C5  856   3.540   3.463   1.359
    2V3OU    C4  857   3.703   3.291   1.425
    2V3OU    H4  858   3.722   3.231   1.519
    2V3OU    H5  859   3.709   3.221   1.337
    2V3OU    C2  860   3.817   3.392   1.416
    2V3OU    O6  861   3.812   3.478   1.530
    2V3OU   H21  862   3.772   3.565   1.511
    2V3OU    C3  863   3.783   3.492   1.305
    2V3OU    H2  864   3.860   3.573   1.304
    2V3OU    H3  865   3.784   3.436   1.209
    2V3OU   C25  866   3.952   3.321   1.402
    2V3OU    O7  867   3.996   3.284   1.294
    2V3OU   C26  868   4.027   3.287   1.530
    2V3OU   H22  869   4.069   3.379   1.579
    2V3OU   H23  870   4.116   3.224   1.505
    2V3OU    O8  871   3.964   3.211   1.630
    2V3OU   H24  872   3.919   3.272   1.691
    2V3OU    C1  873   3.648   3.560   1.324
    2V3OU    H1  874   3.624   3.617   1.230
    2V3OU    O3  875   3.658   3.655   1.431
    2V3OU   C19  876   3.622   3.792   1.410
    2V3OU    H9  877   3.528   3.806   1.350
    2V3OU    O4  878   3.717   3.852   1.325
    2V3OU   C20  879   3.844   3.875   1.387
    2V3OU   H10  880   3.897   3.776   1.401
    2V3OU   C24  881   3.610   3.854   1.550
    2V3OU   H16  882   3.543   3.796   1.618
    2V3OU   H17  883   3.570   3.956   1.530
    2V3OU   C23  884   3.744   3.877   1.620
    2V3OU   H15  885   3.788   3.775   1.646
    2V3OU    N1  886   3.736   3.956   1.741
    2V3OU   H19  887   3.807   3.928   1.806
    2V3OU   H20  888   3.648   3.939   1.786
    2V3OU   C21  889   3.843   3.947   1.522
    2V3OU   H11  890   3.944   3.923   1.567
    2V3OU    O5  891   3.831   4.089   1.522
    2V3OU   H18  892   3.782   4.104   1.604
    2V3OU   C22  893   3.912   3.952   1.276
    2V3OU   H12  894   3.861   4.051   1.263
    2V3OU   H13  895   3.909   3.892   1.181
    2V3OU   H14  896   4.023   3.953   1.295
    2V3OU   C11  897   3.162   3.469   1.360
    2V3OU    O1  898   3.139   3.584   1.316
    2V3OU    C9  899   3.301   3.431   1.393
    2V3OU    C7  900   3.405   3.505   1.338
    2V3OU    O9  901   3.388   3.615   1.257
    2V3OU   H25  902   3.293   3.633   1.267
    2V3OU   C17  903   2.818   3.315   1.394
    2V3OU    H7  904   2.715   3.346   1.378
    2V3OU   C18  905   2.838   3.213   1.486
    2V3OU    H8  906   2.761   3.150   1.532
    3SOL     OW  907   0.985   3.015   0.592
    3SOL    HW1  908   1.035   3.088   0.547
    3SOL    HW2  909   0.933   2.963   0.524
    4SOL     OW  910   5.414   0.841   1.847
    4SOL    HW1  911   5.492   0.887   1.888
    4SOL    HW2  912   5.443   0.795   1.763
    5SOL     OW  913   3.644   2.877   0.891
    5SOL    HW1  914   3.705   2.864   0.813
    5SOL    HW2  915   3.698   2.898   0.973
    6SOL     OW  916   2.803   1.823   1.262
    6SOL    HW1  917   2.729   1.801   1.199
    6SOL    HW2  918   2.860   1.896   1.224
    7SOL     OW  919   6.054   0.948   1.655
    7SOL    HW1  920   5.955   0.962   1.649
    7SOL    HW2  921   6.081   0.942   1.752
    8SOL     OW  922   2.547   1.546   4.124
    8SOL    HW1  923   2.572   1.534   4.220
    8SOL    HW2  924   2.527   1.457   4.082
    9SOL     OW  925   1.134   3.516   5.954
    9SOL    HW1  926   1.224   3.483   5.981
    9SOL    HW2  927   1.142   3.572   5.871
   10SOL     OW  928   7.014   3.945   0.114
   10SOL    HW1  929   6.991   3.958   0.018
   10SOL    HW2  930   0.022   4.032   0.153
   11SOL     OW  931   4.133   6.355   0.070
   11SOL    HW1  932   4.112   6.422   7.024
   11SOL    HW2  933   4.186   6.398   0.143
   12SOL     OW  934   5.783   6.109   2.336
   12SOL    HW1  935   5.868   6.105   2.390
   12SOL    HW2  936   5.707   6.077   2.391
   13SOL     OW  937   2.153   6.785   3.277
   13SOL    HW1  938   2.133   6.713   3.211
   13SOL    HW2  939   2.222   6.846   3.239
   14SOL     OW  940   2.995   6.618   1.642
   14SOL    HW1  941   2.938   6.536   1.634
   14SOL    HW2  942   3.091   6.594   1.625
   15SOL     OW  943   1.345   6.396   6.329
   15SOL    HW1  944   1.289   6.462   6.278
   15SOL    HW2  945   1.333   6.411   6.427
   16SOL     OW  946   6.421   1.557   6.055
   16SOL    HW1  947   6.449   1.625   5.987
   16SOL    HW2  948   6.322   1.545   6.050
   17SOL     OW  949   5.116   6.278   3.966
   17SOL    HW1  950   5.177   6.290   4.045
   17SOL    HW2  951   5.069   6.364   3.947
   18SOL     OW  952   1.644   1.485   6.552
   18SOL    HW1  953   1.624   1.540   6.633
   18SOL    HW2  954   1.580   1.408   6.548
   19SOL     OW  955   0.548   0.082   1.933
   19SOL    HW1  956   0.584   0.134   1.856
   19SOL    HW2  957   0.528   7.013   1.904
   20SOL     OW  958   3.201   1.497   4.615
   20SOL    HW1  959   3.251   1.527   4.533
   20SOL    HW2  960   3.104   1.517   4.604
   21SOL     OW  961   2.806   2.437   0.984
   21SOL    HW1  962   2.766   2.515   1.033
   21SOL    HW2  963   2.871   2.471   0.916
   22SOL     OW  964   1.120   0.553   6.006
   22SOL    HW1  965   1.206   0.556   5.954
   22SOL    HW2  966   1.114   0.466   6.055
   23SOL     OW  967   3.905   6.355   4.353
   23SOL    HW1  968   3.990   6.301   4.356
   23SOL    HW2  969   3.878   6.370   4.258
   24SOL     OW  970   4.194   1.408   4.440
   24SOL    HW1  971   4.233   1.460   4.364
   24SOL    HW2  972   4.264   1.348   4.478
   25SOL     OW  973   3.109   5.559   0.888
   25SOL    HW1  974   3.207   5.580   0.879
   25SOL    HW2  975   3.056   5.627   0.839
   26SOL     OW  976   6.365   1.493   2.460
   26SOL    HW1  977   6.440   1.550   2.426
   26SOL    HW2  978   6.278   1.531   2.429
   27SOL     OW  979   6.264   6.315   2.273
   27SOL    HW1  980   6.314   6.394   2.308
   27SOL    HW2  981   6.189   6.346   2.215
   28SOL     OW  982   3.371   0.313   0.156
   28SOL    HW1  983   3.300   0.283   0.220
   28SOL    HW2  984   3.352   0.407   0.127
   29SOL     OW  985   3.953   2.570   1.652
   29SOL    HW1  986   4.025   2.634   1.678
   29SOL    HW2  987   3.987   2.508   1.581
   30SOL     OW  988   3.990   0.734   4.517
   30SOL    HW1  989   3.956   0.821   4.551
   30SOL    HW2  990   3.977   0.729   4.418
   31SOL     OW  991   0.344   0.951   5.545
   31SOL    HW1  992   0.417   0.988   5.602
   31SOL    HW2  993   0.376   0.868   5.500
   32SOL     OW  994   0.037   2.100   1.922
   32SOL    HW1  995   0.057   2.057   1.834
   32SOL    HW2  996   0.122   2.110   1.974
   33SOL     OW  997   1.416   1.938   5.308
   33SOL    HW1  998   1.323   1.903   5.317
   33SOL    HW2  999   1.435   1.960   5.212
   34SOL     OW 1000   0.985   0.327   4.820
   34SOL    HW1 1001   1.024   0.409   4.778
   34SOL    HW2 1002   1.028   0.246   4.779
   35SOL     OW 1003   4.153   1.567   6.299
   35SOL    HW1 1004   4.212   1.508   6.244
   35SOL    HW2 1005   4.205   1.601   6.378
   36SOL     OW 1006   1.544   1.641   5.640
   36SOL    HW1 1007   1.570   1.734   5.664
   36SOL    HW2 1008   1.624   1.581   5.649
   37SOL     OW 1009   2.524   6.730   1.599
   37SOL    HW1 1010   2.591   6.683   1.656
   37SOL    HW2 1011   2.548   6.827   1.592
   38SOL     OW 1012   0.400   5.934   2.875
   38SOL    HW1 1013   0.368   5.848   2.833
   38SOL    HW2 1014   0.365   6.011   2.822
   39SOL     OW 1015   6.974   3.421   5.657
   39SOL    HW1 1016   6.932   3.385   5.573
   39SOL    HW2 1017   7.024   3.348   5.703
   40SOL     OW 1018   6.968   0.771   1.386
   40SOL    HW1 1019   6.935   0.865   1.392
   40SOL    HW2 1020   7.018   0.748   1.470
   41SOL     OW 1021   1.188   6.950   5.898
   41SOL    HW1 1022   1.219   6.980   5.807
   41SOL    HW2 1023   1.094   6.916   5.891
   42SOL     OW 1024   3.643   0.561   6.920
   42SOL    HW1 1025   3.712   0.526   6.982
   42SOL    HW2 1026   3.619   0.655   6.945
   43SOL     OW 1027   5.326   5.385   5.212
   43SOL    HW1 1028   5.239   5.338   5.194
   43SOL    HW2 1029   5.307   5.480   5.234
   44SOL     OW 1030   0.761   3.436   6.291
   44SOL    HW1 1031   0.676   3.488   6.295
   44SOL    HW2 1032   0.835   3.491   6.331
   45SOL     OW 1033   3.062   0.481   2.005
   45SOL    HW1 1034   3.132   0.532   2.056
   45SOL    HW2 1035   3.064   0.510   1.910
   46SOL     OW 1036   1.607   4.313   3.875
   46SOL    HW1 1037   1.525   4.368   3.862
   46SOL    HW2 1038   1.666   4.356   3.944
   47SOL     OW 1039   6.425   4.470   3.253
   47SOL    HW1 1040   6.329   4.458   3.228
   47SOL    HW2 1041   6.462   4.550   3.208
   48SOL     OW 1042   1.064   2.442   5.581
   48SOL    HW1 1043   1.053   2.412   5.676
   48SOL    HW2 1044   1.124   2.378   5.533
   49SOL     OW 1045   4.720   2.207   0.605
   49SOL    HW1 1046   4.791   2.144   0.634
   49SOL    HW2 1047   4.753   2.301   0.614
   50SOL     OW 1048   6.735   3.959   4.325
   50SOL    HW1 1049   6.675   3.989   4.400
   50SOL    HW2 1050   6.773   3.869   4.347
   51SOL     OW 1051   3.450   5.697   2.840
   51SOL    HW1 1052   3.373   5.736   2.889
   51SOL    HW2 1053   3.493   5.626   2.896
   52SOL     OW 1054   1.418   2.496   1.613
   52SOL    HW1 1055   1.491   2.556   1.582
   52SOL    HW2 1056   1.457   2.423   1.670
   53SOL     OW 1057   4.957   0.037   4.103
   53SOL    HW1 1058   4.975   0.083   4.190
   53SOL    HW2 1059   5.042   0.027   4.052
   54SOL     OW 1060   3.992   5.796   5.669
   54SOL    HW1 1061   4.002   5.861   5.594
   54SOL    HW2 1062   3.940   5.716   5.637
   55SOL     OW 1063   4.121   2.335   0.464
   55SOL    HW1 1064   4.048   2.268   0.482
   55SOL    HW2 1065   4.108   2.415   0.523
   56SOL     OW 1066   0.903   0.047   2.033
   56SOL    HW1 1067   0.831   7.008   2.060
   56SOL    HW2 1068   0.873   0.141   2.052
   57SOL     OW 1069   6.011   0.782   0.861
   57SOL    HW1 1070   6.056   0.863   0.823
   57SOL    HW2 1071   5.976   0.726   0.786
   58SOL     OW 1072   6.966   6.329   7.024
   58SOL    HW1 1073   6.994   6.381   0.080
   58SOL    HW2 1074   6.906   6.386   6.967
   59SOL     OW 1075   1.143   6.967   5.089
   59SOL    HW1 1076   1.097   0.031   5.100
   59SOL    HW2 1077   1.165   6.930   5.179
   60SOL     OW 1078   4.747   6.865   4.746
   60SOL    HW1 1079   4.758   6.964   4.743
   60SOL    HW2 1080   4.666   6.839   4.693
   61SOL     OW 1081   4.197   0.280   4.537
   61SOL    HW1 1082   4.098   0.295   4.532
   61SOL    HW2 1083   4.234   0.326   4.618
   62SOL     OW 1084   2.052   0.946   4.683
   62SOL    HW1 1085   2.118   0.875   4.659
   62SOL    HW2 1086   2.035   1.004   4.603
   63SOL     OW 1087   6.889   3.390   3.103
   63SOL    HW1 1088   6.988   3.392   3.118
   63SOL    HW2 1089   6.863   3.306   3.056
   64SOL     OW 1090   6.814   2.664   5.801
   64SOL    HW1 1091   6.850   2.574   5.826
   64SOL    HW2 1092   6.732   2.653   5.746
   65SOL     OW 1093   6.779   4.609   6.326
   65SOL    HW1 1094   6.800   4.513   6.308
   65SOL    HW2 1095   6.862   4.664   6.317
   66SOL     OW 1096   2.781   1.293   0.714
   66SOL    HW1 1097   2.753   1.197   0.726
   66SOL    HW2 1098   2.700   1.350   0.705
   67SOL     OW 1099   5.283   6.044   4.365
   67SOL    HW1 1100   5.343   6.112   4.407
   67SOL    HW2 1101   5.269   6.066   4.268
   68SOL     OW 1102   5.541   2.342   5.924
   68SOL    HW1 1103   5.572   2.261   5.874
   68SOL    HW2 1104   5.620   2.389   5.963
   69SOL     OW 1105   2.962   3.154   6.199
   69SOL    HW1 1106   2.992   3.201   6.282
   69SOL    HW2 1107   2.875   3.108   6.216
   70SOL     OW 1108   0.225   4.905   2.029
   70SOL    HW1 1109   0.263   4.918   1.938
   70SOL    HW2 1110   0.131   4.941   2.031
   71SOL     OW 1111   1.583   2.339   2.989
   71SOL    HW1 1112   1.574   2.411   3.057
   71SOL    HW2 1113   1.645   2.369   2.916
   72SOL     OW 1114   3.580   5.755   4.166
   72SOL    HW1 1115   3.530   5.721   4.086
   72SOL    HW2 1116   3.656   5.813   4.135
   73SOL     OW 1117   4.576   2.707   0.192
   73SOL    HW1 1118   4.494   2.650   0.199
   73SOL    HW2 1119   4.594   2.750   0.280
   74SOL     OW 1120   5.248   5.713   5.788
   74SOL    HW1 1121   5.202   5.645   5.846
   74SOL    HW2 1122   5.207   5.802   5.804
   75SOL     OW 1123   3.873   5.373   5.597
   75SOL    HW1 1124   3.821   5.324   5.527
   75SOL    HW2 1125   3.825   5.368   5.684
   76SOL     OW 1126   2.714   3.077   1.211
   76SOL    HW1 1127   2.617   3.067   1.232
   76SOL    HW2 1128   2.725   3.136   1.131
   77SOL     OW 1129   5.437   5.227   6.699
   77SOL    HW1 1130   5.501   5.299   6.727
   77SOL    HW2 1131   5.434   5.156   6.769
   78SOL     OW 1132   6.460   6.402   6.177
   78SOL    HW1 1133   6.361   6.393   6.174
   78SOL    HW2 1134   6.487   6.492   6.142
   79SOL     OW 1135   3.121   0.094   6.920
   79SOL    HW1 1136   3.097   0.075   7.014
   79SOL    HW2 1137   3.049   0.062   6.859
   80SOL     OW 1138   0.156   1.660   4.063
   80SOL    HW1 1139   0.083   1.659   3.994
   80SOL    HW2 1140   0.195   1.568   4.072
   81SOL     OW 1141   1.022   0.179   4.007
   81SOL    HW1 1142   0.990   0.145   3.918
   81SOL    HW2 1143   1.039   0.277   4.001
   82SOL     OW 1144   0.177   4.590   5.378
   82SOL    HW1 1145   0.128   4.540   5.307
   82SOL    HW2 1146   0.116   4.656   5.421
   83SOL     OW 1147   6.994   6.964   0.166
   83SOL    HW1 1148   6.913   6.917   0.201
   83SOL    HW2 1149   6.967   0.005   0.096
   84SOL     OW 1150   6.231   3.920   1.755
   84SOL    HW1 1151   6.266   3.969   1.675
   84SOL    HW2 1152   6.194   3.832   1.727
   85SOL     OW 1153   0.271   2.766   5.680
   85SOL    HW1 1154   0.174   2.784   5.695
   85SOL    HW2 1155   0.322   2.851   5.691
   86SOL     OW 1156   0.969   0.960   5.669
   86SOL    HW1 1157   0.944   1.047   5.711
   86SOL    HW2 1158   1.060   0.932   5.702
   87SOL     OW 1159   3.980   0.781   1.278
   87SOL    HW1 1160   3.936   0.838   1.208
   87SOL    HW2 1161   4.066   0.745   1.243
   88SOL     OW 1162   5.257   0.454   0.771
   88SOL    HW1 1163   5.180   0.403   0.811
   88SOL    HW2 1164   5.253   0.549   0.800
   89SOL     OW 1165   1.790   2.286   5.993
   89SOL    HW1 1166   1.803   2.335   5.907
   89SOL    HW2 1167   1.872   2.233   6.015
   90SOL     OW 1168   5.898   6.555   3.598
   90SOL    HW1 1169   5.977   6.496   3.612
   90SOL    HW2 1170   5.840   6.517   3.526
   91SOL     OW 1171   4.755   4.687   4.642
   91SOL    HW1 1172   4.675   4.634   4.671
   91SOL    HW2 1173   4.805   4.637   4.572
   92SOL     OW 1174   3.116   5.493   1.436
   92SOL    HW1 1175   3.116   5.590   1.461
   92SOL    HW2 1176   3.105   5.484   1.337
   93SOL     OW 1177   3.522   5.239   5.756
   93SOL    HW1 1178   3.506   5.202   5.847
   93SOL    HW2 1179   3.500   5.171   5.687
   94SOL     OW 1180   2.519   6.144   0.421
   94SOL    HW1 1181   2.509   6.075   0.493
   94SOL    HW2 1182   2.459   6.121   0.344
   95SOL     OW 1183   6.774   0.425   4.693
   95SOL    HW1 1184   6.688   0.475   4.697
   95SOL    HW2 1185   6.847   0.487   4.664
   96SOL     OW 1186   1.900   0.283   5.506
   96SOL    HW1 1187   1.815   0.291   5.455
   96SOL    HW2 1188   1.883   0.298   5.604
   97SOL     OW 1189   6.416   3.430   5.235
   97SOL    HW1 1190   6.402   3.335   5.264
   97SOL    HW2 1191   6.497   3.468   5.280
   98SOL     OW 1192   5.941   2.636   6.054
   98SOL    HW1 1193   6.026   2.585   6.060
   98SOL    HW2 1194   5.878   2.604   6.124
   99SOL     OW 1195   4.178   2.155   1.101
   99SOL    HW1 1196   4.108   2.083   1.103
   99SOL    HW2 1197   4.134   2.243   1.085
  100SOL     OW 1198   6.643   5.159   6.037
  100SOL    HW1 1199   6.545   5.158   6.020
  100SOL    HW2 1200   6.676   5.253   6.042
  101SOL     OW 1201   0.963   6.551   3.598
  101SOL    HW1 1202   0.886   6.613   3.583
  101SOL    HW2 1203   0.936   6.481   3.665
  102SOL     OW 1204   5.204   6.983   3.461
  102SOL    HW1 1205   5.188   6.917   3.535
  102SOL    HW2 1206   5.141   0.036   3.471
  103SOL     OW 1207   3.880   1.673   1.113
  103SOL    HW1 1208   3.822   1.709   1.186
  103SOL    HW2 1209   3.940   1.602   1.149
  104SOL     OW 1210   0.088   5.794   2.359
  104SOL    HW1 1211   0.172   5.794   2.305
  104SOL    HW2 1212   0.027   5.866   2.326
  105SOL     OW 1213   5.098   1.126   5.486
  105SOL    HW1 1214   5.004   1.144   5.455
  105SOL    HW2 1215   5.108   1.159   5.580
  106SOL     OW 1216   2.959   6.316   6.773
  106SOL    HW1 1217   2.954   6.303   6.872
  106SOL    HW2 1218   2.941   6.229   6.727
  107SOL     OW 1219   2.333   3.539   1.093
  107SOL    HW1 1220   2.275   3.464   1.126
  107SOL    HW2 1221   2.327   3.616   1.156
  108SOL     OW 1222   4.817   4.566   5.470
  108SOL    HW1 1223   4.916   4.556   5.459
  108SOL    HW2 1224   4.797   4.634   5.540
  109SOL     OW 1225   6.845   1.028   1.181
  109SOL    HW1 1226   6.822   0.991   1.271
  109SOL    HW2 1227   6.863   1.126   1.189
  110SOL     OW 1228   4.253   5.863   5.340
  110SOL    HW1 1229   4.196   5.849   5.421
  110SOL    HW2 1230   4.326   5.928   5.362
  111SOL     OW 1231   3.791   1.118   3.483
  111SOL    HW1 1232   3.727   1.114   3.406
  111SOL    HW2 1233   3.793   1.029   3.530
  112SOL     OW 1234   0.775   0.671   6.208
  112SOL    HW1 1235   0.741   0.734   6.278
  112SOL    HW2 1236   0.814   0.590   6.251
  113SOL     OW 1237   0.268   5.000   3.472
  113SOL    HW1 1238   0.245   5.047   3.386
  113SOL    HW2 1239   0.362   5.024   3.498
  114SOL     OW 1240   0.393   6.818   6.937
  114SOL    HW1 1241   0.472   6.863   6.897
  114SOL    HW2 1242   0.338   6.885   6.988
  115SOL     OW 1243   5.401   1.002   4.913
  115SOL    HW1 1244   5.418   0.909   4.943
  115SOL    HW2 1245   5.341   1.048   4.980
  116SOL     OW 1246   6.234   4.656   2.070
  116SOL    HW1 1247   6.205   4.640   2.164
  116SOL    HW2 1248   6.331   4.636   2.060
  117SOL     OW 1249   1.321   0.058   6.836
  117SOL    HW1 1250   1.418   0.054   6.812
  117SOL    HW2 1251   1.267   0.072   6.753
  118SOL     OW 1252   1.084   0.598   2.225
  118SOL    HW1 1253   1.075   0.698   2.227
  118SOL    HW2 1254   1.058   0.564   2.135
  119SOL     OW 1255   6.778   3.199   6.286
  119SOL    HW1 1256   6.705   3.144   6.246
  119SOL    HW2 1257   6.777   3.188   6.385
  120SOL     OW 1258   5.858   6.528   0.975
  120SOL    HW1 1259   5.793   6.499   0.905
  120SOL    HW2 1260   5.862   6.628   0.977
  121SOL     OW 1261   2.530   3.091   5.776
  121SOL    HW1 1262   2.497   3.178   5.738
  121SOL    HW2 1263   2.615   3.106   5.826
  122SOL     OW 1264   0.645   3.263   4.589
  122SOL    HW1 1265   0.683   3.205   4.661
  122SOL    HW2 1266   0.699   3.347   4.582
  123SOL     OW 1267   1.048   1.697   1.419
  123SOL    HW1 1268   0.995   1.699   1.504
  123SOL    HW2 1269   1.123   1.764   1.425
  124SOL     OW 1270   4.844   3.040   1.024
  124SOL    HW1 1271   4.854   3.128   1.071
  124SOL    HW2 1272   4.863   2.965   1.087
  125SOL     OW 1273   2.035   3.517   1.817
  125SOL    HW1 1274   2.119   3.533   1.870
  125SOL    HW2 1275   1.977   3.452   1.866
  126SOL     OW 1276   3.167   4.859   1.651
  126SOL    HW1 1277   3.085   4.842   1.705
  126SOL    HW2 1278   3.156   4.943   1.599
  127SOL     OW 1279   0.605   6.055   6.200
  127SOL    HW1 1280   0.689   6.090   6.157
  127SOL    HW2 1281   0.526   6.097   6.157
  128SOL     OW 1282   4.506   2.420   1.487
  128SOL    HW1 1283   4.579   2.445   1.551
  128SOL    HW2 1284   4.419   2.457   1.520
  129SOL     OW 1285   2.860   3.745   6.328
  129SOL    HW1 1286   2.913   3.660   6.332
  129SOL    HW2 1287   2.835   3.773   6.421
  130SOL     OW 1288   1.492   1.940   4.452
  130SOL    HW1 1289   1.549   1.998   4.509
  130SOL    HW2 1290   1.396   1.967   4.462
  131SOL     OW 1291   5.073   1.787   3.067
  131SOL    HW1 1292   5.000   1.828   3.012
  131SOL    HW2 1293   5.147   1.759   3.007
  132SOL     OW 1294   0.747   2.299   0.613
  132SOL    HW1 1295   0.817   2.370   0.603
  132SOL    HW2 1296   0.657   2.342   0.618
  133SOL     OW 1297   6.446   5.197   2.488
  133SOL    HW1 1298   6.442   5.128   2.416
  133SOL    HW2 1299   6.423   5.287   2.450
  134SOL     OW 1300   0.263   3.350   2.821
  134SOL    HW1 1301   0.256   3.250   2.818
  134SOL    HW2 1302   0.216   3.384   2.903
  135SOL     OW 1303   5.152   1.549   4.171
  135SOL    HW1 1304   5.208   1.568   4.252
  135SOL    HW2 1305   5.067   1.504   4.199
  136SOL     OW 1306   5.699   4.687   5.045
  136SOL    HW1 1307   5.710   4.736   5.131
  136SOL    HW2 1308   5.781   4.633   5.027
  137SOL     OW 1309   4.228   0.215   5.813
  137SOL    HW1 1310   4.205   0.165   5.729
  137SOL    HW2 1311   4.145   0.229   5.867
  138SOL     OW 1312   6.783   5.045   4.899
  138SOL    HW1 1313   6.801   5.143   4.903
  138SOL    HW2 1314   6.716   5.026   4.827
  139SOL     OW 1315   3.547   5.392   5.458
  139SOL    HW1 1316   3.479   5.450   5.502
  139SOL    HW2 1317   3.596   5.445   5.389
  140SOL     OW 1318   6.025   4.403   4.592
  140SOL    HW1 1319   6.021   4.304   4.607
  140SOL    HW2 1320   6.066   4.448   4.672
  141SOL     OW 1321   1.631   1.997   3.814
  141SOL    HW1 1322   1.541   2.039   3.828
  141SOL    HW2 1323   1.670   2.031   3.728
  142SOL     OW 1324   1.610   5.211   1.290
  142SOL    HW1 1325   1.630   5.113   1.289
  142SOL    HW2 1326   1.616   5.245   1.384
  143SOL     OW 1327   5.613   4.103   1.724
  143SOL    HW1 1328   5.514   4.099   1.742
  143SOL    HW2 1329   5.661   4.056   1.797
  144SOL     OW 1330   2.770   6.992   0.018
  144SOL    HW1 1331   2.788   0.005   0.109
  144SOL    HW2 1332   2.842   6.927   7.018
  145SOL     OW 1333   0.016   5.614   0.780
  145SOL    HW1 1334   6.981   5.627   0.859
  145SOL    HW2 1335   0.010   5.519   0.748
  146SOL     OW 1336   5.805   5.289   0.691
  146SOL    HW1 1337   5.844   5.208   0.647
  146SOL    HW2 1338   5.866   5.320   0.764
  147SOL     OW 1339   6.232   2.113   1.152
  147SOL    HW1 1340   6.300   2.116   1.225
  147SOL    HW2 1341   6.153   2.058   1.181
  148SOL     OW 1342   1.038   5.233   5.818
  148SOL    HW1 1343   1.128   5.272   5.797
  148SOL    HW2 1344   1.040   5.134   5.804
  149SOL     OW 1345   3.052   1.099   5.536
  149SOL    HW1 1346   3.136   1.046   5.522
  149SOL    HW2 1347   2.975   1.052   5.493
  150SOL     OW 1348   0.207   5.427   6.696
  150SOL    HW1 1349   0.109   5.443   6.683
  150SOL    HW2 1350   0.222   5.382   6.784
  151SOL     OW 1351   4.198   1.420   1.628
  151SOL    HW1 1352   4.173   1.325   1.649
  151SOL    HW2 1353   4.268   1.421   1.556
  152SOL     OW 1354   3.398   1.349   4.209
  152SOL    HW1 1355   3.309   1.327   4.170
  152SOL    HW2 1356   3.446   1.264   4.232
  153SOL     OW 1357   2.371   1.339   3.408
  153SOL    HW1 1358   2.466   1.316   3.427
  153SOL    HW2 1359   2.366   1.393   3.325
  154SOL     OW 1360   0.135   2.117   2.692
  154SOL    HW1 1361   0.058   2.118   2.628
  154SOL    HW2 1362   0.199   2.044   2.667
  155SOL     OW 1363   0.209   1.076   3.423
  155SOL    HW1 1364   0.168   1.017   3.353
  155SOL    HW2 1365   0.218   1.169   3.387
  156SOL     OW 1366   6.604   2.092   1.065
  156SOL    HW1 1367   6.652   2.012   1.028
  156SOL    HW2 1368   6.523   2.063   1.115
  157SOL     OW 1369   5.786   3.625   2.537
  157SOL    HW1 1370   5.758   3.530   2.550
  157SOL    HW2 1371   5.719   3.672   2.481
  158SOL     OW 1372   1.706   0.940   3.325
  158SOL    HW1 1373   1.624   0.987   3.295
  158SOL    HW2 1374   1.785   1.000   3.314
  159SOL     OW 1375   5.052   3.898   2.150
  159SOL    HW1 1376   4.986   3.971   2.132
  159SOL    HW2 1377   5.020   3.843   2.227
  160SOL     OW 1378   6.628   4.075   5.891
  160SOL    HW1 1379   6.648   4.013   5.967
  160SOL    HW2 1380   6.555   4.036   5.835
  161SOL     OW 1381   3.004   5.060   4.823
  161SOL    HW1 1382   2.982   5.005   4.742
  161SOL    HW2 1383   2.922   5.070   4.879
  162SOL     OW 1384   4.419   5.962   1.341
  162SOL    HW1 1385   4.390   5.927   1.430
  162SOL    HW2 1386   4.414   5.890   1.273
  163SOL     OW 1387   4.382   0.931   2.287
  163SOL    HW1 1388   4.383   1.025   2.255
  163SOL    HW2 1389   4.435   0.874   2.224
  164SOL     OW 1390   5.548   3.328   0.974
  164SOL    HW1 1391   5.509   3.409   0.932
  164SOL    HW2 1392   5.486   3.294   1.045
  165SOL     OW 1393   5.026   3.863   6.570
  165SOL    HW1 1394   4.958   3.919   6.523
  165SOL    HW2 1395   5.072   3.917   6.640
  166SOL     OW 1396   1.029   0.504   1.989
  166SOL    HW1 1397   1.089   0.502   1.909
  166SOL    HW2 1398   0.945   0.455   1.969
  167SOL     OW 1399   6.424   3.026   0.281
  167SOL    HW1 1400   6.454   2.958   0.214
  167SOL    HW2 1401   6.383   2.980   0.360
  168SOL     OW 1402   2.268   5.525   0.932
  168SOL    HW1 1403   2.289   5.485   0.843
  168SOL    HW2 1404   2.178   5.570   0.927
  169SOL     OW 1405   1.971   6.367   1.847
  169SOL    HW1 1406   2.024   6.405   1.771
  169SOL    HW2 1407   2.001   6.274   1.866
  170SOL     OW 1408   0.541   1.745   3.208
  170SOL    HW1 1409   0.480   1.822   3.188
  170SOL    HW2 1410   0.613   1.774   3.271
  171SOL     OW 1411   3.569   3.359   6.820
  171SOL    HW1 1412   3.588   3.262   6.836
  171SOL    HW2 1413   3.600   3.385   6.729
  172SOL     OW 1414   0.429   2.977   6.206
  172SOL    HW1 1415   0.352   2.974   6.142
  172SOL    HW2 1416   0.515   2.981   6.154
  173SOL     OW 1417   0.386   6.095   5.653
  173SOL    HW1 1418   0.480   6.097   5.619
  173SOL    HW2 1419   0.367   6.179   5.704
  174SOL     OW 1420   2.933   5.317   3.850
  174SOL    HW1 1421   2.850   5.365   3.877
  174SOL    HW2 1422   2.997   5.382   3.809
  175SOL     OW 1423   1.069   5.642   2.808
  175SOL    HW1 1424   1.114   5.556   2.785
  175SOL    HW2 1425   1.088   5.665   2.904
  176SOL     OW 1426   2.425   4.968   0.975
  176SOL    HW1 1427   2.394   5.017   1.056
  176SOL    HW2 1428   2.347   4.923   0.931
  177SOL     OW 1429   4.848   2.029   2.607
  177SOL    HW1 1430   4.928   2.045   2.549
  177SOL    HW2 1431   4.876   1.985   2.691
  178SOL     OW 1432   5.542   5.182   6.262
  178SOL    HW1 1433   5.549   5.156   6.165
  178SOL    HW2 1434   5.587   5.112   6.318
  179SOL     OW 1435   2.727   0.170   0.643
  179SOL    HW1 1436   2.643   0.174   0.589
  179SOL    HW2 1437   2.708   0.195   0.738
  180SOL     OW 1438   0.661   2.391   6.770
  180SOL    HW1 1439   0.734   2.338   6.814
  180SOL    HW2 1440   0.572   2.358   6.802
  181SOL     OW 1441   3.123   2.901   5.305
  181SOL    HW1 1442   3.148   2.964   5.377
  181SOL    HW2 1443   3.083   2.951   5.228
  182SOL     OW 1444   4.440   2.424   4.991
  182SOL    HW1 1445   4.420   2.371   4.908
  182SOL    HW2 1446   4.355   2.462   5.028
  183SOL     OW 1447   5.155   1.571   2.174
  183SOL    HW1 1448   5.113   1.490   2.133
  183SOL    HW2 1449   5.140   1.650   2.113
  184SOL     OW 1450   0.600   4.821   2.998
  184SOL    HW1 1451   0.638   4.902   2.953
  184SOL    HW2 1452   0.512   4.799   2.958
  185SOL     OW 1453   2.091   4.143   6.343
  185SOL    HW1 1454   2.136   4.060   6.310
  185SOL    HW2 1455   1.993   4.127   6.350
  186SOL     OW 1456   5.875   6.976   3.062
  186SOL    HW1 1457   5.829   6.971   3.150
  186SOL    HW2 1458   5.970   7.006   3.075
  187SOL     OW 1459   5.717   0.987   3.733
  187SOL    HW1 1460   5.773   0.907   3.710
  187SOL    HW2 1461   5.761   1.040   3.805
  188SOL     OW 1462   6.537   2.084   3.832
  188SOL    HW1 1463   6.548   2.021   3.755
  188SOL    HW2 1464   6.507   2.032   3.913
  189SOL     OW 1465   2.421   4.359   2.710
  189SOL    HW1 1466   2.426   4.389   2.614
  189SOL    HW2 1467   2.384   4.266   2.714
  190SOL     OW 1468   3.492   1.001   5.654
  190SOL    HW1 1469   3.578   1.018   5.605
  190SOL    HW2 1470   3.422   0.972   5.589
  191SOL     OW 1471   5.042   6.054   6.185
  191SOL    HW1 1472   5.117   6.090   6.240
  191SOL    HW2 1473   5.053   5.955   6.173
  192SOL     OW 1474   6.719   0.452   1.426
  192SOL    HW1 1475   6.722   0.537   1.375
  192SOL    HW2 1476   6.806   0.403   1.414
  193SOL     OW 1477   5.598   4.286   6.878
  193SOL    HW1 1478   5.681   4.230   6.886
  193SOL    HW2 1479   5.558   4.298   6.969
  194SOL     OW 1480   3.970   0.538   3.952
  194SOL    HW1 1481   3.875   0.568   3.944
  194SOL    HW2 1482   3.985   0.459   3.893
  195SOL     OW 1483   0.246   5.625   3.598
  195SOL    HW1 1484   0.159   5.644   3.553
  195SOL    HW2 1485   0.308   5.583   3.533
  196SOL     OW 1486   0.875   1.597   0.365
  196SOL    HW1 1487   0.923   1.679   0.398
  196SOL    HW2 1488   0.885   1.590   0.265
  197SOL     OW 1489   1.565   0.919   0.853
  197SOL    HW1 1490   1.518   0.835   0.879
  197SOL    HW2 1491   1.659   0.916   0.888
  198SOL     OW 1492   3.146   1.807   3.807
  198SOL    HW1 1493   3.221   1.836   3.748
  198SOL    HW2 1494   3.151   1.708   3.821
  199SOL     OW 1495   1.151   2.600   4.069
  199SOL    HW1 1496   1.061   2.561   4.051
  199SOL    HW2 1497   1.202   2.606   3.983
  200SOL     OW 1498   6.925   2.746   0.131
  200SOL    HW1 1499   6.953   2.653   0.157
  200SOL    HW2 1500   6.858   2.741   0.056
  201SOL     OW 1501   0.915   0.843   6.487
  201SOL    HW1 1502   0.938   0.931   6.528
  201SOL    HW2 1503   0.820   0.844   6.456
  202SOL     OW 1504   4.548   6.725   0.428
  202SOL    HW1 1505   4.634   6.771   0.403
  202SOL    HW2 1506   4.557   6.685   0.519
  203SOL     OW 1507   6.114   3.142   6.048
  203SOL    HW1 1508   6.163   3.061   6.016
  203SOL    HW2 1509   6.058   3.178   5.973
  204SOL     OW 1510   6.386   1.442   5.686
  204SOL    HW1 1511   6.480   1.437   5.722
  204SOL    HW2 1512   6.386   1.490   5.598
  205SOL     OW 1513   1.357   3.148   2.587
  205SOL    HW1 1514   1.414   3.066   2.585
  205SOL    HW2 1515   1.261   3.122   2.595
  206SOL     OW 1516   0.416   3.616   0.208
  206SOL    HW1 1517   0.429   3.519   0.223
  206SOL    HW2 1518   0.435   3.666   0.292
  207SOL     OW 1519   5.700   2.459   4.461
  207SOL    HW1 1520   5.676   2.413   4.547
  207SOL    HW2 1521   5.729   2.553   4.481
  208SOL     OW 1522   1.484   4.161   4.485
  208SOL    HW1 1523   1.389   4.163   4.516
  208SOL    HW2 1524   1.501   4.077   4.435
  209SOL     OW 1525   6.543   4.337   2.794
  209SOL    HW1 1526   6.461   4.313   2.742
  209SOL    HW2 1527   6.556   4.272   2.869
  210SOL     OW 1528   4.636   2.813   0.445
  210SOL    HW1 1529   4.710   2.802   0.511
  210SOL    HW2 1530   4.562   2.866   0.486
  211SOL     OW 1531   6.987   1.631   3.067
  211SOL    HW1 1532   6.921   1.573   3.019
  211SOL    HW2 1533   6.944   1.716   3.094
  212SOL     OW 1534   2.086   3.659   2.501
  212SOL    HW1 1535   2.113   3.638   2.408
  212SOL    HW2 1536   2.079   3.574   2.554
  213SOL     OW 1537   1.493   5.612   1.340
  213SOL    HW1 1538   1.509   5.540   1.273
  213SOL    HW2 1539   1.406   5.657   1.321
  214SOL     OW 1540   5.238   6.053   1.765
  214SOL    HW1 1541   5.255   5.972   1.709
  214SOL    HW2 1542   5.140   6.074   1.763
  215SOL     OW 1543   2.684   5.188   3.300
  215SOL    HW1 1544   2.699   5.110   3.360
  215SOL    HW2 1545   2.735   5.175   3.215
  216SOL     OW 1546   0.682   6.758   2.496
  216SOL    HW1 1547   0.763   6.729   2.548
  216SOL    HW2 1548   0.648   6.844   2.533
  217SOL     OW 1549   1.672   4.617   6.065
  217SOL    HW1 1550   1.765   4.654   6.060
  217SOL    HW2 1551   1.661   4.545   5.996
  218SOL     OW 1552   1.637   1.738   5.174
  218SOL    HW1 1553   1.582   1.671   5.224
  218SOL    HW2 1554   1.683   1.798   5.240
  219SOL     OW 1555   4.252   1.903   0.820
  219SOL    HW1 1556   4.285   1.830   0.880
  219SOL    HW2 1557   4.322   1.927   0.754
  220SOL     OW 1558   2.828   6.916   0.586
  220SOL    HW1 1559   2.783   6.990   0.635
  220SOL    HW2 1560   2.761   6.869   0.528
  221SOL     OW 1561   4.980   5.220   2.190
  221SOL    HW1 1562   4.902   5.279   2.171
  221SOL    HW2 1563   5.016   5.183   2.104
  222SOL     OW 1564   2.170   5.074   6.557
  222SOL    HW1 1565   2.108   4.999   6.579
  222SOL    HW2 1566   2.116   5.156   6.534
  223SOL     OW 1567   6.131   2.878   5.014
  223SOL    HW1 1568   6.155   2.784   4.988
  223SOL    HW2 1569   6.214   2.932   5.022
  224SOL     OW 1570   2.395   0.999   6.390
  224SOL    HW1 1571   2.397   1.068   6.318
  224SOL    HW2 1572   2.301   0.965   6.400
  225SOL     OW 1573   4.177   6.119   5.745
  225SOL    HW1 1574   4.189   6.218   5.745
  225SOL    HW2 1575   4.106   6.095   5.678
  226SOL     OW 1576   0.867   2.310   6.948
  226SOL    HW1 1577   0.893   2.324   0.018
  226SOL    HW2 1578   0.898   2.388   6.893
  227SOL     OW 1579   1.390   3.820   1.141
  227SOL    HW1 1580   1.450   3.829   1.062
  227SOL    HW2 1581   1.306   3.872   1.126
  228SOL     OW 1582   1.329   0.119   2.305
  228SOL    HW1 1583   1.288   0.193   2.253
  228SOL    HW2 1584   1.406   0.154   2.358
  229SOL     OW 1585   4.094   6.083   6.005
  229SOL    HW1 1586   4.062   6.172   6.037
  229SOL    HW2 1587   4.115   6.088   5.908
  230SOL     OW 1588   5.259   6.003   5.267
  230SOL    HW1 1589   5.341   5.945   5.263
  230SOL    HW2 1590   5.254   6.060   5.184
  231SOL     OW 1591   5.092   1.830   6.799
  231SOL    HW1 1592   5.033   1.782   6.734
  231SOL    HW2 1593   5.119   1.766   6.872
  232SOL     OW 1594   1.347   2.004   5.791
  232SOL    HW1 1595   1.396   2.066   5.730
  232SOL    HW2 1596   1.412   1.950   5.844
  233SOL     OW 1597   3.334   1.900   3.118
  233SOL    HW1 1598   3.278   1.982   3.122
  233SOL    HW2 1599   3.347   1.873   3.023
  234SOL     OW 1600   4.375   1.088   0.382
  234SOL    HW1 1601   4.404   0.993   0.390
  234SOL    HW2 1602   4.441   1.147   0.429
  235SOL     OW 1603   4.928   3.019   3.446
  235SOL    HW1 1604   5.023   2.988   3.441
  235SOL    HW2 1605   4.872   2.963   3.384
  236SOL     OW 1606   4.391   5.034   5.956
  236SOL    HW1 1607   4.431   5.053   5.866
  236SOL    HW2 1608   4.338   5.113   5.986
  237SOL     OW 1609   6.308   3.268   3.134
  237SOL    HW1 1610   6.253   3.347   3.163
  237SOL    HW2 1611   6.282   3.242   3.041
  238SOL     OW 1612   6.440   1.733   0.849
  238SOL    HW1 1613   6.353   1.714   0.893
  238SOL    HW2 1614   6.429   1.809   0.785
  239SOL     OW 1615   1.299   3.470   0.515
  239SOL    HW1 1616   1.239   3.391   0.503
  239SOL    HW2 1617   1.369   3.448   0.582
  240SOL     OW 1618   5.545   3.230   3.099
  240SOL    HW1 1619   5.598   3.160   3.050
  240SOL    HW2 1620   5.582   3.320   3.078
  241SOL     OW 1621   3.164   1.661   4.099
  241SOL    HW1 1622   3.249   1.692   4.140
  241SOL    HW2 1623   3.181   1.583   4.039
  242SOL     OW 1624   3.458   3.544   3.003
  242SOL    HW1 1625   3.418   3.634   2.989
  242SOL    HW2 1626   3.558   3.550   2.995
  243SOL     OW 1627   4.315   2.619   6.011
  243SOL    HW1 1628   4.221   2.620   5.975
  243SOL    HW2 1629   4.373   2.679   5.956
  244SOL     OW 1630   4.929   3.447   5.291
  244SOL    HW1 1631   4.979   3.521   5.335
  244SOL    HW2 1632   4.872   3.484   5.218
  245SOL     OW 1633   3.610   1.406   3.007
  245SOL    HW1 1634   3.528   1.349   3.018
  245SOL    HW2 1635   3.620   1.431   2.911
  246SOL     OW 1636   6.527   1.598   2.147
  246SOL    HW1 1637   6.563   1.506   2.161
  246SOL    HW2 1638   6.525   1.647   2.234
  247SOL     OW 1639   1.789   0.983   1.499
  247SOL    HW1 1640   1.695   0.994   1.533
  247SOL    HW2 1641   1.840   1.068   1.515
  248SOL     OW 1642   1.863   2.429   2.071
  248SOL    HW1 1643   1.796   2.481   2.019
  248SOL    HW2 1644   1.934   2.490   2.105
  249SOL     OW 1645   5.279   5.741   4.995
  249SOL    HW1 1646   5.341   5.728   5.072
  249SOL    HW2 1647   5.260   5.838   4.984
  250SOL     OW 1648   4.296   2.794   1.003
  250SOL    HW1 1649   4.350   2.781   1.086
  250SOL    HW2 1650   4.341   2.860   0.943
  251SOL     OW 1651   3.949   4.181   5.537
  251SOL    HW1 1652   4.036   4.226   5.558
  251SOL    HW2 1653   3.954   4.084   5.562
  252SOL     OW 1654   6.425   6.171   5.598
  252SOL    HW1 1655   6.495   6.112   5.558
  252SOL    HW2 1656   6.339   6.158   5.548
  253SOL     OW 1657   3.705   6.113   6.254
  253SOL    HW1 1658   3.615   6.148   6.282
  253SOL    HW2 1659   3.707   6.102   6.155
  254SOL     OW 1660   5.819   2.683   5.028
  254SOL    HW1 1661   5.787   2.729   4.945
  254SOL    HW2 1662   5.863   2.750   5.088
  255SOL     OW 1663   1.807   4.085   6.322
  255SOL    HW1 1664   1.748   4.009   6.295
  255SOL    HW2 1665   1.793   4.162   6.260
  256SOL     OW 1666   5.080   2.444   4.931
  256SOL    HW1 1667   5.108   2.365   4.985
  256SOL    HW2 1668   5.112   2.433   4.837
  257SOL     OW 1669   4.798   6.901   2.696
  257SOL    HW1 1670   4.703   6.894   2.727
  257SOL    HW2 1671   4.813   6.992   2.657
  258SOL     OW 1672   1.740   3.037   5.617
  258SOL    HW1 1673   1.645   3.015   5.594
  258SOL    HW2 1674   1.742   3.095   5.698
  259SOL     OW 1675   3.823   0.101   3.886
  259SOL    HW1 1676   3.799   0.130   3.979
  259SOL    HW2 1677   3.840   0.003   3.885
  260SOL     OW 1678   3.689   5.563   3.751
  260SOL    HW1 1679   3.720   5.468   3.753
  260SOL    HW2 1680   3.609   5.571   3.691
  261SOL     OW 1681   4.161   5.112   0.320
  261SOL    HW1 1682   4.190   5.139   0.228
  261SOL    HW2 1683   4.238   5.123   0.383
  262SOL     OW 1684   1.680   3.771   6.546
  262SOL    HW1 1685   1.734   3.774   6.630
  262SOL    HW2 1686   1.583   3.775   6.568
  263SOL     OW 1687   1.104   6.152   3.958
  263SOL    HW1 1688   1.195   6.151   3.917
  263SOL    HW2 1689   1.113   6.145   4.058
  264SOL     OW 1690   6.928   3.498   6.873
  264SOL    HW1 1691   6.937   3.504   6.972
  264SOL    HW2 1692   6.984   3.569   6.830
  265SOL     OW 1693   6.493   6.886   4.335
  265SOL    HW1 1694   6.582   6.901   4.379
  265SOL    HW2 1695   6.477   6.788   4.325
  266SOL     OW 1696   3.420   0.614   5.923
  266SOL    HW1 1697   3.378   0.614   6.014
  266SOL    HW2 1698   3.464   0.703   5.907
  267SOL     OW 1699   1.414   0.867   4.331
  267SOL    HW1 1700   1.407   0.862   4.232
  267SOL    HW2 1701   1.449   0.781   4.367
  268SOL     OW 1702   3.356   1.355   1.451
  268SOL    HW1 1703   3.425   1.354   1.378
  268SOL    HW2 1704   3.274   1.306   1.420
  269SOL     OW 1705   4.399   1.867   0.099
  269SOL    HW1 1706   4.479   1.927   0.100
  269SOL    HW2 1707   4.420   1.784   0.047
  270SOL     OW 1708   5.866   6.998   0.381
  270SOL    HW1 1709   5.952   6.962   0.345
  270SOL    HW2 1710   5.882   0.065   0.418
  271SOL     OW 1711   1.210   2.938   6.295
  271SOL    HW1 1712   1.237   2.870   6.227
  271SOL    HW2 1713   1.278   2.942   6.368
  272SOL     OW 1714   2.832   6.536   3.998
  272SOL    HW1 1715   2.847   6.635   3.996
  272SOL    HW2 1716   2.793   6.510   4.086
  273SOL     OW 1717   1.662   4.863   6.280
  273SOL    HW1 1718   1.637   4.768   6.263
  273SOL    HW2 1719   1.635   4.889   6.373
  274SOL     OW 1720   4.889   1.835   3.739
  274SOL    HW1 1721   4.917   1.924   3.702
  274SOL    HW2 1722   4.797   1.813   3.707
  275SOL     OW 1723   6.539   6.536   2.127
  275SOL    HW1 1724   6.509   6.547   2.221
  275SOL    HW2 1725   6.460   6.541   2.065
  276SOL     OW 1726   0.587   1.140   4.585
  276SOL    HW1 1727   0.535   1.076   4.642
  276SOL    HW2 1728   0.684   1.118   4.590
  277SOL     OW 1729   1.756   3.823   1.108
  277SOL    HW1 1730   1.808   3.876   1.040
  277SOL    HW2 1731   1.801   3.832   1.197
  278SOL     OW 1732   0.511   2.548   2.009
  278SOL    HW1 1733   0.454   2.504   1.940
  278SOL    HW2 1734   0.559   2.625   1.968
  279SOL     OW 1735   6.062   1.915   4.165
  279SOL    HW1 1736   6.156   1.885   4.182
  279SOL    HW2 1737   6.056   1.957   4.074
  280SOL     OW 1738   1.831   4.310   1.947
  280SOL    HW1 1739   1.866   4.217   1.936
  280SOL    HW2 1740   1.847   4.340   2.041
  281SOL     OW 1741   2.406   4.463   1.105
  281SOL    HW1 1742   2.326   4.457   1.044
  281SOL    HW2 1743   2.383   4.517   1.186
  282SOL     OW 1744   3.184   2.470   6.022
  282SOL    HW1 1745   3.117   2.543   6.021
  282SOL    HW2 1746   3.245   2.479   5.943
  283SOL     OW 1747   4.496   2.783   5.847
  283SOL    HW1 1748   4.514   2.832   5.761
  283SOL    HW2 1749   4.570   2.719   5.865
  284SOL     OW 1750   1.279   3.424   4.052
  284SOL    HW1 1751   1.247   3.516   4.076
  284SOL    HW2 1752   1.326   3.384   4.131
  285SOL     OW 1753   5.491   4.541   4.473
  285SOL    HW1 1754   5.523   4.534   4.379
  285SOL    HW2 1755   5.426   4.467   4.492
  286SOL     OW 1756   2.944   3.475   6.391
  286SOL    HW1 1757   2.926   3.490   6.488
  286SOL    HW2 1758   3.006   3.397   6.380
  287SOL     OW 1759   1.567   3.377   6.995
  287SOL    HW1 1760   1.540   3.459   0.020
  287SOL    HW2 1761   1.503   3.361   6.920
  288SOL     OW 1762   4.973   2.947   0.115
  288SOL    HW1 1763   5.073   2.947   0.121
  288SOL    HW2 1764   4.944   3.017   0.050
  289SOL     OW 1765   3.054   4.756   6.274
  289SOL    HW1 1766   3.000   4.719   6.350
  289SOL    HW2 1767   3.151   4.736   6.289
  290SOL     OW 1768   0.477   1.615   5.285
  290SOL    HW1 1769   0.433   1.665   5.210
  290SOL    HW2 1770   0.574   1.603   5.264
  291SOL     OW 1771   0.323   2.618   2.731
  291SOL    HW1 1772   0.350   2.521   2.729
  291SOL    HW2 1773   0.392   2.670   2.781
  292SOL     OW 1774   2.208   0.027   4.148
  292SOL    HW1 1775   2.156   0.113   4.146
  292SOL    HW2 1776   2.145   6.975   4.164
  293SOL     OW 1777   3.696   4.892   3.557
  293SOL    HW1 1778   3.747   4.839   3.490
  293SOL    HW2 1779   3.625   4.946   3.511
  294SOL     OW 1780   4.727   0.013   6.817
  294SOL    HW1 1781   4.638   6.998   6.836
  294SOL    HW2 1782   4.726   0.056   6.726
  295SOL     OW 1783   5.130   6.898   3.705
  295SOL    HW1 1784   5.041   6.853   3.707
  295SOL    HW2 1785   5.180   6.877   3.790
  296SOL     OW 1786   2.299   1.546   3.587
  296SOL    HW1 1787   2.230   1.589   3.528
  296SOL    HW2 1788   2.336   1.465   3.541
  297SOL     OW 1789   2.034   4.519   3.191
  297SOL    HW1 1790   2.098   4.445   3.170
  297SOL    HW2 1791   2.085   4.604   3.202
  298SOL     OW 1792   5.980   5.212   0.455
  298SOL    HW1 1793   5.953   5.273   0.380
  298SOL    HW2 1794   6.017   5.127   0.417
  299SOL     OW 1795   6.543   2.454   4.427
  299SOL    HW1 1796   6.478   2.378   4.416
  299SOL    HW2 1797   6.581   2.477   4.337
  300SOL     OW 1798   6.402   0.095   2.167
  300SOL    HW1 1799   6.385   0.116   2.264
  300SOL    HW2 1800   6.327   0.040   2.131
  301SOL     OW 1801   5.263   3.720   6.084
  301SOL    HW1 1802   5.265   3.814   6.050
  301SOL    HW2 1803   5.182   3.707   6.141
  302SOL     OW 1804   1.218   0.182   3.594
  302SOL    HW1 1805   1.275   0.255   3.558
  302SOL    HW2 1806   1.270   0.096   3.594
  303SOL     OW 1807   6.053   6.721   3.214
  303SOL    HW1 1808   5.971   6.683   3.172
  303SOL    HW2 1809   6.033   6.751   3.307
  304SOL     OW 1810   2.875   0.105   3.266
  304SOL    HW1 1811   2.904   0.152   3.183
  304SOL    HW2 1812   2.956   0.077   3.318
  305SOL     OW 1813   1.279   3.850   1.763
  305SOL    HW1 1814   1.357   3.876   1.820
  305SOL    HW2 1815   1.225   3.781   1.810
  306SOL     OW 1816   2.641   0.480   3.462
  306SOL    HW1 1817   2.630   0.467   3.561
  306SOL    HW2 1818   2.557   0.519   3.424
  307SOL     OW 1819   3.588   0.226   1.091
  307SOL    HW1 1820   3.547   0.299   1.145
  307SOL    HW2 1821   3.685   0.247   1.074
  308SOL     OW 1822   0.722   4.939   4.625
  308SOL    HW1 1823   0.799   4.979   4.574
  308SOL    HW2 1824   0.682   5.008   4.684
  309SOL     OW 1825   4.032   5.301   5.130
  309SOL    HW1 1826   4.117   5.249   5.117
  309SOL    HW2 1827   4.046   5.371   5.200
  310SOL     OW 1828   0.903   6.820   6.047
  310SOL    HW1 1829   0.810   6.858   6.048
  310SOL    HW2 1830   0.899   6.721   6.037
  311SOL     OW 1831   0.393   0.241   1.569
  311SOL    HW1 1832   0.461   0.168   1.567
  311SOL    HW2 1833   0.309   0.208   1.612
  312SOL     OW 1834   3.683   1.796   4.460
  312SOL    HW1 1835   3.628   1.880   4.463
  312SOL    HW2 1836   3.622   1.717   4.470
  313SOL     OW 1837   0.276   4.881   1.478
  313SOL    HW1 1838   0.289   4.789   1.440
  313SOL    HW2 1839   0.178   4.898   1.490
  314SOL     OW 1840   3.087   6.393   1.405
  314SOL    HW1 1841   3.059   6.343   1.487
  314SOL    HW2 1842   3.018   6.384   1.334
  315SOL     OW 1843   1.031   2.992   3.174
  315SOL    HW1 1844   1.018   2.937   3.092
  315SOL    HW2 1845   0.968   2.961   3.246
  316SOL     OW 1846   2.327   2.866   4.340
  316SOL    HW1 1847   2.389   2.788   4.339
  316SOL    HW2 1848   2.325   2.907   4.431
  317SOL     OW 1849   6.614   1.442   7.017
  317SOL    HW1 1850   6.557   1.509   0.039
  317SOL    HW2 1851   6.557   1.382   6.961
  318SOL     OW 1852   2.313   5.178   1.231
  318SOL    HW1 1853   2.382   5.128   1.283
  318SOL    HW2 1854   2.222   5.150   1.261
  319SOL     OW 1855   1.344   0.274   0.274
  319SOL    HW1 1856   1.425   0.313   0.229
  319SOL    HW2 1857   1.269   0.269   0.208
  320SOL     OW 1858   5.202   4.011   0.695
  320SOL    HW1 1859   5.118   4.016   0.642
  320SOL    HW2 1860   5.237   3.917   0.694
  321SOL     OW 1861   2.053   1.448   1.222
  321SOL    HW1 1862   2.125   1.442   1.153
  321SOL    HW2 1863   2.011   1.358   1.234
  322SOL     OW 1864   3.288   2.891   4.986
  322SOL    HW1 1865   3.249   2.983   4.984
  322SOL    HW2 1866   3.223   2.827   4.945
  323SOL     OW 1867   0.491   3.956   2.153
  323SOL    HW1 1868   0.537   3.980   2.238
  323SOL    HW2 1869   0.416   4.020   2.136
  324SOL     OW 1870   0.718   3.070   4.372
  324SOL    HW1 1871   0.675   3.155   4.402
  324SOL    HW2 1872   0.818   3.078   4.382
  325SOL     OW 1873   2.526   2.526   3.157
  325SOL    HW1 1874   2.444   2.471   3.168
  325SOL    HW2 1875   2.514   2.615   3.202
  326SOL     OW 1876   2.486   4.486   5.806
  326SOL    HW1 1877   2.535   4.573   5.799
  326SOL    HW2 1878   2.420   4.492   5.881
  327SOL     OW 1879   6.409   5.282   5.728
  327SOL    HW1 1880   6.345   5.315   5.659
  327SOL    HW2 1881   6.466   5.209   5.689
  328SOL     OW 1882   2.823   5.774   2.110
  328SOL    HW1 1883   2.908   5.734   2.146
  328SOL    HW2 1884   2.751   5.705   2.111
  329SOL     OW 1885   3.399   3.202   2.378
  329SOL    HW1 1886   3.405   3.292   2.420
  329SOL    HW2 1887   3.482   3.184   2.326
  330SOL     OW 1888   3.818   1.069   1.989
  330SOL    HW1 1889   3.823   1.148   2.049
  330SOL    HW2 1890   3.794   1.098   1.897
  331SOL     OW 1891   5.840   5.204   6.052
  331SOL    HW1 1892   5.754   5.250   6.073
  331SOL    HW2 1893   5.843   5.184   5.954
  332SOL     OW 1894   4.322   1.835   3.416
  332SOL    HW1 1895   4.243   1.789   3.375
  332SOL    HW2 1896   4.384   1.865   3.343
  333SOL     OW 1897   3.940   6.147   0.098
  333SOL    HW1 1898   3.971   6.052   0.103
  333SOL    HW2 1899   4.017   6.206   0.072
  334SOL     OW 1900   4.598   6.686   2.617
  334SOL    HW1 1901   4.594   6.726   2.525
  334SOL    HW2 1902   4.580   6.588   2.611
  335SOL     OW 1903   3.094   6.750   3.210
  335SOL    HW1 1904   3.027   6.818   3.181
  335SOL    HW2 1905   3.054   6.691   3.280
  336SOL     OW 1906   2.927   0.412   5.111
  336SOL    HW1 1907   2.920   0.457   5.022
  336SOL    HW2 1908   3.009   0.355   5.112
  337SOL     OW 1909   0.371   4.148   1.268
  337SOL    HW1 1910   0.353   4.244   1.246
  337SOL    HW2 1911   0.416   4.103   1.191
  338SOL     OW 1912   3.042   2.370   1.637
  338SOL    HW1 1913   3.017   2.414   1.723
  338SOL    HW2 1914   3.070   2.439   1.570
  339SOL     OW 1915   4.220   0.486   2.960
  339SOL    HW1 1916   4.279   0.410   2.934
  339SOL    HW2 1917   4.258   0.571   2.922
  340SOL     OW 1918   4.897   3.618   4.422
  340SOL    HW1 1919   4.860   3.526   4.407
  340SOL    HW2 1920   4.863   3.680   4.351
  341SOL     OW 1921   5.261   4.686   5.125
  341SOL    HW1 1922   5.259   4.726   5.034
  341SOL    HW2 1923   5.174   4.703   5.171
  342SOL     OW 1924   5.360   3.489   0.270
  342SOL    HW1 1925   5.431   3.555   0.295
  342SOL    HW2 1926   5.297   3.477   0.347
  343SOL     OW 1927   2.644   0.802   3.354
  343SOL    HW1 1928   2.555   0.756   3.359
  343SOL    HW2 1929   2.696   0.766   3.277
  344SOL     OW 1930   3.546   5.188   0.096
  344SOL    HW1 1931   3.638   5.199   0.132
  344SOL    HW2 1932   3.548   5.127   0.017
  345SOL     OW 1933   1.011   6.664   5.756
  345SOL    HW1 1934   1.078   6.622   5.817
  345SOL    HW2 1935   1.027   6.763   5.752
  346SOL     OW 1936   2.832   0.144   4.046
  346SOL    HW1 1937   2.735   0.168   4.041
  346SOL    HW2 1938   2.887   0.214   4.002
  347SOL     OW 1939   4.708   6.262   5.847
  347SOL    HW1 1940   4.695   6.211   5.932
  347SOL    HW2 1941   4.623   6.261   5.795
  348SOL     OW 1942   3.009   5.821   2.435
  348SOL    HW1 1943   2.924   5.841   2.484
  348SOL    HW2 1944   3.075   5.781   2.498
  349SOL     OW 1945   2.180   4.857   1.707
  349SOL    HW1 1946   2.192   4.760   1.686
  349SOL    HW2 1947   2.129   4.902   1.634
  350SOL     OW 1948   4.539   3.014   1.182
  350SOL    HW1 1949   4.511   3.078   1.254
  350SOL    HW2 1950   4.534   3.060   1.093
  351SOL     OW 1951   3.413   1.862   0.423
  351SOL    HW1 1952   3.363   1.792   0.373
  351SOL    HW2 1953   3.403   1.847   0.522
  352SOL     OW 1954   3.851   1.355   6.356
  352SOL    HW1 1955   3.882   1.329   6.264
  352SOL    HW2 1956   3.806   1.444   6.352
  353SOL     OW 1957   1.877   0.174   1.343
  353SOL    HW1 1958   1.960   0.181   1.287
  353SOL    HW2 1959   1.800   0.209   1.291
  354SOL     OW 1960   4.853   1.484   2.059
  354SOL    HW1 1961   4.880   1.579   2.042
  354SOL    HW2 1962   4.828   1.441   1.972
  355SOL     OW 1963   1.728   1.521   2.095
  355SOL    HW1 1964   1.711   1.424   2.113
  355SOL    HW2 1965   1.697   1.575   2.173
  356SOL     OW 1966   3.964   6.098   2.773
  356SOL    HW1 1967   3.911   6.102   2.689
  356SOL    HW2 1968   3.951   6.183   2.825
  357SOL     OW 1969   1.848   4.449   5.836
  357SOL    HW1 1970   1.947   4.464   5.826
  357SOL    HW2 1971   1.799   4.510   5.773
  358SOL     OW 1972   5.111   1.695   2.429
  358SOL    HW1 1973   5.098   1.645   2.343
  358SOL    HW2 1974   5.193   1.662   2.475
  359SOL     OW 1975   1.439   2.101   1.356
  359SOL    HW1 1976   1.488   2.064   1.277
  359SOL    HW2 1977   1.459   2.046   1.437
  360SOL     OW 1978   4.411   6.292   1.049
  360SOL    HW1 1979   4.501   6.261   1.076
  360SOL    HW2 1980   4.375   6.355   1.118
  361SOL     OW 1981   3.882   0.498   3.374
  361SOL    HW1 1982   3.948   0.558   3.417
  361SOL    HW2 1983   3.891   0.504   3.274
  362SOL     OW 1984   3.110   3.912   0.746
  362SOL    HW1 1985   3.089   4.009   0.741
  362SOL    HW2 1986   3.129   3.877   0.654
  363SOL     OW 1987   4.250   4.650   3.821
  363SOL    HW1 1988   4.278   4.652   3.917
  363SOL    HW2 1989   4.182   4.722   3.804
  364SOL     OW 1990   1.828   6.258   5.862
  364SOL    HW1 1991   1.778   6.286   5.943
  364SOL    HW2 1992   1.829   6.158   5.856
  365SOL     OW 1993   4.807   6.558   2.813
  365SOL    HW1 1994   4.784   6.461   2.810
  365SOL    HW2 1995   4.765   6.604   2.735
  366SOL     OW 1996   4.986   6.723   0.490
  366SOL    HW1 1997   5.075   6.764   0.471
  366SOL    HW2 1998   4.998   6.638   0.542
  367SOL     OW 1999   4.876   1.911   1.506
  367SOL    HW1 2000   4.971   1.879   1.513
  367SOL    HW2 2001   4.875   2.006   1.476
  368SOL     OW 2002   1.574   5.001   5.819
  368SOL    HW1 2003   1.475   4.992   5.808
  368SOL    HW2 2004   1.597   5.013   5.915
  369SOL     OW 2005   0.532   3.421   1.214
  369SOL    HW1 2006   0.435   3.399   1.229
  369SOL    HW2 2007   0.578   3.430   1.302
  370SOL     OW 2008   3.620   1.247   6.466
  370SOL    HW1 2009   3.706   1.289   6.437
  370SOL    HW2 2010   3.607   1.262   6.564
  371SOL     OW 2011   4.111   2.875   6.027
  371SOL    HW1 2012   4.118   2.894   5.929
  371SOL    HW2 2013   4.201   2.881   6.069
  372SOL     OW 2014   1.354   5.312   6.960
  372SOL    HW1 2015   1.312   5.222   6.970
  372SOL    HW2 2016   1.437   5.304   6.906
  373SOL     OW 2017   6.779   6.665   0.848
  373SOL    HW1 2018   6.766   6.724   0.927
  373SOL    HW2 2019   6.873   6.634   0.844
  374SOL     OW 2020   3.850   0.962   1.102
  374SOL    HW1 2021   3.786   0.942   1.028
  374SOL    HW2 2022   3.942   0.973   1.064
  375SOL     OW 2023   6.911   4.130   1.825
  375SOL    HW1 2024   6.820   4.116   1.786
  375SOL    HW2 2025   6.931   4.228   1.828
  376SOL     OW 2026   2.145   3.165   4.575
  376SOL    HW1 2027   2.196   3.173   4.661
  376SOL    HW2 2028   2.048   3.177   4.592
  377SOL     OW 2029   4.793   1.706   4.424
  377SOL    HW1 2030   4.768   1.656   4.506
  377SOL    HW2 2031   4.711   1.744   4.382
  378SOL     OW 2032   4.555   2.451   3.964
  378SOL    HW1 2033   4.511   2.430   3.876
  378SOL    HW2 2034   4.486   2.450   4.036
  379SOL     OW 2035   7.017   2.990   1.367
  379SOL    HW1 2036   0.014   3.088   1.366
  379SOL    HW2 2037   0.074   2.938   1.343
  380SOL     OW 2038   1.430   2.102   0.186
  380SOL    HW1 2039   1.458   2.126   0.093
  380SOL    HW2 2040   1.499   2.043   0.228
  381SOL     OW 2041   3.421   4.083   0.178
  381SOL    HW1 2042   3.355   4.108   0.108
  381SOL    HW2 2043   3.511   4.122   0.157
  382SOL     OW 2044   1.803   5.256   0.884
  382SOL    HW1 2045   1.792   5.184   0.952
  382SOL    HW2 2046   1.717   5.271   0.836
  383SOL     OW 2047   6.377   2.279   7.006
  383SOL    HW1 2048   6.445   2.282   6.933
  383SOL    HW2 2049   6.390   2.356   0.043
  384SOL     OW 2050   2.048   5.347   5.137
  384SOL    HW1 2051   2.008   5.345   5.046
  384SOL    HW2 2052   1.977   5.368   5.204
  385SOL     OW 2053   5.027   5.350   1.440
  385SOL    HW1 2054   5.004   5.316   1.348
  385SOL    HW2 2055   4.975   5.433   1.459
  386SOL     OW 2056   2.761   6.606   4.925
  386SOL    HW1 2057   2.844   6.627   4.977
  386SOL    HW2 2058   2.768   6.513   4.888
  387SOL     OW 2059   6.833   0.019   5.981
  387SOL    HW1 2060   6.882   6.974   5.929
  387SOL    HW2 2061   6.763   7.000   6.038
  388SOL     OW 2062   0.175   2.365   5.101
  388SOL    HW1 2063   0.164   2.277   5.056
  388SOL    HW2 2064   0.236   2.423   5.046
  389SOL     OW 2065   5.282   4.605   1.750
  389SOL    HW1 2066   5.294   4.703   1.764
  389SOL    HW2 2067   5.344   4.555   1.811
  390SOL     OW 2068   3.720   2.569   6.956
  390SOL    HW1 2069   3.672   2.583   6.869
  390SOL    HW2 2070   3.815   2.598   6.946
  391SOL     OW 2071   3.326   4.169   3.733
  391SOL    HW1 2072   3.345   4.267   3.725
  391SOL    HW2 2073   3.400   4.117   3.690
  392SOL     OW 2074   1.550   3.986   1.407
  392SOL    HW1 2075   1.538   4.069   1.462
  392SOL    HW2 2076   1.462   3.942   1.394
  393SOL     OW 2077   1.262   5.757   1.297
  393SOL    HW1 2078   1.260   5.803   1.208
  393SOL    HW2 2079   1.177   5.707   1.311
  394SOL     OW 2080   6.157   1.099   6.702
  394SOL    HW1 2081   6.134   1.176   6.763
  394SOL    HW2 2082   6.220   1.131   6.632
  395SOL     OW 2083   5.895   4.844   0.653
  395SOL    HW1 2084   5.927   4.852   0.748
  395SOL    HW2 2085   5.956   4.894   0.592
  396SOL     OW 2086   1.161   0.173   1.423
  396SOL    HW1 2087   1.236   0.135   1.368
  396SOL    HW2 2088   1.102   0.230   1.365
  397SOL     OW 2089   4.176   1.901   4.732
  397SOL    HW1 2090   4.078   1.886   4.722
  397SOL    HW2 2091   4.200   1.990   4.694
  398SOL     OW 2092   0.439   0.956   3.169
  398SOL    HW1 2093   0.400   0.949   3.261
  398SOL    HW2 2094   0.535   0.984   3.176
  399SOL     OW 2095   5.739   5.591   3.745
  399SOL    HW1 2096   5.790   5.673   3.720
  399SOL    HW2 2097   5.759   5.567   3.840
  400SOL     OW 2098   6.334   6.788   3.329
  400SOL    HW1 2099   6.266   6.754   3.263
  400SOL    HW2 2100   6.384   6.710   3.367
  401SOL     OW 2101   0.958   5.407   5.157
  401SOL    HW1 2102   0.965   5.500   5.192
  401SOL    HW2 2103   0.862   5.378   5.158
  402SOL     OW 2104   5.727   1.770   4.004
  402SOL    HW1 2105   5.755   1.693   4.061
  402SOL    HW2 2106   5.631   1.759   3.978
  403SOL     OW 2107   2.736   1.845   5.293
  403SOL    HW1 2108   2.721   1.752   5.327
  403SOL    HW2 2109   2.723   1.910   5.369
  404SOL     OW 2110   3.227   5.811   3.633
  404SOL    HW1 2111   3.293   5.794   3.706
  404SOL    HW2 2112   3.260   5.768   3.548
  405SOL     OW 2113   2.906   5.130   4.482
  405SOL    HW1 2114   2.917   5.223   4.515
  405SOL    HW2 2115   2.996   5.084   4.480
  406SOL     OW 2116   0.204   0.365   6.271
  406SOL    HW1 2117   0.177   0.287   6.216
  406SOL    HW2 2118   0.172   0.353   6.365
  407SOL     OW 2119   2.313   2.855   4.053
  407SOL    HW1 2120   2.337   2.867   4.149
  407SOL    HW2 2121   2.363   2.776   4.016
  408SOL     OW 2122   2.151   2.267   2.925
  408SOL    HW1 2123   2.119   2.360   2.940
  408SOL    HW2 2124   2.074   2.209   2.896
  409SOL     OW 2125   0.520   2.779   2.799
  409SOL    HW1 2126   0.544   2.875   2.785
  409SOL    HW2 2127   0.587   2.720   2.754
  410SOL     OW 2128   1.952   2.632   1.425
  410SOL    HW1 2129   1.881   2.669   1.365
  410SOL    HW2 2130   1.991   2.550   1.383
  411SOL     OW 2131   6.401   1.948   0.674
  411SOL    HW1 2132   6.345   1.933   0.593
  411SOL    HW2 2133   6.345   1.989   0.746
  412SOL     OW 2134   1.679   5.093   2.779
  412SOL    HW1 2135   1.666   5.027   2.706
  412SOL    HW2 2136   1.774   5.127   2.778
  413SOL     OW 2137   6.431   5.138   1.756
  413SOL    HW1 2138   6.459   5.049   1.791
  413SOL    HW2 2139   6.482   5.210   1.802
  414SOL     OW 2140   2.204   0.061   3.517
  414SOL    HW1 2141   2.124   0.020   3.472
  414SOL    HW2 2142   2.175   0.142   3.568
  415SOL     OW 2143   5.528   1.607   6.537
  415SOL    HW1 2144   5.527   1.685   6.599
  415SOL    HW2 2145   5.622   1.591   6.506
  416SOL     OW 2146   5.940   3.260   5.806
  416SOL    HW1 2147   6.011   3.331   5.807
  416SOL    HW2 2148   5.875   3.278   5.879
  417SOL     OW 2149   1.971   2.361   6.286
  417SOL    HW1 2150   2.060   2.351   6.242
  417SOL    HW2 2151   1.910   2.414   6.228
  418SOL     OW 2152   3.384   6.785   5.206
  418SOL    HW1 2153   3.333   6.700   5.219
  418SOL    HW2 2154   3.326   6.863   5.228
  419SOL     OW 2155   6.087   0.647   0.426
  419SOL    HW1 2156   6.154   0.573   0.435
  419SOL    HW2 2157   6.111   0.703   0.347
  420SOL     OW 2158   3.578   6.691   0.733
  420SOL    HW1 2159   3.623   6.723   0.650
  420SOL    HW2 2160   3.492   6.645   0.709
  421SOL     OW 2161   4.782   4.247   2.517
  421SOL    HW1 2162   4.699   4.291   2.482
  421SOL    HW2 2163   4.853   4.248   2.446
  422SOL     OW 2164   4.829   2.193   1.793
  422SOL    HW1 2165   4.792   2.258   1.727
  422SOL    HW2 2166   4.773   2.193   1.876
  423SOL     OW 2167   3.082   1.163   6.009
  423SOL    HW1 2168   3.079   1.220   6.091
  423SOL    HW2 2169   3.014   1.196   5.944
  424SOL     OW 2170   1.857   3.799   4.260
  424SOL    HW1 2171   1.856   3.702   4.235
  424SOL    HW2 2172   1.945   3.822   4.299
  425SOL     OW 2173   3.704   1.258   0.131
  425SOL    HW1 2174   3.760   1.329   0.172
  425SOL    HW2 2175   3.626   1.300   0.084
  426SOL     OW 2176   2.803   2.014   4.398
  426SOL    HW1 2177   2.803   2.054   4.490
  426SOL    HW2 2178   2.760   2.078   4.334
  427SOL     OW 2179   5.129   2.148   3.393
  427SOL    HW1 2180   5.171   2.228   3.436
  427SOL    HW2 2181   5.112   2.078   3.463
  428SOL     OW 2182   2.795   2.434   6.679
  428SOL    HW1 2183   2.698   2.455   6.680
  428SOL    HW2 2184   2.842   2.489   6.748
  429SOL     OW 2185   0.439   6.002   3.804
  429SOL    HW1 2186   0.533   5.976   3.828
  429SOL    HW2 2187   0.376   5.967   3.873
  430SOL     OW 2188   1.775   6.914   4.559
  430SOL    HW1 2189   1.784   6.814   4.567
  430SOL    HW2 2190   1.797   6.956   4.647
  431SOL     OW 2191   2.766   1.550   0.954
  431SOL    HW1 2192   2.702   1.540   0.877
  431SOL    HW2 2193   2.857   1.571   0.918
  432SOL     OW 2194   4.770   1.504   1.311
  432SOL    HW1 2195   4.715   1.568   1.365
  432SOL    HW2 2196   4.764   1.529   1.214
  433SOL     OW 2197   2.065   4.618   0.574
  433SOL    HW1 2198   2.019   4.618   0.485
  433SOL    HW2 2199   2.054   4.529   0.618
  434SOL     OW 2200   4.381   5.340   3.414
  434SOL    HW1 2201   4.463   5.314   3.362
  434SOL    HW2 2202   4.370   5.439   3.412
  435SOL     OW 2203   3.773   2.773   6.023
  435SOL    HW1 2204   3.831   2.837   5.972
  435SOL    HW2 2205   3.786   2.681   5.987
  436SOL     OW 2206   5.326   5.817   1.664
  436SOL    HW1 2207   5.387   5.812   1.743
  436SOL    HW2 2208   5.268   5.736   1.661
  437SOL     OW 2209   6.535   1.459   5.058
  437SOL    HW1 2210   6.466   1.532   5.056
  437SOL    HW2 2211   6.502   1.383   5.113
  438SOL     OW 2212   0.602   4.450   2.846
  438SOL    HW1 2213   0.523   4.427   2.904
  438SOL    HW2 2214   0.583   4.536   2.799
  439SOL     OW 2215   7.009   0.627   5.499
  439SOL    HW1 2216   7.000   0.676   5.586
  439SOL    HW2 2217   0.054   0.556   5.508
  440SOL     OW 2218   4.463   1.930   0.623
  440SOL    HW1 2219   4.517   1.920   0.540
  440SOL    HW2 2220   4.477   2.021   0.662
  441SOL     OW 2221   0.260   4.761   2.281
  441SOL    HW1 2222   0.230   4.820   2.206
  441SOL    HW2 2223   0.357   4.776   2.300
  442SOL     OW 2224   4.174   3.396   4.907
  442SOL    HW1 2225   4.263   3.428   4.876
  442SOL    HW2 2226   4.176   3.381   5.006
  443SOL     OW 2227   4.805   2.889   3.231
  443SOL    HW1 2228   4.862   2.813   3.198
  443SOL    HW2 2229   4.817   2.968   3.171
  444SOL     OW 2230   3.829   2.001   1.693
  444SOL    HW1 2231   3.769   1.924   1.671
  444SOL    HW2 2232   3.784   2.086   1.668
  445SOL     OW 2233   2.180   5.372   2.839
  445SOL    HW1 2234   2.146   5.439   2.906
  445SOL    HW2 2235   2.106   5.345   2.779
  446SOL     OW 2236   6.528   6.810   1.899
  446SOL    HW1 2237   6.616   6.764   1.891
  446SOL    HW2 2238   6.530   6.895   1.846
  447SOL     OW 2239   5.730   3.947   0.453
  447SOL    HW1 2240   5.755   3.851   0.464
  447SOL    HW2 2241   5.808   4.005   0.475
  448SOL     OW 2242   3.488   6.512   3.715
  448SOL    HW1 2243   3.534   6.588   3.760
  448SOL    HW2 2244   3.434   6.546   3.638
  449SOL     OW 2245   1.068   3.976   4.309
  449SOL    HW1 2246   1.125   4.058   4.308
  449SOL    HW2 2247   0.991   3.988   4.247
  450SOL     OW 2248   6.887   4.113   3.256
  450SOL    HW1 2249   6.886   4.213   3.246
  450SOL    HW2 2250   6.982   4.081   3.256
  451SOL     OW 2251   1.343   1.987   0.631
  451SOL    HW1 2252   1.421   2.029   0.584
  451SOL    HW2 2253   1.376   1.921   0.698
  452SOL     OW 2254   4.189   5.471   2.235
  452SOL    HW1 2255   4.278   5.425   2.230
  452SOL    HW2 2256   4.203   5.564   2.270
  453SOL     OW 2257   3.921   1.439   0.157
  453SOL    HW1 2258   3.994   1.425   0.089
  453SOL    HW2 2259   3.927   1.532   0.192
  454SOL     OW 2260   0.234   3.323   4.485
  454SOL    HW1 2261   0.197   3.231   4.500
  454SOL    HW2 2262   0.257   3.365   4.573
  455SOL     OW 2263   5.326   5.381   6.079
  455SOL    HW1 2264   5.420   5.381   6.043
  455SOL    HW2 2265   5.326   5.345   6.172
  456SOL     OW 2266   2.068   0.624   2.611
  456SOL    HW1 2267   2.010   0.689   2.660
  456SOL    HW2 2268   2.162   0.630   2.645
  457SOL     OW 2269   2.222   6.443   0.137
  457SOL    HW1 2270   2.306   6.473   0.181
  457SOL    HW2 2271   2.168   6.522   0.109
  458SOL     OW 2272   3.883   1.366   3.186
  458SOL    HW1 2273   3.902   1.375   3.284
  458SOL    HW2 2274   3.796   1.411   3.165
  459SOL     OW 2275   3.286   0.546   3.089
  459SOL    HW1 2276   3.370   0.495   3.106
  459SOL    HW2 2277   3.235   0.555   3.175
  460SOL     OW 2278   0.723   1.620   6.224
  460SOL    HW1 2279   0.716   1.720   6.225
  460SOL    HW2 2280   0.820   1.594   6.217
  461SOL     OW 2281   1.184   6.280   5.561
  461SOL    HW1 2282   1.106   6.288   5.499
  461SOL    HW2 2283   1.152   6.248   5.650
  462SOL     OW 2284   2.957   3.984   5.017
  462SOL    HW1 2285   2.893   3.916   4.981
  462SOL    HW2 2286   3.037   3.990   4.957
  463SOL     OW 2287   5.926   6.022   3.416
  463SOL    HW1 2288   5.836   6.063   3.402
  463SOL    HW2 2289   5.978   6.025   3.330
  464SOL     OW 2290   4.353   5.519   5.196
  464SOL    HW1 2291   4.393   5.580   5.264
  464SOL    HW2 2292   4.302   5.447   5.242
  465SOL     OW 2293   0.538   4.771   0.101
  465SOL    HW1 2294   0.623   4.720   0.117
  465SOL    HW2 2295   0.483   4.724   0.032
  466SOL     OW 2296   4.119   5.167   4.089
  466SOL    HW1 2297   4.025   5.199   4.077
  466SOL    HW2 2298   4.146   5.178   4.185
  467SOL     OW 2299   6.568   0.737   1.742
  467SOL    HW1 2300   6.536   0.659   1.688
  467SOL    HW2 2301   6.607   0.704   1.828
  468SOL     OW 2302   2.793   6.046   5.878
  468SOL    HW1 2303   2.842   6.064   5.793
  468SOL    HW2 2304   2.736   6.125   5.901
  469SOL     OW 2305   2.979   4.919   5.124
  469SOL    HW1 2306   3.061   4.884   5.169
  469SOL    HW2 2307   2.932   4.843   5.078
  470SOL     OW 2308   1.897   4.873   3.255
  470SOL    HW1 2309   1.975   4.845   3.200
  470SOL    HW2 2310   1.877   4.801   3.322
  471SOL     OW 2311   2.012   2.016   3.797
  471SOL    HW1 2312   1.988   2.091   3.858
  471SOL    HW2 2313   1.934   1.995   3.738
  472SOL     OW 2314   5.456   4.027   6.756
  472SOL    HW1 2315   5.429   4.011   6.661
  472SOL    HW2 2316   5.530   4.095   6.758
  473SOL     OW 2317   5.160   3.489   2.480
  473SOL    HW1 2318   5.236   3.478   2.416
  473SOL    HW2 2319   5.077   3.452   2.439
  474SOL     OW 2320   5.058   5.351   3.940
  474SOL    HW1 2321   4.967   5.362   3.900
  474SOL    HW2 2322   5.093   5.441   3.967
  475SOL     OW 2323   6.009   1.165   1.161
  475SOL    HW1 2324   6.090   1.214   1.128
  475SOL    HW2 2325   6.021   1.141   1.257
  476SOL     OW 2326   1.050   4.055   6.938
  476SOL    HW1 2327   0.954   4.059   6.964
  476SOL    HW2 2328   1.102   4.121   6.992
  477SOL     OW 2329   0.675   5.540   2.939
  477SOL    HW1 2330   0.659   5.610   2.870
  477SOL    HW2 2331   0.703   5.584   3.025
  478SOL     OW 2332   6.225   5.996   2.907
  478SOL    HW1 2333   6.325   5.999   2.903
  478SOL    HW2 2334   6.195   5.902   2.927
  479SOL     OW 2335   2.972   3.116   2.799
  479SOL    HW1 2336   2.975   3.141   2.703
  479SOL    HW2 2337   2.954   3.018   2.808
  480SOL     OW 2338   0.799   0.724   2.393
  480SOL    HW1 2339   0.890   0.761   2.408
  480SOL    HW2 2340   0.783   0.649   2.458
  481SOL     OW 2341   5.841   7.023   1.033
  481SOL    HW1 2342   5.885   6.951   1.086
  481SOL    HW2 2343   5.907   0.039   0.970
  482SOL     OW 2344   3.883   4.906   2.794
  482SOL    HW1 2345   3.835   4.883   2.709
  482SOL    HW2 2346   3.818   4.910   2.870
  483SOL     OW 2347   5.870   1.073   3.970
  483SOL    HW1 2348   5.967   1.051   3.956
  483SOL    HW2 2349   5.834   1.016   4.045
  484SOL     OW 2350   1.838   5.064   3.607
  484SOL    HW1 2351   1.835   5.164   3.609
  484SOL    HW2 2352   1.762   5.030   3.553
  485SOL     OW 2353   5.347   2.001   1.023
  485SOL    HW1 2354   5.294   1.949   1.090
  485SOL    HW2 2355   5.347   1.952   0.936
  486SOL     OW 2356   6.009   6.930   5.701
  486SOL    HW1 2357   6.088   6.870   5.706
  486SOL    HW2 2358   6.030   7.018   5.745
  487SOL     OW 2359   0.380   0.734   6.574
  487SOL    HW1 2360   0.325   0.658   6.609
  487SOL    HW2 2361   0.321   0.814   6.562
  488SOL     OW 2362   2.103   6.037   3.681
  488SOL    HW1 2363   2.044   5.957   3.689
  488SOL    HW2 2364   2.065   6.112   3.735
  489SOL     OW 2365   2.965   5.154   5.251
  489SOL    HW1 2366   3.051   5.204   5.239
  489SOL    HW2 2367   2.974   5.062   5.214
  490SOL     OW 2368   1.625   3.386   4.707
  490SOL    HW1 2369   1.670   3.474   4.689
  490SOL    HW2 2370   1.590   3.385   4.801
  491SOL     OW 2371   5.886   3.037   0.983
  491SOL    HW1 2372   5.828   3.003   1.057
  491SOL    HW2 2373   5.920   2.959   0.929
  492SOL     OW 2374   1.503   2.585   5.693
  492SOL    HW1 2375   1.557   2.559   5.613
  492SOL    HW2 2376   1.414   2.619   5.663
  493SOL     OW 2377   1.898   5.843   4.401
  493SOL    HW1 2378   1.971   5.793   4.353
  493SOL    HW2 2379   1.867   5.919   4.344
  494SOL     OW 2380   3.121   0.727   4.455
  494SOL    HW1 2381   3.156   0.701   4.545
  494SOL    HW2 2382   3.031   0.770   4.466
  495SOL     OW 2383   3.439   4.208   6.828
  495SOL    HW1 2384   3.420   4.259   6.912
  495SOL    HW2 2385   3.519   4.149   6.843
  496SOL     OW 2386   5.053   1.079   3.228
  496SOL    HW1 2387   4.983   1.137   3.185
  496SOL    HW2 2388   5.139   1.088   3.178
  497SOL     OW 2389   4.449   2.194   0.709
  497SOL    HW1 2390   4.441   2.202   0.808
  497SOL    HW2 2391   4.546   2.192   0.683
  498SOL     OW 2392   0.357   0.588   1.138
  498SOL    HW1 2393   0.372   0.572   1.235
  498SOL    HW2 2394   0.282   0.531   1.106
  499SOL     OW 2395   3.011   6.054   0.035
  499SOL    HW1 2396   3.101   6.013   0.024
  499SOL    HW2 2397   3.014   6.149   0.002
  500SOL     OW 2398   5.611   1.953   6.178
  500SOL    HW1 2399   5.514   1.932   6.184
  500SOL    HW2 2400   5.637   2.012   6.254
  501SOL     OW 2401   1.899   1.495   4.932
  501SOL    HW1 2402   1.910   1.474   4.835
  501SOL    HW2 2403   1.905   1.411   4.985
  502SOL     OW 2404   2.465   4.042   6.900
  502SOL    HW1 2405   2.439   4.056   6.804
  502SOL    HW2 2406   2.401   4.090   6.959
  503SOL     OW 2407   3.524   5.327   1.286
  503SOL    HW1 2408   3.543   5.258   1.356
  503SOL    HW2 2409   3.427   5.324   1.262
  504SOL     OW 2410   6.253   6.480   0.575
  504SOL    HW1 2411   6.212   6.568   0.598
  504SOL    HW2 2412   6.296   6.441   0.657
  505SOL     OW 2413   5.707   4.822   5.336
  505SOL    HW1 2414   5.713   4.921   5.353
  505SOL    HW2 2415   5.673   4.776   5.418
  506SOL     OW 2416   3.242   4.927   2.681
  506SOL    HW1 2417   3.241   5.023   2.655
  506SOL    HW2 2418   3.336   4.891   2.675
  507SOL     OW 2419   3.606   0.465   1.979
  507SOL    HW1 2420   3.611   0.491   1.882
  507SOL    HW2 2421   3.514   0.433   2.000
  508SOL     OW 2422   0.394   4.646   3.420
  508SOL    HW1 2423   0.464   4.575   3.415
  508SOL    HW2 2424   0.330   4.625   3.494
  509SOL     OW 2425   4.484   0.134   6.408
  509SOL    HW1 2426   4.454   0.043   6.436
  509SOL    HW2 2427   4.417   0.202   6.437
  510SOL     OW 2428   6.530   4.204   0.397
  510SOL    HW1 2429   6.452   4.164   0.445
  510SOL    HW2 2430   6.498   4.260   0.321
  511SOL     OW 2431   0.874   1.356   0.015
  511SOL    HW1 2432   0.882   1.448   0.054
  511SOL    HW2 2433   0.965   1.316   0.004
  512SOL     OW 2434   0.486   2.646   4.002
  512SOL    HW1 2435   0.391   2.620   4.021
  512SOL    HW2 2436   0.502   2.644   3.903
  513SOL     OW 2437   5.368   6.798   2.791
  513SOL    HW1 2438   5.320   6.881   2.821
  513SOL    HW2 2439   5.401   6.811   2.697
  514SOL     OW 2440   4.859   1.331   4.919
  514SOL    HW1 2441   4.957   1.316   4.910
  514SOL    HW2 2442   4.842   1.395   4.994
  515SOL     OW 2443   3.586   0.845   0.239
  515SOL    HW1 2444   3.682   0.869   0.253
  515SOL    HW2 2445   3.564   0.856   0.142
  516SOL     OW 2446   1.753   6.045   1.905
  516SOL    HW1 2447   1.710   5.975   1.847
  516SOL    HW2 2448   1.763   6.130   1.852
  517SOL     OW 2449   3.746   5.474   1.783
  517SOL    HW1 2450   3.783   5.514   1.867
  517SOL    HW2 2451   3.758   5.539   1.708
  518SOL     OW 2452   2.122   5.726   4.222
  518SOL    HW1 2453   2.205   5.674   4.200
  518SOL    HW2 2454   2.105   5.794   4.152
  519SOL     OW 2455   6.626   0.275   2.248
  519SOL    HW1 2456   6.573   0.190   2.250
  519SOL    HW2 2457   6.678   0.283   2.332
  520SOL     OW 2458   2.255   4.759   0.752
  520SOL    HW1 2459   2.302   4.683   0.797
  520SOL    HW2 2460   2.192   4.723   0.684
  521SOL     OW 2461   6.151   5.685   5.749
  521SOL    HW1 2462   6.246   5.693   5.719
  521SOL    HW2 2463   6.093   5.746   5.696
  522SOL     OW 2464   3.663   4.162   0.095
  522SOL    HW1 2465   3.693   4.101   0.021
  522SOL    HW2 2466   3.736   4.227   0.115
  523SOL     OW 2467   1.570   6.677   6.585
  523SOL    HW1 2468   1.634   6.753   6.599
  523SOL    HW2 2469   1.545   6.672   6.488
  524SOL     OW 2470   0.140   1.255   0.773
  524SOL    HW1 2471   0.107   1.344   0.806
  524SOL    HW2 2472   0.076   1.183   0.802
  525SOL     OW 2473   0.637   2.974   3.548
  525SOL    HW1 2474   0.568   2.998   3.480
  525SOL    HW2 2475   0.593   2.928   3.626
  526SOL     OW 2476   4.516   0.186   4.175
  526SOL    HW1 2477   4.535   0.282   4.193
  526SOL    HW2 2478   4.534   0.133   4.258
  527SOL     OW 2479   0.654   1.136   1.134
  527SOL    HW1 2480   0.738   1.166   1.179
  527SOL    HW2 2481   0.576   1.177   1.180
  528SOL     OW 2482   0.294   2.574   4.334
  528SOL    HW1 2483   0.383   2.577   4.379
  528SOL    HW2 2484   0.299   2.514   4.254
  529SOL     OW 2485   1.580   0.791   5.966
  529SOL    HW1 2486   1.630   0.778   5.880
  529SOL    HW2 2487   1.644   0.811   6.040
  530SOL     OW 2488   3.082   4.776   0.999
  530SOL    HW1 2489   3.059   4.705   0.932
  530SOL    HW2 2490   3.099   4.734   1.088
  531SOL     OW 2491   1.197   0.310   6.833
  531SOL    HW1 2492   1.284   0.262   6.833
  531SOL    HW2 2493   1.195   0.374   6.755
  532SOL     OW 2494   2.828   1.232   5.871
  532SOL    HW1 2495   2.737   1.199   5.895
  532SOL    HW2 2496   2.821   1.289   5.789
  533SOL     OW 2497   4.124   0.106   4.156
  533SOL    HW1 2498   4.065   0.047   4.212
  533SOL    HW2 2499   4.087   0.199   4.157
  534SOL     OW 2500   1.817   4.028   2.005
  534SOL    HW1 2501   1.811   3.978   2.092
  534SOL    HW2 2502   1.730   4.021   1.956
  535SOL     OW 2503   5.172   4.090   4.367
  535SOL    HW1 2504   5.154   4.064   4.272
  535SOL    HW2 2505   5.268   4.118   4.376
  536SOL     OW 2506   6.224   6.424   1.489
  536SOL    HW1 2507   6.317   6.455   1.513
  536SOL    HW2 2508   6.221   6.398   1.393
  537SOL     OW 2509   2.551   1.849   2.203
  537SOL    HW1 2510   2.565   1.948   2.200
  537SOL    HW2 2511   2.524   1.822   2.296
  538SOL     OW 2512   3.946   4.876   5.281
  538SOL    HW1 2513   4.015   4.850   5.213
  538SOL    HW2 2514   3.904   4.794   5.319
  539SOL     OW 2515   2.362   0.278   6.415
  539SOL    HW1 2516   2.320   0.201   6.463
  539SOL    HW2 2517   2.456   0.290   6.448
  540SOL     OW 2518   1.760   0.737   5.254
  540SOL    HW1 2519   1.851   0.709   5.223
  540SOL    HW2 2520   1.724   0.807   5.192
  541SOL     OW 2521   5.497   6.020   3.721
  541SOL    HW1 2522   5.400   6.041   3.734
  541SOL    HW2 2523   5.524   5.946   3.783
  542SOL     OW 2524   3.844   6.484   6.041
  542SOL    HW1 2525   3.766   6.458   5.984
  542SOL    HW2 2526   3.880   6.572   6.010
  543SOL     OW 2527   6.002   2.787   3.615
  543SOL    HW1 2528   5.985   2.871   3.666
  543SOL    HW2 2529   5.973   2.709   3.669
  544SOL     OW 2530   1.279   3.379   1.107
  544SOL    HW1 2531   1.292   3.320   1.028
  544SOL    HW2 2532   1.204   3.344   1.163
  545SOL     OW 2533   6.736   5.502   0.810
  545SOL    HW1 2534   6.677   5.551   0.747
  545SOL    HW2 2535   6.779   5.567   0.873
  546SOL     OW 2536   0.373   4.273   1.930
  546SOL    HW1 2537   0.325   4.228   1.855
  546SOL    HW2 2538   0.327   4.251   2.016
  547SOL     OW 2539   4.669   0.407   6.720
  547SOL    HW1 2540   4.678   0.435   6.815
  547SOL    HW2 2541   4.584   0.444   6.682
  548SOL     OW 2542   4.028   3.203   0.307
  548SOL    HW1 2543   3.933   3.227   0.326
  548SOL    HW2 2544   4.088   3.262   0.361
  549SOL     OW 2545   5.561   1.891   2.567
  549SOL    HW1 2546   5.484   1.947   2.599
  549SOL    HW2 2547   5.646   1.943   2.578
  550SOL     OW 2548   6.852   5.705   3.635
  550SOL    HW1 2549   6.781   5.634   3.634
  550SOL    HW2 2550   6.890   5.713   3.728
  551SOL     OW 2551   5.941   0.340   0.295
  551SOL    HW1 2552   5.911   0.435   0.286
  551SOL    HW2 2553   5.874   0.280   0.253
  552SOL     OW 2554   0.860   7.010   4.837
  552SOL    HW1 2555   0.844   0.058   4.903
  552SOL    HW2 2556   0.867   6.923   4.885
  553SOL     OW 2557   3.581   2.437   6.465
  553SOL    HW1 2558   3.671   2.475   6.447
  553SOL    HW2 2559   3.590   2.355   6.523
  554SOL     OW 2560   6.297   5.528   0.627
  554SOL    HW1 2561   6.371   5.500   0.566
  554SOL    HW2 2562   6.210   5.521   0.580
  555SOL     OW 2563   2.738   3.537   5.455
  555SOL    HW1 2564   2.772   3.447   5.481
  555SOL    HW2 2565   2.666   3.526   5.386
  556SOL     OW 2566   6.233   6.845   3.027
  556SOL    HW1 2567   6.320   6.862   3.074
  556SOL    HW2 2568   6.171   6.797   3.089
  557SOL     OW 2569   5.271   4.376   6.384
  557SOL    HW1 2570   5.331   4.342   6.457
  557SOL    HW2 2571   5.325   4.396   6.302
  558SOL     OW 2572   3.444   3.627   2.613
  558SOL    HW1 2573   3.435   3.629   2.712
  558SOL    HW2 2574   3.448   3.720   2.578
  559SOL     OW 2575   6.938   0.769   6.679
  559SOL    HW1 2576   6.880   0.695   6.714
  559SOL    HW2 2577   6.955   0.754   6.582
  560SOL     OW 2578   6.838   2.805   4.117
  560SOL    HW1 2579   6.846   2.824   4.215
  560SOL    HW2 2580   6.912   2.852   4.068
  561SOL     OW 2581   0.481   3.771   0.448
  561SOL    HW1 2582   0.404   3.833   0.436
  561SOL    HW2 2583   0.492   3.749   0.545
  562SOL     OW 2584   4.457   6.418   4.329
  562SOL    HW1 2585   4.510   6.422   4.244
  562SOL    HW2 2586   4.366   6.456   4.313
  563SOL     OW 2587   1.331   1.106   4.015
  563SOL    HW1 2588   1.391   1.130   3.938
  563SOL    HW2 2589   1.340   1.008   4.034
  564SOL     OW 2590   6.159   2.013   6.349
  564SOL    HW1 2591   6.098   1.963   6.410
  564SOL    HW2 2592   6.205   1.948   6.287
  565SOL     OW 2593   3.703   3.219   3.476
  565SOL    HW1 2594   3.657   3.130   3.473
  565SOL    HW2 2595   3.800   3.207   3.454
  566SOL     OW 2596   2.534   1.588   3.778
  566SOL    HW1 2597   2.516   1.621   3.686
  566SOL    HW2 2598   2.447   1.572   3.826
  567SOL     OW 2599   2.352   2.700   5.518
  567SOL    HW1 2600   2.327   2.688   5.422
  567SOL    HW2 2601   2.347   2.797   5.542
  568SOL     OW 2602   0.734   6.447   0.005
  568SOL    HW1 2603   0.794   6.465   6.951
  568SOL    HW2 2604   0.669   6.376   7.005
  569SOL     OW 2605   5.724   3.310   6.766
  569SOL    HW1 2606   5.744   3.359   6.681
  569SOL    HW2 2607   5.659   3.363   6.821
  570SOL     OW 2608   3.644   0.119   6.023
  570SOL    HW1 2609   3.704   0.099   5.946
  570SOL    HW2 2610   3.661   0.212   6.056
  571SOL     OW 2611   2.514   4.685   1.558
  571SOL    HW1 2612   2.581   4.638   1.616
  571SOL    HW2 2613   2.554   4.701   1.468
  572SOL     OW 2614   3.063   0.743   4.907
  572SOL    HW1 2615   3.155   0.719   4.875
  572SOL    HW2 2616   3.067   0.829   4.958
  573SOL     OW 2617   0.484   0.987   5.235
  573SOL    HW1 2618   0.480   0.888   5.248
  573SOL    HW2 2619   0.485   1.007   5.137
  574SOL     OW 2620   2.216   0.986   6.026
  574SOL    HW1 2621   2.287   1.053   6.045
  574SOL    HW2 2622   2.221   0.958   5.930
  575SOL     OW 2623   3.936   4.079   6.793
  575SOL    HW1 2624   3.946   4.170   6.832
  575SOL    HW2 2625   3.960   4.010   6.861
  576SOL     OW 2626   1.715   1.085   2.913
  576SOL    HW1 2627   1.812   1.110   2.915
  576SOL    HW2 2628   1.696   1.035   2.829
  577SOL     OW 2629   0.506   0.940   1.728
  577SOL    HW1 2630   0.503   0.983   1.638
  577SOL    HW2 2631   0.433   0.871   1.735
  578SOL     OW 2632   3.618   6.570   6.702
  578SOL    HW1 2633   3.593   6.635   6.773
  578SOL    HW2 2634   3.537   6.545   6.649
  579SOL     OW 2635   1.161   3.639   1.883
  579SOL    HW1 2636   1.111   3.556   1.858
  579SOL    HW2 2637   1.127   3.672   1.971
  580SOL     OW 2638   4.561   4.886   4.572
  580SOL    HW1 2639   4.601   4.963   4.523
  580SOL    HW2 2640   4.626   4.852   4.641
  581SOL     OW 2641   2.068   2.211   4.440
  581SOL    HW1 2642   2.151   2.157   4.424
  581SOL    HW2 2643   2.093   2.307   4.457
  582SOL     OW 2644   5.884   4.661   4.704
  582SOL    HW1 2645   5.963   4.618   4.748
  582SOL    HW2 2646   5.805   4.599   4.711
  583SOL     OW 2647   3.602   6.245   5.579
  583SOL    HW1 2648   3.503   6.238   5.567
  583SOL    HW2 2649   3.642   6.154   5.572
  584SOL     OW 2650   3.915   0.147   5.229
  584SOL    HW1 2651   3.974   0.220   5.195
  584SOL    HW2 2652   3.819   0.174   5.221
  585SOL     OW 2653   3.412   6.649   1.757
  585SOL    HW1 2654   3.410   6.749   1.749
  585SOL    HW2 2655   3.363   6.608   1.681
  586SOL     OW 2656   3.615   0.009   0.668
  586SOL    HW1 2657   3.608   0.104   0.637
  586SOL    HW2 2658   3.637   0.008   0.766
  587SOL     OW 2659   4.480   1.503   2.141
  587SOL    HW1 2660   4.502   1.438   2.213
  587SOL    HW2 2661   4.554   1.570   2.133
  588SOL     OW 2662   1.921   4.741   2.836
  588SOL    HW1 2663   1.897   4.668   2.901
  588SOL    HW2 2664   1.938   4.826   2.886
  589SOL     OW 2665   3.356   5.313   0.908
  589SOL    HW1 2666   3.379   5.410   0.911
  589SOL    HW2 2667   3.270   5.301   0.859
  590SOL     OW 2668   3.054   2.050   0.113
  590SOL    HW1 2669   2.976   2.110   0.094
  590SOL    HW2 2670   3.128   2.069   0.049
  591SOL     OW 2671   2.710   6.578   3.739
  591SOL    HW1 2672   2.745   6.651   3.680
  591SOL    HW2 2673   2.784   6.542   3.796
  592SOL     OW 2674   4.327   2.393   4.536
  592SOL    HW1 2675   4.383   2.444   4.471
  592SOL    HW2 2676   4.243   2.361   4.491
  593SOL     OW 2677   2.032   1.650   6.658
  593SOL    HW1 2678   2.061   1.619   6.749
  593SOL    HW2 2679   1.992   1.742   6.666
  594SOL     OW 2680   4.726   1.378   3.289
  594SOL    HW1 2681   4.662   1.306   3.315
  594SOL    HW2 2682   4.790   1.343   3.220
  595SOL     OW 2683   6.143   4.911   2.889
  595SOL    HW1 2684   6.149   4.829   2.947
  595SOL    HW2 2685   6.048   4.927   2.864
  596SOL     OW 2686   6.506   4.972   4.452
  596SOL    HW1 2687   6.591   5.007   4.413
  596SOL    HW2 2688   6.443   4.949   4.379
  597SOL     OW 2689   3.338   1.589   6.658
  597SOL    HW1 2690   3.351   1.674   6.709
  597SOL    HW2 2691   3.376   1.600   6.566
  598SOL     OW 2692   3.548   4.009   3.355
  598SOL    HW1 2693   3.484   3.996   3.432
  598SOL    HW2 2694   3.640   3.981   3.383
  599SOL     OW 2695   1.619   5.295   1.557
  599SOL    HW1 2696   1.657   5.356   1.626
  599SOL    HW2 2697   1.520   5.294   1.564
  600SOL     OW 2698   6.947   3.638   5.434
  600SOL    HW1 2699   6.892   3.721   5.432
  600SOL    HW2 2700   6.959   3.608   5.529
  601SOL     OW 2701   0.329   6.354   5.796
  601SOL    HW1 2702   0.344   6.421   5.722
  601SOL    HW2 2703   0.374   6.385   5.879
  602SOL     OW 2704   1.926   0.798   3.671
  602SOL    HW1 2705   1.876   0.884   3.656
  602SOL    HW2 2706   1.860   0.724   3.688
  603SOL     OW 2707   1.875   1.503   4.205
  603SOL    HW1 2708   1.904   1.598   4.214
  603SOL    HW2 2709   1.947   1.450   4.160
  604SOL     OW 2710   5.741   2.976   1.195
  604SOL    HW1 2711   5.727   3.060   1.247
  604SOL    HW2 2712   5.688   2.902   1.237
  605SOL     OW 2713   6.163   6.324   1.212
  605SOL    HW1 2714   6.121   6.379   1.139
  605SOL    HW2 2715   6.123   6.232   1.210
  606SOL     OW 2716   3.726   6.869   5.013
  606SOL    HW1 2717   3.655   6.825   4.957
  606SOL    HW2 2718   3.694   6.877   5.107
  607SOL     OW 2719   1.940   2.903   6.073
  607SOL    HW1 2720   1.905   2.892   5.980
  607SOL    HW2 2721   1.882   2.851   6.136
  608SOL     OW 2722   3.437   1.398   6.298
  608SOL    HW1 2723   3.478   1.390   6.207
  608SOL    HW2 2724   3.479   1.332   6.360
  609SOL     OW 2725   3.616   3.141   2.228
  609SOL    HW1 2726   3.582   3.091   2.148
  609SOL    HW2 2727   3.673   3.080   2.284
  610SOL     OW 2728   4.733   3.476   1.636
  610SOL    HW1 2729   4.803   3.405   1.640
  610SOL    HW2 2730   4.727   3.512   1.543
  611SOL     OW 2731   4.344   1.383   2.946
  611SOL    HW1 2732   4.378   1.302   2.898
  611SOL    HW2 2733   4.255   1.362   2.988
  612SOL     OW 2734   4.900   4.908   3.543
  612SOL    HW1 2735   4.948   4.995   3.534
  612SOL    HW2 2736   4.845   4.908   3.627
  613SOL     OW 2737   3.884   4.650   6.102
  613SOL    HW1 2738   3.911   4.577   6.165
  613SOL    HW2 2739   3.929   4.735   6.127
  614SOL     OW 2740   2.580   6.464   6.038
  614SOL    HW1 2741   2.525   6.541   6.003
  614SOL    HW2 2742   2.545   6.436   6.127
  615SOL     OW 2743   0.349   4.701   2.989
  615SOL    HW1 2744   0.391   4.616   3.019
  615SOL    HW2 2745   0.253   4.685   2.965
  616SOL     OW 2746   6.057   3.185   3.671
  616SOL    HW1 2747   6.004   3.269   3.663
  616SOL    HW2 2748   6.027   3.135   3.753
  617SOL     OW 2749   3.455   6.598   5.841
  617SOL    HW1 2750   3.530   6.533   5.850
  617SOL    HW2 2751   3.369   6.553   5.865
  618SOL     OW 2752   1.528   0.643   3.556
  618SOL    HW1 2753   1.560   0.728   3.599
  618SOL    HW2 2754   1.498   0.662   3.462
  619SOL     OW 2755   0.872   2.141   6.322
  619SOL    HW1 2756   0.855   2.210   6.252
  619SOL    HW2 2757   0.952   2.167   6.376
  620SOL     OW 2758   4.163   3.379   0.849
  620SOL    HW1 2759   4.094   3.394   0.779
  620SOL    HW2 2760   4.189   3.467   0.890
  621SOL     OW 2761   6.972   5.859   0.673
  621SOL    HW1 2762   6.995   5.763   0.688
  621SOL    HW2 2763   6.873   5.869   0.668
  622SOL     OW 2764   0.616   0.648   6.697
  622SOL    HW1 2765   0.537   0.674   6.642
  622SOL    HW2 2766   0.661   0.731   6.730
  623SOL     OW 2767   0.231   5.198   5.137
  623SOL    HW1 2768   0.260   5.259   5.211
  623SOL    HW2 2769   0.147   5.152   5.163
  624SOL     OW 2770   0.815   1.731   1.265
  624SOL    HW1 2771   0.819   1.742   1.166
  624SOL    HW2 2772   0.907   1.723   1.302
  625SOL     OW 2773   1.663   1.530   2.905
  625SOL    HW1 2774   1.568   1.556   2.926
  625SOL    HW2 2775   1.671   1.515   2.806
  626SOL     OW 2776   2.973   6.482   4.657
  626SOL    HW1 2777   3.065   6.475   4.696
  626SOL    HW2 2778   2.906   6.484   4.731
  627SOL     OW 2779   5.531   6.999   0.079
  627SOL    HW1 2780   5.588   6.941   0.138
  627SOL    HW2 2781   5.479   6.942   0.016
  628SOL     OW 2782   5.647   4.254   3.089
  628SOL    HW1 2783   5.642   4.286   2.994
  628SOL    HW2 2784   5.626   4.156   3.092
  629SOL     OW 2785   1.177   6.586   1.434
  629SOL    HW1 2786   1.190   6.681   1.464
  629SOL    HW2 2787   1.254   6.558   1.377
  630SOL     OW 2788   3.049   1.865   0.965
  630SOL    HW1 2789   3.012   1.913   1.045
  630SOL    HW2 2790   3.149   1.858   0.974
  631SOL     OW 2791   2.562   0.256   4.701
  631SOL    HW1 2792   2.573   0.262   4.800
  631SOL    HW2 2793   2.517   0.170   4.678
  632SOL     OW 2794   3.061   0.461   1.130
  632SOL    HW1 2795   3.025   0.452   1.037
  632SOL    HW2 2796   3.061   0.558   1.156
  633SOL     OW 2797   2.341   6.681   5.193
  633SOL    HW1 2798   2.393   6.617   5.251
  633SOL    HW2 2799   2.306   6.632   5.114
  634SOL     OW 2800   2.771   5.317   1.960
  634SOL    HW1 2801   2.677   5.352   1.953
  634SOL    HW2 2802   2.822   5.343   1.878
  635SOL     OW 2803   2.803   0.457   3.066
  635SOL    HW1 2804   2.859   0.380   3.033
  635SOL    HW2 2805   2.712   0.423   3.090
  636SOL     OW 2806   4.664   5.608   6.957
  636SOL    HW1 2807   4.738   5.576   7.016
  636SOL    HW2 2808   4.692   5.692   6.910
  637SOL     OW 2809   5.934   4.319   0.151
  637SOL    HW1 2810   5.967   4.405   0.191
  637SOL    HW2 2811   6.007   4.278   0.096
  638SOL     OW 2812   5.427   1.507   3.148
  638SOL    HW1 2813   5.388   1.427   3.194
  638SOL    HW2 2814   5.474   1.563   3.216
  639SOL     OW 2815   4.859   4.085   2.104
  639SOL    HW1 2816   4.894   4.140   2.179
  639SOL    HW2 2817   4.760   4.097   2.097
  640SOL     OW 2818   2.179   3.269   5.638
  640SOL    HW1 2819   2.101   3.217   5.606
  640SOL    HW2 2820   2.160   3.305   5.729
  641SOL     OW 2821   0.474   5.903   5.831
  641SOL    HW1 2822   0.414   5.926   5.908
  641SOL    HW2 2823   0.446   5.955   5.750
  642SOL     OW 2824   1.146   4.781   6.073
  642SOL    HW1 2825   1.225   4.737   6.029
  642SOL    HW2 2826   1.072   4.790   6.007
  643SOL     OW 2827   5.832   6.080   5.008
  643SOL    HW1 2828   5.887   5.997   5.020
  643SOL    HW2 2829   5.859   6.125   4.922
  644SOL     OW 2830   2.344   5.809   2.038
  644SOL    HW1 2831   2.296   5.788   2.123
  644SOL    HW2 2832   2.357   5.907   2.030
  645SOL     OW 2833   6.502   2.618   2.746
  645SOL    HW1 2834   6.480   2.605   2.843
  645SOL    HW2 2835   6.480   2.712   2.719
  646SOL     OW 2836   1.048   2.575   4.451
  646SOL    HW1 2837   1.075   2.496   4.397
  646SOL    HW2 2838   1.073   2.560   4.547
  647SOL     OW 2839   5.255   2.949   0.108
  647SOL    HW1 2840   5.321   2.991   0.170
  647SOL    HW2 2841   5.300   2.928   0.021
  648SOL     OW 2842   4.786   2.185   3.921
  648SOL    HW1 2843   4.878   2.147   3.913
  648SOL    HW2 2844   4.778   2.266   3.863
  649SOL     OW 2845   4.302   4.602   1.982
  649SOL    HW1 2846   4.356   4.568   2.059
  649SOL    HW2 2847   4.322   4.550   1.900
  650SOL     OW 2848   5.369   4.217   0.617
  650SOL    HW1 2849   5.301   4.146   0.633
  650SOL    HW2 2850   5.324   4.306   0.615
  651SOL     OW 2851   0.916   6.546   6.050
  651SOL    HW1 2852   0.925   6.454   6.011
  651SOL    HW2 2853   0.841   6.547   6.116
  652SOL     OW 2854   5.161   1.606   2.771
  652SOL    HW1 2855   5.183   1.663   2.850
  652SOL    HW2 2856   5.067   1.623   2.742
  653SOL     OW 2857   3.213   5.116   3.012
  653SOL    HW1 2858   3.150   5.193   3.001
  653SOL    HW2 2859   3.166   5.030   2.992
  654SOL     OW 2860   6.272   5.684   6.520
  654SOL    HW1 2861   6.176   5.703   6.539
  654SOL    HW2 2862   6.296   5.595   6.557
  655SOL     OW 2863   0.469   1.235   0.027
  655SOL    HW1 2864   0.434   1.168   6.986
  655SOL    HW2 2865   0.418   1.320   0.019
  656SOL     OW 2866   2.381   6.188   1.326
  656SOL    HW1 2867   2.447   6.115   1.342
  656SOL    HW2 2868   2.324   6.165   1.247
  657SOL     OW 2869   3.675   1.646   6.944
  657SOL    HW1 2870   3.613   1.724   6.951
  657SOL    HW2 2871   3.756   1.662   7.001
  658SOL     OW 2872   3.848   5.378   6.106
  658SOL    HW1 2873   3.905   5.455   6.135
  658SOL    HW2 2874   3.836   5.315   6.182
  659SOL     OW 2875   3.861   0.321   5.639
  659SOL    HW1 2876   3.916   0.305   5.558
  659SOL    HW2 2877   3.830   0.417   5.639
  660SOL     OW 2878   3.743   5.399   3.232
  660SOL    HW1 2879   3.806   5.332   3.192
  660SOL    HW2 2880   3.786   5.489   3.230
  661SOL     OW 2881   6.051   5.705   2.821
  661SOL    HW1 2882   6.093   5.729   2.733
  661SOL    HW2 2883   6.113   5.730   2.895
  662SOL     OW 2884   3.792   1.432   0.504
  662SOL    HW1 2885   3.826   1.339   0.518
  662SOL    HW2 2886   3.727   1.432   0.427
  663SOL     OW 2887   1.789   4.664   4.948
  663SOL    HW1 2888   1.845   4.582   4.964
  663SOL    HW2 2889   1.817   4.736   5.012
  664SOL     OW 2890   5.467   0.578   6.704
  664SOL    HW1 2891   5.547   0.582   6.764
  664SOL    HW2 2892   5.391   0.536   6.753
  665SOL     OW 2893   1.319   4.403   2.268
  665SOL    HW1 2894   1.393   4.430   2.329
  665SOL    HW2 2895   1.287   4.484   2.218
  666SOL     OW 2896   4.482   1.282   1.315
  666SOL    HW1 2897   4.539   1.310   1.239
  666SOL    HW2 2898   4.479   1.354   1.384
  667SOL     OW 2899   1.278   0.040   2.709
  667SOL    HW1 2900   1.197   0.041   2.650
  667SOL    HW2 2901   1.277   0.123   2.766
  668SOL     OW 2902   5.484   3.564   0.653
  668SOL    HW1 2903   5.516   3.558   0.747
  668SOL    HW2 2904   5.450   3.656   0.635
  669SOL     OW 2905   4.925   1.687   2.633
  669SOL    HW1 2906   4.853   1.617   2.620
  669SOL    HW2 2907   4.987   1.684   2.555
  670SOL     OW 2908   3.489   2.098   3.236
  670SOL    HW1 2909   3.421   2.160   3.274
  670SOL    HW2 2910   3.443   2.016   3.200
  671SOL     OW 2911   2.457   6.525   1.875
  671SOL    HW1 2912   2.527   6.592   1.853
  671SOL    HW2 2913   2.368   6.570   1.885
  672SOL     OW 2914   0.979   6.962   2.270
  672SOL    HW1 2915   0.996   0.001   2.195
  672SOL    HW2 2916   0.969   6.869   2.234
  673SOL     OW 2917   6.039   6.899   6.837
  673SOL    HW1 2918   6.108   6.956   6.881
  673SOL    HW2 2919   6.008   6.944   6.753
  674SOL     OW 2920   5.085   0.544   3.843
  674SOL    HW1 2921   5.102   0.569   3.748
  674SOL    HW2 2922   5.123   0.614   3.903
  675SOL     OW 2923   0.381   3.727   3.161
  675SOL    HW1 2924   0.473   3.763   3.178
  675SOL    HW2 2925   0.346   3.763   3.074
  676SOL     OW 2926   2.273   6.559   6.046
  676SOL    HW1 2927   2.225   6.482   6.003
  676SOL    HW2 2928   2.234   6.576   6.137
  677SOL     OW 2929   5.742   1.856   1.218
  677SOL    HW1 2930   5.712   1.905   1.299
  677SOL    HW2 2931   5.736   1.757   1.234
  678SOL     OW 2932   1.072   4.974   3.686
  678SOL    HW1 2933   1.030   4.943   3.601
  678SOL    HW2 2934   1.167   4.941   3.690
  679SOL     OW 2935   4.561   1.881   5.092
  679SOL    HW1 2936   4.471   1.863   5.054
  679SOL    HW2 2937   4.556   1.885   5.192
  680SOL     OW 2938   6.334   6.016   3.986
  680SOL    HW1 2939   6.372   5.955   4.055
  680SOL    HW2 2940   6.320   6.107   4.026
  681SOL     OW 2941   4.698   4.200   2.958
  681SOL    HW1 2942   4.705   4.141   2.878
  681SOL    HW2 2943   4.750   4.159   3.033
  682SOL     OW 2944   0.363   1.420   2.951
  682SOL    HW1 2945   0.383   1.328   2.986
  682SOL    HW2 2946   0.445   1.476   2.957
  683SOL     OW 2947   3.375   4.259   1.324
  683SOL    HW1 2948   3.341   4.229   1.413
  683SOL    HW2 2949   3.436   4.190   1.286
  684SOL     OW 2950   6.689   1.341   5.837
  684SOL    HW1 2951   6.709   1.414   5.773
  684SOL    HW2 2952   6.678   1.255   5.788
  685SOL     OW 2953   2.699   6.796   2.819
  685SOL    HW1 2954   2.778   6.787   2.758
  685SOL    HW2 2955   2.662   6.889   2.813
  686SOL     OW 2956   3.866   0.776   4.982
  686SOL    HW1 2957   3.862   0.876   4.990
  686SOL    HW2 2958   3.962   0.747   4.988
  687SOL     OW 2959   0.088   1.503   3.527
  687SOL    HW1 2960   0.014   1.482   3.592
  687SOL    HW2 2961   0.176   1.494   3.573
  688SOL     OW 2962   5.805   1.578   0.078
  688SOL    HW1 2963   5.827   1.657   0.020
  688SOL    HW2 2964   5.829   1.598   0.173
  689SOL     OW 2965   1.507   5.747   6.893
  689SOL    HW1 2966   1.440   5.813   6.927
  689SOL    HW2 2967   1.547   5.781   6.808
  690SOL     OW 2968   5.593   3.996   3.088
  690SOL    HW1 2969   5.537   3.935   3.033
  690SOL    HW2 2970   5.572   3.982   3.185
  691SOL     OW 2971   6.232   1.563   1.438
  691SOL    HW1 2972   6.223   1.464   1.439
  691SOL    HW2 2973   6.246   1.595   1.344
  692SOL     OW 2974   1.827   0.618   4.923
  692SOL    HW1 2975   1.791   0.695   4.870
  692SOL    HW2 2976   1.832   0.537   4.865
  693SOL     OW 2977   5.951   4.978   3.148
  693SOL    HW1 2978   5.981   4.885   3.170
  693SOL    HW2 2979   5.952   5.033   3.231
  694SOL     OW 2980   4.501   6.082   4.717
  694SOL    HW1 2981   4.471   6.155   4.779
  694SOL    HW2 2982   4.471   6.103   4.624
  695SOL     OW 2983   4.747   0.025   3.915
  695SOL    HW1 2984   4.798   0.042   3.999
  695SOL    HW2 2985   4.793   0.068   3.838
  696SOL     OW 2986   5.671   4.153   2.508
  696SOL    HW1 2987   5.755   4.186   2.550
  696SOL    HW2 2988   5.651   4.061   2.541
  697SOL     OW 2989   1.425   6.195   1.960
  697SOL    HW1 2990   1.332   6.233   1.967
  697SOL    HW2 2991   1.491   6.263   1.992
  698SOL     OW 2992   5.639   5.926   6.484
  698SOL    HW1 2993   5.701   5.981   6.429
  698SOL    HW2 2994   5.632   5.965   6.576
  699SOL     OW 2995   3.176   3.076   0.874
  699SOL    HW1 2996   3.172   3.170   0.908
  699SOL    HW2 2997   3.179   3.013   0.951
  700SOL     OW 2998   3.978   6.872   4.927
  700SOL    HW1 2999   3.880   6.862   4.943
  700SOL    HW2 3000   4.022   6.901   5.012
  701SOL     OW 3001   4.669   5.340   1.145
  701SOL    HW1 3002   4.652   5.297   1.056
  701SOL    HW2 3003   4.630   5.284   1.217
  702SOL     OW 3004   4.218   0.726   4.709
  702SOL    HW1 3005   4.151   0.706   4.637
  702SOL    HW2 3006   4.308   0.739   4.668
  703SOL     OW 3007   2.702   2.700   0.267
  703SOL    HW1 3008   2.691   2.660   0.177
  703SOL    HW2 3009   2.799   2.701   0.292
  704SOL     OW 3010   3.421   1.718   5.387
  704SOL    HW1 3011   3.439   1.772   5.469
  704SOL    HW2 3012   3.423   1.777   5.307
  705SOL     OW 3013   0.524   6.387   5.390
  705SOL    HW1 3014   0.560   6.443   5.316
  705SOL    HW2 3015   0.454   6.325   5.355
  706SOL     OW 3016   3.648   1.222   4.383
  706SOL    HW1 3017   3.691   1.237   4.472
  706SOL    HW2 3018   3.685   1.139   4.341
  707SOL     OW 3019   2.797   5.355   4.207
  707SOL    HW1 3020   2.708   5.331   4.246
  707SOL    HW2 3021   2.819   5.450   4.228
  708SOL     OW 3022   5.026   5.982   4.076
  708SOL    HW1 3023   4.953   5.937   4.025
  708SOL    HW2 3024   5.109   5.986   4.019
  709SOL     OW 3025   2.461   0.787   1.216
  709SOL    HW1 3026   2.416   0.700   1.239
  709SOL    HW2 3027   2.430   0.818   1.127
  710SOL     OW 3028   5.196   3.237   1.890
  710SOL    HW1 3029   5.104   3.254   1.924
  710SOL    HW2 3030   5.205   3.140   1.865
  711SOL     OW 3031   0.198   1.590   0.397
  711SOL    HW1 3032   0.253   1.652   0.341
  711SOL    HW2 3033   0.239   1.499   0.395
  712SOL     OW 3034   4.720   3.822   6.972
  712SOL    HW1 3035   4.768   3.817   0.035
  712SOL    HW2 3036   4.681   3.732   6.950
  713SOL     OW 3037   4.322   3.688   5.338
  713SOL    HW1 3038   4.264   3.765   5.309
  713SOL    HW2 3039   4.418   3.712   5.323
  714SOL     OW 3040   5.360   5.824   3.162
  714SOL    HW1 3041   5.345   5.741   3.109
  714SOL    HW2 3042   5.351   5.803   3.260
  715SOL     OW 3043   6.041   4.457   5.407
  715SOL    HW1 3044   6.120   4.512   5.380
  715SOL    HW2 3045   6.020   4.392   5.334
  716SOL     OW 3046   3.056   2.153   3.283
  716SOL    HW1 3047   3.045   2.171   3.185
  716SOL    HW2 3048   2.995   2.212   3.335
  717SOL     OW 3049   5.208   5.156   4.070
  717SOL    HW1 3050   5.148   5.200   4.003
  717SOL    HW2 3051   5.303   5.172   4.045
  718SOL     OW 3052   5.678   2.510   5.180
  718SOL    HW1 3053   5.738   2.475   5.252
  718SOL    HW2 3054   5.725   2.581   5.128
  719SOL     OW 3055   5.155   6.567   3.518
  719SOL    HW1 3056   5.118   6.542   3.608
  719SOL    HW2 3057   5.087   6.621   3.469
  720SOL     OW 3058   2.814   1.268   1.098
  720SOL    HW1 3059   2.783   1.363   1.095
  720SOL    HW2 3060   2.871   1.254   1.179
  721SOL     OW 3061   0.020   2.593   1.983
  721SOL    HW1 3062   7.021   2.622   2.075
  721SOL    HW2 3063   0.103   2.640   1.953
  722SOL     OW 3064   4.990   6.002   0.787
  722SOL    HW1 3065   4.910   5.980   0.731
  722SOL    HW2 3066   4.962   6.053   0.867
  723SOL     OW 3067   2.269   0.335   4.737
  723SOL    HW1 3068   2.209   0.373   4.808
  723SOL    HW2 3069   2.359   0.378   4.743
  724SOL     OW 3070   0.924   2.026   4.417
  724SOL    HW1 3071   0.957   1.933   4.433
  724SOL    HW2 3072   0.824   2.025   4.415
  725SOL     OW 3073   1.828   4.534   3.012
  725SOL    HW1 3074   1.896   4.529   3.085
  725SOL    HW2 3075   1.738   4.553   3.053
  726SOL     OW 3076   1.550   3.788   0.911
  726SOL    HW1 3077   1.610   3.793   0.990
  726SOL    HW2 3078   1.520   3.693   0.898
  727SOL     OW 3079   3.622   5.330   4.668
  727SOL    HW1 3080   3.616   5.237   4.706
  727SOL    HW2 3081   3.604   5.327   4.570
  728SOL     OW 3082   6.629   2.997   3.631
  728SOL    HW1 3083   6.576   2.917   3.603
  728SOL    HW2 3084   6.673   2.978   3.719
  729SOL     OW 3085   0.654   4.466   0.970
  729SOL    HW1 3086   0.738   4.449   1.021
  729SOL    HW2 3087   0.677   4.503   0.880
  730SOL     OW 3088   4.101   1.299   3.064
  730SOL    HW1 3089   4.022   1.344   3.106
  730SOL    HW2 3090   4.122   1.215   3.113
  731SOL     OW 3091   4.446   4.541   4.294
  731SOL    HW1 3092   4.499   4.468   4.336
  731SOL    HW2 3093   4.428   4.612   4.362
  732SOL     OW 3094   3.683   0.733   5.186
  732SOL    HW1 3095   3.603   0.788   5.163
  732SOL    HW2 3096   3.758   0.754   5.123
  733SOL     OW 3097   6.177   5.144   3.602
  733SOL    HW1 3098   6.203   5.196   3.683
  733SOL    HW2 3099   6.153   5.207   3.528
  734SOL     OW 3100   6.364   6.901   2.523
  734SOL    HW1 3101   6.308   6.864   2.449
  734SOL    HW2 3102   6.460   6.885   2.504
  735SOL     OW 3103   4.399   0.100   1.928
  735SOL    HW1 3104   4.455   0.097   2.011
  735SOL    HW2 3105   4.453   0.068   1.850
  736SOL     OW 3106   2.236   1.517   3.873
  736SOL    HW1 3107   2.196   1.595   3.921
  736SOL    HW2 3108   2.227   1.531   3.774
  737SOL     OW 3109   3.621   0.983   6.442
  737SOL    HW1 3110   3.635   1.081   6.433
  737SOL    HW2 3111   3.646   0.938   6.356
  738SOL     OW 3112   2.210   4.766   0.322
  738SOL    HW1 3113   2.179   4.780   0.416
  738SOL    HW2 3114   2.233   4.853   0.280
  739SOL     OW 3115   2.148   6.926   3.748
  739SOL    HW1 3116   2.167   6.980   3.666
  739SOL    HW2 3117   2.232   6.915   3.801
  740SOL     OW 3118   4.980   3.537   3.130
  740SOL    HW1 3119   5.071   3.578   3.144
  740SOL    HW2 3120   4.926   3.548   3.214
  741SOL     OW 3121   3.003   0.938   3.051
  741SOL    HW1 3122   3.020   0.908   3.145
  741SOL    HW2 3123   2.905   0.945   3.035
  742SOL     OW 3124   2.180   6.108   1.773
  742SOL    HW1 3125   2.116   6.086   1.698
  742SOL    HW2 3126   2.201   6.206   1.771
  743SOL     OW 3127   0.731   6.107   2.905
  743SOL    HW1 3128   0.827   6.085   2.886
  743SOL    HW2 3129   0.682   6.121   2.819
  744SOL     OW 3130   5.119   1.648   7.014
  744SOL    HW1 3131   5.021   1.655   0.008
  744SOL    HW2 3132   5.157   1.568   0.036
  745SOL     OW 3133   2.559   6.641   4.571
  745SOL    HW1 3134   2.518   6.690   4.494
  745SOL    HW2 3135   2.553   6.543   4.555
  746SOL     OW 3136   0.180   5.009   4.750
  746SOL    HW1 3137   0.175   5.055   4.839
  746SOL    HW2 3138   0.213   5.073   4.681
  747SOL     OW 3139   4.936   5.802   2.615
  747SOL    HW1 3140   4.921   5.807   2.517
  747SOL    HW2 3141   5.018   5.854   2.639
  748SOL     OW 3142   5.405   5.228   1.458
  748SOL    HW1 3143   5.352   5.253   1.539
  748SOL    HW2 3144   5.502   5.224   1.482
  749SOL     OW 3145   5.058   4.377   4.834
  749SOL    HW1 3146   5.000   4.295   4.841
  749SOL    HW2 3147   5.049   4.417   4.743
  750SOL     OW 3148   2.323   1.880   2.637
  750SOL    HW1 3149   2.232   1.918   2.623
  750SOL    HW2 3150   2.341   1.872   2.736
  751SOL     OW 3151   3.272   0.664   0.796
  751SOL    HW1 3152   3.236   0.725   0.725
  751SOL    HW2 3153   3.242   0.697   0.886
  752SOL     OW 3154   3.671   2.756   5.203
  752SOL    HW1 3155   3.578   2.739   5.238
  752SOL    HW2 3156   3.665   2.797   5.112
  753SOL     OW 3157   3.528   4.001   4.250
  753SOL    HW1 3158   3.511   3.979   4.346
  753SOL    HW2 3159   3.619   4.040   4.240
  754SOL     OW 3160   5.545   0.528   0.379
  754SOL    HW1 3161   5.449   0.516   0.353
  754SOL    HW2 3162   5.555   0.512   0.477
  755SOL     OW 3163   4.485   4.341   5.300
  755SOL    HW1 3164   4.431   4.399   5.238
  755SOL    HW2 3165   4.467   4.245   5.280
  756SOL     OW 3166   2.362   4.942   6.386
  756SOL    HW1 3167   2.290   5.003   6.419
  756SOL    HW2 3168   2.381   4.962   6.289
  757SOL     OW 3169   1.991   5.928   1.965
  757SOL    HW1 3170   1.896   5.949   1.941
  757SOL    HW2 3171   2.031   6.007   2.011
  758SOL     OW 3172   5.123   0.768   4.340
  758SOL    HW1 3173   5.109   0.817   4.426
  758SOL    HW2 3174   5.175   0.684   4.358
  759SOL     OW 3175   0.618   3.595   3.937
  759SOL    HW1 3176   0.542   3.533   3.958
  759SOL    HW2 3177   0.646   3.582   3.842
  760SOL     OW 3178   6.613   4.939   3.579
  760SOL    HW1 3179   6.610   4.844   3.548
  760SOL    HW2 3180   6.583   4.944   3.674
  761SOL     OW 3181   4.815   5.294   6.332
  761SOL    HW1 3182   4.739   5.245   6.288
  761SOL    HW2 3183   4.902   5.259   6.297
  762SOL     OW 3184   3.696   6.126   3.254
  762SOL    HW1 3185   3.716   6.119   3.156
  762SOL    HW2 3186   3.663   6.037   3.287
  763SOL     OW 3187   5.540   0.456   0.659
  763SOL    HW1 3188   5.444   0.455   0.687
  763SOL    HW2 3189   5.588   0.379   0.700
  764SOL     OW 3190   5.448   6.726   5.463
  764SOL    HW1 3191   5.471   6.661   5.536
  764SOL    HW2 3192   5.416   6.811   5.503
  765SOL     OW 3193   6.403   6.982   0.352
  765SOL    HW1 3194   6.454   6.975   0.266
  765SOL    HW2 3195   6.409   6.895   0.401
  766SOL     OW 3196   2.862   1.771   4.423
  766SOL    HW1 3197   2.823   1.768   4.516
  766SOL    HW2 3198   2.832   1.855   4.377
  767SOL     OW 3199   6.536   5.593   4.301
  767SOL    HW1 3200   6.520   5.677   4.249
  767SOL    HW2 3201   6.455   5.534   4.295
  768SOL     OW 3202   1.930   5.226   3.087
  768SOL    HW1 3203   1.872   5.253   3.010
  768SOL    HW2 3204   1.886   5.255   3.173
  769SOL     OW 3205   3.080   2.120   5.552
  769SOL    HW1 3206   3.009   2.122   5.622
  769SOL    HW2 3207   3.073   2.034   5.500
  770SOL     OW 3208   1.263   5.046   6.080
  770SOL    HW1 3209   1.297   5.036   5.987
  770SOL    HW2 3210   1.200   4.970   6.101
  771SOL     OW 3211   1.405   5.124   2.726
  771SOL    HW1 3212   1.481   5.093   2.783
  771SOL    HW2 3213   1.318   5.091   2.765
  772SOL     OW 3214   5.629   4.469   0.383
  772SOL    HW1 3215   5.694   4.515   0.443
  772SOL    HW2 3216   5.636   4.370   0.395
  773SOL     OW 3217   1.861   4.122   3.780
  773SOL    HW1 3218   1.903   4.070   3.853
  773SOL    HW2 3219   1.884   4.219   3.790
  774SOL     OW 3220   2.310   1.017   3.585
  774SOL    HW1 3221   2.395   1.039   3.632
  774SOL    HW2 3222   2.253   1.099   3.579
  775SOL     OW 3223   1.329   4.584   3.098
  775SOL    HW1 3224   1.428   4.568   3.102
  775SOL    HW2 3225   1.282   4.498   3.082
  776SOL     OW 3226   2.424   5.237   6.050
  776SOL    HW1 3227   2.487   5.273   5.981
  776SOL    HW2 3228   2.365   5.311   6.082
  777SOL     OW 3229   2.022   3.400   6.163
  777SOL    HW1 3230   2.056   3.493   6.177
  777SOL    HW2 3231   1.995   3.360   6.251
  778SOL     OW 3232   3.203   5.551   6.916
  778SOL    HW1 3233   3.167   5.544   6.823
  778SOL    HW2 3234   3.292   5.506   6.921
  779SOL     OW 3235   6.063   2.307   3.008
  779SOL    HW1 3236   5.985   2.314   3.070
  779SOL    HW2 3237   6.077   2.395   2.963
  780SOL     OW 3238   6.875   2.127   5.265
  780SOL    HW1 3239   6.789   2.137   5.315
  780SOL    HW2 3240   6.926   2.213   5.269
  781SOL     OW 3241   0.121   4.413   6.616
  781SOL    HW1 3242   0.195   4.470   6.579
  781SOL    HW2 3243   0.045   4.472   6.645
  782SOL     OW 3244   1.731   3.578   5.265
  782SOL    HW1 3245   1.755   3.675   5.271
  782SOL    HW2 3246   1.815   3.523   5.261
  783SOL     OW 3247   6.415   4.954   6.705
  783SOL    HW1 3248   6.356   5.012   6.650
  783SOL    HW2 3249   6.440   4.872   6.653
  784SOL     OW 3250   2.431   5.937   0.572
  784SOL    HW1 3251   2.431   5.936   0.672
  784SOL    HW2 3252   2.368   5.868   0.537
  785SOL     OW 3253   0.720   1.076   4.276
  785SOL    HW1 3254   0.685   1.001   4.332
  785SOL    HW2 3255   0.720   1.049   4.180
  786SOL     OW 3256   5.959   0.723   4.050
  786SOL    HW1 3257   5.968   0.712   4.148
  786SOL    HW2 3258   6.048   0.706   4.006
  787SOL     OW 3259   2.266   0.225   1.393
  787SOL    HW1 3260   2.315   0.143   1.364
  787SOL    HW2 3261   2.169   0.215   1.372
  788SOL     OW 3262   2.196   2.877   1.832
  788SOL    HW1 3263   2.281   2.826   1.845
  788SOL    HW2 3264   2.120   2.825   1.869
  789SOL     OW 3265   4.025   4.810   2.569
  789SOL    HW1 3266   3.986   4.835   2.481
  789SOL    HW2 3267   4.116   4.771   2.555
  790SOL     OW 3268   0.463   3.248   2.003
  790SOL    HW1 3269   0.417   3.335   2.015
  790SOL    HW2 3270   0.440   3.210   1.913
  791SOL     OW 3271   2.981   6.842   3.660
  791SOL    HW1 3272   2.983   6.918   3.725
  791SOL    HW2 3273   2.888   6.831   3.625
  792SOL     OW 3274   2.110   0.368   0.634
  792SOL    HW1 3275   2.084   0.436   0.703
  792SOL    HW2 3276   2.166   0.412   0.564
  793SOL     OW 3277   2.503   6.375   4.555
  793SOL    HW1 3278   2.442   6.325   4.494
  793SOL    HW2 3279   2.586   6.321   4.570
  794SOL     OW 3280   3.247   2.976   2.733
  794SOL    HW1 3281   3.225   3.063   2.777
  794SOL    HW2 3282   3.209   2.975   2.641
  795SOL     OW 3283   4.847   1.027   5.805
  795SOL    HW1 3284   4.911   0.984   5.868
  795SOL    HW2 3285   4.883   1.116   5.776
  796SOL     OW 3286   0.279   2.374   0.074
  796SOL    HW1 3287   0.367   2.381   0.120
  796SOL    HW2 3288   0.210   2.341   0.138
  797SOL     OW 3289   3.355   6.754   1.435
  797SOL    HW1 3290   3.308   6.747   1.347
  797SOL    HW2 3291   3.335   6.844   1.476
  798SOL     OW 3292   5.175   5.062   1.338
  798SOL    HW1 3293   5.092   5.099   1.296
  798SOL    HW2 3294   5.222   5.134   1.389
  799SOL     OW 3295   2.618   2.644   6.038
  799SOL    HW1 3296   2.585   2.685   5.953
  799SOL    HW2 3297   2.705   2.685   6.063
  800SOL     OW 3298   5.513   2.721   3.206
  800SOL    HW1 3299   5.533   2.712   3.303
  800SOL    HW2 3300   5.440   2.787   3.192
  801SOL     OW 3301   2.070   6.001   6.683
  801SOL    HW1 3302   2.072   5.936   6.759
  801SOL    HW2 3303   1.975   6.025   6.663
  802SOL     OW 3304   4.645   2.464   6.737
  802SOL    HW1 3305   4.664   2.560   6.758
  802SOL    HW2 3306   4.586   2.426   6.807
  803SOL     OW 3307   2.365   1.876   4.314
  803SOL    HW1 3308   2.363   1.885   4.215
  803SOL    HW2 3309   2.367   1.778   4.338
  804SOL     OW 3310   5.130   0.635   2.729
  804SOL    HW1 3311   5.066   0.663   2.800
  804SOL    HW2 3312   5.203   0.579   2.769
  805SOL     OW 3313   3.702   0.660   3.895
  805SOL    HW1 3314   3.693   0.710   3.808
  805SOL    HW2 3315   3.613   0.622   3.920
  806SOL     OW 3316   3.056   6.290   5.432
  806SOL    HW1 3317   2.996   6.370   5.431
  806SOL    HW2 3318   3.149   6.317   5.456
  807SOL     OW 3319   1.018   5.950   5.756
  807SOL    HW1 3320   1.106   5.995   5.767
  807SOL    HW2 3321   0.950   5.996   5.813
  808SOL     OW 3322   5.329   3.050   5.875
  808SOL    HW1 3323   5.284   3.029   5.788
  808SOL    HW2 3324   5.262   3.043   5.949
  809SOL     OW 3325   2.930   5.648   6.952
  809SOL    HW1 3326   3.005   5.584   6.964
  809SOL    HW2 3327   2.918   5.669   6.855
  810SOL     OW 3328   3.513   3.765   0.332
  810SOL    HW1 3329   3.416   3.787   0.316
  810SOL    HW2 3330   3.569   3.839   0.295
  811SOL     OW 3331   6.347   5.422   4.581
  811SOL    HW1 3332   6.434   5.465   4.556
  811SOL    HW2 3333   6.341   5.415   4.680
  812SOL     OW 3334   0.958   3.698   1.616
  812SOL    HW1 3335   0.993   3.696   1.522
  812SOL    HW2 3336   1.028   3.664   1.678
  813SOL     OW 3337   2.086   1.334   5.185
  813SOL    HW1 3338   2.011   1.291   5.134
  813SOL    HW2 3339   2.055   1.355   5.277
  814SOL     OW 3340   0.737   4.179   2.744
  814SOL    HW1 3341   0.682   4.131   2.813
  814SOL    HW2 3342   0.697   4.269   2.726
  815SOL     OW 3343   4.332   2.128   4.651
  815SOL    HW1 3344   4.341   2.227   4.644
  815SOL    HW2 3345   4.365   2.097   4.741
  816SOL     OW 3346   5.613   3.772   6.797
  816SOL    HW1 3347   5.542   3.831   6.759
  816SOL    HW2 3348   5.677   3.746   6.725
  817SOL     OW 3349   0.340   4.983   6.599
  817SOL    HW1 3350   0.345   5.070   6.648
  817SOL    HW2 3351   0.408   4.982   6.526
  818SOL     OW 3352   0.040   1.884   5.122
  818SOL    HW1 3353   0.069   1.897   5.027
  818SOL    HW2 3354   0.099   1.937   5.183
  819SOL     OW 3355   4.924   3.298   1.629
  819SOL    HW1 3356   4.850   3.239   1.597
  819SOL    HW2 3357   5.011   3.249   1.624
  820SOL     OW 3358   2.656   2.188   5.241
  820SOL    HW1 3359   2.637   2.094   5.267
  820SOL    HW2 3360   2.731   2.191   5.175
  821SOL     OW 3361   5.180   3.213   6.625
  821SOL    HW1 3362   5.244   3.201   6.702
  821SOL    HW2 3363   5.180   3.131   6.569
  822SOL     OW 3364   0.511   4.864   3.303
  822SOL    HW1 3365   0.475   4.796   3.367
  822SOL    HW2 3366   0.590   4.826   3.255
  823SOL     OW 3367   1.878   2.868   4.618
  823SOL    HW1 3368   1.823   2.951   4.613
  823SOL    HW2 3369   1.975   2.891   4.606
  824SOL     OW 3370   5.021   0.129   6.608
  824SOL    HW1 3371   5.025   0.222   6.645
  824SOL    HW2 3372   4.930   0.112   6.571
  825SOL     OW 3373   6.117   5.916   0.958
  825SOL    HW1 3374   6.044   5.937   0.893
  825SOL    HW2 3375   6.109   5.821   0.988
  826SOL     OW 3376   3.758   1.933   0.183
  826SOL    HW1 3377   3.772   1.836   0.203
  826SOL    HW2 3378   3.718   1.943   0.092
  827SOL     OW 3379   3.537   3.613   5.010
  827SOL    HW1 3380   3.557   3.568   4.923
  827SOL    HW2 3381   3.455   3.572   5.051
  828SOL     OW 3382   0.406   6.491   6.288
  828SOL    HW1 3383   0.426   6.479   6.386
  828SOL    HW2 3384   0.317   6.452   6.267
  829SOL     OW 3385   3.804   3.673   2.222
  829SOL    HW1 3386   3.901   3.658   2.243
  829SOL    HW2 3387   3.748   3.641   2.299
  830SOL     OW 3388   6.466   4.703   0.048
  830SOL    HW1 3389   6.438   4.642   6.998
  830SOL    HW2 3390   6.540   4.661   0.099
  831SOL     OW 3391   5.117   1.258   2.078
  831SOL    HW1 3392   5.142   1.243   2.173
  831SOL    HW2 3393   5.065   1.180   2.044
  832SOL     OW 3394   2.991   1.827   4.774
  832SOL    HW1 3395   3.006   1.780   4.861
  832SOL    HW2 3396   2.995   1.926   4.789
  833SOL     OW 3397   4.105   3.123   6.852
  833SOL    HW1 3398   4.018   3.073   6.847
  833SOL    HW2 3399   4.153   3.098   6.936
  834SOL     OW 3400   5.695   2.325   0.482
  834SOL    HW1 3401   5.641   2.324   0.566
  834SOL    HW2 3402   5.747   2.410   0.477
  835SOL     OW 3403   6.962   0.377   4.444
  835SOL    HW1 3404   6.928   0.286   4.467
  835SOL    HW2 3405   6.897   0.423   4.384
  836SOL     OW 3406   5.186   0.545   4.833
  836SOL    HW1 3407   5.252   0.574   4.764
  836SOL    HW2 3408   5.200   0.449   4.855
  837SOL     OW 3409   1.586   0.602   0.084
  837SOL    HW1 3410   1.686   0.610   0.092
  837SOL    HW2 3411   1.558   0.509   0.109
  838SOL     OW 3412   1.429   5.966   3.481
  838SOL    HW1 3413   1.454   5.947   3.576
  838SOL    HW2 3414   1.504   5.940   3.420
  839SOL     OW 3415   1.259   2.245   0.740
  839SOL    HW1 3416   1.293   2.166   0.689
  839SOL    HW2 3417   1.336   2.300   0.771
  840SOL     OW 3418   4.824   5.038   0.886
  840SOL    HW1 3419   4.782   4.949   0.867
  840SOL    HW2 3420   4.753   5.104   0.912
  841SOL     OW 3421   2.581   5.332   6.752
  841SOL    HW1 3422   2.512   5.334   6.679
  841SOL    HW2 3423   2.543   5.288   6.833
  842SOL     OW 3424   3.832   5.592   0.926
  842SOL    HW1 3425   3.831   5.525   1.000
  842SOL    HW2 3426   3.915   5.579   0.870
  843SOL     OW 3427   1.525   0.271   1.966
  843SOL    HW1 3428   1.444   0.304   1.918
  843SOL    HW2 3429   1.586   0.347   1.986
  844SOL     OW 3430   6.998   0.451   1.748
  844SOL    HW1 3431   6.988   0.511   1.827
  844SOL    HW2 3432   6.921   0.388   1.744
  845SOL     OW 3433   3.303   1.502   2.899
  845SOL    HW1 3434   3.297   1.479   2.802
  845SOL    HW2 3435   3.313   1.601   2.909
  846SOL     OW 3436   2.603   2.210   0.676
  846SOL    HW1 3437   2.511   2.241   0.700
  846SOL    HW2 3438   2.655   2.193   0.760
  847SOL     OW 3439   2.718   3.762   1.570
  847SOL    HW1 3440   2.624   3.751   1.539
  847SOL    HW2 3441   2.777   3.780   1.491
  848SOL     OW 3442   6.498   6.178   0.320
  848SOL    HW1 3443   6.586   6.218   0.294
  848SOL    HW2 3444   6.474   6.107   0.254
  849SOL     OW 3445   5.798   3.070   6.429
  849SOL    HW1 3446   5.846   3.023   6.356
  849SOL    HW2 3447   5.773   3.162   6.400
  850SOL     OW 3448   1.300   1.078   4.748
  850SOL    HW1 3449   1.248   1.163   4.738
  850SOL    HW2 3450   1.375   1.091   4.813
  851SOL     OW 3451   5.798   3.339   6.032
  851SOL    HW1 3452   5.735   3.287   6.090
  851SOL    HW2 3453   5.748   3.410   5.983
  852SOL     OW 3454   0.264   4.104   2.154
  852SOL    HW1 3455   0.198   4.029   2.144
  852SOL    HW2 3456   0.268   4.131   2.250
  853SOL     OW 3457   3.092   3.221   0.633
  853SOL    HW1 3458   3.110   3.192   0.539
  853SOL    HW2 3459   3.144   3.163   0.697
  854SOL     OW 3460   6.343   6.403   5.734
  854SOL    HW1 3461   6.374   6.325   5.680
  854SOL    HW2 3462   6.254   6.383   5.775
  855SOL     OW 3463   5.936   1.540   0.591
  855SOL    HW1 3464   5.879   1.534   0.674
  855SOL    HW2 3465   5.967   1.448   0.567
  856SOL     OW 3466   1.834   5.304   2.027
  856SOL    HW1 3467   1.791   5.392   2.047
  856SOL    HW2 3468   1.874   5.306   1.936
  857SOL     OW 3469   0.190   5.567   4.920
  857SOL    HW1 3470   0.117   5.512   4.880
  857SOL    HW2 3471   0.160   5.600   5.010
  858SOL     OW 3472   4.461   3.989   6.992
  858SOL    HW1 3473   4.476   4.059   0.038
  858SOL    HW2 3474   4.533   3.920   6.999
  859SOL     OW 3475   5.206   5.826   5.499
  859SOL    HW1 3476   5.252   5.904   5.457
  859SOL    HW2 3477   5.182   5.849   5.594
  860SOL     OW 3478   4.349   2.724   6.285
  860SOL    HW1 3479   4.376   2.658   6.355
  860SOL    HW2 3480   4.356   2.681   6.195
  861SOL     OW 3481   1.585   5.184   1.975
  861SOL    HW1 3482   1.517   5.214   2.042
  861SOL    HW2 3483   1.675   5.220   2.001
  862SOL     OW 3484   0.490   3.839   3.462
  862SOL    HW1 3485   0.462   3.755   3.508
  862SOL    HW2 3486   0.481   3.916   3.525
  863SOL     OW 3487   6.317   0.441   1.324
  863SOL    HW1 3488   6.409   0.403   1.330
  863SOL    HW2 3489   6.262   0.408   1.401
  864SOL     OW 3490   5.830   6.455   3.335
  864SOL    HW1 3491   5.794   6.511   3.261
  864SOL    HW2 3492   5.792   6.363   3.330
  865SOL     OW 3493   1.680   6.019   4.826
  865SOL    HW1 3494   1.703   5.962   4.905
  865SOL    HW2 3495   1.754   6.012   4.758
  866SOL     OW 3496   3.756   0.171   1.642
  866SOL    HW1 3497   3.736   0.076   1.619
  866SOL    HW2 3498   3.688   0.205   1.707
  867SOL     OW 3499   5.896   2.679   5.620
  867SOL    HW1 3500   5.903   2.771   5.659
  867SOL    HW2 3501   5.806   2.641   5.641
  868SOL     OW 3502   0.489   2.430   1.419
  868SOL    HW1 3503   0.553   2.472   1.484
  868SOL    HW2 3504   0.515   2.455   1.326
  869SOL     OW 3505   0.079   3.945   3.252
  869SOL    HW1 3506   0.101   3.854   3.288
  869SOL    HW2 3507   0.161   3.986   3.210
  870SOL     OW 3508   3.702   5.243   2.006
  870SOL    HW1 3509   3.626   5.305   1.989
  870SOL    HW2 3510   3.785   5.279   1.962
  871SOL     OW 3511   4.906   2.171   3.234
  871SOL    HW1 3512   4.984   2.167   3.297
  871SOL    HW2 3513   4.855   2.256   3.248
  872SOL     OW 3514   1.223   2.316   4.847
  872SOL    HW1 3515   1.175   2.377   4.784
  872SOL    HW2 3516   1.192   2.332   4.940
  873SOL     OW 3517   4.182   0.083   6.192
  873SOL    HW1 3518   4.277   0.097   6.166
  873SOL    HW2 3519   4.177   0.015   6.266
  874SOL     OW 3520   5.069   3.550   1.732
  874SOL    HW1 3521   4.990   3.491   1.716
  874SOL    HW2 3522   5.048   3.614   1.806
  875SOL     OW 3523   4.737   5.378   1.745
  875SOL    HW1 3524   4.714   5.319   1.667
  875SOL    HW2 3525   4.657   5.390   1.803
  876SOL     OW 3526   6.662   0.090   0.598
  876SOL    HW1 3527   6.566   0.081   0.627
  876SOL    HW2 3528   6.711   0.006   0.618
  877SOL     OW 3529   2.019   3.565   0.108
  877SOL    HW1 3530   2.110   3.532   0.084
  877SOL    HW2 3531   1.957   3.551   0.030
  878SOL     OW 3532   3.850   6.434   4.088
  878SOL    HW1 3533   3.771   6.494   4.083
  878SOL    HW2 3534   3.932   6.488   4.106
  879SOL     OW 3535   5.869   6.691   6.731
  879SOL    HW1 3536   5.945   6.752   6.756
  879SOL    HW2 3537   5.895   6.639   6.649
  880SOL     OW 3538   3.151   2.982   2.480
  880SOL    HW1 3539   3.204   2.975   2.396
  880SOL    HW2 3540   3.089   3.060   2.474
  881SOL     OW 3541   4.911   1.677   0.444
  881SOL    HW1 3542   4.949   1.728   0.367
  881SOL    HW2 3543   4.925   1.579   0.428
  882SOL     OW 3544   1.602   2.644   3.983
  882SOL    HW1 3545   1.696   2.627   4.013
  882SOL    HW2 3546   1.603   2.712   3.910
  883SOL     OW 3547   2.704   0.163   3.483
  883SOL    HW1 3548   2.756   0.134   3.403
  883SOL    HW2 3549   2.680   0.259   3.474
  884SOL     OW 3550   3.738   3.815   5.552
  884SOL    HW1 3551   3.718   3.795   5.456
  884SOL    HW2 3552   3.835   3.835   5.562
  885SOL     OW 3553   4.154   2.803   6.502
  885SOL    HW1 3554   4.211   2.774   6.425
  885SOL    HW2 3555   4.165   2.740   6.579
  886SOL     OW 3556   3.253   1.334   6.727
  886SOL    HW1 3557   3.322   1.272   6.764
  886SOL    HW2 3558   3.298   1.411   6.682
  887SOL     OW 3559   5.289   1.105   5.135
  887SOL    HW1 3560   5.235   1.188   5.144
  887SOL    HW2 3561   5.297   1.060   5.224
  888SOL     OW 3562   0.080   5.924   2.745
  888SOL    HW1 3563   0.069   5.845   2.806
  888SOL    HW2 3564   0.100   6.005   2.799
  889SOL     OW 3565   0.896   3.980   0.230
  889SOL    HW1 3566   0.978   3.932   0.200
  889SOL    HW2 3567   0.840   3.919   0.286
  890SOL     OW 3568   2.390   5.707   4.247
  890SOL    HW1 3569   2.420   5.792   4.204
  890SOL    HW2 3570   2.432   5.698   4.337
  891SOL     OW 3571   4.762   5.366   2.132
  891SOL    HW1 3572   4.769   5.423   2.214
  891SOL    HW2 3573   4.736   5.423   2.054
  892SOL     OW 3574   2.607   4.611   0.843
  892SOL    HW1 3575   2.677   4.540   0.847
  892SOL    HW2 3576   2.649   4.701   0.853
  893SOL     OW 3577   1.883   6.165   2.696
  893SOL    HW1 3578   1.811   6.099   2.675
  893SOL    HW2 3579   1.844   6.256   2.706
  894SOL     OW 3580   0.778   4.336   1.326
  894SOL    HW1 3581   0.813   4.247   1.355
  894SOL    HW2 3582   0.790   4.402   1.400
  895SOL     OW 3583   0.292   5.825   3.980
  895SOL    HW1 3584   0.297   5.727   3.959
  895SOL    HW2 3585   0.289   5.837   4.079
  896SOL     OW 3586   0.657   0.850   6.393
  896SOL    HW1 3587   0.650   0.945   6.361
  896SOL    HW2 3588   0.569   0.823   6.432
  897SOL     OW 3589   4.952   0.853   0.138
  897SOL    HW1 3590   4.938   0.759   0.170
  897SOL    HW2 3591   4.934   0.917   0.212
  898SOL     OW 3592   4.154   6.845   2.988
  898SOL    HW1 3593   4.129   6.751   3.012
  898SOL    HW2 3594   4.103   6.908   3.046
  899SOL     OW 3595   6.844   5.102   0.524
  899SOL    HW1 3596   6.850   5.005   0.497
  899SOL    HW2 3597   6.932   5.146   0.507
  900SOL     OW 3598   5.474   5.551   0.820
  900SOL    HW1 3599   5.395   5.586   0.870
  900SOL    HW2 3600   5.442   5.486   0.751
  901SOL     OW 3601   1.535   0.537   3.055
  901SOL    HW1 3602   1.476   0.600   3.105
  901SOL    HW2 3603   1.629   0.571   3.056
  902SOL     OW 3604   5.978   3.119   1.795
  902SOL    HW1 3605   6.038   3.133   1.716
  902SOL    HW2 3606   5.963   3.021   1.809
  903SOL     OW 3607   6.828   1.966   1.233
  903SOL    HW1 3608   6.811   2.033   1.161
  903SOL    HW2 3609   6.765   1.980   1.309
  904SOL     OW 3610   3.112   0.867   2.193
  904SOL    HW1 3611   3.100   0.884   2.095
  904SOL    HW2 3612   3.081   0.947   2.245
  905SOL     OW 3613   5.636   2.781   6.378
  905SOL    HW1 3614   5.627   2.771   6.477
  905SOL    HW2 3615   5.713   2.841   6.357
  906SOL     OW 3616   5.642   3.165   6.172
  906SOL    HW1 3617   5.615   3.080   6.217
  906SOL    HW2 3618   5.623   3.158   6.074
  907SOL     OW 3619   5.028   4.266   6.472
  907SOL    HW1 3620   5.033   4.185   6.414
  907SOL    HW2 3621   5.106   4.326   6.452
  908SOL     OW 3622   1.405   4.476   2.803
  908SOL    HW1 3623   1.321   4.453   2.852
  908SOL    HW2 3624   1.406   4.430   2.715
  909SOL     OW 3625   5.310   5.280   6.322
  909SOL    HW1 3626   5.403   5.244   6.319
  909SOL    HW2 3627   5.275   5.273   6.416
  910SOL     OW 3628   2.546   4.734   1.110
  910SOL    HW1 3629   2.565   4.662   1.043
  910SOL    HW2 3630   2.530   4.821   1.063
  911SOL     OW 3631   0.955   4.879   6.248
  911SOL    HW1 3632   1.013   4.858   6.170
  911SOL    HW2 3633   0.901   4.798   6.272
  912SOL     OW 3634   5.472   1.549   4.110
  912SOL    HW1 3635   5.409   1.565   4.186
  912SOL    HW2 3636   5.560   1.519   4.146
  913SOL     OW 3637   5.483   6.776   2.523
  913SOL    HW1 3638   5.573   6.813   2.546
  913SOL    HW2 3639   5.445   6.824   2.444
  914SOL     OW 3640   2.948   6.954   6.810
  914SOL    HW1 3641   2.859   6.910   6.811
  914SOL    HW2 3642   3.003   6.916   6.735
  915SOL     OW 3643   5.585   5.792   0.979
  915SOL    HW1 3644   5.666   5.767   1.032
  915SOL    HW2 3645   5.569   5.722   0.908
  916SOL     OW 3646   1.999   2.781   2.524
  916SOL    HW1 3647   2.054   2.863   2.507
  916SOL    HW2 3648   1.922   2.779   2.461
  917SOL     OW 3649   0.233   6.659   0.595
  917SOL    HW1 3650   0.285   6.578   0.568
  917SOL    HW2 3651   0.241   6.729   0.524
  918SOL     OW 3652   2.554   5.852   0.157
  918SOL    HW1 3653   2.646   5.829   0.125
  918SOL    HW2 3654   2.488   5.792   0.114
  919SOL     OW 3655   5.809   1.806   5.218
  919SOL    HW1 3656   5.800   1.902   5.191
  919SOL    HW2 3657   5.805   1.800   5.317
  920SOL     OW 3658   2.992   5.246   2.415
  920SOL    HW1 3659   2.973   5.149   2.397
  920SOL    HW2 3660   2.939   5.303   2.352
  921SOL     OW 3661   4.855   5.379   4.993
  921SOL    HW1 3662   4.854   5.369   5.092
  921SOL    HW2 3663   4.888   5.470   4.969
  922SOL     OW 3664   3.626   3.023   3.955
  922SOL    HW1 3665   3.713   3.060   3.985
  922SOL    HW2 3666   3.585   2.968   4.028
  923SOL     OW 3667   2.351   3.468   5.260
  923SOL    HW1 3668   2.317   3.562   5.254
  923SOL    HW2 3669   2.282   3.405   5.225
  924SOL     OW 3670   6.804   3.191   1.752
  924SOL    HW1 3671   6.718   3.231   1.723
  924SOL    HW2 3672   6.787   3.111   1.810
  925SOL     OW 3673   0.352   1.772   0.216
  925SOL    HW1 3674   0.422   1.781   0.287
  925SOL    HW2 3675   0.395   1.744   0.130
  926SOL     OW 3676   1.918   1.947   1.838
  926SOL    HW1 3677   1.951   1.919   1.748
  926SOL    HW2 3678   1.994   1.980   1.893
  927SOL     OW 3679   6.344   3.523   4.480
  927SOL    HW1 3680   6.265   3.583   4.490
  927SOL    HW2 3681   6.320   3.431   4.511
  928SOL     OW 3682   3.648   4.620   6.303
  928SOL    HW1 3683   3.723   4.662   6.355
  928SOL    HW2 3684   3.673   4.527   6.279
  929SOL     OW 3685   0.066   1.611   4.888
  929SOL    HW1 3686   0.086   1.536   4.951
  929SOL    HW2 3687   0.144   1.674   4.884
  930SOL     OW 3688   5.038   5.155   5.341
  930SOL    HW1 3689   5.039   5.255   5.344
  930SOL    HW2 3690   5.088   5.124   5.261
  931SOL     OW 3691   6.174   1.144   2.914
  931SOL    HW1 3692   6.078   1.145   2.938
  931SOL    HW2 3693   6.191   1.070   2.848
  932SOL     OW 3694   3.892   0.860   3.511
  932SOL    HW1 3695   3.984   0.855   3.549
  932SOL    HW2 3696   3.897   0.851   3.411
  933SOL     OW 3697   1.538   5.745   2.089
  933SOL    HW1 3698   1.535   5.688   2.171
  933SOL    HW2 3699   1.476   5.822   2.100
  934SOL     OW 3700   1.657   3.356   0.311
  934SOL    HW1 3701   1.733   3.361   0.375
  934SOL    HW2 3702   1.650   3.442   0.260
  935SOL     OW 3703   6.016   2.610   4.810
  935SOL    HW1 3704   6.017   2.589   4.712
  935SOL    HW2 3705   5.934   2.664   4.831
  936SOL     OW 3706   1.873   0.002   6.076
  936SOL    HW1 3707   1.773   7.019   6.078
  936SOL    HW2 3708   1.913   6.952   6.128
  937SOL     OW 3709   3.651   1.878   5.865
  937SOL    HW1 3710   3.590   1.841   5.794
  937SOL    HW2 3711   3.724   1.930   5.821
  938SOL     OW 3712   6.022   5.776   4.657
  938SOL    HW1 3713   6.068   5.842   4.599
  938SOL    HW2 3714   5.923   5.788   4.650
  939SOL     OW 3715   0.684   6.684   5.724
  939SOL    HW1 3716   0.633   6.768   5.741
  939SOL    HW2 3717   0.782   6.702   5.732
  940SOL     OW 3718   1.834   5.127   0.269
  940SOL    HW1 3719   1.904   5.123   0.341
  940SOL    HW2 3720   1.862   5.068   0.193
  941SOL     OW 3721   3.672   0.065   0.271
  941SOL    HW1 3722   3.586   0.036   0.314
  941SOL    HW2 3723   3.713   7.011   0.223
  942SOL     OW 3724   6.761   5.242   0.744
  942SOL    HW1 3725   6.736   5.337   0.761
  942SOL    HW2 3726   6.771   5.227   0.645
  943SOL     OW 3727   3.147   5.748   1.594
  943SOL    HW1 3728   3.162   5.827   1.534
  943SOL    HW2 3729   3.051   5.748   1.624
  944SOL     OW 3730   6.263   6.543   3.878
  944SOL    HW1 3731   6.208   6.473   3.832
  944SOL    HW2 3732   6.226   6.634   3.858
  945SOL     OW 3733   0.632   4.954   6.889
  945SOL    HW1 3734   0.558   4.988   6.830
  945SOL    HW2 3735   0.637   5.010   6.971
  946SOL     OW 3736   5.414   1.896   4.283
  946SOL    HW1 3737   5.507   1.893   4.318
  946SOL    HW2 3738   5.355   1.837   4.338
  947SOL     OW 3739   3.659   4.149   4.665
  947SOL    HW1 3740   3.570   4.140   4.621
  947SOL    HW2 3741   3.647   4.151   4.764
  948SOL     OW 3742   3.718   0.658   2.958
  948SOL    HW1 3743   3.699   0.585   2.893
  948SOL    HW2 3744   3.799   0.635   3.013
  949SOL     OW 3745   3.705   6.899   6.105
  949SOL    HW1 3746   3.625   6.839   6.113
  949SOL    HW2 3747   3.674   6.992   6.085
  950SOL     OW 3748   6.702   0.511   2.589
  950SOL    HW1 3749   6.668   0.518   2.682
  950SOL    HW2 3750   6.752   0.595   2.566
  951SOL     OW 3751   1.682   6.766   2.728
  951SOL    HW1 3752   1.777   6.796   2.734
  951SOL    HW2 3753   1.672   6.678   2.775
  952SOL     OW 3754   3.649   0.997   3.256
  952SOL    HW1 3755   3.728   1.018   3.197
  952SOL    HW2 3756   3.624   0.901   3.245
  953SOL     OW 3757   6.909   4.475   5.850
  953SOL    HW1 3758   6.944   4.476   5.944
  953SOL    HW2 3759   6.965   4.535   5.793
  954SOL     OW 3760   4.893   6.311   2.490
  954SOL    HW1 3761   4.836   6.354   2.419
  954SOL    HW2 3762   4.838   6.246   2.542
  955SOL     OW 3763   2.011   5.358   0.751
  955SOL    HW1 3764   1.930   5.314   0.790
  955SOL    HW2 3765   2.093   5.330   0.801
  956SOL     OW 3766   4.811   0.412   0.976
  956SOL    HW1 3767   4.728   0.369   1.011
  956SOL    HW2 3768   4.868   0.343   0.932
  957SOL     OW 3769   6.161   0.810   2.943
  957SOL    HW1 3770   6.094   0.735   2.944
  957SOL    HW2 3771   6.126   0.886   2.998
  958SOL     OW 3772   5.212   6.704   1.514
  958SOL    HW1 3773   5.135   6.761   1.486
  958SOL    HW2 3774   5.222   6.628   1.449
  959SOL     OW 3775   5.073   6.242   3.386
  959SOL    HW1 3776   5.033   6.170   3.330
  959SOL    HW2 3777   5.160   6.272   3.347
  960SOL     OW 3778   1.591   6.350   6.286
  960SOL    HW1 3779   1.494   6.359   6.305
  960SOL    HW2 3780   1.640   6.332   6.372
  961SOL     OW 3781   3.613   0.432   3.318
  961SOL    HW1 3782   3.709   0.452   3.340
  961SOL    HW2 3783   3.563   0.412   3.402
  962SOL     OW 3784   0.155   0.902   4.792
  962SOL    HW1 3785   0.066   0.933   4.824
  962SOL    HW2 3786   0.188   0.829   4.852
  963SOL     OW 3787   5.440   2.624   0.844
  963SOL    HW1 3788   5.480   2.562   0.912
  963SOL    HW2 3789   5.419   2.572   0.761
  964SOL     OW 3790   4.032   5.747   4.970
  964SOL    HW1 3791   3.954   5.772   5.027
  964SOL    HW2 3792   4.000   5.712   4.882
  965SOL     OW 3793   6.033   2.055   3.373
  965SOL    HW1 3794   5.965   1.981   3.367
  965SOL    HW2 3795   5.989   2.142   3.349
  966SOL     OW 3796   4.900   0.689   4.235
  966SOL    HW1 3797   4.993   0.718   4.259
  966SOL    HW2 3798   4.897   0.662   4.139
  967SOL     OW 3799   4.400   4.483   6.538
  967SOL    HW1 3800   4.386   4.440   6.449
  967SOL    HW2 3801   4.426   4.413   6.605
  968SOL     OW 3802   3.863   0.316   1.406
  968SOL    HW1 3803   3.796   0.389   1.419
  968SOL    HW2 3804   3.910   0.300   1.493
  969SOL     OW 3805   3.044   4.241   6.423
  969SOL    HW1 3806   3.011   4.302   6.350
  969SOL    HW2 3807   3.034   4.146   6.393
  970SOL     OW 3808   4.790   6.838   6.100
  970SOL    HW1 3809   4.873   6.873   6.144
  970SOL    HW2 3810   4.815   6.782   6.021
  971SOL     OW 3811   5.606   3.540   3.651
  971SOL    HW1 3812   5.688   3.596   3.663
  971SOL    HW2 3813   5.558   3.568   3.569
  972SOL     OW 3814   0.084   2.769   0.554
  972SOL    HW1 3815   0.128   2.763   0.464
  972SOL    HW2 3816   0.031   2.854   0.559
  973SOL     OW 3817   0.315   3.358   5.641
  973SOL    HW1 3818   0.287   3.420   5.568
  973SOL    HW2 3819   0.385   3.295   5.607
  974SOL     OW 3820   0.279   4.621   2.576
  974SOL    HW1 3821   0.291   4.697   2.512
  974SOL    HW2 3822   0.201   4.640   2.636
  975SOL     OW 3823   3.019   0.237   2.658
  975SOL    HW1 3824   3.087   0.281   2.717
  975SOL    HW2 3825   3.016   0.284   2.570
  976SOL     OW 3826   0.063   3.139   3.441
  976SOL    HW1 3827   0.091   3.084   3.520
  976SOL    HW2 3828   6.994   3.171   3.454
  977SOL     OW 3829   6.154   1.208   2.025
  977SOL    HW1 3830   6.124   1.303   2.022
  977SOL    HW2 3831   6.178   1.184   2.120
  978SOL     OW 3832   5.124   2.886   1.415
  978SOL    HW1 3833   5.136   2.926   1.324
  978SOL    HW2 3834   5.162   2.794   1.416
  979SOL     OW 3835   0.326   4.263   6.780
  979SOL    HW1 3836   0.267   4.302   6.709
  979SOL    HW2 3837   0.410   4.230   6.739
  980SOL     OW 3838   3.799   1.031   5.096
  980SOL    HW1 3839   3.820   1.113   5.150
  980SOL    HW2 3840   3.727   1.054   5.029
  981SOL     OW 3841   0.439   6.541   5.619
  981SOL    HW1 3842   0.521   6.595   5.637
  981SOL    HW2 3843   0.454   6.483   5.539
  982SOL     OW 3844   6.536   1.079   6.365
  982SOL    HW1 3845   6.601   1.009   6.396
  982SOL    HW2 3846   6.571   1.123   6.283
  983SOL     OW 3847   0.661   4.125   3.183
  983SOL    HW1 3848   0.573   4.115   3.230
  983SOL    HW2 3849   0.733   4.083   3.238
  984SOL     OW 3850   0.724   3.346   3.377
  984SOL    HW1 3851   0.744   3.439   3.407
  984SOL    HW2 3852   0.650   3.348   3.309
  985SOL     OW 3853   6.489   5.601   5.069
  985SOL    HW1 3854   6.498   5.509   5.107
  985SOL    HW2 3855   6.413   5.648   5.113
  986SOL     OW 3856   4.474   5.187   1.300
  986SOL    HW1 3857   4.427   5.193   1.389
  986SOL    HW2 3858   4.526   5.102   1.295
  987SOL     OW 3859   4.695   4.309   4.802
  987SOL    HW1 3860   4.688   4.348   4.894
  987SOL    HW2 3861   4.773   4.247   4.797
  988SOL     OW 3862   2.506   4.593   1.934
  988SOL    HW1 3863   2.449   4.513   1.949
  988SOL    HW2 3864   2.588   4.567   1.883
  989SOL     OW 3865   0.918   2.415   1.176
  989SOL    HW1 3866   0.943   2.388   1.269
  989SOL    HW2 3867   0.843   2.357   1.144
  990SOL     OW 3868   3.800   6.758   4.374
  990SOL    HW1 3869   3.706   6.730   4.354
  990SOL    HW2 3870   3.844   6.689   4.430
  991SOL     OW 3871   0.770   5.331   3.803
  991SOL    HW1 3872   0.863   5.364   3.817
  991SOL    HW2 3873   0.707   5.409   3.802
  992SOL     OW 3874   7.010   2.474   0.123
  992SOL    HW1 3875   0.003   2.478   0.025
  992SOL    HW2 3876   7.022   2.380   0.156
  993SOL     OW 3877   0.833   5.196   0.542
  993SOL    HW1 3878   0.834   5.103   0.507
  993SOL    HW2 3879   0.816   5.194   0.641
  994SOL     OW 3880   3.265   6.879   0.310
  994SOL    HW1 3881   3.219   6.819   0.375
  994SOL    HW2 3882   3.336   6.931   0.358
  995SOL     OW 3883   6.359   3.790   5.964
  995SOL    HW1 3884   6.427   3.717   5.962
  995SOL    HW2 3885   6.374   3.852   5.888
  996SOL     OW 3886   4.445   6.144   4.458
  996SOL    HW1 3887   4.441   6.237   4.423
  996SOL    HW2 3888   4.366   6.093   4.426
  997SOL     OW 3889   1.078   6.616   3.331
  997SOL    HW1 3890   1.145   6.682   3.363
  997SOL    HW2 3891   1.008   6.602   3.401
  998SOL     OW 3892   4.502   0.160   6.152
  998SOL    HW1 3893   4.477   0.252   6.125
  998SOL    HW2 3894   4.510   0.154   6.251
  999SOL     OW 3895   5.064   3.160   2.780
  999SOL    HW1 3896   5.070   3.202   2.870
  999SOL    HW2 3897   5.079   3.062   2.787
 1000SOL     OW 3898   5.350   2.072   1.602
 1000SOL    HW1 3899   5.258   2.083   1.639
 1000SOL    HW2 3900   5.401   2.007   1.659
 1001SOL     OW 3901   3.058   6.679   2.386
 1001SOL    HW1 3902   3.079   6.590   2.346
 1001SOL    HW2 3903   3.025   6.741   2.315
 1002SOL     OW 3904   4.398   2.471   1.198
 1002SOL    HW1 3905   4.382   2.407   1.274
 1002SOL    HW2 3906   4.416   2.562   1.235
 1003SOL     OW 3907   0.791   0.429   3.218
 1003SOL    HW1 3908   0.829   0.337   3.224
 1003SOL    HW2 3909   0.757   0.445   3.125
 1004SOL     OW 3910   5.179   1.286   4.409
 1004SOL    HW1 3911   5.114   1.250   4.342
 1004SOL    HW2 3912   5.265   1.236   4.404
 1005SOL     OW 3913   1.336   4.854   2.345
 1005SOL    HW1 3914   1.391   4.929   2.380
 1005SOL    HW2 3915   1.265   4.889   2.284
 1006SOL     OW 3916   2.137   3.791   1.718
 1006SOL    HW1 3917   2.066   3.720   1.719
 1006SOL    HW2 3918   2.170   3.806   1.812
 1007SOL     OW 3919   4.749   1.021   6.207
 1007SOL    HW1 3920   4.844   1.049   6.219
 1007SOL    HW2 3921   4.709   0.999   6.296
 1008SOL     OW 3922   0.713   4.872   5.178
 1008SOL    HW1 3923   0.638   4.827   5.130
 1008SOL    HW2 3924   0.675   4.937   5.245
 1009SOL     OW 3925   6.540   5.912   6.360
 1009SOL    HW1 3926   6.595   5.831   6.340
 1009SOL    HW2 3927   6.453   5.905   6.313
 1010SOL     OW 3928   3.189   3.830   0.482
 1010SOL    HW1 3929   3.260   3.900   0.483
 1010SOL    HW2 3930   3.213   3.760   0.415
 1011SOL     OW 3931   6.389   5.539   2.887
 1011SOL    HW1 3932   6.385   5.522   2.985
 1011SOL    HW2 3933   6.474   5.502   2.850
 1012SOL     OW 3934   5.515   6.538   2.660
 1012SOL    HW1 3935   5.480   6.538   2.753
 1012SOL    HW2 3936   5.487   6.622   2.613
 1013SOL     OW 3937   6.901   0.050   6.552
 1013SOL    HW1 3938   6.932   0.057   6.458
 1013SOL    HW2 3939   6.815   0.100   6.563
 1014SOL     OW 3940   1.046   4.585   5.163
 1014SOL    HW1 3941   0.980   4.538   5.221
 1014SOL    HW2 3942   1.035   4.553   5.069
 1015SOL     OW 3943   2.143   6.410   0.434
 1015SOL    HW1 3944   2.154   6.312   0.443
 1015SOL    HW2 3945   2.085   6.430   0.355
 1016SOL     OW 3946   6.649   3.871   1.047
 1016SOL    HW1 3947   6.707   3.818   1.109
 1016SOL    HW2 3948   6.563   3.892   1.093
 1017SOL     OW 3949   2.164   1.316   2.186
 1017SOL    HW1 3950   2.249   1.368   2.197
 1017SOL    HW2 3951   2.103   1.363   2.123
 1018SOL     OW 3952   6.243   6.675   4.187
 1018SOL    HW1 3953   6.223   6.605   4.119
 1018SOL    HW2 3954   6.207   6.763   4.155
 1019SOL     OW 3955   6.791   4.133   0.959
 1019SOL    HW1 3956   6.858   4.113   0.887
 1019SOL    HW2 3957   6.725   4.058   0.966
 1020SOL     OW 3958   5.061   1.188   0.816
 1020SOL    HW1 3959   5.057   1.219   0.911
 1020SOL    HW2 3960   5.141   1.227   0.771
 1021SOL     OW 3961   0.900   6.758   0.870
 1021SOL    HW1 3962   0.962   6.836   0.871
 1021SOL    HW2 3963   0.805   6.791   0.864
 1022SOL     OW 3964   2.297   5.576   6.592
 1022SOL    HW1 3965   2.383   5.532   6.566
 1022SOL    HW2 3966   2.303   5.675   6.577
 1023SOL     OW 3967   0.654   1.236   2.679
 1023SOL    HW1 3968   0.684   1.156   2.627
 1023SOL    HW2 3969   0.598   1.295   2.620
 1024SOL     OW 3970   1.678   1.860   4.061
 1024SOL    HW1 3971   1.642   1.933   4.118
 1024SOL    HW2 3972   1.704   1.897   3.972
 1025SOL     OW 3973   5.068   4.367   0.109
 1025SOL    HW1 3974   5.130   4.318   0.171
 1025SOL    HW2 3975   5.040   4.453   0.151
 1026SOL     OW 3976   3.109   2.918   1.862
 1026SOL    HW1 3977   3.137   2.963   1.777
 1026SOL    HW2 3978   3.180   2.929   1.931
 1027SOL     OW 3979   0.242   6.608   7.002
 1027SOL    HW1 3980   0.315   6.674   6.984
 1027SOL    HW2 3981   0.270   6.518   6.970
 1028SOL     OW 3982   1.177   6.138   2.652
 1028SOL    HW1 3983   1.223   6.225   2.669
 1028SOL    HW2 3984   1.243   6.063   2.664
 1029SOL     OW 3985   1.192   1.046   5.476
 1029SOL    HW1 3986   1.122   0.981   5.447
 1029SOL    HW2 3987   1.240   1.082   5.395
 1030SOL     OW 3988   3.713   3.513   0.971
 1030SOL    HW1 3989   3.771   3.529   0.891
 1030SOL    HW2 3990   3.617   3.514   0.943
 1031SOL     OW 3991   3.722   3.168   1.012
 1031SOL    HW1 3992   3.623   3.169   0.996
 1031SOL    HW2 3993   3.749   3.255   1.053
 1032SOL     OW 3994   2.063   1.527   0.599
 1032SOL    HW1 3995   2.109   1.575   0.524
 1032SOL    HW2 3996   2.121   1.452   0.631
 1033SOL     OW 3997   0.097   0.342   2.525
 1033SOL    HW1 3998   0.105   0.412   2.453
 1033SOL    HW2 3999   0.184   0.293   2.533
 1034SOL     OW 4000   3.336   0.704   4.814
 1034SOL    HW1 4001   3.377   0.655   4.891
 1034SOL    HW2 4002   3.367   0.799   4.815
 1035SOL     OW 4003   1.846   1.057   0.143
 1035SOL    HW1 4004   1.778   1.015   0.203
 1035SOL    HW2 4005   1.879   0.989   0.077
 1036SOL     OW 4006   4.763   1.052   1.151
 1036SOL    HW1 4007   4.806   1.130   1.197
 1036SOL    HW2 4008   4.698   1.084   1.083
 1037SOL     OW 4009   1.638   3.494   2.074
 1037SOL    HW1 4010   1.644   3.398   2.104
 1037SOL    HW2 4011   1.642   3.498   1.975
 1038SOL     OW 4012   2.238   6.167   0.171
 1038SOL    HW1 4013   2.321   6.153   0.118
 1038SOL    HW2 4014   2.221   6.265   0.181
 1039SOL     OW 4015   3.742   3.484   3.045
 1039SOL    HW1 4016   3.803   3.558   3.072
 1039SOL    HW2 4017   3.702   3.442   3.126
 1040SOL     OW 4018   3.618   1.928   3.540
 1040SOL    HW1 4019   3.577   1.924   3.448
 1040SOL    HW2 4020   3.701   1.983   3.537
 1041SOL     OW 4021   6.165   5.898   6.885
 1041SOL    HW1 4022   6.239   5.838   6.855
 1041SOL    HW2 4023   6.138   5.957   6.809
 1042SOL     OW 4024   5.384   4.626   3.203
 1042SOL    HW1 4025   5.389   4.715   3.248
 1042SOL    HW2 4026   5.473   4.601   3.167
 1043SOL     OW 4027   2.644   1.829   3.618
 1043SOL    HW1 4028   2.690   1.876   3.694
 1043SOL    HW2 4029   2.697   1.749   3.591
 1044SOL     OW 4030   6.213   4.992   1.457
 1044SOL    HW1 4031   6.249   4.996   1.364
 1044SOL    HW2 4032   6.268   4.929   1.512
 1045SOL     OW 4033   2.044   0.851   1.957
 1045SOL    HW1 4034   2.038   0.790   2.036
 1045SOL    HW2 4035   2.092   0.805   1.882
 1046SOL     OW 4036   2.973   2.016   1.191
 1046SOL    HW1 4037   3.047   2.028   1.258
 1046SOL    HW2 4038   2.934   2.106   1.168
 1047SOL     OW 4039   3.512   0.032   3.378
 1047SOL    HW1 4040   3.539   0.088   3.300
 1047SOL    HW2 4041   3.412   0.034   3.387
 1048SOL     OW 4042   1.185   6.640   2.321
 1048SOL    HW1 4043   1.235   6.559   2.291
 1048SOL    HW2 4044   1.246   6.719   2.319
 1049SOL     OW 4045   3.960   6.617   5.471
 1049SOL    HW1 4046   3.904   6.552   5.421
 1049SOL    HW2 4047   3.920   6.633   5.562
 1050SOL     OW 4048   2.846   6.795   4.015
 1050SOL    HW1 4049   2.782   6.827   3.944
 1050SOL    HW2 4050   2.824   6.840   4.102
 1051SOL     OW 4051   1.626   1.143   5.343
 1051SOL    HW1 4052   1.651   1.240   5.343
 1051SOL    HW2 4053   1.703   1.089   5.377
 1052SOL     OW 4054   3.638   1.122   0.358
 1052SOL    HW1 4055   3.638   1.194   0.288
 1052SOL    HW2 4056   3.570   1.052   0.334
 1053SOL     OW 4057   5.099   1.764   4.444
 1053SOL    HW1 4058   5.050   1.679   4.427
 1053SOL    HW2 4059   5.078   1.830   4.372
 1054SOL     OW 4060   4.044   5.089   6.411
 1054SOL    HW1 4061   4.132   5.099   6.456
 1054SOL    HW2 4062   4.016   5.178   6.374
 1055SOL     OW 4063   4.493   5.991   6.769
 1055SOL    HW1 4064   4.429   5.915   6.783
 1055SOL    HW2 4065   4.441   6.076   6.761
 1056SOL     OW 4066   3.368   3.679   0.030
 1056SOL    HW1 4067   3.323   3.737   0.098
 1056SOL    HW2 4068   3.303   3.610   7.022
 1057SOL     OW 4069   2.974   2.760   0.074
 1057SOL    HW1 4070   3.048   2.707   0.115
 1057SOL    HW2 4071   2.952   2.838   0.133
 1058SOL     OW 4072   2.964   2.053   2.370
 1058SOL    HW1 4073   2.873   2.083   2.397
 1058SOL    HW2 4074   2.960   2.009   2.280
 1059SOL     OW 4075   2.083   6.146   2.079
 1059SOL    HW1 4076   2.056   6.118   2.171
 1059SOL    HW2 4077   2.116   6.240   2.081
 1060SOL     OW 4078   6.321   0.755   5.535
 1060SOL    HW1 4079   6.289   0.787   5.624
 1060SOL    HW2 4080   6.243   0.744   5.474
 1061SOL     OW 4081   0.221   3.502   6.127
 1061SOL    HW1 4082   0.208   3.600   6.145
 1061SOL    HW2 4083   0.144   3.451   6.164
 1062SOL     OW 4084   3.509   5.823   4.733
 1062SOL    HW1 4085   3.540   5.825   4.638
 1062SOL    HW2 4086   3.587   5.805   4.793
 1063SOL     OW 4087   3.566   6.676   4.522
 1063SOL    HW1 4088   3.572   6.584   4.484
 1063SOL    HW2 4089   3.620   6.681   4.606
 1064SOL     OW 4090   1.420   3.170   0.225
 1064SOL    HW1 4091   1.496   3.165   0.290
 1064SOL    HW2 4092   1.341   3.121   0.261
 1065SOL     OW 4093   6.117   0.969   4.851
 1065SOL    HW1 4094   6.216   0.979   4.848
 1065SOL    HW2 4095   6.074   1.055   4.822
 1066SOL     OW 4096   5.253   6.813   0.506
 1066SOL    HW1 4097   5.351   6.808   0.486
 1066SOL    HW2 4098   5.235   6.773   0.596
 1067SOL     OW 4099   2.641   1.547   0.327
 1067SOL    HW1 4100   2.691   1.605   0.263
 1067SOL    HW2 4101   2.623   1.598   0.411
 1068SOL     OW 4102   6.488   3.112   1.385
 1068SOL    HW1 4103   6.399   3.073   1.361
 1068SOL    HW2 4104   6.557   3.039   1.386
 1069SOL     OW 4105   6.005   3.273   2.364
 1069SOL    HW1 4106   6.052   3.342   2.419
 1069SOL    HW2 4107   5.915   3.255   2.404
 1070SOL     OW 4108   0.932   0.273   2.301
 1070SOL    HW1 4109   0.903   0.364   2.332
 1070SOL    HW2 4110   0.855   0.210   2.307
 1071SOL     OW 4111   0.668   3.047   6.044
 1071SOL    HW1 4112   0.657   3.145   6.060
 1071SOL    HW2 4113   0.762   3.020   6.066
 1072SOL     OW 4114   1.441   1.499   2.305
 1072SOL    HW1 4115   1.435   1.553   2.389
 1072SOL    HW2 4116   1.493   1.550   2.236
 1073SOL     OW 4117   5.254   2.705   2.762
 1073SOL    HW1 4118   5.269   2.659   2.675
 1073SOL    HW2 4119   5.317   2.669   2.831
 1074SOL     OW 4120   3.099   5.127   1.591
 1074SOL    HW1 4121   3.160   5.200   1.621
 1074SOL    HW2 4122   3.023   5.166   1.539
 1075SOL     OW 4123   6.351   4.259   6.140
 1075SOL    HW1 4124   6.433   4.298   6.098
 1075SOL    HW2 4125   6.291   4.225   6.068
 1076SOL     OW 4126   1.584   4.795   5.301
 1076SOL    HW1 4127   1.658   4.748   5.349
 1076SOL    HW2 4128   1.581   4.890   5.330
 1077SOL     OW 4129   6.920   6.510   0.515
 1077SOL    HW1 4130   6.983   6.539   0.587
 1077SOL    HW2 4131   6.826   6.511   0.550
 1078SOL     OW 4132   6.184   6.697   4.704
 1078SOL    HW1 4133   6.269   6.669   4.659
 1078SOL    HW2 4134   6.203   6.765   4.774
 1079SOL     OW 4135   0.754   6.780   2.055
 1079SOL    HW1 4136   0.761   6.778   1.955
 1079SOL    HW2 4137   0.829   6.726   2.094
 1080SOL     OW 4138   3.734   6.439   0.015
 1080SOL    HW1 4139   3.744   6.359   0.074
 1080SOL    HW2 4140   3.819   6.453   6.989
 1081SOL     OW 4141   6.445   6.350   3.912
 1081SOL    HW1 4142   6.439   6.310   4.004
 1081SOL    HW2 4143   6.392   6.435   3.909
 1082SOL     OW 4144   3.955   6.752   0.257
 1082SOL    HW1 4145   3.870   6.769   0.207
 1082SOL    HW2 4146   3.960   6.655   0.281
 1083SOL     OW 4147   5.585   4.441   2.324
 1083SOL    HW1 4148   5.666   4.409   2.373
 1083SOL    HW2 4149   5.532   4.363   2.293
 1084SOL     OW 4150   6.034   0.727   5.535
 1084SOL    HW1 4151   6.016   0.825   5.520
 1084SOL    HW2 4152   6.023   0.678   5.449
 1085SOL     OW 4153   2.020   3.958   4.588
 1085SOL    HW1 4154   1.960   4.030   4.621
 1085SOL    HW2 4155   2.080   3.927   4.663
 1086SOL     OW 4156   5.810   5.652   0.428
 1086SOL    HW1 4157   5.783   5.608   0.513
 1086SOL    HW2 4158   5.777   5.747   0.428
 1087SOL     OW 4159   4.143   0.101   5.562
 1087SOL    HW1 4160   4.232   0.066   5.534
 1087SOL    HW2 4161   4.125   0.188   5.516
 1088SOL     OW 4162   6.670   5.374   3.960
 1088SOL    HW1 4163   6.751   5.416   3.920
 1088SOL    HW2 4164   6.643   5.295   3.905
 1089SOL     OW 4165   5.996   4.871   4.070
 1089SOL    HW1 4166   6.077   4.878   4.012
 1089SOL    HW2 4167   6.012   4.923   4.154
 1090SOL     OW 4168   5.458   2.276   5.243
 1090SOL    HW1 4169   5.416   2.259   5.331
 1090SOL    HW2 4170   5.514   2.359   5.247
 1091SOL     OW 4171   1.972   2.639   3.264
 1091SOL    HW1 4172   2.025   2.720   3.290
 1091SOL    HW2 4173   1.959   2.581   3.345
 1092SOL     OW 4174   0.055   6.040   0.472
 1092SOL    HW1 4175   0.051   5.972   0.546
 1092SOL    HW2 4176   0.108   6.119   0.502
 1093SOL     OW 4177   1.544   0.276   2.934
 1093SOL    HW1 4178   1.623   0.250   2.990
 1093SOL    HW2 4179   1.505   0.361   2.969
 1094SOL     OW 4180   0.085   0.326   3.178
 1094SOL    HW1 4181   0.015   0.302   3.245
 1094SOL    HW2 4182   0.041   0.356   3.093
 1095SOL     OW 4183   5.279   2.978   0.524
 1095SOL    HW1 4184   5.350   2.998   0.591
 1095SOL    HW2 4185   5.227   2.898   0.554
 1096SOL     OW 4186   2.039   5.588   1.702
 1096SOL    HW1 4187   2.037   5.591   1.602
 1096SOL    HW2 4188   2.099   5.660   1.737
 1097SOL     OW 4189   2.425   5.927   4.484
 1097SOL    HW1 4190   2.517   5.886   4.478
 1097SOL    HW2 4191   2.414   5.994   4.411
 1098SOL     OW 4192   6.347   4.040   0.547
 1098SOL    HW1 4193   6.329   3.959   0.604
 1098SOL    HW2 4194   6.330   4.123   0.601
 1099SOL     OW 4195   4.808   0.624   6.389
 1099SOL    HW1 4196   4.740   0.617   6.462
 1099SOL    HW2 4197   4.877   0.552   6.400
 1100SOL     OW 4198   4.097   1.779   4.328
 1100SOL    HW1 4199   4.143   1.854   4.375
 1100SOL    HW2 4200   4.156   1.744   4.256
 1101SOL     OW 4201   4.990   3.096   6.258
 1101SOL    HW1 4202   5.022   3.028   6.324
 1101SOL    HW2 4203   4.908   3.141   6.293
 1102SOL     OW 4204   2.873   0.694   3.472
 1102SOL    HW1 4205   2.785   0.742   3.473
 1102SOL    HW2 4206   2.861   0.604   3.429
 1103SOL     OW 4207   3.374   6.195   0.684
 1103SOL    HW1 4208   3.404   6.208   0.590
 1103SOL    HW2 4209   3.282   6.234   0.696
 1104SOL     OW 4210   0.521   2.825   3.737
 1104SOL    HW1 4211   0.423   2.831   3.722
 1104SOL    HW2 4212   0.556   2.739   3.700
 1105SOL     OW 4213   5.237   1.818   6.003
 1105SOL    HW1 4214   5.225   1.751   5.930
 1105SOL    HW2 4215   5.215   1.909   5.968
 1106SOL     OW 4216   6.728   1.461   1.012
 1106SOL    HW1 4217   6.806   1.427   1.067
 1106SOL    HW2 4218   6.647   1.406   1.033
 1107SOL     OW 4219   0.837   1.187   6.562
 1107SOL    HW1 4220   0.782   1.233   6.492
 1107SOL    HW2 4221   0.838   1.243   6.645
 1108SOL     OW 4222   2.283   0.551   4.266
 1108SOL    HW1 4223   2.327   0.505   4.189
 1108SOL    HW2 4224   2.349   0.611   4.311
 1109SOL     OW 4225   4.685   2.304   4.763
 1109SOL    HW1 4226   4.703   2.333   4.857
 1109SOL    HW2 4227   4.603   2.349   4.728
 1110SOL     OW 4228   2.099   0.641   2.205
 1110SOL    HW1 4229   2.185   0.664   2.250
 1110SOL    HW2 4230   2.025   0.643   2.272
 1111SOL     OW 4231   5.824   4.103   6.119
 1111SOL    HW1 4232   5.869   4.156   6.190
 1111SOL    HW2 4233   5.886   4.093   6.041
 1112SOL     OW 4234   5.531   0.681   2.300
 1112SOL    HW1 4235   5.526   0.777   2.327
 1112SOL    HW2 4236   5.462   0.663   2.229
 1113SOL     OW 4237   5.768   3.771   2.168
 1113SOL    HW1 4238   5.821   3.855   2.171
 1113SOL    HW2 4239   5.701   3.771   2.242
 1114SOL     OW 4240   3.472   3.857   4.776
 1114SOL    HW1 4241   3.449   3.761   4.759
 1114SOL    HW2 4242   3.403   3.897   4.837
 1115SOL     OW 4243   2.816   4.799   5.424
 1115SOL    HW1 4244   2.764   4.812   5.340
 1115SOL    HW2 4245   2.896   4.743   5.405
 1116SOL     OW 4246   4.490   0.203   0.096
 1116SOL    HW1 4247   4.458   0.293   0.065
 1116SOL    HW2 4248   4.431   0.132   0.058
 1117SOL     OW 4249   2.560   2.768   1.671
 1117SOL    HW1 4250   2.505   2.840   1.713
 1117SOL    HW2 4251   2.656   2.797   1.667
 1118SOL     OW 4252   4.268   6.130   0.252
 1118SOL    HW1 4253   4.229   6.095   0.167
 1118SOL    HW2 4254   4.195   6.163   0.312
 1119SOL     OW 4255   3.642   5.059   3.939
 1119SOL    HW1 4256   3.642   5.018   4.030
 1119SOL    HW2 4257   3.593   4.999   3.876
 1120SOL     OW 4258   6.626   3.330   1.238
 1120SOL    HW1 4259   6.564   3.269   1.287
 1120SOL    HW2 4260   6.704   3.353   1.297
 1121SOL     OW 4261   6.462   4.562   4.958
 1121SOL    HW1 4262   6.477   4.657   4.983
 1121SOL    HW2 4263   6.545   4.509   4.977
 1122SOL     OW 4264   5.529   2.292   1.569
 1122SOL    HW1 4265   5.602   2.317   1.634
 1122SOL    HW2 4266   5.490   2.204   1.594
 1123SOL     OW 4267   4.225   1.432   3.736
 1123SOL    HW1 4268   4.269   1.448   3.825
 1123SOL    HW2 4269   4.127   1.452   3.744
 1124SOL     OW 4270   2.258   2.428   4.220
 1124SOL    HW1 4271   2.225   2.472   4.304
 1124SOL    HW2 4272   2.341   2.376   4.241
 1125SOL     OW 4273   1.810   3.248   3.773
 1125SOL    HW1 4274   1.900   3.209   3.795
 1125SOL    HW2 4275   1.821   3.324   3.709
 1126SOL     OW 4276   4.405   5.012   4.778
 1126SOL    HW1 4277   4.436   4.973   4.691
 1126SOL    HW2 4278   4.391   5.110   4.767
 1127SOL     OW 4279   6.610   6.849   2.179
 1127SOL    HW1 4280   6.614   6.932   2.122
 1127SOL    HW2 4281   6.535   6.791   2.147
 1128SOL     OW 4282   5.358   0.934   4.636
 1128SOL    HW1 4283   5.363   0.942   4.736
 1128SOL    HW2 4284   5.433   0.985   4.595
 1129SOL     OW 4285   1.143   0.870   0.791
 1129SOL    HW1 4286   1.178   0.963   0.781
 1129SOL    HW2 4287   1.094   0.861   0.877
 1130SOL     OW 4288   2.234   4.667   2.051
 1130SOL    HW1 4289   2.324   4.630   2.074
 1130SOL    HW2 4290   2.164   4.596   2.064
 1131SOL     OW 4291   1.561   5.532   3.893
 1131SOL    HW1 4292   1.468   5.556   3.864
 1131SOL    HW2 4293   1.556   5.479   3.978
 1132SOL     OW 4294   2.007   1.667   2.605
 1132SOL    HW1 4295   1.969   1.582   2.644
 1132SOL    HW2 4296   2.053   1.646   2.519
 1133SOL     OW 4297   0.688   7.007   6.106
 1133SOL    HW1 4298   0.600   0.008   6.144
 1133SOL    HW2 4299   0.761   0.007   6.171
 1134SOL     OW 4300   3.585   5.952   1.718
 1134SOL    HW1 4301   3.636   5.916   1.796
 1134SOL    HW2 4302   3.627   6.039   1.689
 1135SOL     OW 4303   1.696   6.134   3.425
 1135SOL    HW1 4304   1.779   6.189   3.434
 1135SOL    HW2 4305   1.720   6.043   3.391
 1136SOL     OW 4306   1.541   5.391   2.381
 1136SOL    HW1 4307   1.506   5.381   2.475
 1136SOL    HW2 4308   1.636   5.360   2.378
 1137SOL     OW 4309   1.258   5.473   4.789
 1137SOL    HW1 4310   1.316   5.505   4.864
 1137SOL    HW2 4311   1.188   5.411   4.826
 1138SOL     OW 4312   2.190   3.649   4.556
 1138SOL    HW1 4313   2.243   3.689   4.631
 1138SOL    HW2 4314   2.098   3.627   4.589
 1139SOL     OW 4315   2.355   5.041   4.968
 1139SOL    HW1 4316   2.430   4.980   4.942
 1139SOL    HW2 4317   2.334   5.102   4.892
 1140SOL     OW 4318   2.078   2.182   1.496
 1140SOL    HW1 4319   2.041   2.114   1.433
 1140SOL    HW2 4320   2.177   2.188   1.484
 1141SOL     OW 4321   0.016   4.745   6.263
 1141SOL    HW1 4322   6.969   4.815   6.261
 1141SOL    HW2 4323   0.076   4.761   6.342
 1142SOL     OW 4324   1.699   6.145   2.141
 1142SOL    HW1 4325   1.648   6.086   2.203
 1142SOL    HW2 4326   1.708   6.100   2.052
 1143SOL     OW 4327   0.601   3.936   1.902
 1143SOL    HW1 4328   0.531   3.948   1.831
 1143SOL    HW2 4329   0.558   3.936   1.992
 1144SOL     OW 4330   5.828   4.547   0.623
 1144SOL    HW1 4331   5.824   4.647   0.623
 1144SOL    HW2 4332   5.765   4.511   0.692
 1145SOL     OW 4333   5.743   6.802   0.908
 1145SOL    HW1 4334   5.804   6.781   0.832
 1145SOL    HW2 4335   5.771   6.888   0.951
 1146SOL     OW 4336   1.185   0.859   1.483
 1146SOL    HW1 4337   1.090   0.856   1.513
 1146SOL    HW2 4338   1.211   0.953   1.462
 1147SOL     OW 4339   1.895   6.413   1.141
 1147SOL    HW1 4340   1.798   6.421   1.115
 1147SOL    HW2 4341   1.906   6.338   1.205
 1148SOL     OW 4342   4.074   5.856   3.161
 1148SOL    HW1 4343   4.048   5.903   3.246
 1148SOL    HW2 4344   4.019   5.891   3.085
 1149SOL     OW 4345   4.640   3.276   1.398
 1149SOL    HW1 4346   4.548   3.315   1.393
 1149SOL    HW2 4347   4.651   3.226   1.484
 1150SOL     OW 4348   1.482   3.395   0.702
 1150SOL    HW1 4349   1.478   3.410   0.800
 1150SOL    HW2 4350   1.522   3.305   0.684
 1151SOL     OW 4351   6.380   5.254   4.370
 1151SOL    HW1 4352   6.364   5.314   4.448
 1151SOL    HW2 4353   6.456   5.192   4.390
 1152SOL     OW 4354   3.439   6.251   6.285
 1152SOL    HW1 4355   3.395   6.250   6.195
 1152SOL    HW2 4356   3.381   6.299   6.350
 1153SOL     OW 4357   5.574   6.897   1.871
 1153SOL    HW1 4358   5.545   6.896   1.967
 1153SOL    HW2 4359   5.674   6.906   1.867
 1154SOL     OW 4360   2.208   2.899   0.617
 1154SOL    HW1 4361   2.119   2.905   0.661
 1154SOL    HW2 4362   2.254   2.815   0.647
 1155SOL     OW 4363   3.260   6.468   4.419
 1155SOL    HW1 4364   3.258   6.552   4.473
 1155SOL    HW2 4365   3.255   6.389   4.480
 1156SOL     OW 4366   2.856   1.933   3.003
 1156SOL    HW1 4367   2.827   1.864   2.937
 1156SOL    HW2 4368   2.930   1.897   3.060
 1157SOL     OW 4369   3.217   1.191   0.061
 1157SOL    HW1 4370   3.130   1.197   0.012
 1157SOL    HW2 4371   3.289   1.162   7.023
 1158SOL     OW 4372   5.941   4.458   2.947
 1158SOL    HW1 4373   5.935   4.545   2.897
 1158SOL    HW2 4374   5.851   4.432   2.980
 1159SOL     OW 4375   6.583   4.980   0.999
 1159SOL    HW1 4376   6.562   5.040   1.076
 1159SOL    HW2 4377   6.533   4.894   1.009
 1160SOL     OW 4378   5.658   1.916   0.171
 1160SOL    HW1 4379   5.639   2.003   0.214
 1160SOL    HW2 4380   5.755   1.912   0.144
 1161SOL     OW 4381   6.884   4.836   1.376
 1161SOL    HW1 4382   6.916   4.840   1.470
 1161SOL    HW2 4383   6.955   4.870   1.315
 1162SOL     OW 4384   3.077   2.145   4.797
 1162SOL    HW1 4385   3.140   2.148   4.719
 1162SOL    HW2 4386   3.125   2.170   4.880
 1163SOL     OW 4387   5.422   2.994   1.292
 1163SOL    HW1 4388   5.336   2.968   1.248
 1163SOL    HW2 4389   5.472   2.911   1.319
 1164SOL     OW 4390   3.828   2.568   5.767
 1164SOL    HW1 4391   3.828   2.567   5.667
 1164SOL    HW2 4392   3.735   2.586   5.800
 1165SOL     OW 4393   3.975   6.576   3.305
 1165SOL    HW1 4394   4.067   6.601   3.275
 1165SOL    HW2 4395   3.908   6.606   3.237
 1166SOL     OW 4396   3.115   4.830   6.005
 1166SOL    HW1 4397   3.074   4.778   6.080
 1166SOL    HW2 4398   3.090   4.926   6.014
 1167SOL     OW 4399   5.032   4.483   2.404
 1167SOL    HW1 4400   5.102   4.539   2.360
 1167SOL    HW2 4401   4.987   4.536   2.476
 1168SOL     OW 4402   6.842   0.330   2.437
 1168SOL    HW1 4403   6.929   0.318   2.485
 1168SOL    HW2 4404   6.801   0.418   2.462
 1169SOL     OW 4405   4.849   1.304   5.216
 1169SOL    HW1 4406   4.907   1.231   5.178
 1169SOL    HW2 4407   4.844   1.293   5.315
 1170SOL     OW 4408   4.830   5.437   3.186
 1170SOL    HW1 4409   4.765   5.367   3.215
 1170SOL    HW2 4410   4.832   5.440   3.086
 1171SOL     OW 4411   0.021   6.083   0.863
 1171SOL    HW1 4412   7.008   6.157   0.807
 1171SOL    HW2 4413   0.002   5.995   0.819
 1172SOL     OW 4414   6.805   3.396   6.656
 1172SOL    HW1 4415   6.754   3.457   6.595
 1172SOL    HW2 4416   6.842   3.448   6.732
 1173SOL     OW 4417   3.961   1.857   0.513
 1173SOL    HW1 4418   3.978   1.924   0.585
 1173SOL    HW2 4419   3.891   1.891   0.451
 1174SOL     OW 4420   2.243   4.332   0.527
 1174SOL    HW1 4421   2.308   4.265   0.563
 1174SOL    HW2 4422   2.293   4.404   0.478
 1175SOL     OW 4423   3.212   3.045   4.297
 1175SOL    HW1 4424   3.199   3.013   4.203
 1175SOL    HW2 4425   3.303   3.020   4.329
 1176SOL     OW 4426   5.533   3.211   5.904
 1176SOL    HW1 4427   5.509   3.291   5.849
 1176SOL    HW2 4428   5.458   3.145   5.901
 1177SOL     OW 4429   0.661   1.668   4.309
 1177SOL    HW1 4430   0.652   1.682   4.210
 1177SOL    HW2 4431   0.661   1.757   4.355
 1178SOL     OW 4432   4.131   5.893   0.628
 1178SOL    HW1 4433   4.069   5.957   0.673
 1178SOL    HW2 4434   4.081   5.840   0.559
 1179SOL     OW 4435   1.570   6.183   0.324
 1179SOL    HW1 4436   1.486   6.232   0.345
 1179SOL    HW2 4437   1.559   6.136   0.236
 1180SOL     OW 4438   3.537   6.100   0.439
 1180SOL    HW1 4439   3.480   6.018   0.443
 1180SOL    HW2 4440   3.623   6.083   0.487
 1181SOL     OW 4441   6.972   6.200   0.292
 1181SOL    HW1 4442   7.011   6.135   0.357
 1181SOL    HW2 4443   0.018   6.265   0.264
 1182SOL     OW 4444   4.568   4.851   2.708
 1182SOL    HW1 4445   4.602   4.823   2.618
 1182SOL    HW2 4446   4.599   4.786   2.777
 1183SOL     OW 4447   2.439   3.321   5.635
 1183SOL    HW1 4448   2.475   3.329   5.542
 1183SOL    HW2 4449   2.341   3.301   5.631
 1184SOL     OW 4450   0.829   6.821   5.393
 1184SOL    HW1 4451   0.745   6.852   5.439
 1184SOL    HW2 4452   0.890   6.899   5.380
 1185SOL     OW 4453   6.875   1.347   6.824
 1185SOL    HW1 4454   6.896   1.285   6.900
 1185SOL    HW2 4455   6.845   1.435   6.860
 1186SOL     OW 4456   6.017   6.237   4.591
 1186SOL    HW1 4457   6.078   6.315   4.576
 1186SOL    HW2 4458   5.942   6.265   4.651
 1187SOL     OW 4459   6.167   0.839   6.345
 1187SOL    HW1 4460   6.218   0.789   6.275
 1187SOL    HW2 4461   6.192   0.805   6.435
 1188SOL     OW 4462   2.561   0.154   6.233
 1188SOL    HW1 4463   2.531   0.074   6.286
 1188SOL    HW2 4464   2.599   0.222   6.295
 1189SOL     OW 4465   5.297   4.054   3.311
 1189SOL    HW1 4466   5.310   3.959   3.282
 1189SOL    HW2 4467   5.381   4.106   3.295
 1190SOL     OW 4468   1.925   6.274   3.487
 1190SOL    HW1 4469   1.903   6.311   3.397
 1190SOL    HW2 4470   2.022   6.251   3.490
 1191SOL     OW 4471   3.845   6.107   2.496
 1191SOL    HW1 4472   3.902   6.027   2.481
 1191SOL    HW2 4473   3.900   6.190   2.488
 1192SOL     OW 4474   5.838   5.755   3.538
 1192SOL    HW1 4475   5.885   5.830   3.491
 1192SOL    HW2 4476   5.873   5.667   3.503
 1193SOL     OW 4477   0.019   5.614   4.246
 1193SOL    HW1 4478   6.972   5.612   4.176
 1193SOL    HW2 4479   7.008   5.659   4.328
 1194SOL     OW 4480   3.788   0.596   1.125
 1194SOL    HW1 4481   3.822   0.559   1.039
 1194SOL    HW2 4482   3.865   0.630   1.179
 1195SOL     OW 4483   5.638   2.250   3.741
 1195SOL    HW1 4484   5.619   2.319   3.811
 1195SOL    HW2 4485   5.658   2.162   3.786
 1196SOL     OW 4486   6.334   6.227   5.312
 1196SOL    HW1 4487   6.434   6.234   5.317
 1196SOL    HW2 4488   6.302   6.262   5.225
 1197SOL     OW 4489   2.184   6.126   0.454
 1197SOL    HW1 4490   2.222   6.125   0.362
 1197SOL    HW2 4491   2.085   6.114   0.450
 1198SOL     OW 4492   1.625   2.634   0.017
 1198SOL    HW1 4493   1.714   2.591   0.033
 1198SOL    HW2 4494   1.628   2.686   6.956
 1199SOL     OW 4495   5.739   3.915   1.535
 1199SOL    HW1 4496   5.721   3.935   1.631
 1199SOL    HW2 4497   5.654   3.922   1.483
 1200SOL     OW 4498   3.002   3.062   2.136
 1200SOL    HW1 4499   3.082   3.016   2.174
 1200SOL    HW2 4500   2.926   2.998   2.130
 1201SOL     OW 4501   1.929   1.759   4.209
 1201SOL    HW1 4502   1.855   1.825   4.198
 1201SOL    HW2 4503   1.960   1.759   4.304
 1202SOL     OW 4504   0.928   5.317   5.560
 1202SOL    HW1 4505   0.875   5.396   5.592
 1202SOL    HW2 4506   1.002   5.298   5.624
 1203SOL     OW 4507   4.622   6.011   5.543
 1203SOL    HW1 4508   4.570   6.047   5.620
 1203SOL    HW2 4509   4.576   6.034   5.458
 1204SOL     OW 4510   2.058   7.003   3.075
 1204SOL    HW1 4511   2.128   6.932   3.085
 1204SOL    HW2 4512   1.976   6.964   3.033
 1205SOL     OW 4513   5.238   4.018   2.398
 1205SOL    HW1 4514   5.168   3.986   2.461
 1205SOL    HW2 4515   5.227   4.116   2.382
 1206SOL     OW 4516   2.910   3.609   4.863
 1206SOL    HW1 4517   2.813   3.586   4.852
 1206SOL    HW2 4518   2.937   3.597   4.958
 1207SOL     OW 4519   1.346   6.430   2.223
 1207SOL    HW1 4520   1.287   6.384   2.157
 1207SOL    HW2 4521   1.433   6.454   2.180
 1208SOL     OW 4522   3.260   4.072   5.741
 1208SOL    HW1 4523   3.269   3.973   5.750
 1208SOL    HW2 4524   3.266   4.098   5.645
 1209SOL     OW 4525   4.237   6.567   5.458
 1209SOL    HW1 4526   4.138   6.561   5.443
 1209SOL    HW2 4527   4.255   6.640   5.525
 1210SOL     OW 4528   3.173   0.720   2.912
 1210SOL    HW1 4529   3.116   0.790   2.954
 1210SOL    HW2 4530   3.196   0.650   2.979
 1211SOL     OW 4531   0.993   3.317   0.184
 1211SOL    HW1 4532   1.023   3.224   0.162
 1211SOL    HW2 4533   0.948   3.357   0.104
 1212SOL     OW 4534   1.288   6.807   0.512
 1212SOL    HW1 4535   1.192   6.809   0.483
 1212SOL    HW2 4536   1.339   6.880   0.465
 1213SOL     OW 4537   5.167   2.990   1.184
 1213SOL    HW1 4538   5.099   2.935   1.135
 1213SOL    HW2 4539   5.169   3.082   1.145
 1214SOL     OW 4540   0.001   2.407   1.471
 1214SOL    HW1 4541   6.989   2.449   1.388
 1214SOL    HW2 4542   0.096   2.434   1.483
 1215SOL     OW 4543   1.318   5.573   3.813
 1215SOL    HW1 4544   1.238   5.514   3.825
 1215SOL    HW2 4545   1.289   5.669   3.820
 1216SOL     OW 4546   4.613   6.159   1.194
 1216SOL    HW1 4547   4.564   6.115   1.269
 1216SOL    HW2 4548   4.643   6.089   1.129
 1217SOL     OW 4549   3.227   4.314   0.165
 1217SOL    HW1 4550   3.249   4.387   0.101
 1217SOL    HW2 4551   3.182   4.239   0.116
 1218SOL     OW 4552   1.918   4.670   3.846
 1218SOL    HW1 4553   1.851   4.630   3.783
 1218SOL    HW2 4554   1.927   4.609   3.926
 1219SOL     OW 4555   4.480   6.195   2.294
 1219SOL    HW1 4556   4.443   6.236   2.378
 1219SOL    HW2 4557   4.579   6.189   2.301
 1220SOL     OW 4558   1.114   4.588   2.766
 1220SOL    HW1 4559   1.179   4.589   2.690
 1220SOL    HW2 4560   1.121   4.500   2.814
 1221SOL     OW 4561   5.194   4.181   6.159
 1221SOL    HW1 4562   5.227   4.234   6.237
 1221SOL    HW2 4563   5.204   4.235   6.075
 1222SOL     OW 4564   6.392   0.015   6.685
 1222SOL    HW1 4565   6.326   0.089   6.681
 1222SOL    HW2 4566   6.399   7.005   6.779
 1223SOL     OW 4567   3.125   6.370   0.698
 1223SOL    HW1 4568   3.054   6.357   0.629
 1223SOL    HW2 4569   3.086   6.419   0.776
 1224SOL     OW 4570   3.012   0.370   2.422
 1224SOL    HW1 4571   3.003   0.455   2.473
 1224SOL    HW2 4572   2.979   0.383   2.328
 1225SOL     OW 4573   2.817   3.826   6.058
 1225SOL    HW1 4574   2.892   3.784   6.007
 1225SOL    HW2 4575   2.830   3.811   6.156
 1226SOL     OW 4576   1.947   4.818   0.959
 1226SOL    HW1 4577   1.927   4.736   0.904
 1226SOL    HW2 4578   2.045   4.820   0.980
 1227SOL     OW 4579   0.424   3.930   5.988
 1227SOL    HW1 4580   0.479   3.986   5.926
 1227SOL    HW2 4581   0.474   3.846   6.010
 1228SOL     OW 4582   3.468   1.747   6.131
 1228SOL    HW1 4583   3.452   1.670   6.069
 1228SOL    HW2 4584   3.559   1.784   6.114
 1229SOL     OW 4585   3.183   3.988   6.143
 1229SOL    HW1 4586   3.239   4.063   6.110
 1229SOL    HW2 4587   3.237   3.904   6.144
 1230SOL     OW 4588   4.644   7.007   3.243
 1230SOL    HW1 4589   4.704   0.005   3.320
 1230SOL    HW2 4590   4.554   0.023   3.259
 1231SOL     OW 4591   0.997   4.695   4.676
 1231SOL    HW1 4592   0.924   4.724   4.739
 1231SOL    HW2 4593   1.086   4.719   4.714
 1232SOL     OW 4594   2.030   1.773   4.461
 1232SOL    HW1 4595   2.027   1.873   4.453
 1232SOL    HW2 4596   2.025   1.747   4.557
 1233SOL     OW 4597   0.463   3.100   4.693
 1233SOL    HW1 4598   0.500   3.062   4.778
 1233SOL    HW2 4599   0.509   3.187   4.674
 1234SOL     OW 4600   6.495   3.885   4.171
 1234SOL    HW1 4601   6.576   3.887   4.229
 1234SOL    HW2 4602   6.452   3.795   4.177
 1235SOL     OW 4603   0.263   5.321   4.034
 1235SOL    HW1 4604   0.179   5.359   4.071
 1235SOL    HW2 4605   0.322   5.395   4.002
 1236SOL     OW 4606   4.864   1.127   6.439
 1236SOL    HW1 4607   4.908   1.044   6.472
 1236SOL    HW2 4608   4.908   1.156   6.354
 1237SOL     OW 4609   3.039   4.307   6.886
 1237SOL    HW1 4610   3.015   4.354   6.972
 1237SOL    HW2 4611   3.076   4.373   6.821
 1238SOL     OW 4612   1.372   1.345   1.361
 1238SOL    HW1 4613   1.324   1.426   1.328
 1238SOL    HW2 4614   1.417   1.300   1.284
 1239SOL     OW 4615   0.278   6.967   5.908
 1239SOL    HW1 4616   0.323   0.016   5.958
 1239SOL    HW2 4617   0.341   6.890   5.898
 1240SOL     OW 4618   4.361   5.901   2.087
 1240SOL    HW1 4619   4.443   5.948   2.055
 1240SOL    HW2 4620   4.385   5.836   2.159
 1241SOL     OW 4621   6.754   2.905   3.849
 1241SOL    HW1 4622   6.751   2.860   3.938
 1241SOL    HW2 4623   6.847   2.899   3.812
 1242SOL     OW 4624   2.082   3.694   6.237
 1242SOL    HW1 4625   2.150   3.767   6.247
 1242SOL    HW2 4626   2.079   3.639   6.321
 1243SOL     OW 4627   2.877   5.350   5.755
 1243SOL    HW1 4628   2.944   5.424   5.766
 1243SOL    HW2 4629   2.910   5.269   5.804
 1244SOL     OW 4630   1.168   1.041   2.972
 1244SOL    HW1 4631   1.262   1.013   2.953
 1244SOL    HW2 4632   1.107   0.999   2.904
 1245SOL     OW 4633   2.788   2.859   6.133
 1245SOL    HW1 4634   2.757   2.915   6.057
 1245SOL    HW2 4635   2.740   2.888   6.217
 1246SOL     OW 4636   1.335   6.925   1.903
 1246SOL    HW1 4637   1.358   6.887   1.993
 1246SOL    HW2 4638   1.236   6.920   1.889
 1247SOL     OW 4639   1.234   6.970   0.056
 1247SOL    HW1 4640   1.258   7.015   6.994
 1247SOL    HW2 4641   1.138   6.987   0.077
 1248SOL     OW 4642   2.095   6.694   3.546
 1248SOL    HW1 4643   2.127   6.748   3.625
 1248SOL    HW2 4644   2.104   6.749   3.463
 1249SOL     OW 4645   6.234   3.025   3.323
 1249SOL    HW1 4646   6.331   3.044   3.312
 1249SOL    HW2 4647   6.203   2.962   3.251
 1250SOL     OW 4648   0.572   3.819   4.450
 1250SOL    HW1 4649   0.657   3.771   4.427
 1250SOL    HW2 4650   0.540   3.870   4.371
 1251SOL     OW 4651   3.316   6.764   5.680
 1251SOL    HW1 4652   3.359   6.829   5.617
 1251SOL    HW2 4653   3.387   6.719   5.735
 1252SOL     OW 4654   3.465   3.047   6.496
 1252SOL    HW1 4655   3.507   3.012   6.413
 1252SOL    HW2 4656   3.534   3.087   6.555
 1253SOL     OW 4657   4.194   6.583   3.139
 1253SOL    HW1 4658   4.289   6.551   3.139
 1253SOL    HW2 4659   4.150   6.559   3.053
 1254SOL     OW 4660   6.392   2.279   2.362
 1254SOL    HW1 4661   6.381   2.374   2.390
 1254SOL    HW2 4662   6.477   2.243   2.401
 1255SOL     OW 4663   5.910   0.604   0.653
 1255SOL    HW1 4664   5.961   0.629   0.570
 1255SOL    HW2 4665   5.941   0.515   0.686
 1256SOL     OW 4666   4.358   1.962   3.865
 1256SOL    HW1 4667   4.384   1.871   3.834
 1256SOL    HW2 4668   4.439   2.012   3.896
 1257SOL     OW 4669   6.174   1.489   4.259
 1257SOL    HW1 4670   6.135   1.526   4.175
 1257SOL    HW2 4671   6.115   1.415   4.293
 1258SOL     OW 4672   0.032   6.149   3.840
 1258SOL    HW1 4673   0.033   6.093   3.757
 1258SOL    HW2 4674   0.124   6.182   3.859
 1259SOL     OW 4675   4.230   2.056   5.507
 1259SOL    HW1 4676   4.199   1.961   5.500
 1259SOL    HW2 4677   4.226   2.099   5.417
 1260SOL     OW 4678   0.473   1.751   5.532
 1260SOL    HW1 4679   0.476   1.713   5.439
 1260SOL    HW2 4680   0.430   1.842   5.528
 1261SOL     OW 4681   6.027   3.856   0.717
 1261SOL    HW1 4682   6.115   3.834   0.675
 1261SOL    HW2 4683   6.044   3.906   0.802
 1262SOL     OW 4684   5.100   6.446   2.818
 1262SOL    HW1 4685   5.006   6.479   2.826
 1262SOL    HW2 4686   5.103   6.349   2.841
 1263SOL     OW 4687   6.777   2.200   3.491
 1263SOL    HW1 4688   6.790   2.296   3.466
 1263SOL    HW2 4689   6.684   2.173   3.469
 1264SOL     OW 4690   1.079   2.943   5.265
 1264SOL    HW1 4691   0.994   2.984   5.230
 1264SOL    HW2 4692   1.065   2.845   5.279
 1265SOL     OW 4693   5.758   6.867   5.984
 1265SOL    HW1 4694   5.748   6.842   5.888
 1265SOL    HW2 4695   5.669   6.864   6.029
 1266SOL     OW 4696   2.174   1.467   5.817
 1266SOL    HW1 4697   2.166   1.451   5.915
 1266SOL    HW2 4698   2.122   1.549   5.792
 1267SOL     OW 4699   3.755   0.180   2.659
 1267SOL    HW1 4700   3.693   0.116   2.614
 1267SOL    HW2 4701   3.702   0.253   2.702
 1268SOL     OW 4702   4.094   2.947   5.769
 1268SOL    HW1 4703   4.028   3.021   5.757
 1268SOL    HW2 4704   4.103   2.896   5.684
 1269SOL     OW 4705   5.716   2.029   3.909
 1269SOL    HW1 4706   5.806   2.039   3.865
 1269SOL    HW2 4707   5.719   1.953   3.975
 1270SOL     OW 4708   6.324   5.298   2.760
 1270SOL    HW1 4709   6.357   5.379   2.808
 1270SOL    HW2 4710   6.300   5.228   2.827
 1271SOL     OW 4711   1.940   1.175   1.273
 1271SOL    HW1 4712   1.956   1.153   1.369
 1271SOL    HW2 4713   1.842   1.182   1.256
 1272SOL     OW 4714   6.185   2.289   6.671
 1272SOL    HW1 4715   6.221   2.257   6.583
 1272SOL    HW2 4716   6.100   2.340   6.655
 1273SOL     OW 4717   1.338   4.770   5.711
 1273SOL    HW1 4718   1.346   4.727   5.621
 1273SOL    HW2 4719   1.279   4.850   5.705
 1274SOL     OW 4720   0.138   4.700   3.346
 1274SOL    HW1 4721   0.235   4.679   3.359
 1274SOL    HW2 4722   0.130   4.785   3.293
 1275SOL     OW 4723   2.237   1.229   2.711
 1275SOL    HW1 4724   2.154   1.184   2.678
 1275SOL    HW2 4725   2.250   1.207   2.808
 1276SOL     OW 4726   5.610   4.911   3.324
 1276SOL    HW1 4727   5.549   4.934   3.248
 1276SOL    HW2 4728   5.670   4.836   3.296
 1277SOL     OW 4729   0.096   5.907   0.240
 1277SOL    HW1 4730   0.068   5.951   0.325
 1277SOL    HW2 4731   0.196   5.904   0.236
 1278SOL     OW 4732   1.095   5.710   3.068
 1278SOL    HW1 4733   1.135   5.658   3.144
 1278SOL    HW2 4734   1.054   5.794   3.103
 1279SOL     OW 4735   2.800   2.896   1.622
 1279SOL    HW1 4736   2.800   2.989   1.658
 1279SOL    HW2 4737   2.880   2.846   1.658
 1280SOL     OW 4738   2.444   2.251   3.611
 1280SOL    HW1 4739   2.449   2.351   3.604
 1280SOL    HW2 4740   2.401   2.226   3.698
 1281SOL     OW 4741   5.678   6.796   4.936
 1281SOL    HW1 4742   5.744   6.784   5.009
 1281SOL    HW2 4743   5.597   6.845   4.971
 1282SOL     OW 4744   0.646   3.088   1.139
 1282SOL    HW1 4745   0.695   3.165   1.099
 1282SOL    HW2 4746   0.711   3.024   1.178
 1283SOL     OW 4747   6.809   2.229   5.000
 1283SOL    HW1 4748   6.746   2.305   5.015
 1283SOL    HW2 4749   6.846   2.200   5.088
 1284SOL     OW 4750   3.954   2.168   1.880
 1284SOL    HW1 4751   3.899   2.121   1.811
 1284SOL    HW2 4752   3.895   2.230   1.933
 1285SOL     OW 4753   4.520   1.011   4.426
 1285SOL    HW1 4754   4.615   0.982   4.419
 1285SOL    HW2 4755   4.478   1.011   4.335
 1286SOL     OW 4756   5.385   1.477   0.879
 1286SOL    HW1 4757   5.398   1.388   0.836
 1286SOL    HW2 4758   5.426   1.548   0.821
 1287SOL     OW 4759   6.479   4.820   4.959
 1287SOL    HW1 4760   6.550   4.868   5.011
 1287SOL    HW2 4761   6.487   4.844   4.862
 1288SOL     OW 4762   5.040   4.761   0.051
 1288SOL    HW1 4763   4.987   4.735   6.995
 1288SOL    HW2 4764   5.137   4.759   0.029
 1289SOL     OW 4765   6.545   6.993   1.340
 1289SOL    HW1 4766   6.453   6.955   1.347
 1289SOL    HW2 4767   6.612   6.921   1.357
 1290SOL     OW 4768   1.010   6.309   5.346
 1290SOL    HW1 4769   0.919   6.309   5.388
 1290SOL    HW2 4770   1.009   6.252   5.264
 1291SOL     OW 4771   6.230   4.908   3.942
 1291SOL    HW1 4772   6.213   5.005   3.956
 1291SOL    HW2 4773   6.235   4.889   3.844
 1292SOL     OW 4774   1.211   6.690   1.728
 1292SOL    HW1 4775   1.310   6.684   1.728
 1292SOL    HW2 4776   1.180   6.733   1.643
 1293SOL     OW 4777   4.803   0.985   0.335
 1293SOL    HW1 4778   4.750   0.901   0.323
 1293SOL    HW2 4779   4.784   1.024   0.425
 1294SOL     OW 4780   1.973   4.674   5.185
 1294SOL    HW1 4781   2.011   4.766   5.178
 1294SOL    HW2 4782   2.044   4.607   5.163
 1295SOL     OW 4783   6.252   4.268   0.658
 1295SOL    HW1 4784   6.286   4.321   0.735
 1295SOL    HW2 4785   6.182   4.320   0.609
 1296SOL     OW 4786   5.123   0.161   6.066
 1296SOL    HW1 4787   5.204   0.194   6.116
 1296SOL    HW2 4788   5.042   0.209   6.100
 1297SOL     OW 4789   0.084   0.460   1.486
 1297SOL    HW1 4790   0.031   0.409   1.418
 1297SOL    HW2 4791   0.035   0.461   1.573
 1298SOL     OW 4792   5.672   0.615   2.710
 1298SOL    HW1 4793   5.595   0.673   2.734
 1298SOL    HW2 4794   5.746   0.672   2.672
 1299SOL     OW 4795   1.145   3.306   4.292
 1299SOL    HW1 4796   1.108   3.220   4.257
 1299SOL    HW2 4797   1.245   3.307   4.278
 1300SOL     OW 4798   0.296   5.803   1.095
 1300SOL    HW1 4799   0.366   5.741   1.132
 1300SOL    HW2 4800   0.283   5.783   0.997
 1301SOL     OW 4801   6.740   0.338   0.145
 1301SOL    HW1 4802   6.748   0.248   0.187
 1301SOL    HW2 4803   6.674   0.393   0.196
 1302SOL     OW 4804   6.371   6.816   5.346
 1302SOL    HW1 4805   6.308   6.748   5.382
 1302SOL    HW2 4806   6.382   6.803   5.247
 1303SOL     OW 4807   2.965   5.803   1.861
 1303SOL    HW1 4808   3.048   5.841   1.901
 1303SOL    HW2 4809   2.887   5.824   1.919
 1304SOL     OW 4810   0.334   0.640   0.414
 1304SOL    HW1 4811   0.299   0.689   0.494
 1304SOL    HW2 4812   0.416   0.589   0.439
 1305SOL     OW 4813   4.218   4.378   6.058
 1305SOL    HW1 4814   4.249   4.450   5.996
 1305SOL    HW2 4815   4.222   4.290   6.011
 1306SOL     OW 4816   3.308   6.165   4.009
 1306SOL    HW1 4817   3.361   6.087   3.976
 1306SOL    HW2 4818   3.250   6.199   3.934
 1307SOL     OW 4819   2.578   2.498   3.792
 1307SOL    HW1 4820   2.651   2.447   3.746
 1307SOL    HW2 4821   2.503   2.513   3.727
 1308SOL     OW 4822   0.047   3.642   6.588
 1308SOL    HW1 4823   0.039   3.558   6.534
 1308SOL    HW2 4824   6.991   3.699   6.572
 1309SOL     OW 4825   5.895   4.487   6.597
 1309SOL    HW1 4826   5.952   4.445   6.667
 1309SOL    HW2 4827   5.950   4.500   6.514
 1310SOL     OW 4828   1.512   4.312   3.244
 1310SOL    HW1 4829   1.595   4.264   3.272
 1310SOL    HW2 4830   1.513   4.325   3.144
 1311SOL     OW 4831   5.596   4.990   0.199
 1311SOL    HW1 4832   5.639   5.080   0.197
 1311SOL    HW2 4833   5.630   4.935   0.123
 1312SOL     OW 4834   2.567   1.186   5.916
 1312SOL    HW1 4835   2.507   1.260   5.886
 1312SOL    HW2 4836   2.543   1.102   5.867
 1313SOL     OW 4837   6.592   5.645   1.905
 1313SOL    HW1 4838   6.557   5.724   1.955
 1313SOL    HW2 4839   6.692   5.650   1.900
 1314SOL     OW 4840   2.292   1.634   4.436
 1314SOL    HW1 4841   2.197   1.662   4.450
 1314SOL    HW2 4842   2.297   1.534   4.433
 1315SOL     OW 4843   6.215   0.860   2.406
 1315SOL    HW1 4844   6.257   0.863   2.497
 1315SOL    HW2 4845   6.247   0.778   2.358
 1316SOL     OW 4846   5.549   0.319   6.525
 1316SOL    HW1 4847   5.524   0.358   6.613
 1316SOL    HW2 4848   5.572   0.222   6.537
 1317SOL     OW 4849   3.240   3.220   5.816
 1317SOL    HW1 4850   3.238   3.286   5.741
 1317SOL    HW2 4851   3.320   3.236   5.873
 1318SOL     OW 4852   1.996   1.802   6.026
 1318SOL    HW1 4853   2.054   1.847   6.095
 1318SOL    HW2 4854   1.900   1.822   6.045
 1319SOL     OW 4855   6.749   0.102   0.299
 1319SOL    HW1 4856   6.788   0.167   0.365
 1319SOL    HW2 4857   6.752   0.010   0.338
 1320SOL     OW 4858   3.329   3.292   6.210
 1320SOL    HW1 4859   3.276   3.356   6.265
 1320SOL    HW2 4860   3.290   3.201   6.217
 1321SOL     OW 4861   6.896   2.565   0.501
 1321SOL    HW1 4862   6.838   2.641   0.472
 1321SOL    HW2 4863   6.977   2.601   0.548
 1322SOL     OW 4864   3.716   2.316   0.053
 1322SOL    HW1 4865   3.665   2.281   6.999
 1322SOL    HW2 4866   3.770   2.396   0.024
 1323SOL     OW 4867   3.941   6.367   1.294
 1323SOL    HW1 4868   3.954   6.269   1.286
 1323SOL    HW2 4869   3.975   6.412   1.211
 1324SOL     OW 4870   2.563   3.707   6.154
 1324SOL    HW1 4871   2.566   3.626   6.212
 1324SOL    HW2 4872   2.649   3.716   6.104
 1325SOL     OW 4873   3.395   5.632   5.497
 1325SOL    HW1 4874   3.366   5.600   5.407
 1325SOL    HW2 4875   3.334   5.704   5.528
 1326SOL     OW 4876   4.872   1.789   4.875
 1326SOL    HW1 4877   4.790   1.739   4.848
 1326SOL    HW2 4878   4.899   1.850   4.800
 1327SOL     OW 4879   5.134   5.621   2.504
 1327SOL    HW1 4880   5.179   5.540   2.541
 1327SOL    HW2 4881   5.066   5.654   2.569
 1328SOL     OW 4882   1.896   2.429   5.797
 1328SOL    HW1 4883   1.966   2.459   5.861
 1328SOL    HW2 4884   1.842   2.508   5.768
 1329SOL     OW 4885   0.886   2.483   3.747
 1329SOL    HW1 4886   0.910   2.491   3.844
 1329SOL    HW2 4887   0.965   2.449   3.696
 1330SOL     OW 4888   5.921   3.139   2.961
 1330SOL    HW1 4889   5.988   3.104   2.896
 1330SOL    HW2 4890   5.906   3.072   3.033
 1331SOL     OW 4891   4.586   2.248   3.441
 1331SOL    HW1 4892   4.662   2.188   3.465
 1331SOL    HW2 4893   4.507   2.229   3.499
 1332SOL     OW 4894   2.018   5.833   0.500
 1332SOL    HW1 4895   1.983   5.783   0.580
 1332SOL    HW2 4896   1.989   5.928   0.505
 1333SOL     OW 4897   3.115   3.851   3.036
 1333SOL    HW1 4898   3.107   3.949   3.021
 1333SOL    HW2 4899   3.123   3.832   3.134
 1334SOL     OW 4900   6.578   3.528   1.555
 1334SOL    HW1 4901   6.538   3.609   1.598
 1334SOL    HW2 4902   6.583   3.454   1.622
 1335SOL     OW 4903   0.819   3.155   3.541
 1335SOL    HW1 4904   0.753   3.080   3.530
 1335SOL    HW2 4905   0.791   3.231   3.483
 1336SOL     OW 4906   2.139   0.190   5.418
 1336SOL    HW1 4907   2.048   0.224   5.441
 1336SOL    HW2 4908   2.205   0.225   5.483
 1337SOL     OW 4909   0.000   0.101   2.958
 1337SOL    HW1 4910   6.956   0.030   2.942
 1337SOL    HW2 4911   0.092   0.061   2.954
 1338SOL     OW 4912   6.426   3.984   4.841
 1338SOL    HW1 4913   6.334   4.024   4.847
 1338SOL    HW2 4914   6.490   4.037   4.896
 1339SOL     OW 4915   6.217   0.163   0.311
 1339SOL    HW1 4916   6.140   0.136   0.369
 1339SOL    HW2 4917   6.294   0.102   0.328
 1340SOL     OW 4918   3.828   2.651   1.064
 1340SOL    HW1 4919   3.790   2.732   1.108
 1340SOL    HW2 4920   3.812   2.571   1.121
 1341SOL     OW 4921   5.002   6.024   6.946
 1341SOL    HW1 4922   4.913   6.043   6.987
 1341SOL    HW2 4923   4.995   6.029   6.846
 1342SOL     OW 4924   1.945   6.014   1.632
 1342SOL    HW1 4925   1.874   6.033   1.565
 1342SOL    HW2 4926   1.923   5.930   1.681
 1343SOL     OW 4927   5.798   5.756   2.888
 1343SOL    HW1 4928   5.791   5.849   2.921
 1343SOL    HW2 4929   5.893   5.733   2.870
 1344SOL     OW 4930   0.872   0.467   4.560
 1344SOL    HW1 4931   0.826   0.379   4.550
 1344SOL    HW2 4932   0.943   0.460   4.629
 1345SOL     OW 4933   0.680   6.396   0.259
 1345SOL    HW1 4934   0.704   6.419   0.164
 1345SOL    HW2 4935   0.593   6.439   0.282
 1346SOL     OW 4936   3.209   5.104   4.465
 1346SOL    HW1 4937   3.187   5.015   4.505
 1346SOL    HW2 4938   3.235   5.168   4.537
 1347SOL     OW 4939   1.283   0.091   6.558
 1347SOL    HW1 4940   1.314   0.174   6.512
 1347SOL    HW2 4941   1.340   0.014   6.529
 1348SOL     OW 4942   0.619   6.310   5.027
 1348SOL    HW1 4943   0.543   6.246   5.040
 1348SOL    HW2 4944   0.705   6.258   5.026
 1349SOL     OW 4945   5.077   3.560   3.910
 1349SOL    HW1 4946   5.065   3.490   3.980
 1349SOL    HW2 4947   5.143   3.628   3.942
 1350SOL     OW 4948   4.249   4.979   0.002
 1350SOL    HW1 4949   4.156   4.968   6.991
 1350SOL    HW2 4950   4.260   4.922   0.084
 1351SOL     OW 4951   0.667   2.917   5.813
 1351SOL    HW1 4952   0.628   2.825   5.813
 1351SOL    HW2 4953   0.660   2.956   5.905
 1352SOL     OW 4954   6.974   0.857   2.867
 1352SOL    HW1 4955   6.929   0.779   2.822
 1352SOL    HW2 4956   6.972   0.844   2.966
 1353SOL     OW 4957   0.437   0.956   0.426
 1353SOL    HW1 4958   0.520   0.901   0.415
 1353SOL    HW2 4959   0.375   0.937   0.350
 1354SOL     OW 4960   4.586   5.381   2.619
 1354SOL    HW1 4961   4.569   5.473   2.584
 1354SOL    HW2 4962   4.531   5.315   2.569
 1355SOL     OW 4963   5.241   3.199   5.484
 1355SOL    HW1 4964   5.166   3.252   5.523
 1355SOL    HW2 4965   5.242   3.108   5.526
 1356SOL     OW 4966   2.473   3.285   0.248
 1356SOL    HW1 4967   2.527   3.369   0.240
 1356SOL    HW2 4968   2.417   3.290   0.331
 1357SOL     OW 4969   1.949   2.762   5.339
 1357SOL    HW1 4970   1.942   2.857   5.311
 1357SOL    HW2 4971   1.895   2.704   5.278
 1358SOL     OW 4972   2.213   0.122   0.587
 1358SOL    HW1 4973   2.249   0.108   0.494
 1358SOL    HW2 4974   2.164   0.210   0.590
 1359SOL     OW 4975   6.377   4.379   1.150
 1359SOL    HW1 4976   6.444   4.308   1.172
 1359SOL    HW2 4977   6.406   4.466   1.189
 1360SOL     OW 4978   2.030   2.731   0.096
 1360SOL    HW1 4979   1.997   2.813   0.143
 1360SOL    HW2 4980   2.106   2.691   0.147
 1361SOL     OW 4981   6.644   4.125   4.932
 1361SOL    HW1 4982   6.729   4.076   4.910
 1361SOL    HW2 4983   6.664   4.222   4.942
 1362SOL     OW 4984   3.375   3.299   2.879
 1362SOL    HW1 4985   3.405   3.383   2.924
 1362SOL    HW2 4986   3.453   3.254   2.836
 1363SOL     OW 4987   1.114   6.120   4.234
 1363SOL    HW1 4988   1.112   6.220   4.242
 1363SOL    HW2 4989   1.139   6.080   4.322
 1364SOL     OW 4990   4.850   4.229   0.744
 1364SOL    HW1 4991   4.798   4.156   0.700
 1364SOL    HW2 4992   4.799   4.261   0.824
 1365SOL     OW 4993   6.406   3.429   6.560
 1365SOL    HW1 4994   6.504   3.447   6.571
 1365SOL    HW2 4995   6.367   3.404   6.649
 1366SOL     OW 4996   2.726   6.865   5.619
 1366SOL    HW1 4997   2.723   6.906   5.528
 1366SOL    HW2 4998   2.742   6.937   5.687
 1367SOL     OW 4999   2.417   1.463   2.170
 1367SOL    HW1 5000   2.488   1.519   2.212
 1367SOL    HW2 5001   2.429   1.462   2.071
 1368SOL     OW 5002   5.551   6.009   3.141
 1368SOL    HW1 5003   5.504   6.075   3.200
 1368SOL    HW2 5004   5.496   5.926   3.134
 1369SOL     OW 5005   1.020   0.907   2.784
 1369SOL    HW1 5006   0.970   0.967   2.721
 1369SOL    HW2 5007   1.037   0.819   2.740
 1370SOL     OW 5008   2.382   0.560   1.614
 1370SOL    HW1 5009   2.391   0.520   1.523
 1370SOL    HW2 5010   2.467   0.606   1.640
 1371SOL     OW 5011   3.750   0.300   6.555
 1371SOL    HW1 5012   3.662   0.267   6.588
 1371SOL    HW2 5013   3.786   0.369   6.618
 1372SOL     OW 5014   2.963   2.105   2.014
 1372SOL    HW1 5015   3.038   2.123   1.951
 1372SOL    HW2 5016   2.901   2.184   2.016
 1373SOL     OW 5017   1.549   6.127   0.064
 1373SOL    HW1 5018   1.623   6.124   7.021
 1373SOL    HW2 5019   1.473   6.071   0.032
 1374SOL     OW 5020   5.211   4.163   0.207
 1374SOL    HW1 5021   5.232   4.097   0.135
 1374SOL    HW2 5022   5.256   4.134   0.292
 1375SOL     OW 5023   0.841   4.434   5.358
 1375SOL    HW1 5024   0.795   4.346   5.343
 1375SOL    HW2 5025   0.774   4.503   5.382
 1376SOL     OW 5026   4.561   1.344   2.430
 1376SOL    HW1 5027   4.596   1.343   2.337
 1376SOL    HW2 5028   4.589   1.261   2.478
 1377SOL     OW 5029   1.119   4.569   4.286
 1377SOL    HW1 5030   1.034   4.587   4.335
 1377SOL    HW2 5031   1.126   4.471   4.267
 1378SOL     OW 5032   1.821   2.816   6.535
 1378SOL    HW1 5033   1.807   2.791   6.439
 1378SOL    HW2 5034   1.799   2.912   6.548
 1379SOL     OW 5035   3.984   6.129   1.147
 1379SOL    HW1 5036   3.978   6.047   1.204
 1379SOL    HW2 5037   3.892   6.162   1.126
 1380SOL     OW 5038   6.028   5.299   2.847
 1380SOL    HW1 5039   6.078   5.360   2.907
 1380SOL    HW2 5040   6.038   5.329   2.752
 1381SOL     OW 5041   5.841   6.981   1.904
 1381SOL    HW1 5042   5.790   0.031   1.947
 1381SOL    HW2 5043   5.908   7.020   1.841
 1382SOL     OW 5044   0.146   4.808   6.489
 1382SOL    HW1 5045   0.204   4.888   6.508
 1382SOL    HW2 5046   0.089   4.787   6.568
 1383SOL     OW 5047   2.355   0.575   0.196
 1383SOL    HW1 5048   2.446   0.608   0.220
 1383SOL    HW2 5049   2.288   0.649   0.206
 1384SOL     OW 5050   2.136   2.237   2.188
 1384SOL    HW1 5051   2.129   2.263   2.284
 1384SOL    HW2 5052   2.151   2.318   2.132
 1385SOL     OW 5053   5.431   3.013   3.644
 1385SOL    HW1 5054   5.346   3.024   3.694
 1385SOL    HW2 5055   5.442   3.087   3.578
 1386SOL     OW 5056   2.092   2.662   4.121
 1386SOL    HW1 5057   2.174   2.607   4.136
 1386SOL    HW2 5058   2.112   2.758   4.139
 1387SOL     OW 5059   2.912   0.457   4.481
 1387SOL    HW1 5060   2.927   0.463   4.383
 1387SOL    HW2 5061   2.988   0.499   4.530
 1388SOL     OW 5062   5.788   1.536   4.143
 1388SOL    HW1 5063   5.818   1.514   4.235
 1388SOL    HW2 5064   5.812   1.462   4.081
 1389SOL     OW 5065   6.697   0.693   4.066
 1389SOL    HW1 5066   6.775   0.634   4.087
 1389SOL    HW2 5067   6.617   0.636   4.045
 1390SOL     OW 5068   4.393   2.450   2.407
 1390SOL    HW1 5069   4.493   2.457   2.410
 1390SOL    HW2 5070   4.359   2.431   2.499
 1391SOL     OW 5071   5.591   1.627   4.780
 1391SOL    HW1 5072   5.677   1.668   4.749
 1391SOL    HW2 5073   5.596   1.610   4.878
 1392SOL     OW 5074   4.670   6.603   5.424
 1392SOL    HW1 5075   4.734   6.527   5.417
 1392SOL    HW2 5076   4.624   6.600   5.513
 1393SOL     OW 5077   4.774   0.208   0.019
 1393SOL    HW1 5078   4.763   0.133   6.978
 1393SOL    HW2 5079   4.684   0.232   0.057
 1394SOL     OW 5080   4.263   6.897   4.119
 1394SOL    HW1 5081   4.226   6.984   4.153
 1394SOL    HW2 5082   4.238   6.886   4.023
 1395SOL     OW 5083   0.517   5.054   2.454
 1395SOL    HW1 5084   0.439   5.063   2.392
 1395SOL    HW2 5085   0.582   5.127   2.436
 1396SOL     OW 5086   1.588   1.765   3.650
 1396SOL    HW1 5087   1.668   1.819   3.627
 1396SOL    HW2 5088   1.617   1.674   3.681
 1397SOL     OW 5089   1.274   4.998   5.255
 1397SOL    HW1 5090   1.191   5.014   5.203
 1397SOL    HW2 5091   1.296   4.900   5.253
 1398SOL     OW 5092   2.100   6.993   6.911
 1398SOL    HW1 5093   2.062   6.956   6.996
 1398SOL    HW2 5094   2.058   0.057   6.892
 1399SOL     OW 5095   3.891   0.275   6.884
 1399SOL    HW1 5096   3.875   0.365   6.845
 1399SOL    HW2 5097   3.959   0.226   6.829
 1400SOL     OW 5098   0.330   1.229   5.049
 1400SOL    HW1 5099   0.399   1.188   4.989
 1400SOL    HW2 5100   0.296   1.160   5.112
 1401SOL     OW 5101   5.303   0.419   1.848
 1401SOL    HW1 5102   5.215   0.396   1.805
 1401SOL    HW2 5103   5.378   0.378   1.796
 1402SOL     OW 5104   6.511   4.659   2.013
 1402SOL    HW1 5105   6.527   4.636   1.918
 1402SOL    HW2 5106   6.579   4.613   2.071
 1403SOL     OW 5107   3.098   3.562   6.140
 1403SOL    HW1 5108   3.018   3.510   6.171
 1403SOL    HW2 5109   3.169   3.557   6.210
 1404SOL     OW 5110   3.674   6.612   0.391
 1404SOL    HW1 5111   3.762   6.573   0.363
 1404SOL    HW2 5112   3.685   6.708   0.413
 1405SOL     OW 5113   0.936   3.448   0.432
 1405SOL    HW1 5114   0.860   3.413   0.487
 1405SOL    HW2 5115   0.928   3.414   0.339
 1406SOL     OW 5116   2.464   3.088   0.069
 1406SOL    HW1 5117   2.369   3.058   0.062
 1406SOL    HW2 5118   2.469   3.170   0.126
 1407SOL     OW 5119   0.545   2.702   1.205
 1407SOL    HW1 5120   0.567   2.759   1.126
 1407SOL    HW2 5121   0.571   2.751   1.289
 1408SOL     OW 5122   5.509   6.773   0.437
 1408SOL    HW1 5123   5.567   6.712   0.491
 1408SOL    HW2 5124   5.565   6.821   0.369
 1409SOL     OW 5125   6.232   1.844   5.861
 1409SOL    HW1 5126   6.207   1.940   5.855
 1409SOL    HW2 5127   6.149   1.788   5.859
 1410SOL     OW 5128   3.297   0.574   0.109
 1410SOL    HW1 5129   3.227   0.535   0.049
 1410SOL    HW2 5130   3.275   0.670   0.126
 1411SOL     OW 5131   3.551   5.183   6.588
 1411SOL    HW1 5132   3.615   5.258   6.571
 1411SOL    HW2 5133   3.573   5.139   6.675
 1412SOL     OW 5134   2.409   2.490   6.805
 1412SOL    HW1 5135   2.396   2.393   6.784
 1412SOL    HW2 5136   2.320   2.532   6.825
 1413SOL     OW 5137   2.195   1.491   5.527
 1413SOL    HW1 5138   2.271   1.553   5.506
 1413SOL    HW2 5139   2.181   1.488   5.626
 1414SOL     OW 5140   0.897   5.067   1.996
 1414SOL    HW1 5141   0.965   5.119   1.944
 1414SOL    HW2 5142   0.828   5.130   2.032
 1415SOL     OW 5143   3.875   1.863   4.702
 1415SOL    HW1 5144   3.795   1.917   4.728
 1415SOL    HW2 5145   3.856   1.814   4.617
 1416SOL     OW 5146   4.317   0.456   5.111
 1416SOL    HW1 5147   4.300   0.358   5.100
 1416SOL    HW2 5148   4.409   0.478   5.079
 1417SOL     OW 5149   3.336   3.348   4.343
 1417SOL    HW1 5150   3.362   3.371   4.437
 1417SOL    HW2 5151   3.240   3.369   4.329
 1418SOL     OW 5152   2.940   3.575   5.632
 1418SOL    HW1 5153   2.915   3.599   5.726
 1418SOL    HW2 5154   2.861   3.587   5.572
 1419SOL     OW 5155   0.983   6.161   1.935
 1419SOL    HW1 5156   0.905   6.209   1.977
 1419SOL    HW2 5157   0.963   6.143   1.839
 1420SOL     OW 5158   3.407   5.911   3.133
 1420SOL    HW1 5159   3.462   5.829   3.122
 1420SOL    HW2 5160   3.422   5.972   3.055
 1421SOL     OW 5161   1.866   5.462   0.130
 1421SOL    HW1 5162   1.952   5.411   0.124
 1421SOL    HW2 5163   1.851   5.492   0.224
 1422SOL     OW 5164   1.660   3.715   6.842
 1422SOL    HW1 5165   1.627   3.735   6.935
 1422SOL    HW2 5166   1.738   3.653   6.847
 1423SOL     OW 5167   4.123   1.006   5.144
 1423SOL    HW1 5168   4.182   1.087   5.139
 1423SOL    HW2 5169   4.041   1.021   5.089
 1424SOL     OW 5170   6.234   2.409   1.217
 1424SOL    HW1 5171   6.187   2.464   1.148
 1424SOL    HW2 5172   6.235   2.313   1.188
 1425SOL     OW 5173   5.415   0.138   3.459
 1425SOL    HW1 5174   5.499   0.114   3.410
 1425SOL    HW2 5175   5.345   0.069   3.441
 1426SOL     OW 5176   4.085   0.775   0.466
 1426SOL    HW1 5177   4.124   0.833   0.394
 1426SOL    HW2 5178   4.158   0.746   0.528
 1427SOL     OW 5179   1.160   0.795   4.364
 1427SOL    HW1 5180   1.239   0.855   4.363
 1427SOL    HW2 5181   1.180   0.712   4.311
 1428SOL     OW 5182   2.136   3.871   3.692
 1428SOL    HW1 5183   2.203   3.871   3.618
 1428SOL    HW2 5184   2.050   3.911   3.659
 1429SOL     OW 5185   5.596   0.456   2.135
 1429SOL    HW1 5186   5.614   0.451   2.233
 1429SOL    HW2 5187   5.513   0.403   2.114
 1430SOL     OW 5188   2.027   4.256   4.642
 1430SOL    HW1 5189   2.073   4.309   4.570
 1430SOL    HW2 5190   2.085   4.255   4.724
 1431SOL     OW 5191   3.337   1.456   0.436
 1431SOL    HW1 5192   3.282   1.384   0.479
 1431SOL    HW2 5193   3.278   1.516   0.382
 1432SOL     OW 5194   4.558   6.848   2.889
 1432SOL    HW1 5195   4.543   6.765   2.835
 1432SOL    HW2 5196   4.472   6.899   2.894
 1433SOL     OW 5197   3.186   1.455   3.905
 1433SOL    HW1 5198   3.169   1.369   3.857
 1433SOL    HW2 5199   3.284   1.466   3.921
 1434SOL     OW 5200   5.314   3.853   1.012
 1434SOL    HW1 5201   5.271   3.940   1.035
 1434SOL    HW2 5202   5.414   3.864   1.015
 1435SOL     OW 5203   0.632   6.618   4.092
 1435SOL    HW1 5204   0.612   6.533   4.141
 1435SOL    HW2 5205   0.670   6.598   4.002
 1436SOL     OW 5206   5.621   0.918   0.565
 1436SOL    HW1 5207   5.627   0.827   0.606
 1436SOL    HW2 5208   5.642   0.912   0.467
 1437SOL     OW 5209   4.572   1.512   0.433
 1437SOL    HW1 5210   4.568   1.580   0.506
 1437SOL    HW2 5211   4.603   1.555   0.349
 1438SOL     OW 5212   2.192   0.013   2.752
 1438SOL    HW1 5213   2.276   6.992   2.722
 1438SOL    HW2 5214   2.209   0.112   2.759
 1439SOL     OW 5215   0.683   5.207   6.137
 1439SOL    HW1 5216   0.659   5.298   6.170
 1439SOL    HW2 5217   0.600   5.160   6.106
 1440SOL     OW 5218   3.854   2.919   2.237
 1440SOL    HW1 5219   3.950   2.934   2.213
 1440SOL    HW2 5220   3.801   2.906   2.153
 1441SOL     OW 5221   6.160   2.116   5.909
 1441SOL    HW1 5222   6.232   2.170   5.951
 1441SOL    HW2 5223   6.122   2.166   5.831
 1442SOL     OW 5224   5.333   6.129   0.386
 1442SOL    HW1 5225   5.269   6.066   0.342
 1442SOL    HW2 5226   5.376   6.187   0.316
 1443SOL     OW 5227   1.162   2.262   3.691
 1443SOL    HW1 5228   1.182   2.275   3.594
 1443SOL    HW2 5229   1.104   2.181   3.702
 1444SOL     OW 5230   5.249   6.460   4.877
 1444SOL    HW1 5231   5.165   6.483   4.925
 1444SOL    HW2 5232   5.227   6.420   4.788
 1445SOL     OW 5233   6.496   1.947   6.819
 1445SOL    HW1 5234   6.405   1.983   6.837
 1445SOL    HW2 5235   6.491   1.873   6.752
 1446SOL     OW 5236   3.974   5.486   1.437
 1446SOL    HW1 5237   4.056   5.541   1.456
 1446SOL    HW2 5238   3.893   5.541   1.457
 1447SOL     OW 5239   6.353   1.052   4.986
 1447SOL    HW1 5240   6.435   0.997   5.003
 1447SOL    HW2 5241   6.366   1.105   4.903
 1448SOL     OW 5242   5.753   0.532   6.862
 1448SOL    HW1 5243   5.769   0.581   6.948
 1448SOL    HW2 5244   5.823   0.462   6.850
 1449SOL     OW 5245   4.434   5.466   0.893
 1449SOL    HW1 5246   4.445   5.391   0.828
 1449SOL    HW2 5247   4.446   5.431   0.986
 1450SOL     OW 5248   6.125   1.392   3.830
 1450SOL    HW1 5249   6.119   1.440   3.742
 1450SOL    HW2 5250   6.076   1.444   3.900
 1451SOL     OW 5251   1.431   6.435   1.751
 1451SOL    HW1 5252   1.518   6.386   1.749
 1451SOL    HW2 5253   1.449   6.534   1.751
 1452SOL     OW 5254   3.432   0.404   5.777
 1452SOL    HW1 5255   3.437   0.497   5.814
 1452SOL    HW2 5256   3.350   0.359   5.812
 1453SOL     OW 5257   5.223   4.425   3.918
 1453SOL    HW1 5258   5.314   4.436   3.958
 1453SOL    HW2 5259   5.155   4.469   3.976
 1454SOL     OW 5260   5.036   4.086   0.926
 1454SOL    HW1 5261   5.032   4.185   0.909
 1454SOL    HW2 5262   5.078   4.041   0.847
 1455SOL     OW 5263   1.998   2.291   1.822
 1455SOL    HW1 5264   2.062   2.359   1.785
 1455SOL    HW2 5265   2.049   2.213   1.858
 1456SOL     OW 5266   6.197   5.127   5.345
 1456SOL    HW1 5267   6.252   5.079   5.276
 1456SOL    HW2 5268   6.179   5.066   5.422
 1457SOL     OW 5269   1.790   0.678   3.988
 1457SOL    HW1 5270   1.777   0.636   3.899
 1457SOL    HW2 5271   1.872   0.638   4.031
 1458SOL     OW 5272   0.086   5.583   0.072
 1458SOL    HW1 5273   0.185   5.593   0.070
 1458SOL    HW2 5274   0.060   5.516   0.142
 1459SOL     OW 5275   3.008   0.298   1.426
 1459SOL    HW1 5276   2.927   0.346   1.393
 1459SOL    HW2 5277   3.078   0.364   1.452
 1460SOL     OW 5278   0.464   0.116   7.016
 1460SOL    HW1 5279   0.396   0.125   6.943
 1460SOL    HW2 5280   0.517   0.032   7.001
 1461SOL     OW 5281   4.764   5.520   2.341
 1461SOL    HW1 5282   4.817   5.605   2.346
 1461SOL    HW2 5283   4.677   5.533   2.390
 1462SOL     OW 5284   5.667   0.362   5.248
 1462SOL    HW1 5285   5.724   0.311   5.312
 1462SOL    HW2 5286   5.578   0.381   5.291
 1463SOL     OW 5287   0.704   2.231   6.024
 1463SOL    HW1 5288   0.620   2.190   6.060
 1463SOL    HW2 5289   0.748   2.285   6.096
 1464SOL     OW 5290   0.900   0.803   1.566
 1464SOL    HW1 5291   0.815   0.773   1.523
 1464SOL    HW2 5292   0.898   0.780   1.664
 1465SOL     OW 5293   0.948   0.705   4.117
 1465SOL    HW1 5294   0.965   0.803   4.108
 1465SOL    HW2 5295   0.914   0.685   4.209
 1466SOL     OW 5296   6.058   5.201   4.962
 1466SOL    HW1 5297   6.066   5.268   4.888
 1466SOL    HW2 5298   6.024   5.115   4.926
 1467SOL     OW 5299   6.063   3.794   3.793
 1467SOL    HW1 5300   5.985   3.816   3.851
 1467SOL    HW2 5301   6.118   3.722   3.836
 1468SOL     OW 5302   4.737   0.319   2.186
 1468SOL    HW1 5303   4.674   0.248   2.153
 1468SOL    HW2 5304   4.684   0.396   2.222
 1469SOL     OW 5305   0.605   0.755   2.179
 1469SOL    HW1 5306   0.616   0.842   2.132
 1469SOL    HW2 5307   0.667   0.751   2.257
 1470SOL     OW 5308   6.844   0.525   3.181
 1470SOL    HW1 5309   6.816   0.468   3.103
 1470SOL    HW2 5310   6.820   0.479   3.266
 1471SOL     OW 5311   5.808   0.731   1.453
 1471SOL    HW1 5312   5.900   0.708   1.420
 1471SOL    HW2 5313   5.816   0.780   1.540
 1472SOL     OW 5314   4.661   5.471   4.629
 1472SOL    HW1 5315   4.576   5.524   4.634
 1472SOL    HW2 5316   4.665   5.424   4.540
 1473SOL     OW 5317   6.257   3.527   3.325
 1473SOL    HW1 5318   6.296   3.440   3.354
 1473SOL    HW2 5319   6.308   3.602   3.367
 1474SOL     OW 5320   4.460   5.434   3.119
 1474SOL    HW1 5321   4.477   5.514   3.061
 1474SOL    HW2 5322   4.499   5.450   3.209
 1475SOL     OW 5323   6.012   0.164   3.259
 1475SOL    HW1 5324   6.052   0.151   3.167
 1475SOL    HW2 5325   6.075   0.126   3.327
 1476SOL     OW 5326   0.178   2.495   1.007
 1476SOL    HW1 5327   0.080   2.479   1.005
 1476SOL    HW2 5328   0.203   2.564   0.938
 1477SOL     OW 5329   2.310   6.710   4.022
 1477SOL    HW1 5330   2.401   6.745   4.046
 1477SOL    HW2 5331   2.319   6.631   3.962
 1478SOL     OW 5332   6.931   3.858   1.554
 1478SOL    HW1 5333   6.996   3.874   1.628
 1478SOL    HW2 5334   6.844   3.902   1.574
 1479SOL     OW 5335   1.066   5.353   0.881
 1479SOL    HW1 5336   1.063   5.447   0.848
 1479SOL    HW2 5337   0.980   5.307   0.858
 1480SOL     OW 5338   2.202   0.783   0.178
 1480SOL    HW1 5339   2.249   0.871   0.182
 1480SOL    HW2 5340   2.193   0.755   0.082
 1481SOL     OW 5341   0.824   3.542   6.753
 1481SOL    HW1 5342   0.870   3.507   6.671
 1481SOL    HW2 5343   0.854   3.635   6.771
 1482SOL     OW 5344   5.498   0.989   6.395
 1482SOL    HW1 5345   5.482   0.956   6.488
 1482SOL    HW2 5346   5.471   0.918   6.329
 1483SOL     OW 5347   6.410   1.742   6.604
 1483SOL    HW1 5348   6.401   1.740   6.505
 1483SOL    HW2 5349   6.479   1.676   6.633
 1484SOL     OW 5350   6.338   6.752   2.796
 1484SOL    HW1 5351   6.275   6.794   2.861
 1484SOL    HW2 5352   6.377   6.823   2.738
 1485SOL     OW 5353   5.714   3.016   3.733
 1485SOL    HW1 5354   5.696   3.077   3.811
 1485SOL    HW2 5355   5.629   2.998   3.685
 1486SOL     OW 5356   5.134   2.342   1.690
 1486SOL    HW1 5357   5.116   2.363   1.786
 1486SOL    HW2 5358   5.137   2.243   1.678
 1487SOL     OW 5359   7.022   0.735   5.768
 1487SOL    HW1 5360   7.009   0.663   5.836
 1487SOL    HW2 5361   0.088   0.776   5.779
 1488SOL     OW 5362   5.334   2.130   4.130
 1488SOL    HW1 5363   5.299   2.196   4.196
 1488SOL    HW2 5364   5.375   2.053   4.177
 1489SOL     OW 5365   4.118   5.583   4.258
 1489SOL    HW1 5366   4.066   5.605   4.176
 1489SOL    HW2 5367   4.213   5.564   4.234
 1490SOL     OW 5368   2.441   2.711   1.440
 1490SOL    HW1 5369   2.482   2.724   1.531
 1490SOL    HW2 5370   2.345   2.685   1.451
 1491SOL     OW 5371   0.324   2.453   5.364
 1491SOL    HW1 5372   0.280   2.542   5.369
 1491SOL    HW2 5373   0.255   2.381   5.374
 1492SOL     OW 5374   6.327   2.352   0.895
 1492SOL    HW1 5375   6.296   2.447   0.903
 1492SOL    HW2 5376   6.281   2.296   0.965
 1493SOL     OW 5377   6.276   2.563   5.259
 1493SOL    HW1 5378   6.257   2.465   5.261
 1493SOL    HW2 5379   6.225   2.610   5.331
 1494SOL     OW 5380   5.833   1.489   4.397
 1494SOL    HW1 5381   5.739   1.459   4.413
 1494SOL    HW2 5382   5.892   1.451   4.469
 1495SOL     OW 5383   1.161   3.502   2.584
 1495SOL    HW1 5384   1.073   3.473   2.545
 1495SOL    HW2 5385   1.232   3.437   2.557
 1496SOL     OW 5386   1.048   0.700   2.597
 1496SOL    HW1 5387   1.131   0.746   2.565
 1496SOL    HW2 5388   1.073   0.614   2.642
 1497SOL     OW 5389   5.335   5.353   5.637
 1497SOL    HW1 5390   5.256   5.363   5.578
 1497SOL    HW2 5391   5.348   5.256   5.660
 1498SOL     OW 5392   2.279   5.768   0.446
 1498SOL    HW1 5393   2.193   5.805   0.481
 1498SOL    HW2 5394   2.268   5.742   0.350
 1499SOL     OW 5395   0.818   4.000   4.444
 1499SOL    HW1 5396   0.905   3.959   4.417
 1499SOL    HW2 5397   0.757   3.929   4.477
 1500SOL     OW 5398   4.429   6.683   5.297
 1500SOL    HW1 5399   4.360   6.614   5.315
 1500SOL    HW2 5400   4.515   6.658   5.341
 1501SOL     OW 5401   3.989   0.473   0.274
 1501SOL    HW1 5402   3.914   0.513   0.326
 1501SOL    HW2 5403   4.071   0.469   0.332
 1502SOL     OW 5404   0.288   5.851   6.407
 1502SOL    HW1 5405   0.229   5.771   6.407
 1502SOL    HW2 5406   0.237   5.930   6.440
 1503SOL     OW 5407   3.607   4.587   5.597
 1503SOL    HW1 5408   3.521   4.537   5.603
 1503SOL    HW2 5409   3.684   4.524   5.613
 1504SOL     OW 5410   2.480   6.857   4.154
 1504SOL    HW1 5411   2.466   6.936   4.213
 1504SOL    HW2 5412   2.547   6.879   4.083
 1505SOL     OW 5413   4.793   6.782   2.274
 1505SOL    HW1 5414   4.793   6.748   2.180
 1505SOL    HW2 5415   4.844   6.720   2.333
 1506SOL     OW 5416   1.176   6.822   3.087
 1506SOL    HW1 5417   1.108   6.758   3.052
 1506SOL    HW2 5418   1.251   6.832   3.021
 1507SOL     OW 5419   2.416   2.396   0.168
 1507SOL    HW1 5420   2.420   2.300   0.139
 1507SOL    HW2 5421   2.446   2.455   0.093
 1508SOL     OW 5422   4.723   6.839   1.036
 1508SOL    HW1 5423   4.625   6.854   1.043
 1508SOL    HW2 5424   4.743   6.787   0.953
 1509SOL     OW 5425   5.736   1.844   6.422
 1509SOL    HW1 5426   5.665   1.853   6.492
 1509SOL    HW2 5427   5.695   1.811   6.337
 1510SOL     OW 5428   6.611   1.813   3.219
 1510SOL    HW1 5429   6.529   1.859   3.183
 1510SOL    HW2 5430   6.693   1.860   3.185
 1511SOL     OW 5431   1.113   3.046   0.118
 1511SOL    HW1 5432   1.137   3.062   0.214
 1511SOL    HW2 5433   1.183   2.989   0.075
 1512SOL     OW 5434   6.732   1.191   1.874
 1512SOL    HW1 5435   6.782   1.235   1.949
 1512SOL    HW2 5436   6.736   1.092   1.886
 1513SOL     OW 5437   3.119   0.404   2.882
 1513SOL    HW1 5438   3.113   0.482   2.820
 1513SOL    HW2 5439   3.172   0.430   2.963
 1514SOL     OW 5440   4.606   0.732   6.226
 1514SOL    HW1 5441   4.689   0.731   6.283
 1514SOL    HW2 5442   4.567   0.824   6.226
 1515SOL     OW 5443   5.495   5.284   5.415
 1515SOL    HW1 5444   5.500   5.337   5.331
 1515SOL    HW2 5445   5.437   5.332   5.481
 1516SOL     OW 5446   0.793   1.448   0.966
 1516SOL    HW1 5447   0.823   1.543   0.962
 1516SOL    HW2 5448   0.696   1.444   0.986
 1517SOL     OW 5449   3.042   5.499   3.211
 1517SOL    HW1 5450   2.945   5.520   3.220
 1517SOL    HW2 5451   3.077   5.464   3.298
 1518SOL     OW 5452   0.650   4.997   0.675
 1518SOL    HW1 5453   0.701   4.911   0.671
 1518SOL    HW2 5454   0.698   5.062   0.732
 1519SOL     OW 5455   0.421   4.054   0.993
 1519SOL    HW1 5456   0.329   4.080   1.025
 1519SOL    HW2 5457   0.440   4.102   0.907
 1520SOL     OW 5458   1.520   2.763   3.114
 1520SOL    HW1 5459   1.430   2.723   3.132
 1520SOL    HW2 5460   1.536   2.840   3.176
 1521SOL     OW 5461   2.353   4.366   5.227
 1521SOL    HW1 5462   2.350   4.280   5.278
 1521SOL    HW2 5463   2.439   4.413   5.245
 1522SOL     OW 5464   1.163   2.042   6.245
 1522SOL    HW1 5465   1.133   1.965   6.301
 1522SOL    HW2 5466   1.150   2.020   6.148
 1523SOL     OW 5467   5.518   1.406   1.126
 1523SOL    HW1 5468   5.496   1.308   1.132
 1523SOL    HW2 5469   5.510   1.436   1.031
 1524SOL     OW 5470   7.003   1.062   1.422
 1524SOL    HW1 5471   6.999   1.162   1.421
 1524SOL    HW2 5472   6.969   1.028   1.510
 1525SOL     OW 5473   5.022   1.434   5.910
 1525SOL    HW1 5474   4.947   1.454   5.847
 1525SOL    HW2 5475   4.987   1.424   6.003
 1526SOL     OW 5476   6.257   1.199   0.018
 1526SOL    HW1 5477   6.186   1.260   7.007
 1526SOL    HW2 5478   6.340   1.208   6.986
 1527SOL     OW 5479   3.278   1.705   5.711
 1527SOL    HW1 5480   3.287   1.795   5.669
 1527SOL    HW2 5481   3.182   1.688   5.734
 1528SOL     OW 5482   5.457   5.212   3.997
 1528SOL    HW1 5483   5.473   5.268   4.079
 1528SOL    HW2 5484   5.401   5.263   3.933
 1529SOL     OW 5485   2.478   0.086   5.577
 1529SOL    HW1 5486   2.560   0.090   5.634
 1529SOL    HW2 5487   2.420   0.011   5.608
 1530SOL     OW 5488   2.897   6.870   1.451
 1530SOL    HW1 5489   2.942   6.792   1.496
 1530SOL    HW2 5490   2.808   6.886   1.494
 1531SOL     OW 5491   5.830   0.642   6.618
 1531SOL    HW1 5492   5.793   0.734   6.608
 1531SOL    HW2 5493   5.808   0.606   6.708
 1532SOL     OW 5494   2.827   2.406   5.495
 1532SOL    HW1 5495   2.876   2.351   5.427
 1532SOL    HW2 5496   2.819   2.500   5.462
 1533SOL     OW 5497   4.948   2.725   6.978
 1533SOL    HW1 5498   4.936   2.802   0.016
 1533SOL    HW2 5499   4.905   2.643   7.017
 1534SOL     OW 5500   6.735   0.305   1.868
 1534SOL    HW1 5501   6.663   0.315   1.799
 1534SOL    HW2 5502   6.695   0.316   1.959
 1535SOL     OW 5503   5.239   4.458   4.301
 1535SOL    HW1 5504   5.228   4.557   4.301
 1535SOL    HW2 5505   5.149   4.414   4.291
 1536SOL     OW 5506   3.410   6.092   2.927
 1536SOL    HW1 5507   3.374   6.036   2.852
 1536SOL    HW2 5508   3.351   6.172   2.941
 1537SOL     OW 5509   2.930   5.829   4.625
 1537SOL    HW1 5510   3.030   5.833   4.622
 1537SOL    HW2 5511   2.901   5.794   4.715
 1538SOL     OW 5512   3.487   5.514   6.567
 1538SOL    HW1 5513   3.494   5.517   6.667
 1538SOL    HW2 5514   3.577   5.530   6.527
 1539SOL     OW 5515   3.182   6.207   1.711
 1539SOL    HW1 5516   3.153   6.117   1.679
 1539SOL    HW2 5517   3.102   6.266   1.718
 1540SOL     OW 5518   6.042   0.005   5.132
 1540SOL    HW1 5519   6.095   7.001   5.212
 1540SOL    HW2 5520   5.952   0.037   5.161
 1541SOL     OW 5521   5.227   1.493   1.126
 1541SOL    HW1 5522   5.279   1.501   1.042
 1541SOL    HW2 5523   5.289   1.497   1.205
 1542SOL     OW 5524   0.050   6.477   1.053
 1542SOL    HW1 5525   0.117   6.426   1.108
 1542SOL    HW2 5526   6.989   6.426   1.050
 1543SOL     OW 5527   3.712   3.731   3.360
 1543SOL    HW1 5528   3.644   3.754   3.291
 1543SOL    HW2 5529   3.794   3.694   3.315
 1544SOL     OW 5530   3.244   3.380   2.638
 1544SOL    HW1 5531   3.265   3.354   2.732
 1544SOL    HW2 5532   3.222   3.478   2.635
 1545SOL     OW 5533   0.095   0.522   4.588
 1545SOL    HW1 5534   0.057   0.535   4.679
 1545SOL    HW2 5535   0.038   0.458   4.536
 1546SOL     OW 5536   6.232   6.405   6.355
 1546SOL    HW1 5537   6.203   6.329   6.296
 1546SOL    HW2 5538   6.227   6.377   6.450
 1547SOL     OW 5539   3.378   5.545   0.298
 1547SOL    HW1 5540   3.349   5.515   0.389
 1547SOL    HW2 5541   3.304   5.593   0.253
 1548SOL     OW 5542   6.038   4.049   3.648
 1548SOL    HW1 5543   5.949   4.065   3.605
 1548SOL    HW2 5544   6.037   3.961   3.695
 1549SOL     OW 5545   6.946   2.496   0.904
 1549SOL    HW1 5546   6.860   2.450   0.927
 1549SOL    HW2 5547   6.938   2.594   0.922
 1550SOL     OW 5548   2.372   5.177   2.750
 1550SOL    HW1 5549   2.305   5.232   2.801
 1550SOL    HW2 5550   2.450   5.234   2.725
 1551SOL     OW 5551   0.240   2.507   1.483
 1551SOL    HW1 5552   0.330   2.471   1.459
 1551SOL    HW2 5553   0.245   2.605   1.498
 1552SOL     OW 5554   0.954   6.633   2.177
 1552SOL    HW1 5555   1.018   6.614   2.252
 1552SOL    HW2 5556   1.002   6.628   2.090
 1553SOL     OW 5557   5.444   1.236   5.919
 1553SOL    HW1 5558   5.507   1.209   5.991
 1553SOL    HW2 5559   5.393   1.156   5.888
 1554SOL     OW 5560   2.738   2.194   0.902
 1554SOL    HW1 5561   2.723   2.130   0.977
 1554SOL    HW2 5562   2.776   2.280   0.938
 1555SOL     OW 5563   4.010   1.205   0.260
 1555SOL    HW1 5564   3.974   1.297   0.249
 1555SOL    HW2 5565   4.104   1.201   0.228
 1556SOL     OW 5566   3.671   1.742   0.406
 1556SOL    HW1 5567   3.648   1.737   0.504
 1556SOL    HW2 5568   3.595   1.784   0.357
 1557SOL     OW 5569   1.741   3.104   0.585
 1557SOL    HW1 5570   1.758   3.171   0.512
 1557SOL    HW2 5571   1.824   3.051   0.602
 1558SOL     OW 5572   5.139   2.818   6.097
 1558SOL    HW1 5573   5.089   2.775   6.173
 1558SOL    HW2 5574   5.092   2.902   6.070
 1559SOL     OW 5575   2.612   6.118   3.541
 1559SOL    HW1 5576   2.570   6.177   3.473
 1559SOL    HW2 5577   2.620   6.025   3.505
 1560SOL     OW 5578   4.131   3.033   1.329
 1560SOL    HW1 5579   4.130   2.950   1.274
 1560SOL    HW2 5580   4.072   3.102   1.287
 1561SOL     OW 5581   5.740   6.228   0.578
 1561SOL    HW1 5582   5.799   6.298   0.619
 1561SOL    HW2 5583   5.691   6.180   0.651
 1562SOL     OW 5584   2.724   0.544   2.499
 1562SOL    HW1 5585   2.662   0.466   2.506
 1562SOL    HW2 5586   2.751   0.556   2.403
 1563SOL     OW 5587   1.895   3.087   4.089
 1563SOL    HW1 5588   1.953   3.044   4.159
 1563SOL    HW2 5589   1.948   3.098   4.005
 1564SOL     OW 5590   0.609   1.657   2.738
 1564SOL    HW1 5591   0.581   1.588   2.805
 1564SOL    HW2 5592   0.656   1.731   2.784
 1565SOL     OW 5593   4.949   1.552   5.346
 1565SOL    HW1 5594   4.928   1.484   5.276
 1565SOL    HW2 5595   4.864   1.588   5.384
 1566SOL     OW 5596   0.027   3.512   3.483
 1566SOL    HW1 5597   0.069   3.540   3.569
 1566SOL    HW2 5598   6.963   3.557   3.473
 1567SOL     OW 5599   5.770   0.196   4.786
 1567SOL    HW1 5600   5.867   0.182   4.806
 1567SOL    HW2 5601   5.728   0.248   4.860
 1568SOL     OW 5602   2.177   4.808   1.114
 1568SOL    HW1 5603   2.263   4.770   1.147
 1568SOL    HW2 5604   2.156   4.893   1.164
 1569SOL     OW 5605   2.377   1.257   2.463
 1569SOL    HW1 5606   2.361   1.354   2.442
 1569SOL    HW2 5607   2.341   1.237   2.554
 1570SOL     OW 5608   2.832   5.786   6.549
 1570SOL    HW1 5609   2.835   5.818   6.454
 1570SOL    HW2 5610   2.791   5.695   6.552
 1571SOL     OW 5611   6.917   2.847   4.413
 1571SOL    HW1 5612   6.932   2.918   4.481
 1571SOL    HW2 5613   7.005   2.816   4.377
 1572SOL     OW 5614   2.276   6.122   3.087
 1572SOL    HW1 5615   2.298   6.095   3.181
 1572SOL    HW2 5616   2.356   6.106   3.029
 1573SOL     OW 5617   5.177   5.583   0.333
 1573SOL    HW1 5618   5.166   5.490   0.368
 1573SOL    HW2 5619   5.151   5.648   0.405
 1574SOL     OW 5620   1.152   4.384   2.965
 1574SOL    HW1 5621   1.100   4.319   2.909
 1574SOL    HW2 5622   1.156   4.351   3.059
 1575SOL     OW 5623   6.780   2.308   0.453
 1575SOL    HW1 5624   6.791   2.407   0.440
 1575SOL    HW2 5625   6.867   2.268   0.481
 1576SOL     OW 5626   1.845   5.777   1.724
 1576SOL    HW1 5627   1.752   5.761   1.759
 1576SOL    HW2 5628   1.901   5.696   1.741
 1577SOL     OW 5629   4.125   6.132   3.882
 1577SOL    HW1 5630   4.158   6.117   3.789
 1577SOL    HW2 5631   4.183   6.084   3.947
 1578SOL     OW 5632   5.124   1.798   1.459
 1578SOL    HW1 5633   5.150   1.803   1.555
 1578SOL    HW2 5634   5.109   1.703   1.433
 1579SOL     OW 5635   1.774   3.310   1.629
 1579SOL    HW1 5636   1.713   3.235   1.603
 1579SOL    HW2 5637   1.805   3.359   1.548
 1580SOL     OW 5638   3.015   3.470   3.100
 1580SOL    HW1 5639   3.002   3.412   3.020
 1580SOL    HW2 5640   2.932   3.522   3.117
 1581SOL     OW 5641   6.083   4.037   4.656
 1581SOL    HW1 5642   6.098   4.065   4.751
 1581SOL    HW2 5643   6.170   4.013   4.614
 1582SOL     OW 5644   4.844   6.107   5.175
 1582SOL    HW1 5645   4.917   6.059   5.126
 1582SOL    HW2 5646   4.861   6.100   5.274
 1583SOL     OW 5647   1.373   5.561   5.027
 1583SOL    HW1 5648   1.360   5.474   5.076
 1583SOL    HW2 5649   1.404   5.631   5.091
 1584SOL     OW 5650   0.326   4.267   0.744
 1584SOL    HW1 5651   0.425   4.255   0.752
 1584SOL    HW2 5652   0.282   4.177   0.742
 1585SOL     OW 5653   4.852   6.797   4.191
 1585SOL    HW1 5654   4.757   6.795   4.219
 1585SOL    HW2 5655   4.874   6.888   4.155
 1586SOL     OW 5656   2.976   5.787   2.895
 1586SOL    HW1 5657   2.881   5.767   2.872
 1586SOL    HW2 5658   3.010   5.861   2.836
 1587SOL     OW 5659   3.298   6.596   6.700
 1587SOL    HW1 5660   3.205   6.572   6.730
 1587SOL    HW2 5661   3.309   6.696   6.703
 1588SOL     OW 5662   6.369   1.889   3.089
 1588SOL    HW1 5663   6.340   1.801   3.129
 1588SOL    HW2 5664   6.292   1.953   3.090
 1589SOL     OW 5665   6.907   3.411   4.268
 1589SOL    HW1 5666   6.961   3.380   4.190
 1589SOL    HW2 5667   6.833   3.469   4.236
 1590SOL     OW 5668   5.887   0.938   3.262
 1590SOL    HW1 5669   5.983   0.952   3.286
 1590SOL    HW2 5670   5.831   1.003   3.312
 1591SOL     OW 5671   1.199   5.990   0.583
 1591SOL    HW1 5672   1.290   5.950   0.579
 1591SOL    HW2 5673   1.169   6.014   0.491
 1592SOL     OW 5674   0.419   3.445   5.946
 1592SOL    HW1 5675   0.381   3.436   5.854
 1592SOL    HW2 5676   0.345   3.437   6.013
 1593SOL     OW 5677   3.739   6.243   1.063
 1593SOL    HW1 5678   3.707   6.291   0.981
 1593SOL    HW2 5679   3.664   6.233   1.128
 1594SOL     OW 5680   5.410   0.768   2.813
 1594SOL    HW1 5681   5.427   0.724   2.901
 1594SOL    HW2 5682   5.312   0.788   2.804
 1595SOL     OW 5683   0.957   3.173   6.722
 1595SOL    HW1 5684   1.022   3.097   6.718
 1595SOL    HW2 5685   0.864   3.138   6.709
 1596SOL     OW 5686   5.013   4.553   3.457
 1596SOL    HW1 5687   4.923   4.589   3.435
 1596SOL    HW2 5688   5.051   4.601   3.536
 1597SOL     OW 5689   3.290   5.719   0.608
 1597SOL    HW1 5690   3.353   5.642   0.597
 1597SOL    HW2 5691   3.205   5.699   0.559
 1598SOL     OW 5692   1.206   4.328   6.200
 1598SOL    HW1 5693   1.231   4.366   6.111
 1598SOL    HW2 5694   1.286   4.327   6.260
 1599SOL     OW 5695   4.585   5.719   3.705
 1599SOL    HW1 5696   4.600   5.692   3.800
 1599SOL    HW2 5697   4.672   5.722   3.657
 1600SOL     OW 5698   4.150   0.783   1.675
 1600SOL    HW1 5699   4.123   0.859   1.616
 1600SOL    HW2 5700   4.098   0.701   1.649
 1601SOL     OW 5701   6.421   1.149   4.730
 1601SOL    HW1 5702   6.460   1.141   4.638
 1601SOL    HW2 5703   6.391   1.243   4.746
 1602SOL     OW 5704   4.696   5.632   3.940
 1602SOL    HW1 5705   4.721   5.706   4.003
 1602SOL    HW2 5706   4.777   5.578   3.918
 1603SOL     OW 5707   2.974   4.923   2.345
 1603SOL    HW1 5708   2.881   4.950   2.320
 1603SOL    HW2 5709   2.976   4.898   2.442
 1604SOL     OW 5710   4.347   5.015   2.770
 1604SOL    HW1 5711   4.422   4.950   2.766
 1604SOL    HW2 5712   4.382   5.107   2.790
 1605SOL     OW 5713   4.684   5.050   0.582
 1605SOL    HW1 5714   4.685   4.961   0.627
 1605SOL    HW2 5715   4.731   5.117   0.640
 1606SOL     OW 5716   3.333   5.960   4.899
 1606SOL    HW1 5717   3.306   5.913   4.983
 1606SOL    HW2 5718   3.402   5.906   4.851
 1607SOL     OW 5719   4.779   4.076   3.755
 1607SOL    HW1 5720   4.729   4.158   3.726
 1607SOL    HW2 5721   4.827   4.037   3.677
 1608SOL     OW 5722   5.715   2.341   3.515
 1608SOL    HW1 5723   5.684   2.293   3.597
 1608SOL    HW2 5724   5.656   2.318   3.438
 1609SOL     OW 5725   1.625   0.170   1.072
 1609SOL    HW1 5726   1.660   0.078   1.090
 1609SOL    HW2 5727   1.612   0.219   1.158
 1610SOL     OW 5728   5.644   6.442   0.807
 1610SOL    HW1 5729   5.547   6.454   0.786
 1610SOL    HW2 5730   5.664   6.345   0.820
 1611SOL     OW 5731   1.468   3.950   6.911
 1611SOL    HW1 5732   1.527   3.943   6.992
 1611SOL    HW2 5733   1.375   3.921   6.935
 1612SOL     OW 5734   4.212   1.201   2.540
 1612SOL    HW1 5735   4.255   1.291   2.530
 1612SOL    HW2 5736   4.190   1.164   2.450
 1613SOL     OW 5737   7.020   5.351   2.799
 1613SOL    HW1 5738   0.036   5.430   2.754
 1613SOL    HW2 5739   0.064   5.309   2.859
 1614SOL     OW 5740   6.516   1.256   6.090
 1614SOL    HW1 5741   6.471   1.336   6.131
 1614SOL    HW2 5742   6.581   1.287   6.021
 1615SOL     OW 5743   7.018   3.895   5.664
 1615SOL    HW1 5744   0.043   3.951   5.730
 1615SOL    HW2 5745   0.058   3.849   5.604
 1616SOL     OW 5746   0.577   0.469   3.980
 1616SOL    HW1 5747   0.559   0.413   4.061
 1616SOL    HW2 5748   0.586   0.565   4.007
 1617SOL     OW 5749   6.928   5.417   3.912
 1617SOL    HW1 5750   6.942   5.516   3.918
 1617SOL    HW2 5751   6.994   5.377   3.849
 1618SOL     OW 5752   3.700   5.322   2.775
 1618SOL    HW1 5753   3.642   5.394   2.736
 1618SOL    HW2 5754   3.642   5.248   2.809
 1619SOL     OW 5755   0.810   4.458   6.628
 1619SOL    HW1 5756   0.822   4.373   6.679
 1619SOL    HW2 5757   0.892   4.478   6.575
 1620SOL     OW 5758   3.320   6.717   3.891
 1620SOL    HW1 5759   3.393   6.750   3.832
 1620SOL    HW2 5760   3.348   6.725   3.987
 1621SOL     OW 5761   4.719   5.531   0.761
 1621SOL    HW1 5762   4.643   5.523   0.696
 1621SOL    HW2 5763   4.716   5.620   0.805
 1622SOL     OW 5764   6.306   4.613   4.306
 1622SOL    HW1 5765   6.394   4.571   4.327
 1622SOL    HW2 5766   6.280   4.592   4.212
 1623SOL     OW 5767   0.315   2.501   3.292
 1623SOL    HW1 5768   0.375   2.452   3.355
 1623SOL    HW2 5769   0.267   2.435   3.234
 1624SOL     OW 5770   3.886   3.144   0.647
 1624SOL    HW1 5771   3.799   3.147   0.696
 1624SOL    HW2 5772   3.875   3.094   0.561
 1625SOL     OW 5773   0.437   6.540   0.230
 1625SOL    HW1 5774   0.364   6.544   0.162
 1625SOL    HW2 5775   0.397   6.538   0.322
 1626SOL     OW 5776   2.260   1.769   1.739
 1626SOL    HW1 5777   2.313   1.764   1.824
 1626SOL    HW2 5778   2.322   1.779   1.661
 1627SOL     OW 5779   3.962   2.170   5.880
 1627SOL    HW1 5780   3.871   2.207   5.857
 1627SOL    HW2 5781   3.957   2.120   5.966
 1628SOL     OW 5782   5.463   6.864   0.866
 1628SOL    HW1 5783   5.560   6.847   0.887
 1628SOL    HW2 5784   5.415   6.889   0.950
 1629SOL     OW 5785   1.607   0.280   3.700
 1629SOL    HW1 5786   1.700   0.303   3.672
 1629SOL    HW2 5787   1.584   0.328   3.785
 1630SOL     OW 5788   0.535   3.696   6.028
 1630SOL    HW1 5789   0.485   3.616   5.996
 1630SOL    HW2 5790   0.631   3.671   6.041
 1631SOL     OW 5791   5.727   3.178   0.627
 1631SOL    HW1 5792   5.718   3.262   0.573
 1631SOL    HW2 5793   5.751   3.200   0.721
 1632SOL     OW 5794   6.593   6.011   2.295
 1632SOL    HW1 5795   6.541   6.035   2.377
 1632SOL    HW2 5796   6.691   6.013   2.316
 1633SOL     OW 5797   5.127   3.647   4.547
 1633SOL    HW1 5798   5.134   3.558   4.500
 1633SOL    HW2 5799   5.041   3.691   4.520
 1634SOL     OW 5800   0.948   3.297   5.985
 1634SOL    HW1 5801   1.002   3.376   5.956
 1634SOL    HW2 5802   0.999   3.245   6.053
 1635SOL     OW 5803   3.346   0.054   3.620
 1635SOL    HW1 5804   3.290   0.088   3.696
 1635SOL    HW2 5805   3.433   0.102   3.618
 1636SOL     OW 5806   6.554   5.671   1.037
 1636SOL    HW1 5807   6.478   5.708   1.089
 1636SOL    HW2 5808   6.545   5.698   0.941
 1637SOL     OW 5809   1.742   1.488   2.643
 1637SOL    HW1 5810   1.701   1.557   2.584
 1637SOL    HW2 5811   1.714   1.397   2.613
 1638SOL     OW 5812   5.326   2.352   2.234
 1638SOL    HW1 5813   5.310   2.419   2.162
 1638SOL    HW2 5814   5.269   2.376   2.314
 1639SOL     OW 5815   5.064   2.382   1.962
 1639SOL    HW1 5816   5.025   2.474   1.974
 1639SOL    HW2 5817   5.013   2.317   2.019
 1640SOL     OW 5818   5.720   0.915   6.661
 1640SOL    HW1 5819   5.730   0.967   6.745
 1640SOL    HW2 5820   5.777   0.955   6.589
 1641SOL     OW 5821   6.337   1.619   2.717
 1641SOL    HW1 5822   6.310   1.558   2.642
 1641SOL    HW2 5823   6.271   1.613   2.792
 1642SOL     OW 5824   0.090   3.290   6.238
 1642SOL    HW1 5825   0.057   3.252   6.152
 1642SOL    HW2 5826   0.141   3.220   6.288
 1643SOL     OW 5827   1.926   5.815   3.735
 1643SOL    HW1 5828   1.966   5.824   3.826
 1643SOL    HW2 5829   1.827   5.804   3.742
 1644SOL     OW 5830   6.429   2.067   1.872
 1644SOL    HW1 5831   6.402   2.125   1.949
 1644SOL    HW2 5832   6.413   2.115   1.786
 1645SOL     OW 5833   2.426   0.663   5.200
 1645SOL    HW1 5834   2.451   0.730   5.269
 1645SOL    HW2 5835   2.505   0.605   5.180
 1646SOL     OW 5836   1.034   5.338   1.193
 1646SOL    HW1 5837   1.134   5.328   1.200
 1646SOL    HW2 5838   0.991   5.252   1.219
 1647SOL     OW 5839   5.995   2.869   4.551
 1647SOL    HW1 5840   6.018   2.774   4.573
 1647SOL    HW2 5841   6.079   2.922   4.542
 1648SOL     OW 5842   5.865   5.924   2.016
 1648SOL    HW1 5843   5.914   5.922   1.928
 1648SOL    HW2 5844   5.814   5.839   2.027
 1649SOL     OW 5845   3.831   1.694   3.384
 1649SOL    HW1 5846   3.769   1.701   3.463
 1649SOL    HW2 5847   3.784   1.650   3.308
 1650SOL     OW 5848   3.085   2.989   5.687
 1650SOL    HW1 5849   3.070   3.002   5.589
 1650SOL    HW2 5850   3.102   3.077   5.730
 1651SOL     OW 5851   0.935   2.123   3.659
 1651SOL    HW1 5852   0.883   2.167   3.586
 1651SOL    HW2 5853   0.958   2.030   3.632
 1652SOL     OW 5854   0.481   3.827   1.655
 1652SOL    HW1 5855   0.552   3.757   1.658
 1652SOL    HW2 5856   0.505   3.895   1.586
 1653SOL     OW 5857   0.521   4.482   2.007
 1653SOL    HW1 5858   0.474   4.403   1.968
 1653SOL    HW2 5859   0.591   4.451   2.071
 1654SOL     OW 5860   0.245   3.733   1.803
 1654SOL    HW1 5861   0.291   3.645   1.814
 1654SOL    HW2 5862   0.292   3.786   1.733
 1655SOL     OW 5863   0.634   0.857   5.897
 1655SOL    HW1 5864   0.676   0.766   5.897
 1655SOL    HW2 5865   0.675   0.912   5.970
 1656SOL     OW 5866   2.263   3.989   3.467
 1656SOL    HW1 5867   2.259   4.009   3.369
 1656SOL    HW2 5868   2.263   4.074   3.519
 1657SOL     OW 5869   0.559   0.362   5.578
 1657SOL    HW1 5870   0.585   0.323   5.489
 1657SOL    HW2 5871   0.460   0.356   5.589
 1658SOL     OW 5872   4.948   6.451   6.280
 1658SOL    HW1 5873   4.885   6.374   6.276
 1658SOL    HW2 5874   4.949   6.498   6.192
 1659SOL     OW 5875   4.312   6.760   5.652
 1659SOL    HW1 5876   4.342   6.738   5.745
 1659SOL    HW2 5877   4.350   6.848   5.624
 1660SOL     OW 5878   2.135   0.469   1.991
 1660SOL    HW1 5879   2.109   0.520   2.073
 1660SOL    HW2 5880   2.158   0.533   1.918
 1661SOL     OW 5881   4.775   4.006   2.751
 1661SOL    HW1 5882   4.773   3.916   2.707
 1661SOL    HW2 5883   4.779   4.077   2.681
 1662SOL     OW 5884   0.402   1.920   3.830
 1662SOL    HW1 5885   0.423   1.862   3.752
 1662SOL    HW2 5886   0.303   1.934   3.835
 1663SOL     OW 5887   5.229   4.144   1.225
 1663SOL    HW1 5888   5.266   4.222   1.174
 1663SOL    HW2 5889   5.260   4.148   1.320
 1664SOL     OW 5890   1.757   0.444   6.044
 1664SOL    HW1 5891   1.666   0.405   6.028
 1664SOL    HW2 5892   1.758   0.492   6.131
 1665SOL     OW 5893   2.863   4.394   6.534
 1665SOL    HW1 5894   2.949   4.361   6.494
 1665SOL    HW2 5895   2.818   4.318   6.582
 1666SOL     OW 5896   5.031   6.715   6.551
 1666SOL    HW1 5897   5.066   6.774   6.478
 1666SOL    HW2 5898   5.107   6.672   6.599
 1667SOL     OW 5899   0.136   5.423   0.594
 1667SOL    HW1 5900   0.155   5.501   0.534
 1667SOL    HW2 5901   0.107   5.345   0.539
 1668SOL     OW 5902   5.929   2.883   2.116
 1668SOL    HW1 5903   6.012   2.937   2.126
 1668SOL    HW2 5904   5.916   2.862   2.019
 1669SOL     OW 5905   6.834   2.951   5.687
 1669SOL    HW1 5906   6.841   2.934   5.589
 1669SOL    HW2 5907   6.843   2.865   5.736
 1670SOL     OW 5908   3.129   4.515   5.621
 1670SOL    HW1 5909   3.111   4.545   5.527
 1670SOL    HW2 5910   3.092   4.582   5.685
 1671SOL     OW 5911   5.888   2.538   0.399
 1671SOL    HW1 5912   5.861   2.627   0.436
 1671SOL    HW2 5913   5.947   2.491   0.464
 1672SOL     OW 5914   0.236   2.186   1.280
 1672SOL    HW1 5915   0.283   2.200   1.367
 1672SOL    HW2 5916   0.240   2.270   1.226
 1673SOL     OW 5917   1.116   0.533   4.692
 1673SOL    HW1 5918   1.191   0.471   4.667
 1673SOL    HW2 5919   1.152   0.627   4.700
 1674SOL     OW 5920   4.943   2.334   2.600
 1674SOL    HW1 5921   4.941   2.371   2.692
 1674SOL    HW2 5922   4.856   2.289   2.580
 1675SOL     OW 5923   5.059   0.394   1.746
 1675SOL    HW1 5924   4.982   0.409   1.807
 1675SOL    HW2 5925   5.032   0.331   1.672
 1676SOL     OW 5926   0.936   2.214   3.917
 1676SOL    HW1 5927   0.934   2.173   3.825
 1676SOL    HW2 5928   1.030   2.236   3.941
 1677SOL     OW 5929   3.599   3.135   3.104
 1677SOL    HW1 5930   3.586   3.219   3.157
 1677SOL    HW2 5931   3.558   3.058   3.153
 1678SOL     OW 5932   1.194   0.535   0.393
 1678SOL    HW1 5933   1.106   0.504   0.430
 1678SOL    HW2 5934   1.248   0.456   0.366
 1679SOL     OW 5935   6.479   1.247   6.869
 1679SOL    HW1 5936   6.552   1.194   6.826
 1679SOL    HW2 5937   6.437   1.307   6.801
 1680SOL     OW 5938   5.656   2.751   2.941
 1680SOL    HW1 5939   5.616   2.705   3.021
 1680SOL    HW2 5940   5.587   2.812   2.901
 1681SOL     OW 5941   3.737   6.249   4.528
 1681SOL    HW1 5942   3.792   6.276   4.449
 1681SOL    HW2 5943   3.789   6.267   4.612
 1682SOL     OW 5944   3.960   0.433   4.564
 1682SOL    HW1 5945   3.945   0.402   4.658
 1682SOL    HW2 5946   3.955   0.533   4.561
 1683SOL     OW 5947   6.622   2.871   3.047
 1683SOL    HW1 5948   6.617   2.913   3.137
 1683SOL    HW2 5949   6.701   2.909   2.998
 1684SOL     OW 5950   2.810   5.152   1.496
 1684SOL    HW1 5951   2.767   5.128   1.583
 1684SOL    HW2 5952   2.809   5.072   1.435
 1685SOL     OW 5953   6.943   1.339   5.663
 1685SOL    HW1 5954   7.023   1.333   5.604
 1685SOL    HW2 5955   6.895   1.425   5.645
 1686SOL     OW 5956   3.987   5.422   2.406
 1686SOL    HW1 5957   3.906   5.472   2.436
 1686SOL    HW2 5958   4.058   5.488   2.380
 1687SOL     OW 5959   5.078   4.343   0.841
 1687SOL    HW1 5960   5.132   4.416   0.799
 1687SOL    HW2 5961   4.995   4.328   0.787
 1688SOL     OW 5962   2.104   0.509   3.623
 1688SOL    HW1 5963   2.152   0.543   3.704
 1688SOL    HW2 5964   2.136   0.558   3.542
 1689SOL     OW 5965   4.242   0.691   1.931
 1689SOL    HW1 5966   4.177   0.663   2.002
 1689SOL    HW2 5967   4.195   0.697   1.843
 1690SOL     OW 5968   6.807   4.908   4.248
 1690SOL    HW1 5969   6.852   4.931   4.161
 1690SOL    HW2 5970   6.781   4.992   4.295
 1691SOL     OW 5971   4.262   2.766   5.354
 1691SOL    HW1 5972   4.341   2.711   5.377
 1691SOL    HW2 5973   4.198   2.712   5.299
 1692SOL     OW 5974   5.247   4.993   1.617
 1692SOL    HW1 5975   5.223   5.090   1.621
 1692SOL    HW2 5976   5.248   4.962   1.522
 1693SOL     OW 5977   5.019   6.957   6.180
 1693SOL    HW1 5978   5.045   0.006   6.119
 1693SOL    HW2 5979   5.063   6.969   6.269
 1694SOL     OW 5980   4.707   1.746   6.434
 1694SOL    HW1 5981   4.699   1.802   6.517
 1694SOL    HW2 5982   4.771   1.671   6.450
 1695SOL     OW 5983   4.127   0.622   5.727
 1695SOL    HW1 5984   4.226   0.620   5.714
 1695SOL    HW2 5985   4.085   0.544   5.681
 1696SOL     OW 5986   4.002   6.755   0.742
 1696SOL    HW1 5987   4.097   6.740   0.769
 1696SOL    HW2 5988   3.997   6.777   0.645
 1697SOL     OW 5989   4.525   2.749   1.784
 1697SOL    HW1 5990   4.583   2.674   1.813
 1697SOL    HW2 5991   4.567   2.836   1.811
 1698SOL     OW 5992   4.495   1.485   1.477
 1698SOL    HW1 5993   4.487   1.579   1.442
 1698SOL    HW2 5994   4.550   1.485   1.560
 1699SOL     OW 5995   1.835   0.512   0.842
 1699SOL    HW1 5996   1.818   0.578   0.769
 1699SOL    HW2 5997   1.933   0.508   0.861
 1700SOL     OW 5998   5.277   3.323   2.687
 1700SOL    HW1 5999   5.191   3.275   2.705
 1700SOL    HW2 6000   5.263   3.391   2.615
 1701SOL     OW 6001   0.448   5.505   4.973
 1701SOL    HW1 6002   0.500   5.578   4.928
 1701SOL    HW2 6003   0.358   5.496   4.930
 1702SOL     OW 6004   2.416   2.956   6.740
 1702SOL    HW1 6005   2.415   2.878   6.802
 1702SOL    HW2 6006   2.349   2.941   6.667
 1703SOL     OW 6007   1.078   2.101   1.814
 1703SOL    HW1 6008   1.099   2.145   1.902
 1703SOL    HW2 6009   1.163   2.070   1.772
 1704SOL     OW 6010   2.726   2.937   0.021
 1704SOL    HW1 6011   2.788   2.960   0.097
 1704SOL    HW2 6012   2.639   2.984   0.034
 1705SOL     OW 6013   4.564   3.208   0.588
 1705SOL    HW1 6014   4.650   3.167   0.616
 1705SOL    HW2 6015   4.573   3.248   0.497
 1706SOL     OW 6016   6.028   1.819   6.498
 1706SOL    HW1 6017   6.079   1.844   6.580
 1706SOL    HW2 6018   5.945   1.770   6.524
 1707SOL     OW 6019   3.892   1.369   2.075
 1707SOL    HW1 6020   3.950   1.377   1.994
 1707SOL    HW2 6021   3.946   1.388   2.157
 1708SOL     OW 6022   2.791   4.740   2.115
 1708SOL    HW1 6023   2.805   4.672   2.042
 1708SOL    HW2 6024   2.871   4.800   2.120
 1709SOL     OW 6025   5.121   4.874   0.904
 1709SOL    HW1 6026   5.147   4.932   0.828
 1709SOL    HW2 6027   5.121   4.927   0.989
 1710SOL     OW 6028   4.926   3.383   2.388
 1710SOL    HW1 6029   4.861   3.412   2.459
 1710SOL    HW2 6030   4.940   3.284   2.395
 1711SOL     OW 6031   4.118   5.602   0.371
 1711SOL    HW1 6032   4.018   5.601   0.374
 1711SOL    HW2 6033   4.154   5.550   0.449
 1712SOL     OW 6034   0.517   1.882   2.120
 1712SOL    HW1 6035   0.498   1.798   2.170
 1712SOL    HW2 6036   0.557   1.859   2.031
 1713SOL     OW 6037   2.773   1.824   2.662
 1713SOL    HW1 6038   2.860   1.808   2.615
 1713SOL    HW2 6039   2.756   1.750   2.727
 1714SOL     OW 6040   2.793   4.087   1.171
 1714SOL    HW1 6041   2.872   4.139   1.138
 1714SOL    HW2 6042   2.817   4.040   1.256
 1715SOL     OW 6043   0.890   5.907   0.708
 1715SOL    HW1 6044   0.979   5.875   0.677
 1715SOL    HW2 6045   0.827   5.829   0.715
 1716SOL     OW 6046   4.656   1.245   2.875
 1716SOL    HW1 6047   4.728   1.222   2.809
 1716SOL    HW2 6048   4.627   1.340   2.861
 1717SOL     OW 6049   3.727   6.291   3.462
 1717SOL    HW1 6050   3.652   6.259   3.520
 1717SOL    HW2 6051   3.722   6.246   3.373
 1718SOL     OW 6052   1.854   3.453   1.380
 1718SOL    HW1 6053   1.789   3.528   1.384
 1718SOL    HW2 6054   1.929   3.471   1.443
 1719SOL     OW 6055   1.697   5.728   3.107
 1719SOL    HW1 6056   1.756   5.746   3.028
 1719SOL    HW2 6057   1.609   5.692   3.076
 1720SOL     OW 6058   0.796   3.308   5.416
 1720SOL    HW1 6059   0.821   3.214   5.441
 1720SOL    HW2 6060   0.824   3.371   5.488
 1721SOL     OW 6061   1.782   2.717   0.380
 1721SOL    HW1 6062   1.850   2.765   0.325
 1721SOL    HW2 6063   1.694   2.762   0.371
 1722SOL     OW 6064   2.106   2.325   3.601
 1722SOL    HW1 6065   2.066   2.295   3.514
 1722SOL    HW2 6066   2.043   2.303   3.676
 1723SOL     OW 6067   5.562   4.248   1.281
 1723SOL    HW1 6068   5.511   4.281   1.360
 1723SOL    HW2 6069   5.564   4.319   1.210
 1724SOL     OW 6070   5.010   2.164   0.880
 1724SOL    HW1 6071   4.997   2.262   0.870
 1724SOL    HW2 6072   5.108   2.142   0.882
 1725SOL     OW 6073   2.046   6.786   5.849
 1725SOL    HW1 6074   1.973   6.848   5.821
 1725SOL    HW2 6075   2.007   6.700   5.879
 1726SOL     OW 6076   4.945   4.557   2.791
 1726SOL    HW1 6077   4.982   4.604   2.871
 1726SOL    HW2 6078   4.975   4.461   2.792
 1727SOL     OW 6079   3.378   3.838   2.910
 1727SOL    HW1 6080   3.302   3.884   2.955
 1727SOL    HW2 6081   3.397   3.883   2.823
 1728SOL     OW 6082   5.952   2.375   4.045
 1728SOL    HW1 6083   5.955   2.442   4.119
 1728SOL    HW2 6084   6.033   2.385   3.987
 1729SOL     OW 6085   1.372   2.408   2.413
 1729SOL    HW1 6086   1.457   2.373   2.373
 1729SOL    HW2 6087   1.313   2.332   2.438
 1730SOL     OW 6088   2.466   6.543   4.908
 1730SOL    HW1 6089   2.500   6.496   4.989
 1730SOL    HW2 6090   2.535   6.608   4.876
 1731SOL     OW 6091   5.061   4.621   4.055
 1731SOL    HW1 6092   5.085   4.710   4.095
 1731SOL    HW2 6093   4.963   4.617   4.038
 1732SOL     OW 6094   3.044   3.365   5.328
 1732SOL    HW1 6095   2.947   3.343   5.340
 1732SOL    HW2 6096   3.058   3.403   5.236
 1733SOL     OW 6097   1.802   2.753   6.278
 1733SOL    HW1 6098   1.899   2.731   6.279
 1733SOL    HW2 6099   1.749   2.669   6.264
 1734SOL     OW 6100   7.012   3.158   0.917
 1734SOL    HW1 6101   6.920   3.148   0.954
 1734SOL    HW2 6102   7.008   3.203   0.828
 1735SOL     OW 6103   3.273   5.307   6.570
 1735SOL    HW1 6104   3.293   5.403   6.592
 1735SOL    HW2 6105   3.355   5.265   6.531
 1736SOL     OW 6106   5.210   2.422   6.425
 1736SOL    HW1 6107   5.127   2.476   6.414
 1736SOL    HW2 6108   5.203   2.339   6.369
 1737SOL     OW 6109   3.227   0.825   5.765
 1737SOL    HW1 6110   3.220   0.896   5.835
 1737SOL    HW2 6111   3.199   0.737   5.804
 1738SOL     OW 6112   1.350   3.625   2.150
 1738SOL    HW1 6113   1.409   3.558   2.105
 1738SOL    HW2 6114   1.358   3.713   2.103
 1739SOL     OW 6115   5.077   5.912   3.191
 1739SOL    HW1 6116   5.170   5.891   3.160
 1739SOL    HW2 6117   5.069   5.892   3.288
 1740SOL     OW 6118   6.889   3.378   4.551
 1740SOL    HW1 6119   6.869   3.413   4.459
 1740SOL    HW2 6120   6.964   3.430   4.591
 1741SOL     OW 6121   0.902   2.555   4.864
 1741SOL    HW1 6122   0.955   2.582   4.944
 1741SOL    HW2 6123   0.804   2.560   4.886
 1742SOL     OW 6124   6.735   6.622   0.121
 1742SOL    HW1 6125   6.649   6.576   0.100
 1742SOL    HW2 6126   6.802   6.554   0.153
 1743SOL     OW 6127   1.846   2.533   1.673
 1743SOL    HW1 6128   1.868   2.438   1.651
 1743SOL    HW2 6129   1.873   2.592   1.597
 1744SOL     OW 6130   3.495   2.333   5.647
 1744SOL    HW1 6131   3.427   2.349   5.719
 1744SOL    HW2 6132   3.458   2.365   5.560
 1745SOL     OW 6133   6.452   6.350   0.773
 1745SOL    HW1 6134   6.446   6.292   0.854
 1745SOL    HW2 6135   6.465   6.445   0.801
 1746SOL     OW 6136   2.598   4.554   3.092
 1746SOL    HW1 6137   2.525   4.541   3.158
 1746SOL    HW2 6138   2.559   4.567   3.001
 1747SOL     OW 6139   3.980   0.228   2.207
 1747SOL    HW1 6140   4.063   0.229   2.151
 1747SOL    HW2 6141   4.002   0.264   2.298
 1748SOL     OW 6142   6.754   2.206   4.486
 1748SOL    HW1 6143   6.794   2.294   4.511
 1748SOL    HW2 6144   6.825   2.136   4.482
 1749SOL     OW 6145   6.860   5.348   1.593
 1749SOL    HW1 6146   6.867   5.254   1.626
 1749SOL    HW2 6147   6.948   5.377   1.554
 1750SOL     OW 6148   3.208   0.828   0.575
 1750SOL    HW1 6149   3.280   0.833   0.506
 1750SOL    HW2 6150   3.186   0.920   0.607
 1751SOL     OW 6151   5.457   3.661   4.949
 1751SOL    HW1 6152   5.408   3.613   5.022
 1751SOL    HW2 6153   5.391   3.704   4.887
 1752SOL     OW 6154   0.022   0.919   2.226
 1752SOL    HW1 6155   0.098   0.925   2.291
 1752SOL    HW2 6156   7.019   1.011   2.198
 1753SOL     OW 6157   0.033   2.045   1.387
 1753SOL    HW1 6158   0.101   2.100   1.337
 1753SOL    HW2 6159   6.990   2.009   1.322
 1754SOL     OW 6160   3.218   5.386   3.580
 1754SOL    HW1 6161   3.128   5.429   3.568
 1754SOL    HW2 6162   3.269   5.434   3.651
 1755SOL     OW 6163   6.530   0.334   5.247
 1755SOL    HW1 6164   6.461   0.297   5.310
 1755SOL    HW2 6165   6.621   0.310   5.281
 1756SOL     OW 6166   4.690   5.899   1.092
 1756SOL    HW1 6167   4.603   5.899   1.044
 1756SOL    HW2 6168   4.709   5.807   1.127
 1757SOL     OW 6169   2.659   4.803   5.198
 1757SOL    HW1 6170   2.561   4.788   5.205
 1757SOL    HW2 6171   2.703   4.722   5.158
 1758SOL     OW 6172   1.341   6.229   3.808
 1758SOL    HW1 6173   1.307   6.317   3.840
 1758SOL    HW2 6174   1.313   6.214   3.714
 1759SOL     OW 6175   0.974   5.723   0.404
 1759SOL    HW1 6176   0.962   5.625   0.421
 1759SOL    HW2 6177   0.901   5.755   0.343
 1760SOL     OW 6178   6.366   1.707   4.792
 1760SOL    HW1 6179   6.322   1.708   4.702
 1760SOL    HW2 6180   6.298   1.727   4.862
 1761SOL     OW 6181   5.273   1.377   3.344
 1761SOL    HW1 6182   5.316   1.295   3.379
 1761SOL    HW2 6183   5.176   1.377   3.369
 1762SOL     OW 6184   0.819   1.608   5.894
 1762SOL    HW1 6185   0.786   1.692   5.937
 1762SOL    HW2 6186   0.818   1.620   5.794
 1763SOL     OW 6187   1.359   5.138   3.590
 1763SOL    HW1 6188   1.443   5.165   3.639
 1763SOL    HW2 6189   1.281   5.148   3.651
 1764SOL     OW 6190   0.687   6.022   3.157
 1764SOL    HW1 6191   0.661   6.110   3.197
 1764SOL    HW2 6192   0.702   6.033   3.059
 1765SOL     OW 6193   5.366   4.159   2.068
 1765SOL    HW1 6194   5.374   4.099   1.989
 1765SOL    HW2 6195   5.444   4.145   2.129
 1766SOL     OW 6196   4.661   4.424   4.412
 1766SOL    HW1 6197   4.695   4.346   4.463
 1766SOL    HW2 6198   4.737   4.481   4.384
 1767SOL     OW 6199   0.597   5.146   1.901
 1767SOL    HW1 6200   0.507   5.173   1.866
 1767SOL    HW2 6201   0.620   5.054   1.868
 1768SOL     OW 6202   4.555   4.395   2.430
 1768SOL    HW1 6203   4.574   4.454   2.509
 1768SOL    HW2 6204   4.494   4.322   2.458
 1769SOL     OW 6205   5.248   0.196   1.244
 1769SOL    HW1 6206   5.201   0.185   1.331
 1769SOL    HW2 6207   5.216   0.280   1.199
 1770SOL     OW 6208   1.624   5.263   0.318
 1770SOL    HW1 6209   1.542   5.205   0.314
 1770SOL    HW2 6210   1.704   5.208   0.294
 1771SOL     OW 6211   1.699   3.167   5.850
 1771SOL    HW1 6212   1.725   3.224   5.928
 1771SOL    HW2 6213   1.600   3.155   5.848
 1772SOL     OW 6214   2.118   3.979   2.924
 1772SOL    HW1 6215   2.110   3.902   2.861
 1772SOL    HW2 6216   2.072   4.059   2.885
 1773SOL     OW 6217   2.208   6.099   5.827
 1773SOL    HW1 6218   2.203   6.084   5.729
 1773SOL    HW2 6219   2.278   6.040   5.866
 1774SOL     OW 6220   5.471   5.759   1.431
 1774SOL    HW1 6221   5.453   5.791   1.524
 1774SOL    HW2 6222   5.425   5.672   1.415
 1775SOL     OW 6223   1.490   5.931   0.599
 1775SOL    HW1 6224   1.506   6.025   0.630
 1775SOL    HW2 6225   1.500   5.926   0.500
 1776SOL     OW 6226   4.548   3.462   5.755
 1776SOL    HW1 6227   4.506   3.485   5.667
 1776SOL    HW2 6228   4.641   3.429   5.740
 1777SOL     OW 6229   4.350   6.229   6.846
 1777SOL    HW1 6230   4.289   6.249   6.922
 1777SOL    HW2 6231   4.418   6.302   6.838
 1778SOL     OW 6232   5.847   0.248   3.848
 1778SOL    HW1 6233   5.890   0.231   3.760
 1778SOL    HW2 6234   5.750   0.226   3.843
 1779SOL     OW 6235   5.783   0.491   4.476
 1779SOL    HW1 6236   5.756   0.395   4.475
 1779SOL    HW2 6237   5.805   0.518   4.570
 1780SOL     OW 6238   2.462   6.071   5.592
 1780SOL    HW1 6239   2.489   6.164   5.618
 1780SOL    HW2 6240   2.538   6.026   5.546
 1781SOL     OW 6241   3.767   0.816   5.727
 1781SOL    HW1 6242   3.680   0.816   5.776
 1781SOL    HW2 6243   3.771   0.896   5.667
 1782SOL     OW 6244   4.979   0.893   2.456
 1782SOL    HW1 6245   4.934   0.869   2.370
 1782SOL    HW2 6246   5.070   0.853   2.460
 1783SOL     OW 6247   1.865   4.413   6.498
 1783SOL    HW1 6248   1.845   4.330   6.550
 1783SOL    HW2 6249   1.944   4.397   6.439
 1784SOL     OW 6250   2.555   6.251   1.578
 1784SOL    HW1 6251   2.461   6.243   1.543
 1784SOL    HW2 6252   2.565   6.196   1.660
 1785SOL     OW 6253   1.514   6.527   4.735
 1785SOL    HW1 6254   1.421   6.561   4.742
 1785SOL    HW2 6255   1.519   6.434   4.772
 1786SOL     OW 6256   0.654   6.112   1.563
 1786SOL    HW1 6257   0.625   6.017   1.559
 1786SOL    HW2 6258   0.574   6.172   1.568
 1787SOL     OW 6259   1.827   2.859   5.848
 1787SOL    HW1 6260   1.739   2.841   5.894
 1787SOL    HW2 6261   1.810   2.903   5.760
 1788SOL     OW 6262   4.148   3.729   0.287
 1788SOL    HW1 6263   4.063   3.709   0.239
 1788SOL    HW2 6264   4.226   3.706   0.228
 1789SOL     OW 6265   5.617   2.847   2.034
 1789SOL    HW1 6266   5.602   2.804   1.945
 1789SOL    HW2 6267   5.644   2.942   2.021
 1790SOL     OW 6268   1.749   2.025   4.982
 1790SOL    HW1 6269   1.816   1.956   5.009
 1790SOL    HW2 6270   1.783   2.116   5.005
 1791SOL     OW 6271   4.987   0.351   3.616
 1791SOL    HW1 6272   5.018   0.445   3.602
 1791SOL    HW2 6273   4.952   0.314   3.530
 1792SOL     OW 6274   6.603   2.449   6.627
 1792SOL    HW1 6275   6.589   2.353   6.650
 1792SOL    HW2 6276   6.697   2.463   6.596
 1793SOL     OW 6277   6.782   1.868   5.209
 1793SOL    HW1 6278   6.806   1.822   5.123
 1793SOL    HW2 6279   6.850   1.938   5.228
 1794SOL     OW 6280   0.469   1.666   6.715
 1794SOL    HW1 6281   0.528   1.746   6.724
 1794SOL    HW2 6282   0.496   1.613   6.635
 1795SOL     OW 6283   5.485   5.075   1.017
 1795SOL    HW1 6284   5.544   4.998   1.042
 1795SOL    HW2 6285   5.525   5.124   0.939
 1796SOL     OW 6286   6.086   0.078   0.945
 1796SOL    HW1 6287   6.101   7.004   0.938
 1796SOL    HW2 6288   6.111   0.109   1.037
 1797SOL     OW 6289   2.907   5.945   5.608
 1797SOL    HW1 6290   2.923   5.905   5.518
 1797SOL    HW2 6291   2.914   5.874   5.678
 1798SOL     OW 6292   2.067   3.633   5.224
 1798SOL    HW1 6293   2.042   3.601   5.316
 1798SOL    HW2 6294   2.149   3.689   5.230
 1799SOL     OW 6295   3.070   1.319   2.206
 1799SOL    HW1 6296   3.142   1.350   2.144
 1799SOL    HW2 6297   2.981   1.349   2.173
 1800SOL     OW 6298   6.370   2.984   6.042
 1800SOL    HW1 6299   6.432   2.906   6.034
 1800SOL    HW2 6300   6.384   3.030   6.129
 1801SOL     OW 6301   0.363   1.144   2.959
 1801SOL    HW1 6302   0.424   1.075   3.000
 1801SOL    HW2 6303   0.286   1.098   2.915
 1802SOL     OW 6304   5.907   4.629   3.985
 1802SOL    HW1 6305   5.946   4.716   4.014
 1802SOL    HW2 6306   5.860   4.586   4.062
 1803SOL     OW 6307   6.892   0.077   4.168
 1803SOL    HW1 6308   6.835   7.019   4.164
 1803SOL    HW2 6309   6.836   0.156   4.146
 1804SOL     OW 6310   1.735   2.464   6.179
 1804SOL    HW1 6311   1.641   2.456   6.215
 1804SOL    HW2 6312   1.744   2.404   6.099
 1805SOL     OW 6313   6.389   4.574   0.439
 1805SOL    HW1 6314   6.332   4.518   0.379
 1805SOL    HW2 6315   6.486   4.557   0.418
 1806SOL     OW 6316   0.669   1.779   1.516
 1806SOL    HW1 6317   0.701   1.781   1.421
 1806SOL    HW2 6318   0.605   1.703   1.528
 1807SOL     OW 6319   6.086   2.992   2.826
 1807SOL    HW1 6320   6.087   2.911   2.885
 1807SOL    HW2 6321   6.016   2.980   2.755
 1808SOL     OW 6322   5.649   1.109   6.108
 1808SOL    HW1 6323   5.596   1.115   6.192
 1808SOL    HW2 6324   5.653   1.013   6.078
 1809SOL     OW 6325   5.383   0.512   5.934
 1809SOL    HW1 6326   5.440   0.433   5.911
 1809SOL    HW2 6327   5.316   0.486   6.003
 1810SOL     OW 6328   1.312   1.222   4.507
 1810SOL    HW1 6329   1.282   1.214   4.412
 1810SOL    HW2 6330   1.293   1.136   4.555
 1811SOL     OW 6331   3.068   5.611   2.237
 1811SOL    HW1 6332   3.148   5.552   2.247
 1811SOL    HW2 6333   3.065   5.677   2.312
 1812SOL     OW 6334   4.032   6.840   6.581
 1812SOL    HW1 6335   4.004   6.744   6.591
 1812SOL    HW2 6336   3.950   6.897   6.578
 1813SOL     OW 6337   4.801   3.922   1.797
 1813SOL    HW1 6338   4.742   3.851   1.760
 1813SOL    HW2 6339   4.781   4.009   1.752
 1814SOL     OW 6340   6.508   5.705   0.748
 1814SOL    HW1 6341   6.430   5.664   0.701
 1814SOL    HW2 6342   6.576   5.735   0.682
 1815SOL     OW 6343   6.265   5.008   1.182
 1815SOL    HW1 6344   6.353   5.055   1.180
 1815SOL    HW2 6345   6.202   5.054   1.119
 1816SOL     OW 6346   4.343   5.281   4.771
 1816SOL    HW1 6347   4.258   5.326   4.799
 1816SOL    HW2 6348   4.420   5.331   4.809
 1817SOL     OW 6349   6.994   2.768   3.743
 1817SOL    HW1 6350   0.069   2.768   3.757
 1817SOL    HW2 6351   6.974   2.763   3.646
 1818SOL     OW 6352   2.386   1.356   0.648
 1818SOL    HW1 6353   2.377   1.377   0.551
 1818SOL    HW2 6354   2.439   1.428   0.693
 1819SOL     OW 6355   0.902   4.464   1.771
 1819SOL    HW1 6356   0.881   4.374   1.809
 1819SOL    HW2 6357   0.861   4.472   1.680
 1820SOL     OW 6358   4.050   0.261   4.859
 1820SOL    HW1 6359   3.989   0.183   4.842
 1820SOL    HW2 6360   4.016   0.312   4.938
 1821SOL     OW 6361   3.513   1.260   2.512
 1821SOL    HW1 6362   3.575   1.211   2.573
 1821SOL    HW2 6363   3.429   1.282   2.561
 1822SOL     OW 6364   1.502   3.868   4.109
 1822SOL    HW1 6365   1.545   3.958   4.107
 1822SOL    HW2 6366   1.404   3.877   4.090
 1823SOL     OW 6367   3.989   6.960   3.200
 1823SOL    HW1 6368   3.952   0.024   3.174
 1823SOL    HW2 6369   3.960   6.938   3.294
 1824SOL     OW 6370   4.370   3.093   1.764
 1824SOL    HW1 6371   4.407   3.175   1.721
 1824SOL    HW2 6372   4.444   3.041   1.805
 1825SOL     OW 6373   0.897   3.825   6.744
 1825SOL    HW1 6374   0.864   3.895   6.680
 1825SOL    HW2 6375   0.946   3.870   6.819
 1826SOL     OW 6376   3.793   2.449   0.670
 1826SOL    HW1 6377   3.788   2.449   0.570
 1826SOL    HW2 6378   3.889   2.452   0.699
 1827SOL     OW 6379   5.375   4.522   0.406
 1827SOL    HW1 6380   5.377   4.582   0.326
 1827SOL    HW2 6381   5.464   4.478   0.416
 1828SOL     OW 6382   2.247   4.957   4.513
 1828SOL    HW1 6383   2.170   5.000   4.561
 1828SOL    HW2 6384   2.270   4.871   4.558
 1829SOL     OW 6385   2.354   6.093   2.060
 1829SOL    HW1 6386   2.370   6.183   2.099
 1829SOL    HW2 6387   2.274   6.097   1.999
 1830SOL     OW 6388   4.602   1.330   6.254
 1830SOL    HW1 6389   4.521   1.368   6.299
 1830SOL    HW2 6390   4.591   1.231   6.241
 1831SOL     OW 6391   3.564   4.573   0.278
 1831SOL    HW1 6392   3.552   4.668   0.249
 1831SOL    HW2 6393   3.477   4.538   0.312
 1832SOL     OW 6394   1.670   3.637   5.536
 1832SOL    HW1 6395   1.667   3.559   5.598
 1832SOL    HW2 6396   1.687   3.605   5.443
 1833SOL     OW 6397   5.819   0.752   0.042
 1833SOL    HW1 6398   5.916   0.732   0.030
 1833SOL    HW2 6399   5.783   0.696   0.116
 1834SOL     OW 6400   0.966   3.605   6.395
 1834SOL    HW1 6401   0.901   3.679   6.413
 1834SOL    HW2 6402   1.022   3.589   6.476
 1835SOL     OW 6403   6.720   6.779   1.346
 1835SOL    HW1 6404   6.703   6.686   1.376
 1835SOL    HW2 6405   6.787   6.823   1.406
 1836SOL     OW 6406   5.674   1.647   2.689
 1836SOL    HW1 6407   5.642   1.608   2.775
 1836SOL    HW2 6408   5.610   1.719   2.659
 1837SOL     OW 6409   2.012   2.319   0.168
 1837SOL    HW1 6410   2.035   2.298   0.263
 1837SOL    HW2 6411   2.067   2.263   0.107
 1838SOL     OW 6412   4.743   0.316   0.573
 1838SOL    HW1 6413   4.680   0.294   0.499
 1838SOL    HW2 6414   4.755   0.237   0.632
 1839SOL     OW 6415   6.538   0.451   6.826
 1839SOL    HW1 6416   6.481   0.400   6.891
 1839SOL    HW2 6417   6.491   0.458   6.739
 1840SOL     OW 6418   4.014   0.046   4.591
 1840SOL    HW1 6419   4.106   0.082   4.605
 1840SOL    HW2 6420   3.970   0.095   4.515
 1841SOL     OW 6421   1.504   0.796   1.504
 1841SOL    HW1 6422   1.582   0.735   1.517
 1841SOL    HW2 6423   1.499   0.825   1.409
 1842SOL     OW 6424   6.916   5.110   1.738
 1842SOL    HW1 6425   6.861   5.138   1.816
 1842SOL    HW2 6426   7.013   5.121   1.760
 1843SOL     OW 6427   2.522   1.275   6.985
 1843SOL    HW1 6428   2.462   1.288   6.906
 1843SOL    HW2 6429   2.614   1.309   6.962
 1844SOL     OW 6430   5.362   2.975   6.516
 1844SOL    HW1 6431   5.391   2.979   6.420
 1844SOL    HW2 6432   5.400   2.893   6.559
 1845SOL     OW 6433   0.877   2.323   4.234
 1845SOL    HW1 6434   0.840   2.363   4.318
 1845SOL    HW2 6435   0.851   2.227   4.228
 1846SOL     OW 6436   3.161   1.138   1.504
 1846SOL    HW1 6437   3.254   1.102   1.498
 1846SOL    HW2 6438   3.152   1.195   1.586
 1847SOL     OW 6439   2.102   5.974   6.401
 1847SOL    HW1 6440   2.138   5.882   6.390
 1847SOL    HW2 6441   2.065   5.984   6.493
 1848SOL     OW 6442   4.063   6.287   2.979
 1848SOL    HW1 6443   4.081   6.376   2.938
 1848SOL    HW2 6444   4.026   6.300   3.071
 1849SOL     OW 6445   4.882   3.077   3.063
 1849SOL    HW1 6446   4.926   3.164   3.040
 1849SOL    HW2 6447   4.860   3.028   2.979
 1850SOL     OW 6448   4.362   1.748   0.994
 1850SOL    HW1 6449   4.310   1.758   1.079
 1850SOL    HW2 6450   4.459   1.744   1.014
 1851SOL     OW 6451   0.448   4.804   4.280
 1851SOL    HW1 6452   0.357   4.764   4.273
 1851SOL    HW2 6453   0.460   4.844   4.370
 1852SOL     OW 6454   0.245   6.459   3.673
 1852SOL    HW1 6455   0.320   6.496   3.727
 1852SOL    HW2 6456   0.189   6.533   3.637
 1853SOL     OW 6457   0.838   1.858   5.679
 1853SOL    HW1 6458   0.935   1.881   5.690
 1853SOL    HW2 6459   0.829   1.761   5.656
 1854SOL     OW 6460   0.019   0.209   3.859
 1854SOL    HW1 6461   0.052   0.300   3.883
 1854SOL    HW2 6462   0.073   0.140   3.907
 1855SOL     OW 6463   6.166   1.990   4.817
 1855SOL    HW1 6464   6.115   1.938   4.748
 1855SOL    HW2 6465   6.257   2.012   4.782
 1856SOL     OW 6466   5.020   3.791   7.013
 1856SOL    HW1 6467   4.929   3.812   6.978
 1856SOL    HW2 6468   5.034   3.692   7.012
 1857SOL     OW 6469   4.115   1.312   6.521
 1857SOL    HW1 6470   4.113   1.212   6.508
 1857SOL    HW2 6471   4.029   1.341   6.564
 1858SOL     OW 6472   5.174   2.227   5.068
 1858SOL    HW1 6473   5.194   2.130   5.060
 1858SOL    HW2 6474   5.151   2.249   5.163
 1859SOL     OW 6475   6.883   0.319   2.950
 1859SOL    HW1 6476   6.948   0.244   2.964
 1859SOL    HW2 6477   6.904   0.366   2.864
 1860SOL     OW 6478   2.599   1.393   6.107
 1860SOL    HW1 6479   2.674   1.385   6.173
 1860SOL    HW2 6480   2.629   1.359   6.018
 1861SOL     OW 6481   6.076   6.490   5.288
 1861SOL    HW1 6482   5.994   6.436   5.273
 1861SOL    HW2 6483   6.154   6.445   5.244
 1862SOL     OW 6484   3.071   5.821   6.099
 1862SOL    HW1 6485   3.008   5.787   6.028
 1862SOL    HW2 6486   3.068   5.760   6.178
 1863SOL     OW 6487   0.071   1.988   1.661
 1863SOL    HW1 6488   0.078   2.014   1.564
 1863SOL    HW2 6489   0.162   1.966   1.696
 1864SOL     OW 6490   2.287   6.377   1.714
 1864SOL    HW1 6491   2.320   6.379   1.619
 1864SOL    HW2 6492   2.358   6.411   1.775
 1865SOL     OW 6493   6.252   2.373   5.771
 1865SOL    HW1 6494   6.325   2.307   5.753
 1865SOL    HW2 6495   6.180   2.363   5.703
 1866SOL     OW 6496   7.022   4.261   3.995
 1866SOL    HW1 6497   7.001   4.345   3.945
 1866SOL    HW2 6498   0.092   4.233   3.976
 1867SOL     OW 6499   0.954   1.448   1.721
 1867SOL    HW1 6500   0.877   1.384   1.718
 1867SOL    HW2 6501   1.032   1.409   1.671
 1868SOL     OW 6502   5.441   4.053   6.461
 1868SOL    HW1 6503   5.404   3.977   6.407
 1868SOL    HW2 6504   5.541   4.056   6.451
 1869SOL     OW 6505   5.266   0.824   5.652
 1869SOL    HW1 6506   5.285   0.726   5.652
 1869SOL    HW2 6507   5.173   0.840   5.618
 1870SOL     OW 6508   5.810   0.207   6.173
 1870SOL    HW1 6509   5.826   0.305   6.182
 1870SOL    HW2 6510   5.880   0.167   6.114
 1871SOL     OW 6511   0.596   5.976   7.013
 1871SOL    HW1 6512   0.501   5.950   6.994
 1871SOL    HW2 6513   0.655   5.938   6.942
 1872SOL     OW 6514   2.718   3.198   0.964
 1872SOL    HW1 6515   2.664   3.282   0.966
 1872SOL    HW2 6516   2.763   3.189   0.875
 1873SOL     OW 6517   6.104   0.947   1.923
 1873SOL    HW1 6518   6.149   1.031   1.952
 1873SOL    HW2 6519   6.166   0.869   1.938
 1874SOL     OW 6520   1.219   6.167   6.291
 1874SOL    HW1 6521   1.270   6.246   6.324
 1874SOL    HW2 6522   1.277   6.114   6.229
 1875SOL     OW 6523   0.557   6.329   2.249
 1875SOL    HW1 6524   0.501   6.392   2.195
 1875SOL    HW2 6525   0.626   6.381   2.300
 1876SOL     OW 6526   0.899   4.574   0.831
 1876SOL    HW1 6527   0.834   4.569   0.755
 1876SOL    HW2 6528   0.974   4.510   0.815
 1877SOL     OW 6529   1.325   1.261   2.736
 1877SOL    HW1 6530   1.238   1.237   2.692
 1877SOL    HW2 6531   1.395   1.270   2.666
 1878SOL     OW 6532   5.249   3.651   4.114
 1878SOL    HW1 6533   5.194   3.571   4.137
 1878SOL    HW2 6534   5.270   3.702   4.198
 1879SOL     OW 6535   4.265   6.628   4.929
 1879SOL    HW1 6536   4.249   6.613   4.832
 1879SOL    HW2 6537   4.289   6.723   4.945
 1880SOL     OW 6538   1.059   2.266   4.460
 1880SOL    HW1 6539   1.099   2.311   4.380
 1880SOL    HW2 6540   1.004   2.187   4.430
 1881SOL     OW 6541   1.932   1.127   4.156
 1881SOL    HW1 6542   1.968   1.046   4.109
 1881SOL    HW2 6543   2.005   1.194   4.169
 1882SOL     OW 6544   2.656   5.489   0.559
 1882SOL    HW1 6545   2.726   5.516   0.624
 1882SOL    HW2 6546   2.632   5.568   0.502
 1883SOL     OW 6547   2.267   2.845   2.817
 1883SOL    HW1 6548   2.270   2.888   2.727
 1883SOL    HW2 6549   2.322   2.762   2.816
 1884SOL     OW 6550   5.230   0.298   0.507
 1884SOL    HW1 6551   5.257   0.342   0.593
 1884SOL    HW2 6552   5.260   0.202   0.508
 1885SOL     OW 6553   0.142   1.172   0.474
 1885SOL    HW1 6554   0.111   1.182   0.568
 1885SOL    HW2 6555   0.219   1.234   0.458
 1886SOL     OW 6556   3.693   2.603   5.513
 1886SOL    HW1 6557   3.636   2.523   5.491
 1886SOL    HW2 6558   3.639   2.668   5.566
 1887SOL     OW 6559   0.708   5.912   4.837
 1887SOL    HW1 6560   0.773   5.904   4.762
 1887SOL    HW2 6561   0.722   5.999   4.885
 1888SOL     OW 6562   1.726   1.846   6.050
 1888SOL    HW1 6563   1.722   1.920   6.117
 1888SOL    HW2 6564   1.637   1.837   6.004
 1889SOL     OW 6565   3.193   2.804   0.302
 1889SOL    HW1 6566   3.156   2.725   0.350
 1889SOL    HW2 6567   3.286   2.822   0.334
 1890SOL     OW 6568   6.017   5.722   6.584
 1890SOL    HW1 6569   5.951   5.712   6.659
 1890SOL    HW2 6570   6.016   5.816   6.551
 1891SOL     OW 6571   5.305   3.392   0.007
 1891SOL    HW1 6572   5.322   3.409   0.104
 1891SOL    HW2 6573   5.307   3.479   6.982
 1892SOL     OW 6574   4.037   0.266   2.976
 1892SOL    HW1 6575   4.069   0.360   2.964
 1892SOL    HW2 6576   4.110   0.210   3.016
 1893SOL     OW 6577   3.015   1.121   6.466
 1893SOL    HW1 6578   3.061   1.076   6.542
 1893SOL    HW2 6579   3.001   1.218   6.488
 1894SOL     OW 6580   4.790   3.164   0.734
 1894SOL    HW1 6581   4.757   3.171   0.828
 1894SOL    HW2 6582   4.837   3.249   0.709
 1895SOL     OW 6583   4.530   5.739   3.062
 1895SOL    HW1 6584   4.461   5.792   3.111
 1895SOL    HW2 6585   4.620   5.755   3.103
 1896SOL     OW 6586   6.514   2.109   5.019
 1896SOL    HW1 6587   6.457   2.135   4.941
 1896SOL    HW2 6588   6.609   2.098   4.989
 1897SOL     OW 6589   5.093   4.992   2.959
 1897SOL    HW1 6590   5.108   5.067   2.896
 1897SOL    HW2 6591   5.181   4.958   2.992
 1898SOL     OW 6592   5.775   6.624   6.985
 1898SOL    HW1 6593   5.801   6.656   6.893
 1898SOL    HW2 6594   5.742   6.530   6.979
 1899SOL     OW 6595   2.181   2.748   3.574
 1899SOL    HW1 6596   2.192   2.799   3.659
 1899SOL    HW2 6597   2.150   2.810   3.502
 1900SOL     OW 6598   2.179   5.781   1.835
 1900SOL    HW1 6599   2.257   5.788   1.897
 1900SOL    HW2 6600   2.107   5.844   1.863
 1901SOL     OW 6601   1.214   0.568   5.516
 1901SOL    HW1 6602   1.274   0.626   5.460
 1901SOL    HW2 6603   1.228   0.590   5.612
 1902SOL     OW 6604   1.001   2.864   4.426
 1902SOL    HW1 6605   1.038   2.771   4.432
 1902SOL    HW2 6606   0.910   2.867   4.466
 1903SOL     OW 6607   6.604   4.812   4.078
 1903SOL    HW1 6608   6.522   4.849   4.122
 1903SOL    HW2 6609   6.685   4.850   4.121
 1904SOL     OW 6610   0.427   0.137   4.571
 1904SOL    HW1 6611   0.377   0.086   4.501
 1904SOL    HW2 6612   0.371   0.215   4.601
 1905SOL     OW 6613   6.526   3.122   4.559
 1905SOL    HW1 6614   6.565   3.043   4.607
 1905SOL    HW2 6615   6.582   3.144   4.480
 1906SOL     OW 6616   2.412   6.606   5.640
 1906SOL    HW1 6617   2.317   6.582   5.659
 1906SOL    HW2 6618   2.449   6.658   5.717
 1907SOL     OW 6619   4.339   6.942   3.456
 1907SOL    HW1 6620   4.382   6.854   3.437
 1907SOL    HW2 6621   4.281   6.934   3.538
 1908SOL     OW 6622   4.954   5.740   0.919
 1908SOL    HW1 6623   4.948   5.834   0.884
 1908SOL    HW2 6624   4.973   5.677   0.844
 1909SOL     OW 6625   4.850   5.672   3.625
 1909SOL    HW1 6626   4.855   5.578   3.658
 1909SOL    HW2 6627   4.812   5.672   3.532
 1910SOL     OW 6628   4.787   3.005   4.466
 1910SOL    HW1 6629   4.793   2.924   4.524
 1910SOL    HW2 6630   4.716   2.991   4.397
 1911SOL     OW 6631   0.556   3.188   5.627
 1911SOL    HW1 6632   0.627   3.175   5.695
 1911SOL    HW2 6633   0.577   3.134   5.546
 1912SOL     OW 6634   3.176   5.899   3.269
 1912SOL    HW1 6635   3.131   5.987   3.286
 1912SOL    HW2 6636   3.254   5.912   3.207
 1913SOL     OW 6637   2.048   4.204   5.282
 1913SOL    HW1 6638   2.063   4.129   5.219
 1913SOL    HW2 6639   2.110   4.196   5.360
 1914SOL     OW 6640   4.006   1.441   4.852
 1914SOL    HW1 6641   4.058   1.493   4.783
 1914SOL    HW2 6642   3.918   1.485   4.867
 1915SOL     OW 6643   3.368   0.232   5.449
 1915SOL    HW1 6644   3.335   0.141   5.422
 1915SOL    HW2 6645   3.431   0.223   5.526
 1916SOL     OW 6646   3.352   6.278   2.693
 1916SOL    HW1 6647   3.277   6.272   2.759
 1916SOL    HW2 6648   3.431   6.321   2.737
 1917SOL     OW 6649   3.167   4.004   4.374
 1917SOL    HW1 6650   3.151   3.912   4.339
 1917SOL    HW2 6651   3.169   4.068   4.298
 1918SOL     OW 6652   6.862   6.357   5.492
 1918SOL    HW1 6653   6.939   6.412   5.527
 1918SOL    HW2 6654   6.845   6.281   5.554
 1919SOL     OW 6655   6.338   0.644   2.281
 1919SOL    HW1 6656   6.333   0.548   2.254
 1919SOL    HW2 6657   6.427   0.662   2.324
 1920SOL     OW 6658   6.450   5.936   4.605
 1920SOL    HW1 6659   6.435   6.027   4.643
 1920SOL    HW2 6660   6.439   5.868   4.677
 1921SOL     OW 6661   2.223   6.763   6.821
 1921SOL    HW1 6662   2.178   6.850   6.843
 1921SOL    HW2 6663   2.321   6.778   6.811
 1922SOL     OW 6664   4.006   4.606   0.740
 1922SOL    HW1 6665   4.019   4.700   0.710
 1922SOL    HW2 6666   3.931   4.602   0.806
 1923SOL     OW 6667   1.298   2.896   0.728
 1923SOL    HW1 6668   1.364   2.971   0.726
 1923SOL    HW2 6669   1.277   2.873   0.823
 1924SOL     OW 6670   0.809   4.139   0.940
 1924SOL    HW1 6671   0.861   4.069   0.988
 1924SOL    HW2 6672   0.826   4.228   0.983
 1925SOL     OW 6673   3.346   4.448   0.371
 1925SOL    HW1 6674   3.363   4.415   0.464
 1925SOL    HW2 6675   3.298   4.378   0.319
 1926SOL     OW 6676   0.421   0.427   3.582
 1926SOL    HW1 6677   0.505   0.405   3.631
 1926SOL    HW2 6678   0.375   0.503   3.628
 1927SOL     OW 6679   4.841   3.267   1.200
 1927SOL    HW1 6680   4.769   3.231   1.259
 1927SOL    HW2 6681   4.913   3.308   1.256
 1928SOL     OW 6682   0.282   5.730   4.733
 1928SOL    HW1 6683   0.221   5.804   4.703
 1928SOL    HW2 6684   0.237   5.677   4.805
 1929SOL     OW 6685   1.346   6.021   2.987
 1929SOL    HW1 6686   1.425   6.072   3.020
 1929SOL    HW2 6687   1.371   5.969   2.906
 1930SOL     OW 6688   0.009   5.196   6.526
 1930SOL    HW1 6689   7.006   5.168   6.619
 1930SOL    HW2 6690   0.093   5.250   6.531
 1931SOL     OW 6691   0.658   1.993   4.405
 1931SOL    HW1 6692   0.580   2.057   4.403
 1931SOL    HW2 6693   0.650   1.934   4.484
 1932SOL     OW 6694   6.202   3.222   2.888
 1932SOL    HW1 6695   6.161   3.132   2.873
 1932SOL    HW2 6696   6.135   3.293   2.869
 1933SOL     OW 6697   2.672   4.997   0.374
 1933SOL    HW1 6698   2.648   5.091   0.395
 1933SOL    HW2 6699   2.626   4.970   0.289
 1934SOL     OW 6700   6.878   6.076   3.050
 1934SOL    HW1 6701   6.805   6.135   3.018
 1934SOL    HW2 6702   6.905   6.103   3.143
 1935SOL     OW 6703   2.227   1.179   3.244
 1935SOL    HW1 6704   2.291   1.231   3.302
 1935SOL    HW2 6705   2.270   1.162   3.155
 1936SOL     OW 6706   6.406   5.947   5.262
 1936SOL    HW1 6707   6.379   6.042   5.274
 1936SOL    HW2 6708   6.480   5.925   5.326
 1937SOL     OW 6709   3.960   0.902   3.237
 1937SOL    HW1 6710   4.028   0.945   3.297
 1937SOL    HW2 6711   3.924   0.970   3.173
 1938SOL     OW 6712   5.784   1.163   4.596
 1938SOL    HW1 6713   5.821   1.166   4.503
 1938SOL    HW2 6714   5.712   1.231   4.607
 1939SOL     OW 6715   3.031   0.982   4.237
 1939SOL    HW1 6716   3.032   1.068   4.186
 1939SOL    HW2 6717   3.097   0.919   4.196
 1940SOL     OW 6718   6.257   5.560   6.265
 1940SOL    HW1 6719   6.305   5.478   6.298
 1940SOL    HW2 6720   6.278   5.636   6.326
 1941SOL     OW 6721   4.803   5.003   2.762
 1941SOL    HW1 6722   4.865   4.966   2.831
 1941SOL    HW2 6723   4.725   4.940   2.751
 1942SOL     OW 6724   6.782   4.078   3.511
 1942SOL    HW1 6725   6.816   4.099   3.420
 1942SOL    HW2 6726   6.832   4.132   3.579
 1943SOL     OW 6727   2.781   5.520   3.278
 1943SOL    HW1 6728   2.723   5.467   3.339
 1943SOL    HW2 6729   2.732   5.602   3.249
 1944SOL     OW 6730   0.013   6.545   2.352
 1944SOL    HW1 6731   0.056   6.470   2.401
 1944SOL    HW2 6732   7.019   6.621   2.415
 1945SOL     OW 6733   3.475   5.057   3.424
 1945SOL    HW1 6734   3.485   5.102   3.336
 1945SOL    HW2 6735   3.399   4.992   3.419
 1946SOL     OW 6736   1.306   6.627   6.925
 1946SOL    HW1 6737   1.278   6.674   7.010
 1946SOL    HW2 6738   1.280   6.683   6.847
 1947SOL     OW 6739   4.862   6.794   3.767
 1947SOL    HW1 6740   4.816   6.867   3.818
 1947SOL    HW2 6741   4.810   6.775   3.684
 1948SOL     OW 6742   6.170   3.878   5.013
 1948SOL    HW1 6743   6.142   3.972   4.992
 1948SOL    HW2 6744   6.230   3.877   5.092
 1949SOL     OW 6745   4.763   4.299   6.525
 1949SOL    HW1 6746   4.859   4.320   6.507
 1949SOL    HW2 6747   4.715   4.288   6.438
 1950SOL     OW 6748   3.135   5.058   1.052
 1950SOL    HW1 6749   3.047   5.091   1.018
 1950SOL    HW2 6750   3.135   4.958   1.055
 1951SOL     OW 6751   6.281   2.736   0.277
 1951SOL    HW1 6752   6.202   2.797   0.273
 1951SOL    HW2 6753   6.291   2.687   0.190
 1952SOL     OW 6754   3.549   2.961   4.997
 1952SOL    HW1 6755   3.551   3.059   4.978
 1952SOL    HW2 6756   3.455   2.931   5.011
 1953SOL     OW 6757   0.460   2.726   4.850
 1953SOL    HW1 6758   0.450   2.749   4.753
 1953SOL    HW2 6759   0.475   2.811   4.902
 1954SOL     OW 6760   2.861   1.594   3.590
 1954SOL    HW1 6761   2.810   1.557   3.668
 1954SOL    HW2 6762   2.899   1.519   3.536
 1955SOL     OW 6763   6.202   5.117   1.997
 1955SOL    HW1 6764   6.246   5.057   1.931
 1955SOL    HW2 6765   6.171   5.200   1.951
 1956SOL     OW 6766   5.370   5.964   2.524
 1956SOL    HW1 6767   5.461   5.986   2.558
 1956SOL    HW2 6768   5.306   5.959   2.600
 1957SOL     OW 6769   1.277   6.635   4.810
 1957SOL    HW1 6770   1.300   6.585   4.894
 1957SOL    HW2 6771   1.202   6.699   4.829
 1958SOL     OW 6772   4.297   3.507   5.917
 1958SOL    HW1 6773   4.378   3.525   5.861
 1958SOL    HW2 6774   4.263   3.415   5.898
 1959SOL     OW 6775   2.274   1.404   0.372
 1959SOL    HW1 6776   2.228   1.316   0.360
 1959SOL    HW2 6777   2.328   1.424   0.291
 1960SOL     OW 6778   6.189   5.917   2.090
 1960SOL    HW1 6779   6.123   5.870   2.030
 1960SOL    HW2 6780   6.178   6.016   2.079
 1961SOL     OW 6781   6.101   4.749   4.985
 1961SOL    HW1 6782   6.141   4.784   5.069
 1961SOL    HW2 6783   6.051   4.822   4.939
 1962SOL     OW 6784   6.823   6.812   3.815
 1962SOL    HW1 6785   6.756   6.841   3.884
 1962SOL    HW2 6786   6.777   6.755   3.746
 1963SOL     OW 6787   2.792   0.848   3.796
 1963SOL    HW1 6788   2.856   0.844   3.873
 1963SOL    HW2 6789   2.831   0.905   3.724
 1964SOL     OW 6790   5.840   3.555   1.995
 1964SOL    HW1 6791   5.808   3.641   2.035
 1964SOL    HW2 6792   5.925   3.527   2.040
 1965SOL     OW 6793   2.034   6.305   3.767
 1965SOL    HW1 6794   1.966   6.312   3.694
 1965SOL    HW2 6795   2.082   6.392   3.775
 1966SOL     OW 6796   6.321   6.598   6.889
 1966SOL    HW1 6797   6.233   6.620   6.931
 1966SOL    HW2 6798   6.329   6.646   6.802
 1967SOL     OW 6799   5.238   3.709   4.806
 1967SOL    HW1 6800   5.248   3.802   4.770
 1967SOL    HW2 6801   5.191   3.652   4.739
 1968SOL     OW 6802   3.778   5.485   4.800
 1968SOL    HW1 6803   3.806   5.424   4.874
 1968SOL    HW2 6804   3.721   5.434   4.735
 1969SOL     OW 6805   0.016   1.673   1.819
 1969SOL    HW1 6806   0.022   1.701   1.915
 1969SOL    HW2 6807   6.949   1.637   1.801
 1970SOL     OW 6808   1.765   0.606   3.734
 1970SOL    HW1 6809   1.668   0.597   3.711
 1970SOL    HW2 6810   1.816   0.531   3.692
 1971SOL     OW 6811   0.547   1.333   6.114
 1971SOL    HW1 6812   0.482   1.407   6.099
 1971SOL    HW2 6813   0.537   1.264   6.042
 1972SOL     OW 6814   1.864   0.131   3.592
 1972SOL    HW1 6815   1.924   0.089   3.524
 1972SOL    HW2 6816   1.883   0.091   3.682
 1973SOL     OW 6817   2.601   3.531   0.318
 1973SOL    HW1 6818   2.590   3.603   0.249
 1973SOL    HW2 6819   2.531   3.540   0.388
 1974SOL     OW 6820   5.763   6.711   4.262
 1974SOL    HW1 6821   5.675   6.746   4.294
 1974SOL    HW2 6822   5.801   6.649   4.331
 1975SOL     OW 6823   3.031   0.356   3.974
 1975SOL    HW1 6824   3.058   0.442   3.931
 1975SOL    HW2 6825   3.113   0.305   4.000
 1976SOL     OW 6826   6.657   4.252   6.810
 1976SOL    HW1 6827   6.597   4.309   6.754
 1976SOL    HW2 6828   6.670   4.163   6.765
 1977SOL     OW 6829   2.863   2.161   5.753
 1977SOL    HW1 6830   2.903   2.108   5.827
 1977SOL    HW2 6831   2.903   2.252   5.750
 1978SOL     OW 6832   6.780   2.118   5.846
 1978SOL    HW1 6833   6.735   2.095   5.932
 1978SOL    HW2 6834   6.847   2.048   5.823
 1979SOL     OW 6835   6.099   4.414   2.705
 1979SOL    HW1 6836   6.098   4.504   2.660
 1979SOL    HW2 6837   6.086   4.426   2.803
 1980SOL     OW 6838   2.811   0.958   1.784
 1980SOL    HW1 6839   2.851   1.022   1.849
 1980SOL    HW2 6840   2.750   0.895   1.831
 1981SOL     OW 6841   4.949   3.721   1.905
 1981SOL    HW1 6842   4.876   3.782   1.873
 1981SOL    HW2 6843   4.955   3.726   2.004
 1982SOL     OW 6844   6.862   6.633   5.169
 1982SOL    HW1 6845   6.909   6.668   5.250
 1982SOL    HW2 6846   6.868   6.701   5.096
 1983SOL     OW 6847   0.709   4.645   2.519
 1983SOL    HW1 6848   0.722   4.560   2.570
 1983SOL    HW2 6849   0.796   4.694   2.513
 1984SOL     OW 6850   4.761   0.900   4.826
 1984SOL    HW1 6851   4.829   0.974   4.822
 1984SOL    HW2 6852   4.801   0.817   4.787
 1985SOL     OW 6853   1.610   6.326   1.409
 1985SOL    HW1 6854   1.654   6.238   1.393
 1985SOL    HW2 6855   1.676   6.389   1.451
 1986SOL     OW 6856   0.115   1.968   0.098
 1986SOL    HW1 6857   0.067   1.910   0.031
 1986SOL    HW2 6858   0.149   1.912   0.173
 1987SOL     OW 6859   2.831   4.165   0.446
 1987SOL    HW1 6860   2.921   4.131   0.475
 1987SOL    HW2 6861   2.760   4.108   0.487
 1988SOL     OW 6862   4.711   3.687   0.193
 1988SOL    HW1 6863   4.717   3.762   0.260
 1988SOL    HW2 6864   4.616   3.657   0.185
 1989SOL     OW 6865   2.322   1.090   4.629
 1989SOL    HW1 6866   2.304   1.187   4.617
 1989SOL    HW2 6867   2.260   1.053   4.699
 1990SOL     OW 6868   1.727   0.925   2.595
 1990SOL    HW1 6869   1.726   0.826   2.582
 1990SOL    HW2 6870   1.784   0.967   2.524
 1991SOL     OW 6871   4.170   5.507   2.985
 1991SOL    HW1 6872   4.158   5.573   3.060
 1991SOL    HW2 6873   4.230   5.434   3.015
 1992SOL     OW 6874   2.700   6.213   5.081
 1992SOL    HW1 6875   2.669   6.148   5.011
 1992SOL    HW2 6876   2.734   6.163   5.161
 1993SOL     OW 6877   3.202   3.021   4.017
 1993SOL    HW1 6878   3.277   3.085   4.003
 1993SOL    HW2 6879   3.116   3.062   3.987
 1994SOL     OW 6880   6.119   2.502   1.736
 1994SOL    HW1 6881   6.132   2.496   1.637
 1994SOL    HW2 6882   6.037   2.555   1.756
 1995SOL     OW 6883   3.776   2.440   1.246
 1995SOL    HW1 6884   3.712   2.395   1.308
 1995SOL    HW2 6885   3.861   2.387   1.241
 1996SOL     OW 6886   2.800   4.056   5.226
 1996SOL    HW1 6887   2.850   4.055   5.140
 1996SOL    HW2 6888   2.734   3.981   5.227
 1997SOL     OW 6889   5.602   6.850   3.764
 1997SOL    HW1 6890   5.667   6.874   3.836
 1997SOL    HW2 6891   5.610   6.753   3.744
 1998SOL     OW 6892   3.463   5.215   4.931
 1998SOL    HW1 6893   3.543   5.173   4.891
 1998SOL    HW2 6894   3.395   5.145   4.954
 1999SOL     OW 6895   2.660   1.249   1.965
 1999SOL    HW1 6896   2.588   1.200   2.014
 1999SOL    HW2 6897   2.748   1.204   1.981
 2000SOL     OW 6898   3.598   1.551   4.604
 2000SOL    HW1 6899   3.646   1.540   4.517
 2000SOL    HW2 6900   3.592   1.648   4.628
 2001SOL     OW 6901   2.429   3.574   7.006
 2001SOL    HW1 6902   2.343   3.544   6.967
 2001SOL    HW2 6903   2.500   3.574   6.936
 2002SOL     OW 6904   1.040   5.349   4.882
 2002SOL    HW1 6905   1.030   5.356   4.982
 2002SOL    HW2 6906   0.950   5.337   4.840
 2003SOL     OW 6907   6.591   4.647   3.130
 2003SOL    HW1 6908   6.611   4.649   3.032
 2003SOL    HW2 6909   6.676   4.633   3.181
 2004SOL     OW 6910   3.083   6.854   6.574
 2004SOL    HW1 6911   3.070   6.780   6.508
 2004SOL    HW2 6912   3.180   6.878   6.579
 2005SOL     OW 6913   2.895   6.491   5.431
 2005SOL    HW1 6914   2.824   6.544   5.384
 2005SOL    HW2 6915   2.964   6.553   5.468
 2006SOL     OW 6916   5.175   6.710   3.207
 2006SOL    HW1 6917   5.104   6.705   3.136
 2006SOL    HW2 6918   5.131   6.723   3.296
 2007SOL     OW 6919   6.126   5.107   0.009
 2007SOL    HW1 6920   6.181   5.103   0.093
 2007SOL    HW2 6921   6.071   5.191   0.009
 2008SOL     OW 6922   6.719   6.355   4.580
 2008SOL    HW1 6923   6.761   6.445   4.583
 2008SOL    HW2 6924   6.648   6.348   4.651
 2009SOL     OW 6925   0.540   0.457   0.259
 2009SOL    HW1 6926   0.456   0.478   0.208
 2009SOL    HW2 6927   0.524   0.471   0.356
 2010SOL     OW 6928   1.326   0.158   1.036
 2010SOL    HW1 6929   1.252   0.091   1.037
 2010SOL    HW2 6930   1.411   0.117   1.070
 2011SOL     OW 6931   6.933   2.448   5.540
 2011SOL    HW1 6932   6.997   2.485   5.608
 2011SOL    HW2 6933   6.983   2.391   5.474
 2012SOL     OW 6934   6.771   3.629   0.870
 2012SOL    HW1 6935   6.859   3.610   0.913
 2012SOL    HW2 6936   6.703   3.649   0.941
 2013SOL     OW 6937   3.994   1.800   2.381
 2013SOL    HW1 6938   4.024   1.809   2.476
 2013SOL    HW2 6939   3.894   1.801   2.378
 2014SOL     OW 6940   2.999   5.886   3.728
 2014SOL    HW1 6941   3.086   5.857   3.689
 2014SOL    HW2 6942   2.972   5.974   3.690
 2015SOL     OW 6943   3.269   6.423   0.052
 2015SOL    HW1 6944   3.351   6.389   0.098
 2015SOL    HW2 6945   3.260   6.522   0.068
 2016SOL     OW 6946   6.013   5.376   4.011
 2016SOL    HW1 6947   5.921   5.340   3.991
 2016SOL    HW2 6948   6.005   5.466   4.054
 2017SOL     OW 6949   2.133   4.967   1.978
 2017SOL    HW1 6950   2.065   4.920   2.035
 2017SOL    HW2 6951   2.173   4.902   1.914
 2018SOL     OW 6952   0.364   4.078   6.405
 2018SOL    HW1 6953   0.298   4.063   6.480
 2018SOL    HW2 6954   0.315   4.082   6.318
 2019SOL     OW 6955   5.737   1.848   2.887
 2019SOL    HW1 6956   5.754   1.814   2.795
 2019SOL    HW2 6957   5.823   1.879   2.928
 2020SOL     OW 6958   1.548   5.615   3.524
 2020SOL    HW1 6959   1.611   5.584   3.596
 2020SOL    HW2 6960   1.457   5.627   3.562
 2021SOL     OW 6961   1.700   0.085   1.821
 2021SOL    HW1 6962   1.634   0.144   1.868
 2021SOL    HW2 6963   1.781   0.073   1.880
 2022SOL     OW 6964   2.664   4.914   0.792
 2022SOL    HW1 6965   2.674   4.960   0.880
 2022SOL    HW2 6966   2.580   4.946   0.747
 2023SOL     OW 6967   6.339   1.433   6.479
 2023SOL    HW1 6968   6.255   1.447   6.425
 2023SOL    HW2 6969   6.415   1.479   6.434
 2024SOL     OW 6970   6.048   0.559   2.633
 2024SOL    HW1 6971   6.005   0.505   2.706
 2024SOL    HW2 6972   6.144   0.574   2.655
 2025SOL     OW 6973   6.272   0.648   0.945
 2025SOL    HW1 6974   6.314   0.653   0.854
 2025SOL    HW2 6975   6.184   0.694   0.944
 2026SOL     OW 6976   1.473   2.056   5.074
 2026SOL    HW1 6977   1.454   2.024   4.981
 2026SOL    HW2 6978   1.572   2.071   5.084
 2027SOL     OW 6979   1.030   1.316   2.681
 2027SOL    HW1 6980   0.988   1.332   2.771
 2027SOL    HW2 6981   1.012   1.221   2.653
 2028SOL     OW 6982   3.596   4.012   5.947
 2028SOL    HW1 6983   3.598   4.032   5.849
 2028SOL    HW2 6984   3.689   3.990   5.978
 2029SOL     OW 6985   1.628   0.499   0.524
 2029SOL    HW1 6986   1.709   0.444   0.542
 2029SOL    HW2 6987   1.559   0.482   0.594
 2030SOL     OW 6988   1.680   2.534   3.156
 2030SOL    HW1 6989   1.771   2.543   3.197
 2030SOL    HW2 6990   1.638   2.624   3.147
 2031SOL     OW 6991   5.204   0.124   2.622
 2031SOL    HW1 6992   5.223   0.205   2.566
 2031SOL    HW2 6993   5.186   0.045   2.563
 2032SOL     OW 6994   5.624   6.339   1.575
 2032SOL    HW1 6995   5.634   6.428   1.531
 2032SOL    HW2 6996   5.559   6.346   1.650
 2033SOL     OW 6997   6.709   5.055   6.685
 2033SOL    HW1 6998   6.626   5.006   6.713
 2033SOL    HW2 6999   6.694   5.100   6.598
 2034SOL     OW 7000   2.453   6.833   3.356
 2034SOL    HW1 7001   2.441   6.926   3.390
 2034SOL    HW2 7002   2.364   6.791   3.340
 2035SOL     OW 7003   0.206   2.865   1.270
 2035SOL    HW1 7004   0.254   2.937   1.220
 2035SOL    HW2 7005   0.255   2.846   1.355
 2036SOL     OW 7006   0.578   4.170   0.787
 2036SOL    HW1 7007   0.651   4.163   0.855
 2036SOL    HW2 7008   0.616   4.160   0.695
 2037SOL     OW 7009   0.243   2.034   6.425
 2037SOL    HW1 7010   0.278   1.947   6.458
 2037SOL    HW2 7011   0.303   2.108   6.457
 2038SOL     OW 7012   1.046   0.169   5.192
 2038SOL    HW1 7013   1.115   0.230   5.230
 2038SOL    HW2 7014   0.955   0.205   5.212
 2039SOL     OW 7015   0.986   5.477   2.058
 2039SOL    HW1 7016   1.082   5.474   2.031
 2039SOL    HW2 7017   0.945   5.386   2.049
 2040SOL     OW 7018   3.434   3.958   4.515
 2040SOL    HW1 7019   3.348   4.007   4.500
 2040SOL    HW2 7020   3.442   3.932   4.611
 2041SOL     OW 7021   5.797   3.239   0.117
 2041SOL    HW1 7022   5.728   3.169   0.101
 2041SOL    HW2 7023   5.751   3.326   0.137
 2042SOL     OW 7024   3.825   5.813   0.604
 2042SOL    HW1 7025   3.816   5.843   0.700
 2042SOL    HW2 7026   3.806   5.891   0.544
 2043SOL     OW 7027   4.307   4.744   2.569
 2043SOL    HW1 7028   4.320   4.708   2.477
 2043SOL    HW2 7029   4.389   4.795   2.597
 2044SOL     OW 7030   6.482   0.888   2.120
 2044SOL    HW1 7031   6.560   0.868   2.062
 2044SOL    HW2 7032   6.482   0.827   2.199
 2045SOL     OW 7033   2.438   6.002   5.906
 2045SOL    HW1 7034   2.513   6.068   5.905
 2045SOL    HW2 7035   2.437   5.954   5.994
 2046SOL     OW 7036   6.206   6.906   4.920
 2046SOL    HW1 7037   6.242   6.992   4.884
 2046SOL    HW2 7038   6.111   6.920   4.949
 2047SOL     OW 7039   5.303   2.455   0.226
 2047SOL    HW1 7040   5.393   2.481   0.191
 2047SOL    HW2 7041   5.251   2.538   0.246
 2048SOL     OW 7042   4.736   6.859   5.370
 2048SOL    HW1 7043   4.698   6.771   5.399
 2048SOL    HW2 7044   4.812   6.843   5.306
 2049SOL     OW 7045   4.725   6.303   0.361
 2049SOL    HW1 7046   4.628   6.283   0.353
 2049SOL    HW2 7047   4.743   6.397   0.333
 2050SOL     OW 7048   5.525   0.765   4.172
 2050SOL    HW1 7049   5.554   0.705   4.098
 2050SOL    HW2 7050   5.434   0.802   4.150
 2051SOL     OW 7051   2.374   5.181   0.731
 2051SOL    HW1 7052   2.374   5.280   0.718
 2051SOL    HW2 7053   2.362   5.160   0.828
 2052SOL     OW 7054   1.356   2.740   0.975
 2052SOL    HW1 7055   1.284   2.678   1.007
 2052SOL    HW2 7056   1.439   2.688   0.957
 2053SOL     OW 7057   5.170   1.072   0.182
 2053SOL    HW1 7058   5.116   0.995   0.150
 2053SOL    HW2 7059   5.161   1.080   0.281
 2054SOL     OW 7060   0.051   3.566   1.637
 2054SOL    HW1 7061   0.096   3.643   1.682
 2054SOL    HW2 7062   0.055   3.486   1.697
 2055SOL     OW 7063   6.173   1.703   3.837
 2055SOL    HW1 7064   6.143   1.664   3.924
 2055SOL    HW2 7065   6.272   1.701   3.831
 2056SOL     OW 7066   0.749   0.072   2.328
 2056SOL    HW1 7067   0.663   0.044   2.286
 2056SOL    HW2 7068   0.824   0.018   2.288
 2057SOL     OW 7069   6.454   2.333   3.920
 2057SOL    HW1 7070   6.490   2.244   3.892
 2057SOL    HW2 7071   6.431   2.331   4.017
 2058SOL     OW 7072   0.743   1.273   1.796
 2058SOL    HW1 7073   0.646   1.290   1.810
 2058SOL    HW2 7074   0.755   1.190   1.741
 2059SOL     OW 7075   1.941   0.517   6.779
 2059SOL    HW1 7076   1.959   0.590   6.713
 2059SOL    HW2 7077   2.020   0.456   6.785
 2060SOL     OW 7078   0.410   5.333   2.052
 2060SOL    HW1 7079   0.335   5.336   1.986
 2060SOL    HW2 7080   0.481   5.399   2.025
 2061SOL     OW 7081   0.829   1.243   1.402
 2061SOL    HW1 7082   0.928   1.249   1.408
 2061SOL    HW2 7083   0.799   1.150   1.424
 2062SOL     OW 7084   4.095   0.635   3.454
 2062SOL    HW1 7085   4.115   0.706   3.522
 2062SOL    HW2 7086   4.179   0.607   3.408
 2063SOL     OW 7087   2.623   1.758   0.532
 2063SOL    HW1 7088   2.579   1.844   0.556
 2063SOL    HW2 7089   2.716   1.775   0.500
 2064SOL     OW 7090   0.854   1.940   0.063
 2064SOL    HW1 7091   0.923   1.894   0.007
 2064SOL    HW2 7092   0.771   1.953   0.010
 2065SOL     OW 7093   6.516   2.955   2.118
 2065SOL    HW1 7094   6.571   2.908   2.187
 2065SOL    HW2 7095   6.569   3.031   2.079
 2066SOL     OW 7096   1.819   6.905   2.981
 2066SOL    HW1 7097   1.820   6.927   2.884
 2066SOL    HW2 7098   1.729   6.870   3.007
 2067SOL     OW 7099   6.795   0.114   0.984
 2067SOL    HW1 7100   6.813   0.188   1.049
 2067SOL    HW2 7101   6.881   0.082   0.945
 2068SOL     OW 7102   1.841   1.258   5.074
 2068SOL    HW1 7103   1.743   1.266   5.093
 2068SOL    HW2 7104   1.857   1.181   5.012
 2069SOL     OW 7105   0.868   1.606   2.228
 2069SOL    HW1 7106   0.934   1.625   2.156
 2069SOL    HW2 7107   0.911   1.616   2.318
 2070SOL     OW 7108   1.462   1.103   2.945
 2070SOL    HW1 7109   1.415   1.169   2.886
 2070SOL    HW2 7110   1.560   1.106   2.927
 2071SOL     OW 7111   1.803   6.330   4.972
 2071SOL    HW1 7112   1.793   6.261   5.043
 2071SOL    HW2 7113   1.836   6.415   5.012
 2072SOL     OW 7114   4.646   4.727   2.121
 2072SOL    HW1 7115   4.682   4.726   2.028
 2072SOL    HW2 7116   4.596   4.642   2.139
 2073SOL     OW 7117   3.738   6.090   5.255
 2073SOL    HW1 7118   3.776   6.059   5.167
 2073SOL    HW2 7119   3.807   6.080   5.326
 2074SOL     OW 7120   6.347   2.278   2.066
 2074SOL    HW1 7121   6.364   2.259   2.163
 2074SOL    HW2 7122   6.421   2.334   2.030
 2075SOL     OW 7123   3.700   3.702   6.493
 2075SOL    HW1 7124   3.780   3.670   6.545
 2075SOL    HW2 7125   3.706   3.669   6.399
 2076SOL     OW 7126   4.559   0.548   0.950
 2076SOL    HW1 7127   4.549   0.633   1.003
 2076SOL    HW2 7128   4.656   0.528   0.937
 2077SOL     OW 7129   5.408   1.393   3.648
 2077SOL    HW1 7130   5.393   1.380   3.746
 2077SOL    HW2 7131   5.370   1.481   3.620
 2078SOL     OW 7132   4.372   5.598   4.942
 2078SOL    HW1 7133   4.395   5.693   4.961
 2078SOL    HW2 7134   4.373   5.546   5.027
 2079SOL     OW 7135   5.806   0.725   3.426
 2079SOL    HW1 7136   5.833   0.758   3.516
 2079SOL    HW2 7137   5.789   0.803   3.365
 2080SOL     OW 7138   2.844   2.242   4.193
 2080SOL    HW1 7139   2.911   2.271   4.124
 2080SOL    HW2 7140   2.752   2.262   4.161
 2081SOL     OW 7141   0.824   5.901   4.562
 2081SOL    HW1 7142   0.865   5.977   4.512
 2081SOL    HW2 7143   0.882   5.820   4.553
 2082SOL     OW 7144   4.903   0.793   2.219
 2082SOL    HW1 7145   4.928   0.855   2.145
 2082SOL    HW2 7146   4.816   0.748   2.197
 2083SOL     OW 7147   3.342   4.913   5.766
 2083SOL    HW1 7148   3.273   4.974   5.728
 2083SOL    HW2 7149   3.339   4.916   5.866
 2084SOL     OW 7150   0.299   2.776   2.504
 2084SOL    HW1 7151   0.359   2.735   2.436
 2084SOL    HW2 7152   0.332   2.755   2.595
 2085SOL     OW 7153   5.461   6.270   6.443
 2085SOL    HW1 7154   5.447   6.178   6.479
 2085SOL    HW2 7155   5.375   6.305   6.407
 2086SOL     OW 7156   3.581   5.082   0.388
 2086SOL    HW1 7157   3.557   5.017   0.460
 2086SOL    HW2 7158   3.498   5.119   0.347
 2087SOL     OW 7159   6.425   5.690   3.747
 2087SOL    HW1 7160   6.402   5.619   3.814
 2087SOL    HW2 7161   6.359   5.765   3.754
 2088SOL     OW 7162   2.329   0.402   0.998
 2088SOL    HW1 7163   2.425   0.388   0.974
 2088SOL    HW2 7164   2.275   0.325   0.967
 2089SOL     OW 7165   3.011   1.389   6.501
 2089SOL    HW1 7166   3.047   1.375   6.409
 2089SOL    HW2 7167   3.043   1.477   6.536
 2090SOL     OW 7168   3.681   2.923   3.674
 2090SOL    HW1 7169   3.664   2.936   3.771
 2090SOL    HW2 7170   3.598   2.892   3.628
 2091SOL     OW 7171   1.927   5.554   0.589
 2091SOL    HW1 7172   1.849   5.608   0.620
 2091SOL    HW2 7173   1.975   5.515   0.668
 2092SOL     OW 7174   0.099   6.532   1.470
 2092SOL    HW1 7175   0.110   6.478   1.554
 2092SOL    HW2 7176   0.068   6.472   1.397
 2093SOL     OW 7177   0.617   2.784   1.489
 2093SOL    HW1 7178   0.646   2.698   1.532
 2093SOL    HW2 7179   0.676   2.859   1.521
 2094SOL     OW 7180   6.015   0.334   1.658
 2094SOL    HW1 7181   5.922   0.341   1.695
 2094SOL    HW2 7182   6.054   0.426   1.650
 2095SOL     OW 7183   6.750   4.595   5.074
 2095SOL    HW1 7184   6.814   4.625   5.004
 2095SOL    HW2 7185   6.769   4.643   5.160
 2096SOL     OW 7186   4.808   3.785   3.299
 2096SOL    HW1 7187   4.749   3.808   3.376
 2096SOL    HW2 7188   4.857   3.700   3.319
 2097SOL     OW 7189   6.615   3.302   6.983
 2097SOL    HW1 7190   6.635   3.392   6.945
 2097SOL    HW2 7191   6.568   3.313   0.046
 2098SOL     OW 7192   4.722   0.329   4.018
 2098SOL    HW1 7193   4.672   0.244   4.033
 2098SOL    HW2 7194   4.793   0.339   4.088
 2099SOL     OW 7195   3.020   1.791   3.480
 2099SOL    HW1 7196   3.023   1.872   3.539
 2099SOL    HW2 7197   2.978   1.715   3.531
 2100SOL     OW 7198   3.779   4.499   6.519
 2100SOL    HW1 7199   3.701   4.486   6.580
 2100SOL    HW2 7200   3.787   4.420   6.458
 2101SOL     OW 7201   6.984   0.738   2.552
 2101SOL    HW1 7202   6.947   0.766   2.464
 2101SOL    HW2 7203   0.059   0.733   2.547
 2102SOL     OW 7204   0.644   4.920   1.732
 2102SOL    HW1 7205   0.563   4.877   1.772
 2102SOL    HW2 7206   0.724   4.863   1.751
 2103SOL     OW 7207   2.404   3.858   5.998
 2103SOL    HW1 7208   2.459   3.789   6.046
 2103SOL    HW2 7209   2.412   3.844   5.899
 2104SOL     OW 7210   1.479   3.666   5.216
 2104SOL    HW1 7211   1.420   3.637   5.290
 2104SOL    HW2 7212   1.565   3.615   5.219
 2105SOL     OW 7213   6.406   5.755   1.428
 2105SOL    HW1 7214   6.409   5.691   1.505
 2105SOL    HW2 7215   6.429   5.847   1.460
 2106SOL     OW 7216   5.284   5.566   6.483
 2106SOL    HW1 7217   5.297   5.625   6.562
 2106SOL    HW2 7218   5.293   5.470   6.511
 2107SOL     OW 7219   2.923   4.483   0.047
 2107SOL    HW1 7220   2.897   4.420   0.120
 2107SOL    HW2 7221   2.877   4.571   0.061
 2108SOL     OW 7222   5.336   5.091   5.745
 2108SOL    HW1 7223   5.296   5.046   5.665
 2108SOL    HW2 7224   5.293   5.055   5.828
 2109SOL     OW 7225   6.056   6.262   2.456
 2109SOL    HW1 7226   6.134   6.248   2.395
 2109SOL    HW2 7227   6.083   6.321   2.532
 2110SOL     OW 7228   2.105   4.913   5.237
 2110SOL    HW1 7229   2.029   4.975   5.217
 2110SOL    HW2 7230   2.143   4.934   5.327
 2111SOL     OW 7231   1.870   2.516   0.069
 2111SOL    HW1 7232   1.920   2.599   0.095
 2111SOL    HW2 7233   1.925   2.435   0.091
 2112SOL     OW 7234   4.934   3.364   0.531
 2112SOL    HW1 7235   4.900   3.344   0.439
 2112SOL    HW2 7236   5.013   3.307   0.550
 2113SOL     OW 7237   6.515   1.513   2.947
 2113SOL    HW1 7238   6.534   1.567   3.029
 2113SOL    HW2 7239   6.475   1.572   2.876
 2114SOL     OW 7240   1.856   3.626   0.312
 2114SOL    HW1 7241   1.904   3.585   0.235
 2114SOL    HW2 7242   1.878   3.577   0.396
 2115SOL     OW 7243   3.269   5.268   2.314
 2115SOL    HW1 7244   3.185   5.275   2.368
 2115SOL    HW2 7245   3.286   5.355   2.268
 2116SOL     OW 7246   0.249   4.095   3.074
 2116SOL    HW1 7247   0.248   4.019   3.008
 2116SOL    HW2 7248   0.202   4.174   3.035
 2117SOL     OW 7249   0.104   5.312   7.009
 2117SOL    HW1 7250   0.134   5.248   0.055
 2117SOL    HW2 7251   0.018   5.354   0.011
 2118SOL     OW 7252   6.224   3.666   2.231
 2118SOL    HW1 7253   6.303   3.722   2.255
 2118SOL    HW2 7254   6.160   3.663   2.308
 2119SOL     OW 7255   3.386   5.930   0.766
 2119SOL    HW1 7256   3.338   5.863   0.709
 2119SOL    HW2 7257   3.375   6.021   0.726
 2120SOL     OW 7258   6.849   4.991   2.622
 2120SOL    HW1 7259   6.932   5.047   2.612
 2120SOL    HW2 7260   6.774   5.050   2.653
 2121SOL     OW 7261   0.587   3.688   4.737
 2121SOL    HW1 7262   0.658   3.648   4.678
 2121SOL    HW2 7263   0.604   3.786   4.748
 2122SOL     OW 7264   4.556   4.481   5.522
 2122SOL    HW1 7265   4.540   4.416   5.448
 2122SOL    HW2 7266   4.640   4.533   5.504
 2123SOL     OW 7267   4.481   4.608   3.482
 2123SOL    HW1 7268   4.482   4.515   3.446
 2123SOL    HW2 7269   4.507   4.607   3.578
 2124SOL     OW 7270   3.222   1.248   1.761
 2124SOL    HW1 7271   3.248   1.344   1.755
 2124SOL    HW2 7272   3.208   1.223   1.857
 2125SOL     OW 7273   3.259   7.000   0.710
 2125SOL    HW1 7274   3.259   0.062   0.760
 2125SOL    HW2 7275   3.322   6.936   0.752
 2126SOL     OW 7276   2.643   0.530   1.808
 2126SOL    HW1 7277   2.603   0.619   1.830
 2126SOL    HW2 7278   2.628   0.466   1.883
 2127SOL     OW 7279   5.661   3.026   4.960
 2127SOL    HW1 7280   5.760   3.034   4.951
 2127SOL    HW2 7281   5.639   2.973   5.043
 2128SOL     OW 7282   0.933   4.367   4.070
 2128SOL    HW1 7283   1.007   4.347   4.006
 2128SOL    HW2 7284   0.918   4.466   4.075
 2129SOL     OW 7285   3.828   2.244   5.556
 2129SOL    HW1 7286   3.778   2.304   5.619
 2129SOL    HW2 7287   3.896   2.297   5.507
 2130SOL     OW 7288   4.645   0.365   3.286
 2130SOL    HW1 7289   4.663   0.332   3.193
 2130SOL    HW2 7290   4.572   0.311   3.327
 2131SOL     OW 7291   5.430   1.662   6.997
 2131SOL    HW1 7292   5.468   1.740   6.947
 2131SOL    HW2 7293   5.331   1.674   7.006
 2132SOL     OW 7294   2.473   3.684   0.868
 2132SOL    HW1 7295   2.445   3.645   0.956
 2132SOL    HW2 7296   2.479   3.611   0.799
 2133SOL     OW 7297   2.472   3.868   5.669
 2133SOL    HW1 7298   2.569   3.885   5.689
 2133SOL    HW2 7299   2.446   3.779   5.707
 2134SOL     OW 7300   0.376   0.093   0.904
 2134SOL    HW1 7301   0.276   0.085   0.899
 2134SOL    HW2 7302   0.418   0.012   0.864
 2135SOL     OW 7303   6.493   4.185   5.530
 2135SOL    HW1 7304   6.476   4.212   5.625
 2135SOL    HW2 7305   6.569   4.238   5.493
 2136SOL     OW 7306   0.518   4.798   0.989
 2136SOL    HW1 7307   0.514   4.759   1.081
 2136SOL    HW2 7308   0.526   4.898   0.995
 2137SOL     OW 7309   1.481   6.476   4.334
 2137SOL    HW1 7310   1.411   6.495   4.403
 2137SOL    HW2 7311   1.566   6.450   4.379
 2138SOL     OW 7312   5.135   1.756   1.740
 2138SOL    HW1 7313   5.228   1.732   1.768
 2138SOL    HW2 7314   5.092   1.811   1.811
 2139SOL     OW 7315   3.149   0.082   5.670
 2139SOL    HW1 7316   3.109   0.173   5.680
 2139SOL    HW2 7317   3.085   0.013   5.704
 2140SOL     OW 7318   2.709   1.561   4.345
 2140SOL    HW1 7319   2.776   1.488   4.332
 2140SOL    HW2 7320   2.753   1.649   4.328
 2141SOL     OW 7321   6.836   2.958   3.315
 2141SOL    HW1 7322   6.852   3.031   3.382
 2141SOL    HW2 7323   6.904   2.965   3.242
 2142SOL     OW 7324   1.640   2.232   2.684
 2142SOL    HW1 7325   1.708   2.180   2.632
 2142SOL    HW2 7326   1.549   2.195   2.666
 2143SOL     OW 7327   0.819   4.629   6.368
 2143SOL    HW1 7328   0.886   4.555   6.372
 2143SOL    HW2 7329   0.823   4.682   6.453
 2144SOL     OW 7330   6.618   4.695   3.465
 2144SOL    HW1 7331   6.594   4.747   3.383
 2144SOL    HW2 7332   6.694   4.633   3.443
 2145SOL     OW 7333   4.643   1.491   3.599
 2145SOL    HW1 7334   4.555   1.526   3.628
 2145SOL    HW2 7335   4.630   1.410   3.542
 2146SOL     OW 7336   2.242   2.989   0.379
 2146SOL    HW1 7337   2.238   3.088   0.383
 2146SOL    HW2 7338   2.215   2.951   0.468
 2147SOL     OW 7339   5.722   6.873   4.024
 2147SOL    HW1 7340   5.663   6.944   4.064
 2147SOL    HW2 7341   5.744   6.805   4.094
 2148SOL     OW 7342   0.582   3.292   6.100
 2148SOL    HW1 7343   0.547   3.336   6.017
 2148SOL    HW2 7344   0.669   3.334   6.125
 2149SOL     OW 7345   0.867   0.155   0.196
 2149SOL    HW1 7346   0.768   0.153   0.210
 2149SOL    HW2 7347   0.902   0.062   0.187
 2150SOL     OW 7348   1.749   3.125   1.395
 2150SOL    HW1 7349   1.789   3.035   1.375
 2150SOL    HW2 7350   1.679   3.116   1.465
 2151SOL     OW 7351   0.568   5.287   0.921
 2151SOL    HW1 7352   0.539   5.212   0.980
 2151SOL    HW2 7353   0.495   5.309   0.856
 2152SOL     OW 7354   5.554   5.860   3.919
 2152SOL    HW1 7355   5.520   5.773   3.883
 2152SOL    HW2 7356   5.626   5.843   3.986
 2153SOL     OW 7357   5.382   0.634   3.939
 2153SOL    HW1 7358   5.330   0.637   3.854
 2153SOL    HW2 7359   5.388   0.726   3.977
 2154SOL     OW 7360   2.830   0.574   2.750
 2154SOL    HW1 7361   2.781   0.566   2.663
 2154SOL    HW2 7362   2.925   0.602   2.733
 2155SOL     OW 7363   4.077   0.943   0.926
 2155SOL    HW1 7364   4.167   0.927   0.885
 2155SOL    HW2 7365   4.021   0.998   0.864
 2156SOL     OW 7366   5.203   1.955   5.126
 2156SOL    HW1 7367   5.289   1.907   5.113
 2156SOL    HW2 7368   5.135   1.891   5.163
 2157SOL     OW 7369   3.598   6.573   4.163
 2157SOL    HW1 7370   3.580   6.535   4.254
 2157SOL    HW2 7371   3.552   6.517   4.094
 2158SOL     OW 7372   2.963   0.203   0.343
 2158SOL    HW1 7373   2.953   0.223   0.441
 2158SOL    HW2 7374   2.876   0.170   0.307
 2159SOL     OW 7375   0.818   0.733   5.606
 2159SOL    HW1 7376   0.855   0.819   5.643
 2159SOL    HW2 7377   0.723   0.723   5.634
 2160SOL     OW 7378   5.760   0.163   0.113
 2160SOL    HW1 7379   5.671   0.120   0.096
 2160SOL    HW2 7380   5.832   0.094   0.107
 2161SOL     OW 7381   1.567   2.785   1.297
 2161SOL    HW1 7382   1.475   2.823   1.306
 2161SOL    HW2 7383   1.620   2.840   1.232
 2162SOL     OW 7384   1.486   6.721   1.719
 2162SOL    HW1 7385   1.464   6.790   1.649
 2162SOL    HW2 7386   1.530   6.766   1.797
 2163SOL     OW 7387   2.018   2.803   2.905
 2163SOL    HW1 7388   2.104   2.821   2.856
 2163SOL    HW2 7389   2.025   2.837   2.999
 2164SOL     OW 7390   2.150   3.332   2.394
 2164SOL    HW1 7391   2.125   3.250   2.343
 2164SOL    HW2 7392   2.135   3.316   2.492
 2165SOL     OW 7393   6.459   1.445   4.631
 2165SOL    HW1 7394   6.549   1.426   4.590
 2165SOL    HW2 7395   6.444   1.544   4.634
 2166SOL     OW 7396   0.107   3.474   2.370
 2166SOL    HW1 7397   0.143   3.567   2.363
 2166SOL    HW2 7398   0.009   3.478   2.391
 2167SOL     OW 7399   2.296   1.495   2.777
 2167SOL    HW1 7400   2.218   1.522   2.721
 2167SOL    HW2 7401   2.329   1.406   2.747
 2168SOL     OW 7402   1.816   1.672   3.243
 2168SOL    HW1 7403   1.821   1.584   3.195
 2168SOL    HW2 7404   1.728   1.679   3.289
 2169SOL     OW 7405   6.827   6.958   1.538
 2169SOL    HW1 7406   6.822   0.033   1.543
 2169SOL    HW2 7407   6.920   6.928   1.560
 2170SOL     OW 7408   1.226   4.004   5.968
 2170SOL    HW1 7409   1.178   4.084   5.931
 2170SOL    HW2 7410   1.171   3.963   6.041
 2171SOL     OW 7411   6.657   6.167   1.055
 2171SOL    HW1 7412   6.572   6.220   1.056
 2171SOL    HW2 7413   6.639   6.078   1.013
 2172SOL     OW 7414   2.270   1.516   5.104
 2172SOL    HW1 7415   2.190   1.459   5.123
 2172SOL    HW2 7416   2.283   1.522   5.005
 2173SOL     OW 7417   5.520   1.085   5.557
 2173SOL    HW1 7418   5.552   1.119   5.646
 2173SOL    HW2 7419   5.598   1.052   5.504
 2174SOL     OW 7420   5.795   0.414   6.457
 2174SOL    HW1 7421   5.699   0.388   6.455
 2174SOL    HW2 7422   5.806   0.498   6.510
 2175SOL     OW 7423   2.630   3.805   5.272
 2175SOL    HW1 7424   2.643   3.799   5.370
 2175SOL    HW2 7425   2.533   3.818   5.252
 2176SOL     OW 7426   5.206   2.360   2.523
 2176SOL    HW1 7427   5.277   2.327   2.586
 2176SOL    HW2 7428   5.116   2.346   2.564
 2177SOL     OW 7429   0.819   1.024   4.999
 2177SOL    HW1 7430   0.901   1.055   4.950
 2177SOL    HW2 7431   0.826   1.049   5.096
 2178SOL     OW 7432   1.376   1.857   2.738
 2178SOL    HW1 7433   1.391   1.774   2.685
 2178SOL    HW2 7434   1.432   1.854   2.821
 2179SOL     OW 7435   2.045   4.179   6.609
 2179SOL    HW1 7436   2.073   4.162   6.514
 2179SOL    HW2 7437   1.946   4.169   6.617
 2180SOL     OW 7438   0.878   5.846   2.711
 2180SOL    HW1 7439   0.892   5.934   2.756
 2180SOL    HW2 7440   0.965   5.797   2.705
 2181SOL     OW 7441   4.027   4.885   4.722
 2181SOL    HW1 7442   4.117   4.855   4.752
 2181SOL    HW2 7443   3.962   4.876   4.798
 2182SOL     OW 7444   0.200   6.280   2.111
 2182SOL    HW1 7445   0.280   6.334   2.137
 2182SOL    HW2 7446   0.157   6.242   2.192
 2183SOL     OW 7447   3.123   3.282   6.476
 2183SOL    HW1 7448   3.083   3.298   6.566
 2183SOL    HW2 7449   3.182   3.201   6.479
 2184SOL     OW 7450   6.315   1.671   0.491
 2184SOL    HW1 7451   6.405   1.631   0.511
 2184SOL    HW2 7452   6.319   1.721   0.405
 2185SOL     OW 7453   1.086   0.477   6.635
 2185SOL    HW1 7454   0.999   0.428   6.641
 2185SOL    HW2 7455   1.086   0.534   6.553
 2186SOL     OW 7456   0.041   5.643   5.539
 2186SOL    HW1 7457   0.001   5.722   5.492
 2186SOL    HW2 7458   6.993   5.577   5.561
 2187SOL     OW 7459   6.805   5.646   1.612
 2187SOL    HW1 7460   6.865   5.572   1.640
 2187SOL    HW2 7461   6.714   5.610   1.593
 2188SOL     OW 7462   2.518   0.865   0.243
 2188SOL    HW1 7463   2.563   0.907   0.323
 2188SOL    HW2 7464   2.456   0.931   0.201
 2189SOL     OW 7465   2.174   1.414   1.623
 2189SOL    HW1 7466   2.102   1.471   1.583
 2189SOL    HW2 7467   2.163   1.411   1.723
 2190SOL     OW 7468   6.723   4.057   1.636
 2190SOL    HW1 7469   6.741   4.110   1.552
 2190SOL    HW2 7470   6.626   4.035   1.640
 2191SOL     OW 7471   3.075   0.667   6.513
 2191SOL    HW1 7472   3.020   0.591   6.548
 2191SOL    HW2 7473   3.170   0.638   6.504
 2192SOL     OW 7474   5.099   2.032   2.057
 2192SOL    HW1 7475   5.022   2.093   2.077
 2192SOL    HW2 7476   5.167   2.040   2.129
 2193SOL     OW 7477   1.874   6.733   5.531
 2193SOL    HW1 7478   1.922   6.817   5.555
 2193SOL    HW2 7479   1.904   6.703   5.440
 2194SOL     OW 7480   0.728   4.141   6.178
 2194SOL    HW1 7481   0.708   4.126   6.081
 2194SOL    HW2 7482   0.827   4.142   6.191
 2195SOL     OW 7483   0.695   3.446   4.926
 2195SOL    HW1 7484   0.693   3.361   4.874
 2195SOL    HW2 7485   0.613   3.500   4.904
 2196SOL     OW 7486   3.410   0.623   6.769
 2196SOL    HW1 7487   3.509   0.607   6.764
 2196SOL    HW2 7488   3.371   0.620   6.677
 2197SOL     OW 7489   3.687   5.634   5.747
 2197SOL    HW1 7490   3.662   5.671   5.837
 2197SOL    HW2 7491   3.739   5.550   5.759
 2198SOL     OW 7492   1.197   0.786   0.231
 2198SOL    HW1 7493   1.196   0.763   0.328
 2198SOL    HW2 7494   1.162   0.708   0.178
 2199SOL     OW 7495   4.231   6.557   4.286
 2199SOL    HW1 7496   4.289   6.614   4.226
 2199SOL    HW2 7497   4.212   6.607   4.370
 2200SOL     OW 7498   2.713   2.154   3.766
 2200SOL    HW1 7499   2.625   2.161   3.718
 2200SOL    HW2 7500   2.709   2.079   3.832
 2201SOL     OW 7501   5.641   3.835   4.505
 2201SOL    HW1 7502   5.722   3.891   4.486
 2201SOL    HW2 7503   5.669   3.740   4.522
 2202SOL     OW 7504   3.541   0.003   2.550
 2202SOL    HW1 7505   3.451   0.039   2.572
 2202SOL    HW2 7506   3.539   6.987   2.458
 2203SOL     OW 7507   1.821   5.034   1.065
 2203SOL    HW1 7508   1.884   4.963   1.036
 2203SOL    HW2 7509   1.807   5.027   1.164
 2204SOL     OW 7510   5.939   2.817   0.829
 2204SOL    HW1 7511   6.031   2.808   0.791
 2204SOL    HW2 7512   5.871   2.789   0.761
 2205SOL     OW 7513   6.866   5.661   0.983
 2205SOL    HW1 7514   6.937   5.731   0.984
 2205SOL    HW2 7515   6.861   5.617   1.073
 2206SOL     OW 7516   4.038   2.503   5.948
 2206SOL    HW1 7517   3.995   2.517   5.859
 2206SOL    HW2 7518   4.040   2.405   5.968
 2207SOL     OW 7519   4.918   5.967   1.225
 2207SOL    HW1 7520   4.965   5.878   1.228
 2207SOL    HW2 7521   4.839   5.961   1.165
 2208SOL     OW 7522   6.885   6.669   3.422
 2208SOL    HW1 7523   6.967   6.685   3.476
 2208SOL    HW2 7524   6.850   6.577   3.440
 2209SOL     OW 7525   2.929   5.888   4.004
 2209SOL    HW1 7526   2.957   5.933   3.918
 2209SOL    HW2 7527   2.859   5.819   3.984
 2210SOL     OW 7528   4.484   0.000   1.448
 2210SOL    HW1 7529   4.479   6.975   1.362
 2210SOL    HW2 7530   4.547   0.078   1.438
 2211SOL     OW 7531   1.230   1.677   1.000
 2211SOL    HW1 7532   1.232   1.613   1.077
 2211SOL    HW2 7533   1.196   1.766   1.031
 2212SOL     OW 7534   3.164   5.664   6.654
 2212SOL    HW1 7535   3.124   5.577   6.625
 2212SOL    HW2 7536   3.106   5.739   6.621
 2213SOL     OW 7537   3.678   2.009   4.853
 2213SOL    HW1 7538   3.584   2.042   4.849
 2213SOL    HW2 7539   3.735   2.076   4.900
 2214SOL     OW 7540   4.273   4.193   6.600
 2214SOL    HW1 7541   4.224   4.168   6.516
 2214SOL    HW2 7542   4.277   4.114   6.660
 2215SOL     OW 7543   3.775   0.012   6.951
 2215SOL    HW1 7544   3.690   0.027   7.002
 2215SOL    HW2 7545   3.809   0.100   6.917
 2216SOL     OW 7546   0.693   6.533   6.218
 2216SOL    HW1 7547   0.603   6.492   6.236
 2216SOL    HW2 7548   0.717   6.595   6.293
 2217SOL     OW 7549   4.519   1.451   3.934
 2217SOL    HW1 7550   4.506   1.383   4.006
 2217SOL    HW2 7551   4.594   1.422   3.874
 2218SOL     OW 7552   0.314   5.577   5.213
 2218SOL    HW1 7553   0.339   5.652   5.274
 2218SOL    HW2 7554   0.392   5.554   5.154
 2219SOL     OW 7555   5.432   1.151   1.164
 2219SOL    HW1 7556   5.518   1.119   1.124
 2219SOL    HW2 7557   5.379   1.072   1.196
 2220SOL     OW 7558   0.131   5.908   4.559
 2220SOL    HW1 7559   0.082   5.825   4.533
 2220SOL    HW2 7560   0.080   5.988   4.530
 2221SOL     OW 7561   6.277   1.188   4.363
 2221SOL    HW1 7562   6.254   1.090   4.361
 2221SOL    HW2 7563   6.359   1.201   4.418
 2222SOL     OW 7564   4.711   0.420   2.582
 2222SOL    HW1 7565   4.655   0.446   2.504
 2222SOL    HW2 7566   4.805   0.452   2.569
 2223SOL     OW 7567   1.046   6.588   5.121
 2223SOL    HW1 7568   1.004   6.516   5.176
 2223SOL    HW2 7569   1.145   6.581   5.127
 2224SOL     OW 7570   5.526   3.702   0.365
 2224SOL    HW1 7571   5.626   3.702   0.355
 2224SOL    HW2 7572   5.487   3.778   0.312
 2225SOL     OW 7573   6.726   6.283   2.241
 2225SOL    HW1 7574   6.792   6.347   2.202
 2225SOL    HW2 7575   6.655   6.264   2.173
 2226SOL     OW 7576   2.494   4.829   6.980
 2226SOL    HW1 7577   2.567   4.777   0.000
 2226SOL    HW2 7578   2.533   4.883   6.905
 2227SOL     OW 7579   3.928   1.823   1.905
 2227SOL    HW1 7580   3.934   1.896   1.838
 2227SOL    HW2 7581   3.949   1.859   1.996
 2228SOL     OW 7582   5.259   5.386   0.005
 2228SOL    HW1 7583   5.219   5.454   0.067
 2228SOL    HW2 7584   5.357   5.402   7.022
 2229SOL     OW 7585   3.408   3.219   3.933
 2229SOL    HW1 7586   3.362   3.219   3.844
 2229SOL    HW2 7587   3.481   3.150   3.933
 2230SOL     OW 7588   5.947   0.332   6.833
 2230SOL    HW1 7589   5.976   0.344   6.928
 2230SOL    HW2 7590   5.935   0.235   6.813
 2231SOL     OW 7591   1.067   7.019   6.185
 2231SOL    HW1 7592   1.012   6.943   6.149
 2231SOL    HW2 7593   1.046   0.008   6.282
 2232SOL     OW 7594   1.598   0.758   5.491
 2232SOL    HW1 7595   1.644   0.721   5.410
 2232SOL    HW2 7596   1.514   0.804   5.464
 2233SOL     OW 7597   2.989   4.611   0.722
 2233SOL    HW1 7598   2.946   4.701   0.724
 2233SOL    HW2 7599   3.041   4.600   0.637
 2234SOL     OW 7600   5.070   2.065   1.762
 2234SOL    HW1 7601   5.112   2.062   1.853
 2234SOL    HW2 7602   4.979   2.105   1.769
 2235SOL     OW 7603   0.885   1.705   3.260
 2235SOL    HW1 7604   0.854   1.647   3.336
 2235SOL    HW2 7605   0.899   1.648   3.179
 2236SOL     OW 7606   2.695   5.075   5.239
 2236SOL    HW1 7607   2.789   5.098   5.265
 2236SOL    HW2 7608   2.688   4.976   5.225
 2237SOL     OW 7609   6.420   5.737   5.651
 2237SOL    HW1 7610   6.497   5.676   5.668
 2237SOL    HW2 7611   6.441   5.829   5.685
 2238SOL     OW 7612   5.883   3.368   1.758
 2238SOL    HW1 7613   5.925   3.279   1.776
 2238SOL    HW2 7614   5.901   3.429   1.836
 2239SOL     OW 7615   4.941   6.667   3.056
 2239SOL    HW1 7616   4.904   6.664   2.963
 2239SOL    HW2 7617   4.892   6.602   3.114
 2240SOL     OW 7618   4.584   5.086   2.438
 2240SOL    HW1 7619   4.492   5.075   2.399
 2240SOL    HW2 7620   4.648   5.029   2.387
 2241SOL     OW 7621   0.721   1.535   2.492
 2241SOL    HW1 7622   0.663   1.562   2.415
 2241SOL    HW2 7623   0.681   1.570   2.577
 2242SOL     OW 7624   5.277   2.317   3.690
 2242SOL    HW1 7625   5.286   2.379   3.768
 2242SOL    HW2 7626   5.344   2.243   3.697
 2243SOL     OW 7627   2.165   6.913   0.894
 2243SOL    HW1 7628   2.101   6.893   0.968
 2243SOL    HW2 7629   2.258   6.917   0.931
 2244SOL     OW 7630   2.159   1.302   0.830
 2244SOL    HW1 7631   2.249   1.308   0.787
 2244SOL    HW2 7632   2.108   1.226   0.789
 2245SOL     OW 7633   0.223   0.604   0.143
 2245SOL    HW1 7634   0.237   0.587   0.240
 2245SOL    HW2 7635   0.275   0.537   0.090
 2246SOL     OW 7636   3.513   2.121   5.280
 2246SOL    HW1 7637   3.570   2.111   5.362
 2246SOL    HW2 7638   3.419   2.141   5.307
 2247SOL     OW 7639   3.442   2.860   2.858
 2247SOL    HW1 7640   3.370   2.914   2.814
 2247SOL    HW2 7641   3.407   2.818   2.941
 2248SOL     OW 7642   4.811   4.076   5.259
 2248SOL    HW1 7643   4.880   4.149   5.261
 2248SOL    HW2 7644   4.853   3.992   5.224
 2249SOL     OW 7645   1.582   6.529   3.091
 2249SOL    HW1 7646   1.581   6.629   3.092
 2249SOL    HW2 7647   1.618   6.495   3.178
 2250SOL     OW 7648   4.513   5.753   6.495
 2250SOL    HW1 7649   4.582   5.700   6.544
 2250SOL    HW2 7650   4.556   5.832   6.452
 2251SOL     OW 7651   5.349   6.391   5.149
 2251SOL    HW1 7652   5.441   6.351   5.154
 2251SOL    HW2 7653   5.319   6.394   5.054
 2252SOL     OW 7654   4.274   1.747   2.351
 2252SOL    HW1 7655   4.174   1.749   2.343
 2252SOL    HW2 7656   4.299   1.738   2.447
 2253SOL     OW 7657   0.508   3.388   0.919
 2253SOL    HW1 7658   0.480   3.415   1.012
 2253SOL    HW2 7659   0.585   3.443   0.890
 2254SOL     OW 7660   3.863   4.046   2.874
 2254SOL    HW1 7661   3.849   3.947   2.869
 2254SOL    HW2 7662   3.890   4.071   2.967
 2255SOL     OW 7663   2.559   3.399   5.941
 2255SOL    HW1 7664   2.524   3.478   5.891
 2255SOL    HW2 7665   2.658   3.392   5.927
 2256SOL     OW 7666   5.322   6.976   1.341
 2256SOL    HW1 7667   5.302   0.038   1.295
 2256SOL    HW2 7668   5.242   6.947   1.393
 2257SOL     OW 7669   6.887   0.895   5.133
 2257SOL    HW1 7670   6.862   0.817   5.191
 2257SOL    HW2 7671   6.813   0.962   5.133
 2258SOL     OW 7672   2.762   5.666   3.975
 2258SOL    HW1 7673   2.782   5.655   4.073
 2258SOL    HW2 7674   2.738   5.577   3.937
 2259SOL     OW 7675   6.063   2.278   4.822
 2259SOL    HW1 7676   6.056   2.259   4.920
 2259SOL    HW2 7677   6.034   2.372   4.804
 2260SOL     OW 7678   0.537   3.990   1.430
 2260SOL    HW1 7679   0.492   4.046   1.360
 2260SOL    HW2 7680   0.633   4.018   1.439
 2261SOL     OW 7681   5.300   3.585   6.844
 2261SOL    HW1 7682   5.208   3.619   6.860
 2261SOL    HW2 7683   5.330   3.612   6.752
 2262SOL     OW 7684   6.237   6.939   4.416
 2262SOL    HW1 7685   6.322   6.911   4.372
 2262SOL    HW2 7686   6.160   6.901   4.366
 2263SOL     OW 7687   2.100   4.410   6.346
 2263SOL    HW1 7688   2.177   4.449   6.295
 2263SOL    HW2 7689   2.099   4.311   6.334
 2264SOL     OW 7690   3.220   6.886   5.907
 2264SOL    HW1 7691   3.266   6.974   5.898
 2264SOL    HW2 7692   3.223   6.838   5.819
 2265SOL     OW 7693   6.614   6.265   4.331
 2265SOL    HW1 7694   6.647   6.307   4.416
 2265SOL    HW2 7695   6.584   6.336   4.268
 2266SOL     OW 7696   4.282   3.021   6.691
 2266SOL    HW1 7697   4.212   3.063   6.748
 2266SOL    HW2 7698   4.251   3.019   6.596
 2267SOL     OW 7699   4.928   2.781   4.345
 2267SOL    HW1 7700   4.933   2.683   4.365
 2267SOL    HW2 7701   4.835   2.805   4.316
 2268SOL     OW 7702   1.192   5.728   4.634
 2268SOL    HW1 7703   1.287   5.707   4.655
 2268SOL    HW2 7704   1.155   5.791   4.702
 2269SOL     OW 7705   1.713   2.275   5.358
 2269SOL    HW1 7706   1.740   2.272   5.262
 2269SOL    HW2 7707   1.761   2.204   5.409
 2270SOL     OW 7708   4.697   1.461   6.047
 2270SOL    HW1 7709   4.661   1.407   6.123
 2270SOL    HW2 7710   4.635   1.538   6.028
 2271SOL     OW 7711   4.644   5.455   5.383
 2271SOL    HW1 7712   4.582   5.531   5.405
 2271SOL    HW2 7713   4.590   5.376   5.353
 2272SOL     OW 7714   5.335   1.461   6.045
 2272SOL    HW1 7715   5.297   1.530   5.983
 2272SOL    HW2 7716   5.356   1.378   5.993
 2273SOL     OW 7717   0.898   2.392   3.064
 2273SOL    HW1 7718   0.990   2.430   3.060
 2273SOL    HW2 7719   0.880   2.338   2.982
 2274SOL     OW 7720   0.520   1.625   0.023
 2274SOL    HW1 7721   0.482   1.558   6.984
 2274SOL    HW2 7722   0.564   1.578   0.099
 2275SOL     OW 7723   5.654   4.380   2.864
 2275SOL    HW1 7724   5.707   4.331   2.795
 2275SOL    HW2 7725   5.569   4.414   2.824
 2276SOL     OW 7726   2.043   2.103   1.205
 2276SOL    HW1 7727   2.035   2.202   1.194
 2276SOL    HW2 7728   2.120   2.082   1.265
 2277SOL     OW 7729   3.689   3.412   3.698
 2277SOL    HW1 7730   3.679   3.509   3.677
 2277SOL    HW2 7731   3.682   3.359   3.613
 2278SOL     OW 7732   0.623   2.584   3.681
 2278SOL    HW1 7733   0.579   2.523   3.615
 2278SOL    HW2 7734   0.714   2.550   3.702
 2279SOL     OW 7735   0.527   5.377   5.478
 2279SOL    HW1 7736   0.565   5.327   5.555
 2279SOL    HW2 7737   0.594   5.443   5.444
 2280SOL     OW 7738   4.580   2.045   5.620
 2280SOL    HW1 7739   4.520   2.026   5.698
 2280SOL    HW2 7740   4.630   2.130   5.636
 2281SOL     OW 7741   5.740   6.956   2.632
 2281SOL    HW1 7742   5.777   6.892   2.699
 2281SOL    HW2 7743   5.798   6.957   2.550
 2282SOL     OW 7744   4.024   6.868   5.538
 2282SOL    HW1 7745   3.999   6.785   5.486
 2282SOL    HW2 7746   4.095   6.918   5.489
 2283SOL     OW 7747   0.115   0.460   3.889
 2283SOL    HW1 7748   0.184   0.494   3.953
 2283SOL    HW2 7749   0.024   0.481   3.925
 2284SOL     OW 7750   1.042   2.585   0.012
 2284SOL    HW1 7751   1.121   2.546   6.989
 2284SOL    HW2 7752   1.020   2.528   0.092
 2285SOL     OW 7753   1.775   4.131   6.636
 2285SOL    HW1 7754   1.696   4.157   6.692
 2285SOL    HW2 7755   1.744   4.069   6.563
 2286SOL     OW 7756   4.897   5.093   3.188
 2286SOL    HW1 7757   4.957   5.061   3.114
 2286SOL    HW2 7758   4.801   5.077   3.162
 2287SOL     OW 7759   1.488   1.064   3.215
 2287SOL    HW1 7760   1.484   1.069   3.115
 2287SOL    HW2 7761   1.396   1.081   3.252
 2288SOL     OW 7762   0.292   5.664   2.829
 2288SOL    HW1 7763   0.291   5.637   2.733
 2288SOL    HW2 7764   0.199   5.667   2.864
 2289SOL     OW 7765   0.151   5.396   0.938
 2289SOL    HW1 7766   0.159   5.306   0.981
 2289SOL    HW2 7767   0.137   5.465   1.009
 2290SOL     OW 7768   0.573   5.713   0.165
 2290SOL    HW1 7769   0.634   5.753   0.097
 2290SOL    HW2 7770   0.628   5.670   0.237
 2291SOL     OW 7771   2.455   1.431   0.184
 2291SOL    HW1 7772   2.487   1.369   0.113
 2291SOL    HW2 7773   2.533   1.462   0.239
 2292SOL     OW 7774   1.561   1.302   5.065
 2292SOL    HW1 7775   1.489   1.334   5.003
 2292SOL    HW2 7776   1.550   1.345   5.154
 2293SOL     OW 7777   5.216   4.271   2.635
 2293SOL    HW1 7778   5.231   4.221   2.721
 2293SOL    HW2 7779   5.118   4.271   2.613
 2294SOL     OW 7780   3.330   5.835   6.802
 2294SOL    HW1 7781   3.304   5.931   6.802
 2294SOL    HW2 7782   3.255   5.780   6.764
 2295SOL     OW 7783   0.630   2.093   1.326
 2295SOL    HW1 7784   0.543   2.050   1.350
 2295SOL    HW2 7785   0.693   2.087   1.403
 2296SOL     OW 7786   2.847   6.523   0.466
 2296SOL    HW1 7787   2.883   6.616   0.465
 2296SOL    HW2 7788   2.774   6.516   0.534
 2297SOL     OW 7789   4.045   6.296   6.156
 2297SOL    HW1 7790   4.095   6.320   6.240
 2297SOL    HW2 7791   3.966   6.356   6.146
 2298SOL     OW 7792   4.058   3.065   6.421
 2298SOL    HW1 7793   4.082   2.970   6.438
 2298SOL    HW2 7794   4.130   3.109   6.367
 2299SOL     OW 7795   4.474   6.280   0.362
 2299SOL    HW1 7796   4.406   6.220   0.320
 2299SOL    HW2 7797   4.458   6.284   0.460
 2300SOL     OW 7798   1.644   4.423   1.689
 2300SOL    HW1 7799   1.652   4.388   1.783
 2300SOL    HW2 7800   1.724   4.478   1.667
 2301SOL     OW 7801   4.076   3.604   1.811
 2301SOL    HW1 7802   4.081   3.656   1.896
 2301SOL    HW2 7803   3.995   3.545   1.813
 2302SOL     OW 7804   2.665   5.927   3.186
 2302SOL    HW1 7805   2.631   5.933   3.280
 2302SOL    HW2 7806   2.759   5.893   3.187
 2303SOL     OW 7807   0.486   3.177   4.993
 2303SOL    HW1 7808   0.565   3.213   5.044
 2303SOL    HW2 7809   0.465   3.086   5.027
 2304SOL     OW 7810   2.475   0.855   4.157
 2304SOL    HW1 7811   2.442   0.926   4.219
 2304SOL    HW2 7812   2.575   0.861   4.150
 2305SOL     OW 7813   3.941   5.586   2.013
 2305SOL    HW1 7814   3.883   5.627   2.084
 2305SOL    HW2 7815   3.976   5.657   1.953
 2306SOL     OW 7816   0.806   3.769   0.677
 2306SOL    HW1 7817   0.896   3.738   0.646
 2306SOL    HW2 7818   0.789   3.862   0.644
 2307SOL     OW 7819   0.467   2.389   2.786
 2307SOL    HW1 7820   0.531   2.427   2.853
 2307SOL    HW2 7821   0.517   2.332   2.721
 2308SOL     OW 7822   0.183   0.230   0.194
 2308SOL    HW1 7823   0.213   0.291   0.268
 2308SOL    HW2 7824   0.091   0.256   0.165
 2309SOL     OW 7825   3.498   5.102   5.995
 2309SOL    HW1 7826   3.499   5.186   6.049
 2309SOL    HW2 7827   3.578   5.047   6.018
 2310SOL     OW 7828   5.354   1.644   2.566
 2310SOL    HW1 7829   5.311   1.597   2.643
 2310SOL    HW2 7830   5.425   1.705   2.601
 2311SOL     OW 7831   2.782   0.291   2.808
 2311SOL    HW1 7832   2.864   0.264   2.756
 2311SOL    HW2 7833   2.775   0.390   2.811
 2312SOL     OW 7834   2.505   0.749   2.770
 2312SOL    HW1 7835   2.577   0.763   2.702
 2312SOL    HW2 7836   2.546   0.740   2.860
 2313SOL     OW 7837   5.357   4.023   1.805
 2313SOL    HW1 7838   5.264   4.030   1.769
 2313SOL    HW2 7839   5.383   3.926   1.810
 2314SOL     OW 7840   6.143   0.207   2.732
 2314SOL    HW1 7841   6.086   0.289   2.734
 2314SOL    HW2 7842   6.093   0.132   2.690
 2315SOL     OW 7843   4.440   6.076   5.350
 2315SOL    HW1 7844   4.400   6.165   5.368
 2315SOL    HW2 7845   4.469   6.071   5.254
 2316SOL     OW 7846   2.731   1.996   6.102
 2316SOL    HW1 7847   2.686   2.076   6.139
 2316SOL    HW2 7848   2.821   2.021   6.067
 2317SOL     OW 7849   6.712   5.865   3.445
 2317SOL    HW1 7850   6.771   5.836   3.521
 2317SOL    HW2 7851   6.622   5.822   3.455
 2318SOL     OW 7852   1.527   5.048   5.371
 2318SOL    HW1 7853   1.436   5.019   5.342
 2318SOL    HW2 7854   1.520   5.116   5.444
 2319SOL     OW 7855   2.282   4.923   3.671
 2319SOL    HW1 7856   2.357   4.915   3.736
 2319SOL    HW2 7857   2.205   4.970   3.714
 2320SOL     OW 7858   1.400   2.303   5.187
 2320SOL    HW1 7859   1.473   2.370   5.177
 2320SOL    HW2 7860   1.431   2.215   5.151
 2321SOL     OW 7861   2.515   4.659   6.115
 2321SOL    HW1 7862   2.505   4.663   6.015
 2321SOL    HW2 7863   2.602   4.701   6.141
 2322SOL     OW 7864   0.838   3.921   1.748
 2322SOL    HW1 7865   0.758   3.904   1.806
 2322SOL    HW2 7866   0.871   3.834   1.711
 2323SOL     OW 7867   2.454   5.003   1.642
 2323SOL    HW1 7868   2.387   4.936   1.673
 2323SOL    HW2 7869   2.546   4.970   1.662
 2324SOL     OW 7870   0.083   5.454   2.488
 2324SOL    HW1 7871   7.014   5.489   2.480
 2324SOL    HW2 7872   0.090   5.367   2.439
 2325SOL     OW 7873   0.201   5.357   1.890
 2325SOL    HW1 7874   0.179   5.275   1.838
 2325SOL    HW2 7875   0.206   5.436   1.829
 2326SOL     OW 7876   1.430   0.621   6.502
 2326SOL    HW1 7877   1.360   0.655   6.440
 2326SOL    HW2 7878   1.496   0.693   6.521
 2327SOL     OW 7879   6.889   0.614   2.788
 2327SOL    HW1 7880   6.901   0.645   2.693
 2327SOL    HW2 7881   6.968   0.560   2.815
 2328SOL     OW 7882   2.304   2.659   2.519
 2328SOL    HW1 7883   2.251   2.580   2.548
 2328SOL    HW2 7884   2.245   2.740   2.517
 2329SOL     OW 7885   0.887   5.441   3.398
 2329SOL    HW1 7886   0.823   5.364   3.388
 2329SOL    HW2 7887   0.934   5.456   3.311
 2330SOL     OW 7888   6.564   2.648   0.335
 2330SOL    HW1 7889   6.479   2.688   0.370
 2330SOL    HW2 7890   6.642   2.691   0.381
 2331SOL     OW 7891   4.067   6.132   0.442
 2331SOL    HW1 7892   4.112   6.059   0.494
 2331SOL    HW2 7893   4.040   6.205   0.504
 2332SOL     OW 7894   5.261   6.807   6.141
 2332SOL    HW1 7895   5.319   6.882   6.110
 2332SOL    HW2 7896   5.168   6.841   6.154
 2333SOL     OW 7897   0.099   4.638   2.914
 2333SOL    HW1 7898   0.021   4.575   2.925
 2333SOL    HW2 7899   0.067   4.732   2.924
 2334SOL     OW 7900   3.097   1.415   5.706
 2334SOL    HW1 7901   3.053   1.357   5.637
 2334SOL    HW2 7902   3.193   1.388   5.717
 2335SOL     OW 7903   6.388   1.421   3.258
 2335SOL    HW1 7904   6.397   1.347   3.324
 2335SOL    HW2 7905   6.479   1.456   3.235
 2336SOL     OW 7906   2.015   1.784   2.872
 2336SOL    HW1 7907   2.022   1.733   2.786
 2336SOL    HW2 7908   1.979   1.876   2.853
 2337SOL     OW 7909   4.391   1.737   1.511
 2337SOL    HW1 7910   4.340   1.712   1.593
 2337SOL    HW2 7911   4.445   1.820   1.530
 2338SOL     OW 7912   6.896   4.346   4.466
 2338SOL    HW1 7913   6.969   4.282   4.441
 2338SOL    HW2 7914   6.807   4.305   4.445
 2339SOL     OW 7915   4.147   3.435   2.657
 2339SOL    HW1 7916   4.107   3.372   2.590
 2339SOL    HW2 7917   4.219   3.388   2.708
 2340SOL     OW 7918   1.700   5.542   6.284
 2340SOL    HW1 7919   1.638   5.483   6.336
 2340SOL    HW2 7920   1.713   5.505   6.192
 2341SOL     OW 7921   2.381   4.462   3.599
 2341SOL    HW1 7922   2.331   4.379   3.620
 2341SOL    HW2 7923   2.436   4.488   3.678
 2342SOL     OW 7924   3.070   0.004   4.470
 2342SOL    HW1 7925   3.010   0.050   4.405
 2342SOL    HW2 7926   3.115   6.952   4.424
 2343SOL     OW 7927   1.631   6.775   2.336
 2343SOL    HW1 7928   1.613   6.852   2.397
 2343SOL    HW2 7929   1.545   6.725   2.320
 2344SOL     OW 7930   5.711   4.066   0.943
 2344SOL    HW1 7931   5.623   4.112   0.928
 2344SOL    HW2 7932   5.742   4.083   1.037
 2345SOL     OW 7933   2.713   5.995   4.863
 2345SOL    HW1 7934   2.749   5.907   4.895
 2345SOL    HW2 7935   2.755   6.018   4.775
 2346SOL     OW 7936   4.048   4.492   6.273
 2346SOL    HW1 7937   4.091   4.440   6.199
 2346SOL    HW2 7938   3.975   4.438   6.314
 2347SOL     OW 7939   0.916   2.607   1.797
 2347SOL    HW1 7940   0.927   2.662   1.714
 2347SOL    HW2 7941   0.949   2.514   1.780
 2348SOL     OW 7942   0.680   5.085   2.872
 2348SOL    HW1 7943   0.705   5.155   2.939
 2348SOL    HW2 7944   0.608   5.121   2.812
 2349SOL     OW 7945   0.342   4.556   6.543
 2349SOL    HW1 7946   0.312   4.643   6.505
 2349SOL    HW2 7947   0.373   4.496   6.470
 2350SOL     OW 7948   6.420   3.793   6.515
 2350SOL    HW1 7949   6.332   3.794   6.562
 2350SOL    HW2 7950   6.407   3.772   6.418
 2351SOL     OW 7951   2.391   5.171   3.162
 2351SOL    HW1 7952   2.320   5.242   3.164
 2351SOL    HW2 7953   2.479   5.212   3.187
 2352SOL     OW 7954   0.152   3.111   3.695
 2352SOL    HW1 7955   0.063   3.133   3.736
 2352SOL    HW2 7956   0.225   3.144   3.753
 2353SOL     OW 7957   3.807   5.792   5.105
 2353SOL    HW1 7958   3.741   5.748   5.044
 2353SOL    HW2 7959   3.813   5.889   5.084
 2354SOL     OW 7960   2.379   2.116   3.357
 2354SOL    HW1 7961   2.390   2.140   3.453
 2354SOL    HW2 7962   2.432   2.033   3.337
 2355SOL     OW 7963   2.100   5.996   4.978
 2355SOL    HW1 7964   2.103   5.904   4.939
 2355SOL    HW2 7965   2.064   6.060   4.911
 2356SOL     OW 7966   6.918   3.486   0.301
 2356SOL    HW1 7967   6.899   3.403   0.353
 2356SOL    HW2 7968   7.014   3.512   0.314
 2357SOL     OW 7969   2.575   6.735   2.557
 2357SOL    HW1 7970   2.622   6.785   2.485
 2357SOL    HW2 7971   2.642   6.691   2.617
 2358SOL     OW 7972   3.626   4.828   6.753
 2358SOL    HW1 7973   3.543   4.845   6.699
 2358SOL    HW2 7974   3.651   4.732   6.745
 2359SOL     OW 7975   1.501   0.432   4.818
 2359SOL    HW1 7976   1.471   0.362   4.754
 2359SOL    HW2 7977   1.483   0.402   4.911
 2360SOL     OW 7978   6.545   3.206   0.510
 2360SOL    HW1 7979   6.481   3.255   0.570
 2360SOL    HW2 7980   6.496   3.172   0.430
 2361SOL     OW 7981   3.773   1.622   5.908
 2361SOL    HW1 7982   3.863   1.620   5.951
 2361SOL    HW2 7983   3.724   1.705   5.936
 2362SOL     OW 7984   3.473   5.573   3.591
 2362SOL    HW1 7985   3.434   5.629   3.519
 2362SOL    HW2 7986   3.488   5.480   3.557
 2363SOL     OW 7987   3.940   1.448   3.841
 2363SOL    HW1 7988   3.891   1.402   3.916
 2363SOL    HW2 7989   3.887   1.438   3.757
 2364SOL     OW 7990   0.954   2.671   1.172
 2364SOL    HW1 7991   0.916   2.579   1.166
 2364SOL    HW2 7992   0.951   2.715   1.082
 2365SOL     OW 7993   5.708   2.137   6.345
 2365SOL    HW1 7994   5.787   2.124   6.404
 2365SOL    HW2 7995   5.635   2.182   6.396
 2366SOL     OW 7996   3.933   5.145   0.960
 2366SOL    HW1 7997   3.850   5.187   0.997
 2366SOL    HW2 7998   3.926   5.046   0.969
 2367SOL     OW 7999   2.194   3.029   6.990
 2367SOL    HW1 8000   2.140   3.049   6.909
 2367SOL    HW2 8001   2.234   2.937   6.982
 2368SOL     OW 8002   6.274   6.279   3.438
 2368SOL    HW1 8003   6.347   6.346   3.452
 2368SOL    HW2 8004   6.208   6.315   3.372
 2369SOL     OW 8005   2.487   0.305   3.686
 2369SOL    HW1 8006   2.465   0.402   3.682
 2369SOL    HW2 8007   2.421   0.254   3.630
 2370SOL     OW 8008   5.315   2.251   6.710
 2370SOL    HW1 8009   5.344   2.202   6.793
 2370SOL    HW2 8010   5.253   2.325   6.736
 2371SOL     OW 8011   2.680   6.762   1.979
 2371SOL    HW1 8012   2.705   6.678   2.027
 2371SOL    HW2 8013   2.624   6.820   2.039
 2372SOL     OW 8014   6.348   3.228   2.302
 2372SOL    HW1 8015   6.335   3.327   2.315
 2372SOL    HW2 8016   6.411   3.212   2.226
 2373SOL     OW 8017   2.365   3.714   6.569
 2373SOL    HW1 8018   2.330   3.630   6.528
 2373SOL    HW2 8019   2.300   3.746   6.638
 2374SOL     OW 8020   6.054   2.582   4.520
 2374SOL    HW1 8021   6.010   2.506   4.471
 2374SOL    HW2 8022   6.152   2.564   4.527
 2375SOL     OW 8023   3.404   5.496   4.996
 2375SOL    HW1 8024   3.367   5.529   4.909
 2375SOL    HW2 8025   3.438   5.403   4.985
 2376SOL     OW 8026   6.228   3.032   4.528
 2376SOL    HW1 8027   6.309   3.071   4.573
 2376SOL    HW2 8028   6.181   3.105   4.478
 2377SOL     OW 8029   2.978   3.190   3.941
 2377SOL    HW1 8030   3.010   3.179   3.847
 2377SOL    HW2 8031   2.939   3.282   3.953
 2378SOL     OW 8032   5.375   2.883   6.229
 2378SOL    HW1 8033   5.395   2.800   6.281
 2378SOL    HW2 8034   5.309   2.862   6.158
 2379SOL     OW 8035   6.400   0.268   0.805
 2379SOL    HW1 8036   6.432   0.175   0.823
 2379SOL    HW2 8037   6.327   0.291   0.868
 2380SOL     OW 8038   6.434   2.105   1.317
 2380SOL    HW1 8039   6.523   2.137   1.350
 2380SOL    HW2 8040   6.373   2.092   1.395
 2381SOL     OW 8041   1.677   6.501   3.356
 2381SOL    HW1 8042   1.685   6.544   3.447
 2381SOL    HW2 8043   1.595   6.444   3.354
 2382SOL     OW 8044   2.155   3.279   5.152
 2382SOL    HW1 8045   2.135   3.262   5.055
 2382SOL    HW2 8046   2.187   3.195   5.195
 2383SOL     OW 8047   5.972   6.117   1.113
 2383SOL    HW1 8048   5.929   6.042   1.162
 2383SOL    HW2 8049   6.047   6.082   1.057
 2384SOL     OW 8050   4.701   1.928   1.879
 2384SOL    HW1 8051   4.601   1.934   1.874
 2384SOL    HW2 8052   4.741   1.992   1.814
 2385SOL     OW 8053   0.678   2.113   6.525
 2385SOL    HW1 8054   0.585   2.142   6.501
 2385SOL    HW2 8055   0.737   2.119   6.444
 2386SOL     OW 8056   5.148   5.605   4.010
 2386SOL    HW1 8057   5.128   5.681   3.949
 2386SOL    HW2 8058   5.240   5.617   4.048
 2387SOL     OW 8059   1.909   1.485   3.862
 2387SOL    HW1 8060   1.831   1.545   3.844
 2387SOL    HW2 8061   1.980   1.536   3.911
 2388SOL     OW 8062   6.356   2.349   4.192
 2388SOL    HW1 8063   6.355   2.300   4.279
 2388SOL    HW2 8064   6.298   2.430   4.199
 2389SOL     OW 8065   4.060   5.187   2.893
 2389SOL    HW1 8066   4.133   5.213   2.956
 2389SOL    HW2 8067   3.976   5.169   2.944
 2390SOL     OW 8068   3.433   4.084   1.756
 2390SOL    HW1 8069   3.360   4.016   1.746
 2390SOL    HW2 8070   3.467   4.082   1.849
 2391SOL     OW 8071   4.398   5.192   5.692
 2391SOL    HW1 8072   4.329   5.127   5.661
 2391SOL    HW2 8073   4.357   5.259   5.754
 2392SOL     OW 8074   3.618   0.873   6.978
 2392SOL    HW1 8075   3.633   0.880   6.879
 2392SOL    HW2 8076   3.690   0.921   0.002
 2393SOL     OW 8077   4.275   4.597   5.922
 2393SOL    HW1 8078   4.368   4.612   5.889
 2393SOL    HW2 8079   4.210   4.647   5.864
 2394SOL     OW 8080   0.861   4.043   5.172
 2394SOL    HW1 8081   0.836   3.962   5.225
 2394SOL    HW2 8082   0.867   4.122   5.233
 2395SOL     OW 8083   3.866   6.741   5.967
 2395SOL    HW1 8084   3.807   6.803   6.019
 2395SOL    HW2 8085   3.907   6.791   5.890
 2396SOL     OW 8086   4.012   4.612   0.094
 2396SOL    HW1 8087   4.097   4.560   0.079
 2396SOL    HW2 8088   4.033   4.695   0.146
 2397SOL     OW 8089   0.245   3.770   4.509
 2397SOL    HW1 8090   0.281   3.862   4.525
 2397SOL    HW2 8091   0.159   3.777   4.458
 2398SOL     OW 8092   4.356   4.634   5.608
 2398SOL    HW1 8093   4.399   4.721   5.631
 2398SOL    HW2 8094   4.424   4.572   5.569
 2399SOL     OW 8095   4.209   2.176   1.482
 2399SOL    HW1 8096   4.281   2.175   1.413
 2399SOL    HW2 8097   4.248   2.205   1.570
 2400SOL     OW 8098   2.532   5.311   1.119
 2400SOL    HW1 8099   2.497   5.403   1.135
 2400SOL    HW2 8100   2.468   5.244   1.155
 2401SOL     OW 8101   6.513   6.613   5.789
 2401SOL    HW1 8102   6.594   6.618   5.730
 2401SOL    HW2 8103   6.453   6.540   5.757
 2402SOL     OW 8104   0.045   6.949   4.339
 2402SOL    HW1 8105   0.000   0.006   4.302
 2402SOL    HW2 8106   7.021   6.867   4.309
 2403SOL     OW 8107   0.587   2.192   5.598
 2403SOL    HW1 8108   0.639   2.145   5.527
 2403SOL    HW2 8109   0.554   2.280   5.563
 2404SOL     OW 8110   1.381   0.458   0.619
 2404SOL    HW1 8111   1.379   0.360   0.637
 2404SOL    HW2 8112   1.335   0.477   0.532
 2405SOL     OW 8113   2.861   3.753   1.839
 2405SOL    HW1 8114   2.912   3.670   1.818
 2405SOL    HW2 8115   2.780   3.758   1.781
 2406SOL     OW 8116   4.785   1.511   0.674
 2406SOL    HW1 8117   4.837   1.529   0.758
 2406SOL    HW2 8118   4.732   1.593   0.651
 2407SOL     OW 8119   5.411   0.878   3.249
 2407SOL    HW1 8120   5.406   0.814   3.326
 2407SOL    HW2 8121   5.501   0.870   3.205
 2408SOL     OW 8122   4.497   4.488   2.154
 2408SOL    HW1 8123   4.516   4.475   2.251
 2408SOL    HW2 8124   4.507   4.401   2.105
 2409SOL     OW 8125   1.752   4.124   0.167
 2409SOL    HW1 8126   1.841   4.087   0.195
 2409SOL    HW2 8127   1.686   4.049   0.161
 2410SOL     OW 8128   3.984   3.066   2.598
 2410SOL    HW1 8129   3.997   3.035   2.692
 2410SOL    HW2 8130   3.906   3.019   2.558
 2411SOL     OW 8131   5.503   0.032   4.471
 2411SOL    HW1 8132   5.438   0.093   4.515
 2411SOL    HW2 8133   5.543   6.996   4.540
 2412SOL     OW 8134   4.675   3.478   1.140
 2412SOL    HW1 8135   4.653   3.483   1.043
 2412SOL    HW2 8136   4.732   3.399   1.158
 2413SOL     OW 8137   5.023   0.355   2.204
 2413SOL    HW1 8138   5.059   0.447   2.188
 2413SOL    HW2 8139   4.924   0.355   2.192
 2414SOL     OW 8140   5.313   3.173   4.114
 2414SOL    HW1 8141   5.295   3.190   4.017
 2414SOL    HW2 8142   5.286   3.080   4.138
 2415SOL     OW 8143   4.898   1.462   3.700
 2415SOL    HW1 8144   4.807   1.485   3.667
 2415SOL    HW2 8145   4.898   1.369   3.737
 2416SOL     OW 8146   4.700   1.790   5.724
 2416SOL    HW1 8147   4.656   1.792   5.814
 2416SOL    HW2 8148   4.669   1.869   5.670
 2417SOL     OW 8149   3.089   3.289   4.194
 2417SOL    HW1 8150   3.159   3.225   4.226
 2417SOL    HW2 8151   3.032   3.244   4.125
 2418SOL     OW 8152   3.981   3.021   3.210
 2418SOL    HW1 8153   4.066   3.024   3.157
 2418SOL    HW2 8154   3.904   3.001   3.150
 2419SOL     OW 8155   0.220   6.955   2.888
 2419SOL    HW1 8156   0.195   6.969   2.793
 2419SOL    HW2 8157   0.275   6.871   2.897
 2420SOL     OW 8158   2.320   0.071   1.816
 2420SOL    HW1 8159   2.291   0.161   1.783
 2420SOL    HW2 8160   2.303   0.064   1.914
 2421SOL     OW 8161   2.915   2.309   3.727
 2421SOL    HW1 8162   2.970   2.293   3.810
 2421SOL    HW2 8163   2.830   2.257   3.733
 2422SOL     OW 8164   4.643   1.714   1.020
 2422SOL    HW1 8165   4.673   1.773   0.945
 2422SOL    HW2 8166   4.674   1.752   1.107
 2423SOL     OW 8167   2.346   5.613   2.837
 2423SOL    HW1 8168   2.428   5.631   2.891
 2423SOL    HW2 8169   2.333   5.515   2.827
 2424SOL     OW 8170   5.335   0.662   1.131
 2424SOL    HW1 8171   5.393   0.641   1.209
 2424SOL    HW2 8172   5.391   0.701   1.057
 2425SOL     OW 8173   6.438   6.581   4.352
 2425SOL    HW1 8174   6.489   6.565   4.267
 2425SOL    HW2 8175   6.343   6.603   4.330
 2426SOL     OW 8176   2.684   5.063   4.267
 2426SOL    HW1 8177   2.760   5.114   4.228
 2426SOL    HW2 8178   2.652   5.108   4.351
 2427SOL     OW 8179   6.538   0.347   5.567
 2427SOL    HW1 8180   6.485   0.290   5.505
 2427SOL    HW2 8181   6.557   0.296   5.651
 2428SOL     OW 8182   6.367   0.660   0.695
 2428SOL    HW1 8183   6.426   0.593   0.652
 2428SOL    HW2 8184   6.403   0.752   0.679
 2429SOL     OW 8185   4.717   5.787   2.133
 2429SOL    HW1 8186   4.640   5.740   2.089
 2429SOL    HW2 8187   4.774   5.831   2.063
 2430SOL     OW 8188   5.525   0.938   2.408
 2430SOL    HW1 8189   5.586   1.010   2.377
 2430SOL    HW2 8190   5.433   0.975   2.421
 2431SOL     OW 8191   4.115   0.572   2.138
 2431SOL    HW1 8192   4.018   0.554   2.126
 2431SOL    HW2 8193   4.127   0.654   2.194
 2432SOL     OW 8194   2.199   6.189   2.371
 2432SOL    HW1 8195   2.171   6.215   2.463
 2432SOL    HW2 8196   2.192   6.268   2.310
 2433SOL     OW 8197   3.889   0.159   0.457
 2433SOL    HW1 8198   3.970   0.141   0.401
 2433SOL    HW2 8199   3.810   0.112   0.417
 2434SOL     OW 8200   3.903   3.176   5.732
 2434SOL    HW1 8201   3.846   3.258   5.724
 2434SOL    HW2 8202   3.897   3.141   5.826
 2435SOL     OW 8203   5.733   5.744   5.229
 2435SOL    HW1 8204   5.807   5.811   5.219
 2435SOL    HW2 8205   5.757   5.661   5.179
 2436SOL     OW 8206   2.912   5.651   0.262
 2436SOL    HW1 8207   2.873   5.560   0.278
 2436SOL    HW2 8208   2.866   5.694   0.185
 2437SOL     OW 8209   6.702   0.276   6.313
 2437SOL    HW1 8210   6.774   0.251   6.248
 2437SOL    HW2 8211   6.632   0.204   6.315
 2438SOL     OW 8212   2.843   2.756   0.980
 2438SOL    HW1 8213   2.907   2.773   0.905
 2438SOL    HW2 8214   2.892   2.762   1.067
 2439SOL     OW 8215   6.154   4.583   4.773
 2439SOL    HW1 8216   6.140   4.652   4.844
 2439SOL    HW2 8217   6.242   4.599   4.728
 2440SOL     OW 8218   6.194   5.073   6.057
 2440SOL    HW1 8219   6.262   5.000   6.052
 2440SOL    HW2 8220   6.129   5.063   5.981
 2441SOL     OW 8221   6.206   1.987   0.869
 2441SOL    HW1 8222   6.134   1.917   0.866
 2441SOL    HW2 8223   6.227   2.009   0.964
 2442SOL     OW 8224   6.874   3.571   5.184
 2442SOL    HW1 8225   6.906   3.597   5.275
 2442SOL    HW2 8226   6.950   3.530   5.133
 2443SOL     OW 8227   2.669   4.976   5.736
 2443SOL    HW1 8228   2.750   4.961   5.679
 2443SOL    HW2 8229   2.599   5.025   5.683
 2444SOL     OW 8230   3.189   3.143   5.454
 2444SOL    HW1 8231   3.123   3.215   5.433
 2444SOL    HW2 8232   3.272   3.183   5.493
 2445SOL     OW 8233   0.647   0.312   0.633
 2445SOL    HW1 8234   0.689   0.232   0.589
 2445SOL    HW2 8235   0.557   0.288   0.668
 2446SOL     OW 8236   5.423   3.808   6.298
 2446SOL    HW1 8237   5.517   3.804   6.265
 2446SOL    HW2 8238   5.362   3.767   6.229
 2447SOL     OW 8239   0.467   2.708   6.652
 2447SOL    HW1 8240   0.405   2.707   6.730
 2447SOL    HW2 8241   0.453   2.792   6.600
 2448SOL     OW 8242   0.158   0.707   4.369
 2448SOL    HW1 8243   0.073   0.732   4.323
 2448SOL    HW2 8244   0.140   0.638   4.438
 2449SOL     OW 8245   0.700   2.926   4.767
 2449SOL    HW1 8246   0.742   2.861   4.830
 2449SOL    HW2 8247   0.701   2.888   4.674
 2450SOL     OW 8248   1.070   3.411   1.749
 2450SOL    HW1 8249   1.039   3.371   1.836
 2450SOL    HW2 8250   1.002   3.394   1.678
 2451SOL     OW 8251   2.786   6.330   4.814
 2451SOL    HW1 8252   2.738   6.312   4.900
 2451SOL    HW2 8253   2.739   6.281   4.740
 2452SOL     OW 8254   2.328   2.120   4.432
 2452SOL    HW1 8255   2.395   2.173   4.380
 2452SOL    HW2 8256   2.341   2.023   4.415
 2453SOL     OW 8257   0.391   3.497   1.608
 2453SOL    HW1 8258   0.490   3.511   1.603
 2453SOL    HW2 8259   0.364   3.483   1.703
 2454SOL     OW 8260   2.152   6.897   1.730
 2454SOL    HW1 8261   2.225   6.964   1.743
 2454SOL    HW2 8262   2.065   6.938   1.757
 2455SOL     OW 8263   5.119   3.837   1.208
 2455SOL    HW1 8264   5.049   3.767   1.216
 2455SOL    HW2 8265   5.193   3.805   1.149
 2456SOL     OW 8266   2.976   6.901   1.185
 2456SOL    HW1 8267   2.915   6.910   1.106
 2456SOL    HW2 8268   2.922   6.881   1.266
 2457SOL     OW 8269   6.055   6.076   1.559
 2457SOL    HW1 8270   6.113   6.157   1.564
 2457SOL    HW2 8271   5.959   6.104   1.551
 2458SOL     OW 8272   0.649   5.733   2.772
 2458SOL    HW1 8273   0.584   5.803   2.802
 2458SOL    HW2 8274   0.739   5.775   2.758
 2459SOL     OW 8275   0.793   1.237   0.521
 2459SOL    HW1 8276   0.774   1.334   0.537
 2459SOL    HW2 8277   0.723   1.200   0.460
 2460SOL     OW 8278   3.270   4.842   1.387
 2460SOL    HW1 8279   3.333   4.901   1.337
 2460SOL    HW2 8280   3.295   4.843   1.484
 2461SOL     OW 8281   5.148   1.294   3.649
 2461SOL    HW1 8282   5.081   1.368   3.650
 2461SOL    HW2 8283   5.239   1.333   3.633
 2462SOL     OW 8284   2.977   4.440   6.248
 2462SOL    HW1 8285   2.914   4.517   6.243
 2462SOL    HW2 8286   3.017   4.425   6.158
 2463SOL     OW 8287   0.081   2.261   4.386
 2463SOL    HW1 8288   0.096   2.313   4.302
 2463SOL    HW2 8289   0.025   2.315   4.449
 2464SOL     OW 8290   1.711   3.809   0.658
 2464SOL    HW1 8291   1.789   3.871   0.654
 2464SOL    HW2 8292   1.668   3.815   0.748
 2465SOL     OW 8293   5.682   5.330   2.585
 2465SOL    HW1 8294   5.758   5.378   2.542
 2465SOL    HW2 8295   5.596   5.359   2.541
 2466SOL     OW 8296   3.633   1.472   1.736
 2466SOL    HW1 8297   3.724   1.475   1.694
 2466SOL    HW2 8298   3.640   1.492   1.833
 2467SOL     OW 8299   6.874   1.472   5.186
 2467SOL    HW1 8300   6.828   1.517   5.109
 2467SOL    HW2 8301   6.946   1.531   5.221
 2468SOL     OW 8302   6.688   4.268   0.640
 2468SOL    HW1 8303   6.613   4.253   0.576
 2468SOL    HW2 8304   6.743   4.185   0.649
 2469SOL     OW 8305   2.863   2.767   5.731
 2469SOL    HW1 8306   2.890   2.724   5.817
 2469SOL    HW2 8307   2.849   2.865   5.745
 2470SOL     OW 8308   5.660   2.788   0.696
 2470SOL    HW1 8309   5.592   2.766   0.765
 2470SOL    HW2 8310   5.633   2.872   0.648
 2471SOL     OW 8311   0.403   0.897   3.484
 2471SOL    HW1 8312   0.386   0.809   3.528
 2471SOL    HW2 8313   0.318   0.949   3.478
 2472SOL     OW 8314   5.800   1.403   3.681
 2472SOL    HW1 8315   5.801   1.495   3.720
 2472SOL    HW2 8316   5.713   1.388   3.634
 2473SOL     OW 8317   0.613   6.523   5.189
 2473SOL    HW1 8318   0.681   6.595   5.175
 2473SOL    HW2 8319   0.623   6.453   5.118
 2474SOL     OW 8320   6.097   6.329   4.207
 2474SOL    HW1 8321   6.053   6.239   4.204
 2474SOL    HW2 8322   6.071   6.376   4.292
 2475SOL     OW 8323   4.662   2.166   5.967
 2475SOL    HW1 8324   4.575   2.136   5.929
 2475SOL    HW2 8325   4.673   2.130   6.060
 2476SOL     OW 8326   0.418   1.796   3.579
 2476SOL    HW1 8327   0.500   1.741   3.590
 2476SOL    HW2 8328   0.360   1.757   3.507
 2477SOL     OW 8329   4.448   4.953   2.018
 2477SOL    HW1 8330   4.501   5.029   1.980
 2477SOL    HW2 8331   4.510   4.881   2.050
 2478SOL     OW 8332   6.932   0.061   3.212
 2478SOL    HW1 8333   6.947   0.121   3.290
 2478SOL    HW2 8334   6.988   0.091   3.135
 2479SOL     OW 8335   0.361   2.015   6.975
 2479SOL    HW1 8336   0.293   2.018   0.024
 2479SOL    HW2 8337   0.315   2.029   6.887
 2480SOL     OW 8338   0.382   5.097   2.211
 2480SOL    HW1 8339   0.402   5.193   2.191
 2480SOL    HW2 8340   0.334   5.056   2.133
 2481SOL     OW 8341   3.916   4.970   2.374
 2481SOL    HW1 8342   3.978   5.045   2.350
 2481SOL    HW2 8343   3.832   5.007   2.414
 2482SOL     OW 8344   4.743   2.641   4.014
 2482SOL    HW1 8345   4.735   2.704   4.090
 2482SOL    HW2 8346   4.672   2.571   4.020
 2483SOL     OW 8347   0.487   2.920   0.006
 2483SOL    HW1 8348   0.508   3.003   0.060
 2483SOL    HW2 8349   0.561   2.904   6.965
 2484SOL     OW 8350   3.882   3.423   6.287
 2484SOL    HW1 8351   3.974   3.463   6.292
 2484SOL    HW2 8352   3.814   3.496   6.297
 2485SOL     OW 8353   0.131   6.286   0.560
 2485SOL    HW1 8354   0.220   6.327   0.578
 2485SOL    HW2 8355   0.064   6.320   0.626
 2486SOL     OW 8356   0.589   4.918   3.781
 2486SOL    HW1 8357   0.505   4.885   3.825
 2486SOL    HW2 8358   0.643   4.970   3.847
 2487SOL     OW 8359   3.155   1.649   1.657
 2487SOL    HW1 8360   3.245   1.607   1.658
 2487SOL    HW2 8361   3.151   1.721   1.727
 2488SOL     OW 8362   2.816   5.963   6.324
 2488SOL    HW1 8363   2.801   6.053   6.365
 2488SOL    HW2 8364   2.862   5.974   6.236
 2489SOL     OW 8365   6.954   5.971   4.274
 2489SOL    HW1 8366   6.968   5.987   4.176
 2489SOL    HW2 8367   6.994   6.047   4.326
 2490SOL     OW 8368   5.126   3.106   1.587
 2490SOL    HW1 8369   5.224   3.124   1.597
 2490SOL    HW2 8370   5.110   3.053   1.504
 2491SOL     OW 8371   6.910   4.401   2.906
 2491SOL    HW1 8372   6.811   4.417   2.911
 2491SOL    HW2 8373   6.932   4.356   2.819
 2492SOL     OW 8374   3.897   1.354   6.091
 2492SOL    HW1 8375   3.959   1.419   6.045
 2492SOL    HW2 8376   3.805   1.393   6.094
 2493SOL     OW 8377   6.685   1.377   4.857
 2493SOL    HW1 8378   6.633   1.303   4.814
 2493SOL    HW2 8379   6.625   1.429   4.918
 2494SOL     OW 8380   4.456   4.572   0.781
 2494SOL    HW1 8381   4.524   4.550   0.850
 2494SOL    HW2 8382   4.460   4.505   0.707
 2495SOL     OW 8383   6.737   0.989   2.929
 2495SOL    HW1 8384   6.650   0.943   2.911
 2495SOL    HW2 8385   6.809   0.944   2.876
 2496SOL     OW 8386   1.513   5.528   0.037
 2496SOL    HW1 8387   1.439   5.468   0.008
 2496SOL    HW2 8388   1.500   5.619   7.023
 2497SOL     OW 8389   5.558   0.315   6.946
 2497SOL    HW1 8390   5.540   0.343   0.015
 2497SOL    HW2 8391   5.651   0.340   6.920
 2498SOL     OW 8392   0.891   2.832   4.985
 2498SOL    HW1 8393   0.856   2.910   5.038
 2498SOL    HW2 8394   0.890   2.750   5.043
 2499SOL     OW 8395   5.121   0.747   6.969
 2499SOL    HW1 8396   5.061   0.793   0.011
 2499SOL    HW2 8397   5.216   0.768   6.990
 2500SOL     OW 8398   3.995   3.960   6.535
 2500SOL    HW1 8399   3.917   3.975   6.474
 2500SOL    HW2 8400   3.981   4.010   6.620
 2501SOL     OW 8401   6.179   4.747   1.242
 2501SOL    HW1 8402   6.215   4.825   1.192
 2501SOL    HW2 8403   6.127   4.779   1.321
 2502SOL     OW 8404   0.449   6.773   3.360
 2502SOL    HW1 8405   0.391   6.838   3.311
 2502SOL    HW2 8406   0.541   6.774   3.321
 2503SOL     OW 8407   5.537   6.995   4.202
 2503SOL    HW1 8408   5.533   0.060   4.158
 2503SOL    HW2 8409   5.524   7.006   4.300
 2504SOL     OW 8410   2.219   4.053   3.150
 2504SOL    HW1 8411   2.230   4.152   3.158
 2504SOL    HW2 8412   2.194   4.030   3.056
 2505SOL     OW 8413   5.045   4.052   4.592
 2505SOL    HW1 8414   5.083   4.079   4.504
 2505SOL    HW2 8415   5.116   4.010   4.648
 2506SOL     OW 8416   0.853   1.226   0.822
 2506SOL    HW1 8417   0.805   1.287   0.885
 2506SOL    HW2 8418   0.794   1.206   0.744
 2507SOL     OW 8419   6.523   6.473   0.014
 2507SOL    HW1 8420   6.449   6.504   6.979
 2507SOL    HW2 8421   6.573   6.399   6.993
 2508SOL     OW 8422   2.186   2.466   1.738
 2508SOL    HW1 8423   2.191   2.551   1.685
 2508SOL    HW2 8424   2.279   2.434   1.757
 2509SOL     OW 8425   5.760   1.486   3.236
 2509SOL    HW1 8426   5.851   1.517   3.265
 2509SOL    HW2 8427   5.692   1.556   3.258
 2510SOL     OW 8428   3.936   5.877   2.440
 2510SOL    HW1 8429   3.943   5.785   2.479
 2510SOL    HW2 8430   4.008   5.889   2.371
 2511SOL     OW 8431   1.179   7.012   3.282
 2511SOL    HW1 8432   1.152   6.929   3.234
 2511SOL    HW2 8433   1.098   0.028   3.326
 2512SOL     OW 8434   5.670   3.349   4.130
 2512SOL    HW1 8435   5.585   3.398   4.111
 2512SOL    HW2 8436   5.680   3.338   4.229
 2513SOL     OW 8437   0.208   4.365   1.231
 2513SOL    HW1 8438   0.256   4.430   1.172
 2513SOL    HW2 8439   0.111   4.387   1.234
 2514SOL     OW 8440   0.215   2.645   3.983
 2514SOL    HW1 8441   0.138   2.707   3.982
 2514SOL    HW2 8442   0.187   2.556   3.948
 2515SOL     OW 8443   1.391   4.684   0.222
 2515SOL    HW1 8444   1.435   4.753   0.280
 2515SOL    HW2 8445   1.439   4.677   0.135
 2516SOL     OW 8446   4.970   6.499   3.879
 2516SOL    HW1 8447   4.933   6.466   3.792
 2516SOL    HW2 8448   4.919   6.580   3.908
 2517SOL     OW 8449   1.893   5.472   1.019
 2517SOL    HW1 8450   1.937   5.439   1.102
 2517SOL    HW2 8451   1.859   5.393   0.967
 2518SOL     OW 8452   2.012   3.076   6.781
 2518SOL    HW1 8453   1.973   3.005   6.722
 2518SOL    HW2 8454   1.939   3.140   6.807
 2519SOL     OW 8455   5.911   4.218   5.209
 2519SOL    HW1 8456   5.844   4.290   5.194
 2519SOL    HW2 8457   5.887   4.138   5.153
 2520SOL     OW 8458   3.534   5.653   1.962
 2520SOL    HW1 8459   3.449   5.692   1.926
 2520SOL    HW2 8460   3.545   5.560   1.925
 2521SOL     OW 8461   5.360   6.661   5.897
 2521SOL    HW1 8462   5.293   6.598   5.859
 2521SOL    HW2 8463   5.317   6.717   5.968
 2522SOL     OW 8464   2.660   4.656   4.246
 2522SOL    HW1 8465   2.693   4.564   4.267
 2522SOL    HW2 8466   2.569   4.669   4.284
 2523SOL     OW 8467   0.912   2.211   5.496
 2523SOL    HW1 8468   0.951   2.120   5.476
 2523SOL    HW2 8469   0.983   2.269   5.536
 2524SOL     OW 8470   1.485   6.866   4.480
 2524SOL    HW1 8471   1.545   6.821   4.413
 2524SOL    HW2 8472   1.529   6.949   4.514
 2525SOL     OW 8473   2.494   4.696   2.591
 2525SOL    HW1 8474   2.562   4.745   2.535
 2525SOL    HW2 8475   2.466   4.613   2.544
 2526SOL     OW 8476   1.993   2.177   4.797
 2526SOL    HW1 8477   1.987   2.270   4.760
 2526SOL    HW2 8478   2.085   2.141   4.781
 2527SOL     OW 8479   6.720   0.283   4.113
 2527SOL    HW1 8480   6.653   0.214   4.087
 2527SOL    HW2 8481   6.693   0.324   4.201
 2528SOL     OW 8482   5.991   5.394   0.211
 2528SOL    HW1 8483   5.967   5.417   0.117
 2528SOL    HW2 8484   6.090   5.406   0.224
 2529SOL     OW 8485   5.123   3.860   5.407
 2529SOL    HW1 8486   5.171   3.773   5.410
 2529SOL    HW2 8487   5.026   3.844   5.386
 2530SOL     OW 8488   1.219   6.370   3.315
 2530SOL    HW1 8489   1.174   6.460   3.317
 2530SOL    HW2 8490   1.150   6.298   3.305
 2531SOL     OW 8491   4.807   1.168   6.761
 2531SOL    HW1 8492   4.781   1.091   6.819
 2531SOL    HW2 8493   4.859   1.135   6.682
 2532SOL     OW 8494   0.931   4.735   5.884
 2532SOL    HW1 8495   0.840   4.774   5.877
 2532SOL    HW2 8496   0.928   4.652   5.940
 2533SOL     OW 8497   5.721   0.168   5.463
 2533SOL    HW1 8498   5.720   0.080   5.416
 2533SOL    HW2 8499   5.797   0.170   5.528
 2534SOL     OW 8500   6.869   1.891   3.131
 2534SOL    HW1 8501   6.858   1.937   3.220
 2534SOL    HW2 8502   6.936   1.941   3.076
 2535SOL     OW 8503   2.642   1.161   2.907
 2535SOL    HW1 8504   2.715   1.227   2.923
 2535SOL    HW2 8505   2.675   1.069   2.931
 2536SOL     OW 8506   0.373   0.892   4.403
 2536SOL    HW1 8507   0.336   0.976   4.364
 2536SOL    HW2 8508   0.301   0.823   4.407
 2537SOL     OW 8509   3.813   6.445   2.154
 2537SOL    HW1 8510   3.731   6.481   2.110
 2537SOL    HW2 8511   3.799   6.349   2.177
 2538SOL     OW 8512   0.530   4.713   5.072
 2538SOL    HW1 8513   0.594   4.645   5.037
 2538SOL    HW2 8514   0.475   4.749   4.997
 2539SOL     OW 8515   2.232   0.483   5.521
 2539SOL    HW1 8516   2.253   0.407   5.583
 2539SOL    HW2 8517   2.163   0.542   5.562
 2540SOL     OW 8518   5.141   1.978   2.464
 2540SOL    HW1 8519   5.192   2.005   2.382
 2540SOL    HW2 8520   5.129   1.879   2.465
 2541SOL     OW 8521   1.103   1.748   6.024
 2541SOL    HW1 8522   1.031   1.806   5.984
 2541SOL    HW2 8523   1.160   1.712   5.951
 2542SOL     OW 8524   3.939   2.127   3.736
 2542SOL    HW1 8525   3.866   2.144   3.802
 2542SOL    HW2 8526   4.017   2.186   3.755
 2543SOL     OW 8527   6.889   1.493   4.736
 2543SOL    HW1 8528   6.942   1.555   4.793
 2543SOL    HW2 8529   6.805   1.466   4.783
 2544SOL     OW 8530   6.928   6.409   2.053
 2544SOL    HW1 8531   7.020   6.440   2.030
 2544SOL    HW2 8532   6.865   6.486   2.052
 2545SOL     OW 8533   6.827   1.381   0.150
 2545SOL    HW1 8534   6.797   1.378   0.245
 2545SOL    HW2 8535   6.748   1.379   0.089
 2546SOL     OW 8536   6.182   3.076   2.496
 2546SOL    HW1 8537   6.260   3.127   2.457
 2546SOL    HW2 8538   6.097   3.121   2.470
 2547SOL     OW 8539   5.782   4.119   1.205
 2547SOL    HW1 8540   5.706   4.170   1.245
 2547SOL    HW2 8541   5.855   4.109   1.273
 2548SOL     OW 8542   6.258   0.851   5.785
 2548SOL    HW1 8543   6.232   0.933   5.837
 2548SOL    HW2 8544   6.342   0.813   5.822
 2549SOL     OW 8545   2.637   5.232   0.853
 2549SOL    HW1 8546   2.606   5.221   0.758
 2549SOL    HW2 8547   2.559   5.260   0.910
 2550SOL     OW 8548   3.814   6.722   0.920
 2550SOL    HW1 8549   3.734   6.704   0.864
 2550SOL    HW2 8550   3.888   6.758   0.863
 2551SOL     OW 8551   3.399   4.666   1.068
 2551SOL    HW1 8552   3.322   4.640   1.127
 2551SOL    HW2 8553   3.366   4.727   0.996
 2552SOL     OW 8554   2.386   4.008   1.769
 2552SOL    HW1 8555   2.304   3.987   1.717
 2552SOL    HW2 8556   2.396   3.942   1.844
 2553SOL     OW 8557   4.645   1.180   0.055
 2553SOL    HW1 8558   4.563   1.207   0.004
 2553SOL    HW2 8559   4.685   1.099   0.012
 2554SOL     OW 8560   0.979   5.550   1.028
 2554SOL    HW1 8561   1.018   5.461   1.051
 2554SOL    HW2 8562   1.052   5.614   1.006
 2555SOL     OW 8563   0.258   6.558   5.304
 2555SOL    HW1 8564   0.272   6.461   5.287
 2555SOL    HW2 8565   0.324   6.591   5.371
 2556SOL     OW 8566   4.593   0.249   1.117
 2556SOL    HW1 8567   4.533   0.260   1.038
 2556SOL    HW2 8568   4.547   0.283   1.199
 2557SOL     OW 8569   2.940   1.068   6.972
 2557SOL    HW1 8570   2.842   1.051   6.960
 2557SOL    HW2 8571   2.977   1.112   6.890
 2558SOL     OW 8572   5.523   1.774   1.517
 2558SOL    HW1 8573   5.514   1.686   1.470
 2558SOL    HW2 8574   5.521   1.848   1.450
 2559SOL     OW 8575   6.718   5.633   3.277
 2559SOL    HW1 8576   6.678   5.680   3.356
 2559SOL    HW2 8577   6.730   5.536   3.299
 2560SOL     OW 8578   4.571   2.472   1.951
 2560SOL    HW1 8579   4.496   2.433   2.005
 2560SOL    HW2 8580   4.632   2.523   2.011
 2561SOL     OW 8581   3.209   0.182   4.639
 2561SOL    HW1 8582   3.136   0.190   4.706
 2561SOL    HW2 8583   3.189   0.106   4.577
 2562SOL     OW 8584   1.684   6.423   5.414
 2562SOL    HW1 8585   1.625   6.347   5.388
 2562SOL    HW2 8586   1.746   6.395   5.487
 2563SOL     OW 8587   3.745   2.888   6.595
 2563SOL    HW1 8588   3.706   2.910   6.506
 2563SOL    HW2 8589   3.817   2.953   6.617
 2564SOL     OW 8590   1.617   1.938   0.272
 2564SOL    HW1 8591   1.699   1.917   0.325
 2564SOL    HW2 8592   1.614   1.880   0.190
 2565SOL     OW 8593   0.757   0.956   0.707
 2565SOL    HW1 8594   0.842   0.965   0.655
 2565SOL    HW2 8595   0.682   0.998   0.657
 2566SOL     OW 8596   2.900   0.966   0.594
 2566SOL    HW1 8597   2.978   0.977   0.655
 2566SOL    HW2 8598   2.932   0.936   0.504
 2567SOL     OW 8599   1.969   0.685   6.531
 2567SOL    HW1 8600   2.028   0.744   6.476
 2567SOL    HW2 8601   1.892   0.654   6.477
 2568SOL     OW 8602   2.046   5.432   1.233
 2568SOL    HW1 8603   2.022   5.494   1.308
 2568SOL    HW2 8604   2.122   5.374   1.261
 2569SOL     OW 8605   1.847   6.449   6.830
 2569SOL    HW1 8606   1.758   6.451   6.785
 2569SOL    HW2 8607   1.919   6.434   6.762
 2570SOL     OW 8608   0.937   6.375   3.811
 2570SOL    HW1 8609   0.973   6.282   3.811
 2570SOL    HW2 8610   0.961   6.420   3.897
 2571SOL     OW 8611   3.283   4.120   2.977
 2571SOL    HW1 8612   3.304   4.107   2.880
 2571SOL    HW2 8613   3.367   4.118   3.030
 2572SOL     OW 8614   2.825   5.064   2.745
 2572SOL    HW1 8615   2.915   5.020   2.747
 2572SOL    HW2 8616   2.763   5.016   2.807
 2573SOL     OW 8617   6.444   1.023   3.309
 2573SOL    HW1 8618   6.455   1.105   3.366
 2573SOL    HW2 8619   6.432   1.051   3.214
 2574SOL     OW 8620   0.459   3.685   2.235
 2574SOL    HW1 8621   0.545   3.634   2.224
 2574SOL    HW2 8622   0.465   3.771   2.185
 2575SOL     OW 8623   4.848   3.823   5.775
 2575SOL    HW1 8624   4.778   3.839   5.706
 2575SOL    HW2 8625   4.869   3.725   5.779
 2576SOL     OW 8626   0.756   0.501   3.490
 2576SOL    HW1 8627   0.788   0.487   3.396
 2576SOL    HW2 8628   0.780   0.422   3.546
 2577SOL     OW 8629   1.769   4.737   1.859
 2577SOL    HW1 8630   1.848   4.683   1.830
 2577SOL    HW2 8631   1.721   4.772   1.779
 2578SOL     OW 8632   4.724   2.248   5.138
 2578SOL    HW1 8633   4.647   2.240   5.201
 2578SOL    HW2 8634   4.759   2.157   5.116
 2579SOL     OW 8635   0.442   1.142   6.499
 2579SOL    HW1 8636   0.512   1.143   6.427
 2579SOL    HW2 8637   0.485   1.161   6.587
 2580SOL     OW 8638   1.805   1.561   5.613
 2580SOL    HW1 8639   1.871   1.614   5.665
 2580SOL    HW2 8640   1.848   1.477   5.581
 2581SOL     OW 8641   6.101   6.461   4.445
 2581SOL    HW1 8642   6.185   6.505   4.413
 2581SOL    HW2 8643   6.041   6.529   4.487
 2582SOL     OW 8644   6.997   4.929   2.886
 2582SOL    HW1 8645   0.050   4.991   2.889
 2582SOL    HW2 8646   6.962   4.923   2.793
 2583SOL     OW 8647   2.795   0.998   6.671
 2583SOL    HW1 8648   2.868   1.066   6.676
 2583SOL    HW2 8649   2.711   1.041   6.639
 2584SOL     OW 8650   4.566   0.546   3.513
 2584SOL    HW1 8651   4.564   0.481   3.589
 2584SOL    HW2 8652   4.618   0.507   3.438
 2585SOL     OW 8653   4.062   1.470   1.880
 2585SOL    HW1 8654   4.091   1.545   1.939
 2585SOL    HW2 8655   4.127   1.395   1.887
 2586SOL     OW 8656   0.132   1.374   4.332
 2586SOL    HW1 8657   0.072   1.391   4.410
 2586SOL    HW2 8658   0.226   1.397   4.357
 2587SOL     OW 8659   6.829   5.283   2.587
 2587SOL    HW1 8660   6.914   5.275   2.640
 2587SOL    HW2 8661   6.756   5.232   2.633
 2588SOL     OW 8662   4.329   0.168   2.319
 2588SOL    HW1 8663   4.338   0.264   2.347
 2588SOL    HW2 8664   4.245   0.130   2.358
 2589SOL     OW 8665   4.639   6.413   1.275
 2589SOL    HW1 8666   4.647   6.319   1.243
 2589SOL    HW2 8667   4.568   6.419   1.346
 2590SOL     OW 8668   3.249   6.298   3.397
 2590SOL    HW1 8669   3.300   6.233   3.452
 2590SOL    HW2 8670   3.312   6.352   3.341
 2591SOL     OW 8671   6.234   0.397   0.987
 2591SOL    HW1 8672   6.245   0.496   0.987
 2591SOL    HW2 8673   6.202   0.367   1.077
 2592SOL     OW 8674   2.940   4.793   1.802
 2592SOL    HW1 8675   2.902   4.705   1.832
 2592SOL    HW2 8676   2.996   4.831   1.875
 2593SOL     OW 8677   3.507   6.838   3.140
 2593SOL    HW1 8678   3.598   6.864   3.107
 2593SOL    HW2 8679   3.485   6.745   3.109
 2594SOL     OW 8680   1.364   6.006   6.659
 2594SOL    HW1 8681   1.312   6.019   6.575
 2594SOL    HW2 8682   1.456   5.976   6.637
 2595SOL     OW 8683   6.849   2.548   3.978
 2595SOL    HW1 8684   6.830   2.638   4.018
 2595SOL    HW2 8685   6.849   2.479   4.050
 2596SOL     OW 8686   3.914   2.063   1.320
 2596SOL    HW1 8687   3.900   2.144   1.377
 2596SOL    HW2 8688   3.991   2.079   1.258
 2597SOL     OW 8689   2.168   2.574   6.826
 2597SOL    HW1 8690   2.140   2.614   6.739
 2597SOL    HW2 8691   2.097   2.510   6.858
 2598SOL     OW 8692   6.502   0.863   2.831
 2598SOL    HW1 8693   6.533   0.783   2.779
 2598SOL    HW2 8694   6.407   0.851   2.857
 2599SOL     OW 8695   4.886   5.859   6.480
 2599SOL    HW1 8696   4.877   5.844   6.381
 2599SOL    HW2 8697   4.865   5.774   6.528
 2600SOL     OW 8698   0.327   2.379   4.142
 2600SOL    HW1 8699   0.254   2.405   4.079
 2600SOL    HW2 8700   0.324   2.280   4.158
 2601SOL     OW 8701   3.875   4.162   5.033
 2601SOL    HW1 8702   3.949   4.136   4.970
 2601SOL    HW2 8703   3.787   4.155   4.987
 2602SOL     OW 8704   6.140   6.034   5.793
 2602SOL    HW1 8705   6.169   6.108   5.731
 2602SOL    HW2 8706   6.217   6.006   5.850
 2603SOL     OW 8707   1.523   2.025   6.705
 2603SOL    HW1 8708   1.570   1.944   6.671
 2603SOL    HW2 8709   1.427   2.004   6.720
 2604SOL     OW 8710   5.773   1.560   1.073
 2604SOL    HW1 8711   5.746   1.553   0.977
 2604SOL    HW2 8712   5.721   1.494   1.127
 2605SOL     OW 8713   6.131   3.282   4.326
 2605SOL    HW1 8714   6.228   3.281   4.301
 2605SOL    HW2 8715   6.075   3.270   4.244
 2606SOL     OW 8716   6.888   4.354   1.181
 2606SOL    HW1 8717   6.803   4.405   1.168
 2606SOL    HW2 8718   6.867   4.257   1.195
 2607SOL     OW 8719   1.178   1.651   4.216
 2607SOL    HW1 8720   1.259   1.594   4.203
 2607SOL    HW2 8721   1.116   1.637   4.139
 2608SOL     OW 8722   5.003   7.009   0.702
 2608SOL    HW1 8723   5.004   7.022   0.603
 2608SOL    HW2 8724   5.084   0.028   0.742
 2609SOL     OW 8725   0.335   3.305   3.495
 2609SOL    HW1 8726   0.354   3.222   3.444
 2609SOL    HW2 8727   0.249   3.295   3.545
 2610SOL     OW 8728   5.624   5.742   4.446
 2610SOL    HW1 8729   5.682   5.664   4.470
 2610SOL    HW2 8730   5.681   5.823   4.433
 2611SOL     OW 8731   2.858   5.397   2.215
 2611SOL    HW1 8732   2.826   5.363   2.126
 2611SOL    HW2 8733   2.923   5.472   2.200
 2612SOL     OW 8734   0.347   6.917   5.224
 2612SOL    HW1 8735   0.285   6.928   5.147
 2612SOL    HW2 8736   0.441   6.912   5.190
 2613SOL     OW 8737   3.540   0.772   0.723
 2613SOL    HW1 8738   3.449   0.744   0.754
 2613SOL    HW2 8739   3.593   0.690   0.702
 2614SOL     OW 8740   6.610   6.287   6.646
 2614SOL    HW1 8741   6.665   6.251   6.570
 2614SOL    HW2 8742   6.517   6.251   6.638
 2615SOL     OW 8743   5.781   4.268   1.607
 2615SOL    HW1 8744   5.723   4.197   1.647
 2615SOL    HW2 8745   5.740   4.357   1.624
 2616SOL     OW 8746   4.159   3.754   2.048
 2616SOL    HW1 8747   4.253   3.786   2.041
 2616SOL    HW2 8748   4.153   3.680   2.115
 2617SOL     OW 8749   2.799   6.930   0.962
 2617SOL    HW1 8750   2.731   6.870   0.920
 2617SOL    HW2 8751   2.765   7.025   0.959
 2618SOL     OW 8752   0.814   0.140   0.498
 2618SOL    HW1 8753   0.877   0.186   0.560
 2618SOL    HW2 8754   0.844   0.155   0.404
 2619SOL     OW 8755   5.970   1.817   1.680
 2619SOL    HW1 8756   5.872   1.836   1.685
 2619SOL    HW2 8757   5.993   1.786   1.588
 2620SOL     OW 8758   1.422   5.413   4.140
 2620SOL    HW1 8759   1.493   5.360   4.186
 2620SOL    HW2 8760   1.371   5.353   4.077
 2621SOL     OW 8761   0.455   5.142   4.085
 2621SOL    HW1 8762   0.389   5.212   4.058
 2621SOL    HW2 8763   0.453   5.067   4.020
 2622SOL     OW 8764   2.468   2.427   5.800
 2622SOL    HW1 8765   2.518   2.488   5.738
 2622SOL    HW2 8766   2.519   2.342   5.811
 2623SOL     OW 8767   3.361   0.301   6.451
 2623SOL    HW1 8768   3.417   0.268   6.527
 2623SOL    HW2 8769   3.303   0.227   6.418
 2624SOL     OW 8770   6.333   1.830   4.246
 2624SOL    HW1 8771   6.394   1.899   4.208
 2624SOL    HW2 8772   6.373   1.740   4.234
 2625SOL     OW 8773   3.901   0.029   6.223
 2625SOL    HW1 8774   3.976   0.056   6.163
 2625SOL    HW2 8775   3.848   6.981   6.179
 2626SOL     OW 8776   2.182   0.304   2.781
 2626SOL    HW1 8777   2.136   0.261   2.704
 2626SOL    HW2 8778   2.211   0.396   2.755
 2627SOL     OW 8779   0.523   1.037   4.956
 2627SOL    HW1 8780   0.492   0.984   4.878
 2627SOL    HW2 8781   0.622   1.047   4.953
 2628SOL     OW 8782   3.699   6.050   6.609
 2628SOL    HW1 8783   3.735   6.116   6.543
 2628SOL    HW2 8784   3.723   6.078   6.702
 2629SOL     OW 8785   3.029   3.821   1.144
 2629SOL    HW1 8786   2.958   3.863   1.201
 2629SOL    HW2 8787   3.062   3.737   1.187
 2630SOL     OW 8788   2.720   2.384   2.468
 2630SOL    HW1 8789   2.675   2.441   2.536
 2630SOL    HW2 8790   2.715   2.288   2.496
 2631SOL     OW 8791   4.067   6.015   4.636
 2631SOL    HW1 8792   3.970   5.995   4.652
 2631SOL    HW2 8793   4.118   5.929   4.630
 2632SOL     OW 8794   4.895   0.870   0.991
 2632SOL    HW1 8795   4.839   0.926   1.053
 2632SOL    HW2 8796   4.891   0.909   0.899
 2633SOL     OW 8797   6.740   2.732   6.954
 2633SOL    HW1 8798   6.669   2.686   7.007
 2633SOL    HW2 8799   6.698   2.798   6.892
 2634SOL     OW 8800   3.324   5.209   1.158
 2634SOL    HW1 8801   3.329   5.265   1.075
 2634SOL    HW2 8802   3.254   5.139   1.146
 2635SOL     OW 8803   6.281   4.665   3.501
 2635SOL    HW1 8804   6.366   4.641   3.453
 2635SOL    HW2 8805   6.255   4.591   3.563
 2636SOL     OW 8806   5.737   6.383   5.016
 2636SOL    HW1 8807   5.717   6.445   5.093
 2636SOL    HW2 8808   5.657   6.377   4.957
 2637SOL     OW 8809   5.360   6.392   2.452
 2637SOL    HW1 8810   5.406   6.396   2.541
 2637SOL    HW2 8811   5.279   6.451   2.454
 2638SOL     OW 8812   5.247   5.668   0.843
 2638SOL    HW1 8813   5.177   5.662   0.771
 2638SOL    HW2 8814   5.269   5.764   0.860
 2639SOL     OW 8815   6.737   6.353   6.268
 2639SOL    HW1 8816   6.793   6.354   6.185
 2639SOL    HW2 8817   6.640   6.356   6.244
 2640SOL     OW 8818   6.363   6.726   6.653
 2640SOL    HW1 8819   6.371   6.825   6.650
 2640SOL    HW2 8820   6.354   6.690   6.560
 2641SOL     OW 8821   6.270   5.331   0.225
 2641SOL    HW1 8822   6.364   5.330   0.192
 2641SOL    HW2 8823   6.270   5.321   0.325
 2642SOL     OW 8824   6.555   0.880   4.265
 2642SOL    HW1 8825   6.467   0.926   4.255
 2642SOL    HW2 8826   6.565   0.811   4.193
 2643SOL     OW 8827   2.354   0.335   2.078
 2643SOL    HW1 8828   2.272   0.360   2.027
 2643SOL    HW2 8829   2.424   0.303   2.015
 2644SOL     OW 8830   0.137   5.914   5.214
 2644SOL    HW1 8831   0.100   5.826   5.243
 2644SOL    HW2 8832   0.106   5.935   5.122
 2645SOL     OW 8833   6.028   5.758   6.032
 2645SOL    HW1 8834   6.030   5.769   5.932
 2645SOL    HW2 8835   6.087   5.681   6.058
 2646SOL     OW 8836   5.984   6.376   6.962
 2646SOL    HW1 8837   6.023   6.299   7.011
 2646SOL    HW2 8838   5.888   6.388   6.988
 2647SOL     OW 8839   3.200   3.130   0.388
 2647SOL    HW1 8840   3.243   3.213   0.352
 2647SOL    HW2 8841   3.265   3.054   0.384
 2648SOL     OW 8842   4.308   1.310   3.502
 2648SOL    HW1 8843   4.265   1.344   3.585
 2648SOL    HW2 8844   4.399   1.275   3.523
 2649SOL     OW 8845   3.395   2.801   5.239
 2649SOL    HW1 8846   3.366   2.824   5.146
 2649SOL    HW2 8847   3.325   2.745   5.283
 2650SOL     OW 8848   6.621   6.825   2.437
 2650SOL    HW1 8849   6.665   6.911   2.462
 2650SOL    HW2 8850   6.609   6.821   2.338
 2651SOL     OW 8851   0.308   0.103   3.624
 2651SOL    HW1 8852   0.397   0.147   3.626
 2651SOL    HW2 8853   0.236   0.172   3.610
 2652SOL     OW 8854   3.322   2.905   3.136
 2652SOL    HW1 8855   3.276   2.968   3.074
 2652SOL    HW2 8856   3.260   2.881   3.211
 2653SOL     OW 8857   6.733   5.419   0.321
 2653SOL    HW1 8858   6.686   5.496   0.365
 2653SOL    HW2 8859   6.692   5.333   0.352
 2654SOL     OW 8860   6.204   1.334   5.844
 2654SOL    HW1 8861   6.273   1.365   5.779
 2654SOL    HW2 8862   6.170   1.411   5.897
 2655SOL     OW 8863   5.087   5.544   4.885
 2655SOL    HW1 8864   5.033   5.549   4.801
 2655SOL    HW2 8865   5.098   5.635   4.924
 2656SOL     OW 8866   5.581   3.407   4.856
 2656SOL    HW1 8867   5.678   3.433   4.849
 2656SOL    HW2 8868   5.525   3.489   4.849
 2657SOL     OW 8869   3.213   2.182   6.100
 2657SOL    HW1 8870   3.212   2.281   6.083
 2657SOL    HW2 8871   3.302   2.145   6.077
 2658SOL     OW 8872   6.103   4.048   5.325
 2658SOL    HW1 8873   6.062   4.115   5.262
 2658SOL    HW2 8874   6.064   4.060   5.416
 2659SOL     OW 8875   6.348   1.474   3.639
 2659SOL    HW1 8876   6.291   1.471   3.557
 2659SOL    HW2 8877   6.298   1.434   3.716
 2660SOL     OW 8878   6.888   2.160   2.837
 2660SOL    HW1 8879   6.822   2.131   2.767
 2660SOL    HW2 8880   6.981   2.140   2.805
 2661SOL     OW 8881   3.560   6.907   2.301
 2661SOL    HW1 8882   3.600   6.822   2.336
 2661SOL    HW2 8883   3.632   6.976   2.294
 2662SOL     OW 8884   3.681   0.796   3.662
 2662SOL    HW1 8885   3.755   0.803   3.595
 2662SOL    HW2 8886   3.623   0.877   3.655
 2663SOL     OW 8887   0.560   4.074   2.940
 2663SOL    HW1 8888   0.604   4.094   3.027
 2663SOL    HW2 8889   0.578   3.979   2.914
 2664SOL     OW 8890   4.170   4.052   1.773
 2664SOL    HW1 8891   4.126   4.104   1.700
 2664SOL    HW2 8892   4.258   4.094   1.797
 2665SOL     OW 8893   4.896   0.673   4.728
 2665SOL    HW1 8894   4.924   0.695   4.634
 2665SOL    HW2 8895   4.946   0.592   4.759
 2666SOL     OW 8896   5.058   6.369   1.779
 2666SOL    HW1 8897   5.044   6.334   1.686
 2666SOL    HW2 8898   5.025   6.463   1.784
 2667SOL     OW 8899   1.789   5.266   3.351
 2667SOL    HW1 8900   1.815   5.264   3.448
 2667SOL    HW2 8901   1.751   5.356   3.329
 2668SOL     OW 8902   6.499   2.234   5.740
 2668SOL    HW1 8903   6.564   2.289   5.688
 2668SOL    HW2 8904   6.538   2.212   5.829
 2669SOL     OW 8905   4.469   5.671   5.394
 2669SOL    HW1 8906   4.405   5.731   5.346
 2669SOL    HW2 8907   4.456   5.680   5.492
 2670SOL     OW 8908   2.150   6.930   5.430
 2670SOL    HW1 8909   2.217   6.916   5.503
 2670SOL    HW2 8910   2.133   0.003   5.418
 2671SOL     OW 8911   3.259   4.430   6.399
 2671SOL    HW1 8912   3.191   4.382   6.454
 2671SOL    HW2 8913   3.257   4.393   6.305
 2672SOL     OW 8914   1.400   4.151   0.137
 2672SOL    HW1 8915   1.435   4.233   0.091
 2672SOL    HW2 8916   1.305   4.165   0.163
 2673SOL     OW 8917   4.160   2.235   3.826
 2673SOL    HW1 8918   4.228   2.163   3.813
 2673SOL    HW2 8919   4.203   2.324   3.811
 2674SOL     OW 8920   6.245   5.616   5.441
 2674SOL    HW1 8921   6.236   5.519   5.466
 2674SOL    HW2 8922   6.314   5.659   5.500
 2675SOL     OW 8923   0.679   4.211   5.351
 2675SOL    HW1 8924   0.599   4.160   5.320
 2675SOL    HW2 8925   0.702   4.183   5.444
 2676SOL     OW 8926   4.794   0.446   1.866
 2676SOL    HW1 8927   4.779   0.478   1.960
 2676SOL    HW2 8928   4.727   0.374   1.845
 2677SOL     OW 8929   2.602   4.616   2.286
 2677SOL    HW1 8930   2.671   4.658   2.345
 2677SOL    HW2 8931   2.635   4.614   2.192
 2678SOL     OW 8932   0.147   6.408   6.286
 2678SOL    HW1 8933   0.119   6.492   6.240
 2678SOL    HW2 8934   0.088   6.392   6.366
 2679SOL     OW 8935   2.833   4.921   1.056
 2679SOL    HW1 8936   2.921   4.872   1.057
 2679SOL    HW2 8937   2.845   5.009   1.009
 2680SOL     OW 8938   1.704   2.431   1.438
 2680SOL    HW1 8939   1.722   2.350   1.494
 2680SOL    HW2 8940   1.675   2.507   1.497
 2681SOL     OW 8941   1.797   1.805   2.561
 2681SOL    HW1 8942   1.752   1.803   2.650
 2681SOL    HW2 8943   1.885   1.758   2.567
 2682SOL     OW 8944   6.175   2.352   3.862
 2682SOL    HW1 8945   6.269   2.328   3.884
 2682SOL    HW2 8946   6.133   2.279   3.807
 2683SOL     OW 8947   1.445   0.407   0.953
 2683SOL    HW1 8948   1.383   0.331   0.972
 2683SOL    HW2 8949   1.537   0.383   0.984
 2684SOL     OW 8950   2.471   5.645   3.304
 2684SOL    HW1 8951   2.492   5.547   3.307
 2684SOL    HW2 8952   2.372   5.659   3.300
 2685SOL     OW 8953   5.607   6.288   5.283
 2685SOL    HW1 8954   5.646   6.199   5.305
 2685SOL    HW2 8955   5.610   6.346   5.364
 2686SOL     OW 8956   1.179   3.042   4.594
 2686SOL    HW1 8957   1.160   2.966   4.531
 2686SOL    HW2 8958   1.157   3.013   4.687
 2687SOL     OW 8959   4.710   4.739   2.896
 2687SOL    HW1 8960   4.699   4.802   2.974
 2687SOL    HW2 8961   4.737   4.649   2.930
 2688SOL     OW 8962   4.167   5.033   5.669
 2688SOL    HW1 8963   4.150   5.106   5.603
 2688SOL    HW2 8964   4.176   4.946   5.621
 2689SOL     OW 8965   0.107   3.302   4.159
 2689SOL    HW1 8966   0.201   3.337   4.169
 2689SOL    HW2 8967   0.087   3.239   4.233
 2690SOL     OW 8968   3.694   2.904   3.349
 2690SOL    HW1 8969   3.689   2.806   3.327
 2690SOL    HW2 8970   3.629   2.924   3.422
 2691SOL     OW 8971   1.061   5.820   1.749
 2691SOL    HW1 8972   1.139   5.841   1.690
 2691SOL    HW2 8973   1.034   5.724   1.736
 2692SOL     OW 8974   0.276   5.314   3.212
 2692SOL    HW1 8975   0.355   5.256   3.190
 2692SOL    HW2 8976   0.282   5.399   3.161
 2693SOL     OW 8977   1.688   3.282   2.858
 2693SOL    HW1 8978   1.639   3.355   2.907
 2693SOL    HW2 8979   1.779   3.271   2.897
 2694SOL     OW 8980   2.741   0.948   3.060
 2694SOL    HW1 8981   2.687   0.981   3.138
 2694SOL    HW2 8982   2.709   0.857   3.033
 2695SOL     OW 8983   3.862   2.149   2.675
 2695SOL    HW1 8984   3.902   2.189   2.592
 2695SOL    HW2 8985   3.821   2.061   2.652
 2696SOL     OW 8986   4.052   3.956   5.149
 2696SOL    HW1 8987   3.996   3.989   5.073
 2696SOL    HW2 8988   4.092   3.868   5.126
 2697SOL     OW 8989   2.570   2.013   4.170
 2697SOL    HW1 8990   2.522   1.959   4.239
 2697SOL    HW2 8991   2.583   1.958   4.087
 2698SOL     OW 8992   2.255   3.417   6.558
 2698SOL    HW1 8993   2.297   3.375   6.639
 2698SOL    HW2 8994   2.323   3.422   6.485
 2699SOL     OW 8995   2.710   5.813   2.911
 2699SOL    HW1 8996   2.641   5.748   2.943
 2699SOL    HW2 8997   2.746   5.865   2.988
 2700SOL     OW 8998   1.576   4.375   2.979
 2700SOL    HW1 8999   1.514   4.411   2.909
 2700SOL    HW2 9000   1.586   4.276   2.967
 2701SOL     OW 9001   3.600   0.184   5.636
 2701SOL    HW1 9002   3.695   0.210   5.618
 2701SOL    HW2 9003   3.567   0.231   5.718
 2702SOL     OW 9004   6.964   6.391   2.920
 2702SOL    HW1 9005   6.962   6.479   2.872
 2702SOL    HW2 9006   6.930   6.403   3.013
 2703SOL     OW 9007   1.547   1.737   3.324
 2703SOL    HW1 9008   1.479   1.807   3.301
 2703SOL    HW2 9009   1.540   1.714   3.421
 2704SOL     OW 9010   1.014   6.517   0.241
 2704SOL    HW1 9011   0.988   6.503   0.145
 2704SOL    HW2 9012   1.003   6.431   0.292
 2705SOL     OW 9013   6.978   4.285   2.682
 2705SOL    HW1 9014   6.988   4.188   2.702
 2705SOL    HW2 9015   7.017   4.305   2.592
 2706SOL     OW 9016   6.669   2.421   2.297
 2706SOL    HW1 9017   6.671   2.404   2.198
 2706SOL    HW2 9018   6.668   2.334   2.346
 2707SOL     OW 9019   2.437   1.551   6.266
 2707SOL    HW1 9020   2.508   1.491   6.230
 2707SOL    HW2 9021   2.352   1.500   6.277
 2708SOL     OW 9022   1.772   4.277   0.748
 2708SOL    HW1 9023   1.870   4.291   0.755
 2708SOL    HW2 9024   1.737   4.326   0.668
 2709SOL     OW 9025   4.020   6.699   1.564
 2709SOL    HW1 9026   3.972   6.734   1.644
 2709SOL    HW2 9027   3.972   6.727   1.481
 2710SOL     OW 9028   6.341   4.291   2.629
 2710SOL    HW1 9029   6.254   4.323   2.668
 2710SOL    HW2 9030   6.342   4.312   2.531
 2711SOL     OW 9031   1.097   6.560   1.970
 2711SOL    HW1 9032   1.164   6.490   1.996
 2711SOL    HW2 9033   1.139   6.625   1.907
 2712SOL     OW 9034   3.432   5.190   2.876
 2712SOL    HW1 9035   3.467   5.113   2.822
 2712SOL    HW2 9036   3.359   5.158   2.937
 2713SOL     OW 9037   2.298   2.307   5.070
 2713SOL    HW1 9038   2.230   2.380   5.077
 2713SOL    HW2 9039   2.381   2.333   5.119
 2714SOL     OW 9040   5.596   0.297   5.842
 2714SOL    HW1 9041   5.579   0.218   5.901
 2714SOL    HW2 9042   5.695   0.312   5.834
 2715SOL     OW 9043   6.134   0.013   0.599
 2715SOL    HW1 9044   6.121   6.978   0.678
 2715SOL    HW2 9045   6.053   0.069   0.585
 2716SOL     OW 9046   6.952   6.639   2.766
 2716SOL    HW1 9047   6.864   6.662   2.726
 2716SOL    HW2 9048   0.000   6.663   2.702
 2717SOL     OW 9049   0.874   0.315   2.778
 2717SOL    HW1 9050   0.787   0.270   2.796
 2717SOL    HW2 9051   0.949   0.250   2.793
 2718SOL     OW 9052   0.650   4.602   3.166
 2718SOL    HW1 9053   0.626   4.685   3.116
 2718SOL    HW2 9054   0.695   4.538   3.104
 2719SOL     OW 9055   4.387   4.584   2.918
 2719SOL    HW1 9056   4.442   4.534   2.985
 2719SOL    HW2 9057   4.413   4.557   2.826
 2720SOL     OW 9058   0.613   6.262   3.900
 2720SOL    HW1 9059   0.687   6.316   3.861
 2720SOL    HW2 9060   0.637   6.165   3.898
 2721SOL     OW 9061   5.124   6.325   4.382
 2721SOL    HW1 9062   5.194   6.337   4.311
 2721SOL    HW2 9063   5.039   6.371   4.353
 2722SOL     OW 9064   1.101   6.092   1.347
 2722SOL    HW1 9065   1.078   6.063   1.255
 2722SOL    HW2 9066   1.196   6.126   1.349
 2723SOL     OW 9067   2.221   1.495   4.829
 2723SOL    HW1 9068   2.145   1.549   4.794
 2723SOL    HW2 9069   2.299   1.500   4.766
 2724SOL     OW 9070   3.472   5.894   6.557
 2724SOL    HW1 9071   3.550   5.948   6.590
 2724SOL    HW2 9072   3.444   5.830   6.629
 2725SOL     OW 9073   2.604   4.678   3.512
 2725SOL    HW1 9074   2.522   4.733   3.496
 2725SOL    HW2 9075   2.589   4.617   3.589
 2726SOL     OW 9076   4.956   6.625   2.398
 2726SOL    HW1 9077   5.037   6.626   2.455
 2726SOL    HW2 9078   4.900   6.545   2.420
 2727SOL     OW 9079   2.037   5.907   3.401
 2727SOL    HW1 9080   1.967   5.942   3.339
 2727SOL    HW2 9081   2.020   5.939   3.494
 2728SOL     OW 9082   3.803   6.455   4.969
 2728SOL    HW1 9083   3.738   6.407   5.027
 2728SOL    HW2 9084   3.877   6.493   5.025
 2729SOL     OW 9085   6.795   4.863   2.137
 2729SOL    HW1 9086   6.710   4.882   2.089
 2729SOL    HW2 9087   6.778   4.859   2.236
 2730SOL     OW 9088   1.321   4.661   1.692
 2730SOL    HW1 9089   1.273   4.595   1.750
 2730SOL    HW2 9090   1.255   4.726   1.654
 2731SOL     OW 9091   2.963   3.720   0.903
 2731SOL    HW1 9092   2.997   3.799   0.852
 2731SOL    HW2 9093   2.988   3.730   1.000
 2732SOL     OW 9094   5.263   2.897   4.179
 2732SOL    HW1 9095   5.201   2.868   4.106
 2732SOL    HW2 9096   5.329   2.824   4.197
 2733SOL     OW 9097   2.529   0.339   5.817
 2733SOL    HW1 9098   2.587   0.417   5.840
 2733SOL    HW2 9099   2.530   0.273   5.892
 2734SOL     OW 9100   2.595   6.904   3.882
 2734SOL    HW1 9101   2.675   6.956   3.850
 2734SOL    HW2 9102   2.513   6.958   3.869
 2735SOL     OW 9103   1.606   4.950   1.251
 2735SOL    HW1 9104   1.527   4.901   1.287
 2735SOL    HW2 9105   1.624   4.922   1.157
 2736SOL     OW 9106   3.618   6.793   6.488
 2736SOL    HW1 9107   3.698   6.852   6.475
 2736SOL    HW2 9108   3.601   6.780   6.585
 2737SOL     OW 9109   4.407   3.516   5.534
 2737SOL    HW1 9110   4.345   3.440   5.515
 2737SOL    HW2 9111   4.445   3.550   5.448
 2738SOL     OW 9112   5.777   4.279   4.236
 2738SOL    HW1 9113   5.745   4.371   4.214
 2738SOL    HW2 9114   5.876   4.274   4.224
 2739SOL     OW 9115   5.089   3.927   0.435
 2739SOL    HW1 9116   5.044   3.840   0.454
 2739SOL    HW2 9117   5.032   3.980   0.372
 2740SOL     OW 9118   6.302   2.321   3.190
 2740SOL    HW1 9119   6.345   2.382   3.256
 2740SOL    HW2 9120   6.209   2.353   3.172
 2741SOL     OW 9121   1.630   2.693   4.919
 2741SOL    HW1 9122   1.616   2.783   4.960
 2741SOL    HW2 9123   1.613   2.697   4.821
 2742SOL     OW 9124   2.774   6.087   5.320
 2742SOL    HW1 9125   2.725   6.039   5.393
 2742SOL    HW2 9126   2.867   6.053   5.314
 2743SOL     OW 9127   6.209   4.874   0.620
 2743SOL    HW1 9128   6.201   4.782   0.659
 2743SOL    HW2 9129   6.216   4.940   0.694
 2744SOL     OW 9130   4.246   0.479   0.434
 2744SOL    HW1 9131   4.252   0.382   0.460
 2744SOL    HW2 9132   4.252   0.536   0.516
 2745SOL     OW 9133   2.096   5.801   1.136
 2745SOL    HW1 9134   2.073   5.738   1.211
 2745SOL    HW2 9135   2.126   5.749   1.056
 2746SOL     OW 9136   1.029   2.284   6.517
 2746SOL    HW1 9137   1.116   2.334   6.522
 2746SOL    HW2 9138   0.954   2.346   6.541
 2747SOL     OW 9139   5.144   5.819   3.829
 2747SOL    HW1 9140   5.198   5.742   3.797
 2747SOL    HW2 9141   5.202   5.900   3.840
 2748SOL     OW 9142   4.431   0.785   4.562
 2748SOL    HW1 9143   4.397   0.754   4.473
 2748SOL    HW2 9144   4.454   0.883   4.557
 2749SOL     OW 9145   5.096   4.079   3.699
 2749SOL    HW1 9146   5.071   4.038   3.612
 2749SOL    HW2 9147   5.045   4.164   3.711
 2750SOL     OW 9148   0.477   6.495   0.509
 2750SOL    HW1 9149   0.542   6.561   0.547
 2750SOL    HW2 9150   0.514   6.403   0.516
 2751SOL     OW 9151   1.930   0.226   0.098
 2751SOL    HW1 9152   1.988   0.306   0.115
 2751SOL    HW2 9153   1.862   0.218   0.171
 2752SOL     OW 9154   6.627   6.493   5.561
 2752SOL    HW1 9155   6.560   6.420   5.548
 2752SOL    HW2 9156   6.705   6.478   5.499
 2753SOL     OW 9157   3.406   5.182   5.356
 2753SOL    HW1 9158   3.432   5.091   5.387
 2753SOL    HW2 9159   3.446   5.251   5.417
 2754SOL     OW 9160   1.024   5.878   4.100
 2754SOL    HW1 9161   0.927   5.862   4.121
 2754SOL    HW2 9162   1.044   5.976   4.105
 2755SOL     OW 9163   4.136   6.050   2.304
 2755SOL    HW1 9164   4.231   6.067   2.331
 2755SOL    HW2 9165   4.121   6.082   2.211
 2756SOL     OW 9166   0.354   3.139   5.392
 2756SOL    HW1 9167   0.338   3.226   5.346
 2756SOL    HW2 9168   0.266   3.096   5.414
 2757SOL     OW 9169   4.651   3.698   6.645
 2757SOL    HW1 9170   4.677   3.790   6.672
 2757SOL    HW2 9171   4.626   3.645   6.726
 2758SOL     OW 9172   0.179   6.689   2.196
 2758SOL    HW1 9173   0.166   6.674   2.098
 2758SOL    HW2 9174   0.134   6.616   2.248
 2759SOL     OW 9175   3.388   3.258   5.211
 2759SOL    HW1 9176   3.336   3.274   5.295
 2759SOL    HW2 9177   3.436   3.171   5.217
 2760SOL     OW 9178   5.971   5.793   2.251
 2760SOL    HW1 9179   6.038   5.864   2.230
 2760SOL    HW2 9180   6.007   5.733   2.323
 2761SOL     OW 9181   1.826   3.110   3.204
 2761SOL    HW1 9182   1.765   3.186   3.224
 2761SOL    HW2 9183   1.921   3.141   3.209
 2762SOL     OW 9184   3.336   1.536   0.879
 2762SOL    HW1 9185   3.344   1.486   0.966
 2762SOL    HW2 9186   3.356   1.632   0.894
 2763SOL     OW 9187   5.961   1.165   3.686
 2763SOL    HW1 9188   6.020   1.160   3.766
 2763SOL    HW2 9189   5.905   1.247   3.690
 2764SOL     OW 9190   0.419   2.884   3.122
 2764SOL    HW1 9191   0.513   2.912   3.138
 2764SOL    HW2 9192   0.400   2.885   3.024
 2765SOL     OW 9193   6.127   6.404   5.922
 2765SOL    HW1 9194   6.166   6.485   5.967
 2765SOL    HW2 9195   6.029   6.416   5.912
 2766SOL     OW 9196   4.580   0.248   0.356
 2766SOL    HW1 9197   4.499   0.262   0.414
 2766SOL    HW2 9198   4.550   0.234   0.261
 2767SOL     OW 9199   0.851   4.797   6.605
 2767SOL    HW1 9200   0.901   4.883   6.593
 2767SOL    HW2 9201   0.848   4.773   6.702
 2768SOL     OW 9202   3.591   6.627   1.361
 2768SOL    HW1 9203   3.637   6.677   1.288
 2768SOL    HW2 9204   3.498   6.660   1.372
 2769SOL     OW 9205   0.905   4.586   5.665
 2769SOL    HW1 9206   0.886   4.637   5.582
 2769SOL    HW2 9207   0.989   4.622   5.708
 2770SOL     OW 9208   2.042   0.171   1.141
 2770SOL    HW1 9209   1.999   0.081   1.141
 2770SOL    HW2 9210   2.088   0.186   1.054
 2771SOL     OW 9211   4.488   0.002   5.296
 2771SOL    HW1 9212   4.551   6.953   5.321
 2771SOL    HW2 9213   4.505   0.030   5.202
 2772SOL     OW 9214   4.981   1.448   3.443
 2772SOL    HW1 9215   4.971   1.444   3.543
 2772SOL    HW2 9216   4.891   1.449   3.400
 2773SOL     OW 9217   6.134   2.607   5.508
 2773SOL    HW1 9218   6.203   2.645   5.569
 2773SOL    HW2 9219   6.043   2.631   5.542
 2774SOL     OW 9220   6.189   0.688   3.908
 2774SOL    HW1 9221   6.205   0.655   3.815
 2774SOL    HW2 9222   6.258   0.757   3.931
 2775SOL     OW 9223   6.947   3.106   4.546
 2775SOL    HW1 9224   6.929   3.202   4.525
 2775SOL    HW2 9225   6.965   3.097   4.644
 2776SOL     OW 9226   5.019   4.554   6.145
 2776SOL    HW1 9227   5.076   4.630   6.114
 2776SOL    HW2 9228   5.020   4.550   6.245
 2777SOL     OW 9229   1.858   2.377   6.707
 2777SOL    HW1 9230   1.832   2.358   6.612
 2777SOL    HW2 9231   1.820   2.465   6.735
 2778SOL     OW 9232   3.110   0.606   6.202
 2778SOL    HW1 9233   3.139   0.681   6.261
 2778SOL    HW2 9234   3.061   0.538   6.256
 2779SOL     OW 9235   5.051   1.462   1.676
 2779SOL    HW1 9236   5.131   1.467   1.736
 2779SOL    HW2 9237   5.039   1.551   1.630
 2780SOL     OW 9238   6.950   1.272   4.964
 2780SOL    HW1 9239   6.886   1.323   4.907
 2780SOL    HW2 9240   6.996   1.334   5.027
 2781SOL     OW 9241   6.592   0.684   3.101
 2781SOL    HW1 9242   6.689   0.702   3.120
 2781SOL    HW2 9243   6.537   0.708   3.181
 2782SOL     OW 9244   5.703   0.896   5.802
 2782SOL    HW1 9245   5.767   0.972   5.817
 2782SOL    HW2 9246   5.690   0.847   5.888
 2783SOL     OW 9247   5.692   2.893   1.603
 2783SOL    HW1 9248   5.671   2.979   1.649
 2783SOL    HW2 9249   5.685   2.818   1.668
 2784SOL     OW 9250   0.349   3.238   1.468
 2784SOL    HW1 9251   0.358   3.328   1.510
 2784SOL    HW2 9252   0.440   3.202   1.447
 2785SOL     OW 9253   5.479   3.648   2.588
 2785SOL    HW1 9254   5.446   3.593   2.511
 2785SOL    HW2 9255   5.450   3.743   2.575
 2786SOL     OW 9256   0.862   6.429   0.646
 2786SOL    HW1 9257   0.885   6.356   0.581
 2786SOL    HW2 9258   0.944   6.479   0.671
 2787SOL     OW 9259   0.681   5.944   6.686
 2787SOL    HW1 9260   0.617   5.888   6.633
 2787SOL    HW2 9261   0.762   5.963   6.631
 2788SOL     OW 9262   2.428   6.675   0.205
 2788SOL    HW1 9263   2.389   6.767   0.205
 2788SOL    HW2 9264   2.527   6.680   0.190
 2789SOL     OW 9265   1.866   2.047   4.424
 2789SOL    HW1 9266   1.943   2.111   4.422
 2789SOL    HW2 9267   1.782   2.096   4.449
 2790SOL     OW 9268   0.240   5.576   1.735
 2790SOL    HW1 9269   0.314   5.565   1.667
 2790SOL    HW2 9270   0.184   5.655   1.709
 2791SOL     OW 9271   0.798   3.192   4.841
 2791SOL    HW1 9272   0.786   3.096   4.816
 2791SOL    HW2 9273   0.895   3.216   4.838
 2792SOL     OW 9274   2.899   1.598   6.202
 2792SOL    HW1 9275   2.957   1.604   6.120
 2792SOL    HW2 9276   2.873   1.503   6.217
 2793SOL     OW 9277   3.623   3.606   6.930
 2793SOL    HW1 9278   3.543   3.633   6.984
 2793SOL    HW2 9279   3.619   3.509   6.909
 2794SOL     OW 9280   1.930   1.962   0.127
 2794SOL    HW1 9281   1.893   1.964   0.220
 2794SOL    HW2 9282   1.945   2.055   0.095
 2795SOL     OW 9283   1.006   6.523   1.002
 2795SOL    HW1 9284   1.096   6.559   1.027
 2795SOL    HW2 9285   0.963   6.584   0.936
 2796SOL     OW 9286   2.228   6.227   6.693
 2796SOL    HW1 9287   2.321   6.195   6.710
 2796SOL    HW2 9288   2.163   6.155   6.716
 2797SOL     OW 9289   4.685   4.258   4.094
 2797SOL    HW1 9290   4.785   4.253   4.092
 2797SOL    HW2 9291   4.649   4.176   4.139
 2798SOL     OW 9292   5.412   1.737   1.877
 2798SOL    HW1 9293   5.447   1.726   1.970
 2798SOL    HW2 9294   5.411   1.648   1.831
 2799SOL     OW 9295   3.632   6.617   4.803
 2799SOL    HW1 9296   3.693   6.571   4.867
 2799SOL    HW2 9297   3.558   6.663   4.853
 2800SOL     OW 9298   4.491   0.977   6.329
 2800SOL    HW1 9299   4.487   1.046   6.401
 2800SOL    HW2 9300   4.402   0.933   6.320
 2801SOL     OW 9301   0.202   4.397   3.780
 2801SOL    HW1 9302   0.235   4.491   3.786
 2801SOL    HW2 9303   0.220   4.361   3.688
 2802SOL     OW 9304   1.507   5.151   4.682
 2802SOL    HW1 9305   1.572   5.099   4.627
 2802SOL    HW2 9306   1.421   5.102   4.689
 2803SOL     OW 9307   3.578   2.229   6.877
 2803SOL    HW1 9308   3.663   2.245   6.827
 2803SOL    HW2 9309   3.513   2.302   6.857
 2804SOL     OW 9310   6.358   2.273   3.582
 2804SOL    HW1 9311   6.401   2.279   3.673
 2804SOL    HW2 9312   6.430   2.267   3.512
 2805SOL     OW 9313   3.978   4.704   0.380
 2805SOL    HW1 9314   3.944   4.791   0.343
 2805SOL    HW2 9315   3.901   4.648   0.410
 2806SOL     OW 9316   0.196   3.551   5.429
 2806SOL    HW1 9317   0.097   3.565   5.439
 2806SOL    HW2 9318   0.243   3.639   5.442
 2807SOL     OW 9319   4.760   1.158   4.051
 2807SOL    HW1 9320   4.699   1.218   4.105
 2807SOL    HW2 9321   4.723   1.065   4.051
 2808SOL     OW 9322   1.256   5.770   5.831
 2808SOL    HW1 9323   1.168   5.756   5.785
 2808SOL    HW2 9324   1.323   5.801   5.764
 2809SOL     OW 9325   0.765   5.896   1.209
 2809SOL    HW1 9326   0.769   5.972   1.274
 2809SOL    HW2 9327   0.750   5.931   1.117
 2810SOL     OW 9328   1.019   6.069   2.880
 2810SOL    HW1 9329   1.076   6.047   2.800
 2810SOL    HW2 9330   1.019   6.168   2.895
 2811SOL     OW 9331   1.077   1.221   0.664
 2811SOL    HW1 9332   0.980   1.230   0.687
 2811SOL    HW2 9333   1.093   1.258   0.573
 2812SOL     OW 9334   1.512   1.439   0.551
 2812SOL    HW1 9335   1.534   1.442   0.648
 2812SOL    HW2 9336   1.477   1.349   0.527
 2813SOL     OW 9337   0.390   3.036   1.098
 2813SOL    HW1 9338   0.481   3.071   1.124
 2813SOL    HW2 9339   0.401   2.946   1.055
 2814SOL     OW 9340   2.730   4.298   6.995
 2814SOL    HW1 9341   2.723   4.228   0.041
 2814SOL    HW2 9342   2.822   4.338   6.995
 2815SOL     OW 9343   0.043   5.264   4.653
 2815SOL    HW1 9344   0.110   5.251   4.579
 2815SOL    HW2 9345   0.092   5.283   4.739
 2816SOL     OW 9346   0.879   4.939   4.980
 2816SOL    HW1 9347   0.823   4.910   5.057
 2816SOL    HW2 9348   0.956   4.994   5.012
 2817SOL     OW 9349   2.862   0.845   2.509
 2817SOL    HW1 9350   2.771   0.886   2.519
 2817SOL    HW2 9351   2.930   0.902   2.554
 2818SOL     OW 9352   1.411   0.798   0.044
 2818SOL    HW1 9353   1.332   0.812   0.103
 2818SOL    HW2 9354   1.464   0.720   0.077
 2819SOL     OW 9355   0.799   0.465   6.649
 2819SOL    HW1 9356   0.785   0.391   6.715
 2819SOL    HW2 9357   0.718   0.524   6.648
 2820SOL     OW 9358   1.863   1.782   6.937
 2820SOL    HW1 9359   1.885   1.686   6.951
 2820SOL    HW2 9360   1.894   1.835   7.016
 2821SOL     OW 9361   3.419   2.708   6.057
 2821SOL    HW1 9362   3.442   2.712   6.154
 2821SOL    HW2 9363   3.330   2.663   6.045
 2822SOL     OW 9364   4.416   2.942   0.505
 2822SOL    HW1 9365   4.434   3.028   0.458
 2822SOL    HW2 9366   4.317   2.928   0.514
 2823SOL     OW 9367   5.280   3.702   1.632
 2823SOL    HW1 9368   5.197   3.651   1.651
 2823SOL    HW2 9369   5.327   3.724   1.718
 2824SOL     OW 9370   0.697   4.665   5.459
 2824SOL    HW1 9371   0.604   4.653   5.424
 2824SOL    HW2 9372   0.694   4.719   5.544
 2825SOL     OW 9373   5.164   2.071   5.903
 2825SOL    HW1 9374   5.168   2.155   5.956
 2825SOL    HW2 9375   5.218   2.082   5.819
 2826SOL     OW 9376   3.082   3.289   0.192
 2826SOL    HW1 9377   3.001   3.234   0.212
 2826SOL    HW2 9378   3.161   3.229   0.178
 2827SOL     OW 9379   5.839   2.066   6.619
 2827SOL    HW1 9380   5.861   2.047   6.715
 2827SOL    HW2 9381   5.805   1.983   6.576
 2828SOL     OW 9382   1.489   4.240   0.801
 2828SOL    HW1 9383   1.586   4.218   0.799
 2828SOL    HW2 9384   1.475   4.330   0.760
 2829SOL     OW 9385   3.663   3.510   1.771
 2829SOL    HW1 9386   3.694   3.587   1.828
 2829SOL    HW2 9387   3.733   3.439   1.770
 2830SOL     OW 9388   3.200   5.886   4.537
 2830SOL    HW1 9389   3.176   5.964   4.594
 2830SOL    HW2 9390   3.286   5.905   4.490
 2831SOL     OW 9391   6.960   1.955   2.150
 2831SOL    HW1 9392   7.004   2.015   2.083
 2831SOL    HW2 9393   6.904   1.887   2.102
 2832SOL     OW 9394   1.080   3.191   2.286
 2832SOL    HW1 9395   0.997   3.245   2.301
 2832SOL    HW2 9396   1.159   3.252   2.285
 2833SOL     OW 9397   6.820   2.735   2.578
 2833SOL    HW1 9398   6.911   2.716   2.541
 2833SOL    HW2 9399   6.793   2.661   2.640
 2834SOL     OW 9400   3.893   0.228   4.418
 2834SOL    HW1 9401   3.936   0.234   4.328
 2834SOL    HW2 9402   3.907   0.313   4.468
 2835SOL     OW 9403   6.944   0.991   6.863
 2835SOL    HW1 9404   6.955   0.899   6.825
 2835SOL    HW2 9405   0.007   1.039   6.861
 2836SOL     OW 9406   3.107   5.369   2.876
 2836SOL    HW1 9407   3.021   5.334   2.914
 2836SOL    HW2 9408   3.136   5.450   2.928
 2837SOL     OW 9409   5.133   4.287   2.101
 2837SOL    HW1 9410   5.163   4.378   2.073
 2837SOL    HW2 9411   5.210   4.224   2.101
 2838SOL     OW 9412   6.924   3.723   6.243
 2838SOL    HW1 9413   6.897   3.629   6.265
 2838SOL    HW2 9414   6.960   3.726   6.150
 2839SOL     OW 9415   6.091   2.763   5.860
 2839SOL    HW1 9416   6.029   2.709   5.917
 2839SOL    HW2 9417   6.047   2.850   5.837
 2840SOL     OW 9418   6.129   5.994   4.517
 2840SOL    HW1 9419   6.079   6.076   4.544
 2840SOL    HW2 9420   6.203   6.019   4.454
 2841SOL     OW 9421   5.467   3.636   2.151
 2841SOL    HW1 9422   5.378   3.656   2.109
 2841SOL    HW2 9423   5.536   3.625   2.079
 2842SOL     OW 9424   0.727   6.996   3.201
 2842SOL    HW1 9425   0.672   0.030   3.260
 2842SOL    HW2 9426   0.795   0.026   3.153
 2843SOL     OW 9427   2.400   2.617   3.987
 2843SOL    HW1 9428   2.365   2.525   4.001
 2843SOL    HW2 9429   2.494   2.613   3.955
 2844SOL     OW 9430   5.227   3.716   0.799
 2844SOL    HW1 9431   5.271   3.761   0.877
 2844SOL    HW2 9432   5.274   3.741   0.714
 2845SOL     OW 9433   2.890   1.905   1.731
 2845SOL    HW1 9434   2.959   1.839   1.702
 2845SOL    HW2 9435   2.932   1.996   1.739
 2846SOL     OW 9436   5.911   0.005   6.604
 2846SOL    HW1 9437   5.964   6.974   6.540
 2846SOL    HW2 9438   5.815   0.004   6.577
 2847SOL     OW 9439   5.033   5.102   1.053
 2847SOL    HW1 9440   4.997   5.179   1.106
 2847SOL    HW2 9441   4.959   5.059   1.001
 2848SOL     OW 9442   0.630   4.062   6.402
 2848SOL    HW1 9443   0.532   4.041   6.397
 2848SOL    HW2 9444   0.657   4.115   6.322
 2849SOL     OW 9445   5.202   0.988   1.794
 2849SOL    HW1 9446   5.291   0.945   1.811
 2849SOL    HW2 9447   5.164   0.953   1.708
 2850SOL     OW 9448   0.722   0.551   1.927
 2850SOL    HW1 9449   0.757   0.613   1.857
 2850SOL    HW2 9450   0.689   0.604   2.005
 2851SOL     OW 9451   3.572   2.799   1.554
 2851SOL    HW1 9452   3.516   2.736   1.499
 2851SOL    HW2 9453   3.606   2.751   1.635
 2852SOL     OW 9454   0.298   5.317   5.363
 2852SOL    HW1 9455   0.379   5.329   5.421
 2852SOL    HW2 9456   0.271   5.405   5.324
 2853SOL     OW 9457   0.323   4.282   5.192
 2853SOL    HW1 9458   0.387   4.263   5.118
 2853SOL    HW2 9459   0.330   4.378   5.219
 2854SOL     OW 9460   2.770   0.457   6.123
 2854SOL    HW1 9461   2.748   0.475   6.028
 2854SOL    HW2 9462   2.846   0.393   6.129
 2855SOL     OW 9463   1.971   1.109   4.481
 2855SOL    HW1 9464   1.992   1.123   4.384
 2855SOL    HW2 9465   1.892   1.165   4.506
 2856SOL     OW 9466   0.734   5.250   4.449
 2856SOL    HW1 9467   0.793   5.329   4.434
 2856SOL    HW2 9468   0.789   5.166   4.444
 2857SOL     OW 9469   6.544   4.158   1.155
 2857SOL    HW1 9470   6.466   4.104   1.125
 2857SOL    HW2 9471   6.584   4.116   1.237
 2858SOL     OW 9472   5.806   4.731   3.211
 2858SOL    HW1 9473   5.868   4.708   3.285
 2858SOL    HW2 9474   5.779   4.647   3.163
 2859SOL     OW 9475   5.990   4.959   1.672
 2859SOL    HW1 9476   5.984   4.993   1.766
 2859SOL    HW2 9477   6.082   4.975   1.636
 2860SOL     OW 9478   1.329   0.144   3.103
 2860SOL    HW1 9479   1.296   0.073   3.165
 2860SOL    HW2 9480   1.379   0.213   3.156
 2861SOL     OW 9481   5.139   4.381   5.964
 2861SOL    HW1 9482   5.189   4.467   5.952
 2861SOL    HW2 9483   5.072   4.392   6.037
 2862SOL     OW 9484   4.618   0.938   0.708
 2862SOL    HW1 9485   4.713   0.930   0.736
 2862SOL    HW2 9486   4.607   0.899   0.616
 2863SOL     OW 9487   5.906   2.464   5.331
 2863SOL    HW1 9488   5.986   2.510   5.369
 2863SOL    HW2 9489   5.934   2.407   5.254
 2864SOL     OW 9490   4.137   4.300   1.075
 2864SOL    HW1 9491   4.149   4.241   0.996
 2864SOL    HW2 9492   4.145   4.396   1.047
 2865SOL     OW 9493   5.842   5.355   5.437
 2865SOL    HW1 9494   5.926   5.380   5.389
 2865SOL    HW2 9495   5.788   5.437   5.454
 2866SOL     OW 9496   3.655   4.562   0.695
 2866SOL    HW1 9497   3.715   4.541   0.772
 2866SOL    HW2 9498   3.621   4.656   0.704
 2867SOL     OW 9499   6.646   6.222   2.953
 2867SOL    HW1 9500   6.678   6.315   2.967
 2867SOL    HW2 9501   6.584   6.220   2.874
 2868SOL     OW 9502   0.347   0.053   5.445
 2868SOL    HW1 9503   0.350   6.999   5.384
 2868SOL    HW2 9504   0.310   0.132   5.397
 2869SOL     OW 9505   5.920   4.885   4.499
 2869SOL    HW1 9506   5.856   4.858   4.428
 2869SOL    HW2 9507   5.930   4.810   4.565
 2870SOL     OW 9508   0.886   0.757   1.834
 2870SOL    HW1 9509   0.926   0.728   1.921
 2870SOL    HW2 9510   0.838   0.844   1.847
 2871SOL     OW 9511   4.794   1.654   3.419
 2871SOL    HW1 9512   4.721   1.598   3.459
 2871SOL    HW2 9513   4.818   1.617   3.329
 2872SOL     OW 9514   2.698   2.049   2.493
 2872SOL    HW1 9515   2.737   1.994   2.567
 2872SOL    HW2 9516   2.598   2.046   2.499
 2873SOL     OW 9517   1.196   0.240   2.094
 2873SOL    HW1 9518   1.209   0.199   2.004
 2873SOL    HW2 9519   1.112   0.295   2.094
 2874SOL     OW 9520   2.062   1.091   3.791
 2874SOL    HW1 9521   2.094   1.116   3.700
 2874SOL    HW2 9522   1.970   1.126   3.805
 2875SOL     OW 9523   2.440   0.074   3.400
 2875SOL    HW1 9524   2.524   0.102   3.448
 2875SOL    HW2 9525   2.362   0.089   3.460
 2876SOL     OW 9526   0.954   6.267   0.948
 2876SOL    HW1 9527   0.859   6.262   0.918
 2876SOL    HW2 9528   0.976   6.361   0.975
 2877SOL     OW 9529   1.968   2.821   4.894
 2877SOL    HW1 9530   1.929   2.796   4.805
 2877SOL    HW2 9531   2.040   2.889   4.881
 2878SOL     OW 9532   3.725   2.963   4.784
 2878SOL    HW1 9533   3.699   2.867   4.790
 2878SOL    HW2 9534   3.782   2.986   4.863
 2879SOL     OW 9535   5.152   5.150   0.023
 2879SOL    HW1 9536   5.087   5.136   6.973
 2879SOL    HW2 9537   5.199   5.237   0.011
 2880SOL     OW 9538   1.932   1.677   3.648
 2880SOL    HW1 9539   1.951   1.595   3.701
 2880SOL    HW2 9540   1.990   1.678   3.566
 2881SOL     OW 9541   5.263   5.248   0.984
 2881SOL    HW1 9542   5.327   5.172   0.991
 2881SOL    HW2 9543   5.169   5.215   0.995
 2882SOL     OW 9544   4.431   6.473   0.117
 2882SOL    HW1 9545   4.511   6.448   0.064
 2882SOL    HW2 9546   4.418   6.408   0.192
 2883SOL     OW 9547   5.640   6.256   3.655
 2883SOL    HW1 9548   5.617   6.309   3.736
 2883SOL    HW2 9549   5.589   6.170   3.655
 2884SOL     OW 9550   6.188   5.363   3.784
 2884SOL    HW1 9551   6.286   5.374   3.803
 2884SOL    HW2 9552   6.136   5.374   3.868
 2885SOL     OW 9553   0.694   2.976   3.921
 2885SOL    HW1 9554   0.632   2.936   3.854
 2885SOL    HW2 9555   0.781   3.000   3.877
 2886SOL     OW 9556   2.554   4.629   4.949
 2886SOL    HW1 9557   2.649   4.605   4.968
 2886SOL    HW2 9558   2.506   4.649   5.035
 2887SOL     OW 9559   6.825   5.624   2.704
 2887SOL    HW1 9560   6.858   5.623   2.609
 2887SOL    HW2 9561   6.730   5.654   2.705
 2888SOL     OW 9562   5.603   6.690   6.709
 2888SOL    HW1 9563   5.550   6.712   6.790
 2888SOL    HW2 9564   5.701   6.695   6.730
 2889SOL     OW 9565   4.521   6.593   4.665
 2889SOL    HW1 9566   4.538   6.573   4.761
 2889SOL    HW2 9567   4.422   6.598   4.649
 2890SOL     OW 9568   1.166   2.751   0.533
 2890SOL    HW1 9569   1.107   2.796   0.467
 2890SOL    HW2 9570   1.194   2.817   0.603
 2891SOL     OW 9571   0.831   1.605   5.599
 2891SOL    HW1 9572   0.753   1.604   5.535
 2891SOL    HW2 9573   0.897   1.535   5.572
 2892SOL     OW 9574   5.410   4.464   1.966
 2892SOL    HW1 9575   5.396   4.372   2.003
 2892SOL    HW2 9576   5.443   4.524   2.038
 2893SOL     OW 9577   6.697   5.546   4.853
 2893SOL    HW1 9578   6.662   5.527   4.761
 2893SOL    HW2 9579   6.621   5.560   4.916
 2894SOL     OW 9580   1.511   5.474   0.785
 2894SOL    HW1 9581   1.426   5.468   0.732
 2894SOL    HW2 9582   1.492   5.513   0.875
 2895SOL     OW 9583   4.686   6.875   6.378
 2895SOL    HW1 9584   4.718   6.881   6.283
 2895SOL    HW2 9585   4.713   6.787   6.417
 2896SOL     OW 9586   6.447   0.592   5.207
 2896SOL    HW1 9587   6.489   0.620   5.294
 2896SOL    HW2 9588   6.457   0.493   5.196
 2897SOL     OW 9589   3.286   5.278   3.321
 2897SOL    HW1 9590   3.236   5.299   3.406
 2897SOL    HW2 9591   3.272   5.182   3.297
 2898SOL     OW 9592   5.380   2.424   3.417
 2898SOL    HW1 9593   5.296   2.475   3.398
 2898SOL    HW2 9594   5.434   2.473   3.486
 2899SOL     OW 9595   6.331   3.312   0.690
 2899SOL    HW1 9596   6.270   3.233   0.700
 2899SOL    HW2 9597   6.285   3.394   0.724
 2900SOL     OW 9598   2.532   2.390   6.096
 2900SOL    HW1 9599   2.538   2.490   6.102
 2900SOL    HW2 9600   2.527   2.362   6.001
 2901SOL     OW 9601   0.962   3.707   2.288
 2901SOL    HW1 9602   0.996   3.620   2.254
 2901SOL    HW2 9603   0.872   3.693   2.329
 2902SOL     OW 9604   5.764   5.364   3.579
 2902SOL    HW1 9605   5.758   5.449   3.632
 2902SOL    HW2 9606   5.784   5.288   3.641
 2903SOL     OW 9607   6.686   4.777   0.427
 2903SOL    HW1 9608   6.615   4.813   0.487
 2903SOL    HW2 9609   6.776   4.791   0.470
 2904SOL     OW 9610   2.906   4.786   4.764
 2904SOL    HW1 9611   3.002   4.814   4.767
 2904SOL    HW2 9612   2.887   4.723   4.840
 2905SOL     OW 9613   1.307   5.289   1.232
 2905SOL    HW1 9614   1.318   5.220   1.161
 2905SOL    HW2 9615   1.387   5.289   1.292
 2906SOL     OW 9616   6.901   6.040   6.079
 2906SOL    HW1 9617   6.815   5.992   6.065
 2906SOL    HW2 9618   6.950   6.000   6.157
 2907SOL     OW 9619   0.100   1.015   5.459
 2907SOL    HW1 9620   0.103   1.022   5.360
 2907SOL    HW2 9621   0.192   0.996   5.494
 2908SOL     OW 9622   4.247   6.872   3.834
 2908SOL    HW1 9623   4.328   6.923   3.806
 2908SOL    HW2 9624   4.201   6.835   3.753
 2909SOL     OW 9625   0.090   6.762   1.716
 2909SOL    HW1 9626   0.175   6.792   1.759
 2909SOL    HW2 9627   0.062   6.828   1.645
 2910SOL     OW 9628   0.982   0.893   4.727
 2910SOL    HW1 9629   0.951   0.814   4.674
 2910SOL    HW2 9630   1.072   0.874   4.766
 2911SOL     OW 9631   0.311   3.979   5.671
 2911SOL    HW1 9632   0.270   3.941   5.588
 2911SOL    HW2 9633   0.411   3.981   5.661
 2912SOL     OW 9634   1.065   1.321   2.290
 2912SOL    HW1 9635   1.134   1.354   2.225
 2912SOL    HW2 9636   1.039   1.395   2.351
 2913SOL     OW 9637   0.994   6.964   2.794
 2913SOL    HW1 9638   0.912   6.913   2.818
 2913SOL    HW2 9639   1.067   6.901   2.767
 2914SOL     OW 9640   3.821   4.583   1.198
 2914SOL    HW1 9641   3.869   4.507   1.242
 2914SOL    HW2 9642   3.745   4.612   1.256
 2915SOL     OW 9643   2.301   0.693   3.971
 2915SOL    HW1 9644   2.363   0.743   4.031
 2915SOL    HW2 9645   2.247   0.757   3.917
 2916SOL     OW 9646   0.847   5.357   0.192
 2916SOL    HW1 9647   0.768   5.314   0.236
 2916SOL    HW2 9648   0.819   5.395   0.104
 2917SOL     OW 9649   2.548   0.374   3.135
 2917SOL    HW1 9650   2.496   0.400   3.217
 2917SOL    HW2 9651   2.536   0.276   3.119
 2918SOL     OW 9652   5.207   2.596   1.385
 2918SOL    HW1 9653   5.118   2.599   1.431
 2918SOL    HW2 9654   5.278   2.578   1.452
 2919SOL     OW 9655   0.398   6.144   5.019
 2919SOL    HW1 9656   0.388   6.161   4.920
 2919SOL    HW2 9657   0.403   6.046   5.035
 2920SOL     OW 9658   2.817   2.204   1.582
 2920SOL    HW1 9659   2.884   2.262   1.628
 2920SOL    HW2 9660   2.807   2.233   1.487
 2921SOL     OW 9661   1.221   6.646   3.687
 2921SOL    HW1 9662   1.241   6.577   3.757
 2921SOL    HW2 9663   1.128   6.631   3.653
 2922SOL     OW 9664   4.055   4.882   3.819
 2922SOL    HW1 9665   3.981   4.937   3.779
 2922SOL    HW2 9666   4.041   4.876   3.918
 2923SOL     OW 9667   0.924   5.454   4.413
 2923SOL    HW1 9668   0.982   5.382   4.451
 2923SOL    HW2 9669   0.973   5.541   4.418
 2924SOL     OW 9670   5.321   1.932   6.223
 2924SOL    HW1 9671   5.310   1.908   6.126
 2924SOL    HW2 9672   5.241   1.901   6.274
 2925SOL     OW 9673   5.412   6.748   4.623
 2925SOL    HW1 9674   5.506   6.778   4.615
 2925SOL    HW2 9675   5.383   6.755   4.719
 2926SOL     OW 9676   7.023   2.172   4.793
 2926SOL    HW1 9677   0.096   2.180   4.814
 2926SOL    HW2 9678   6.971   2.185   4.877
 2927SOL     OW 9679   1.408   1.875   2.243
 2927SOL    HW1 9680   1.330   1.826   2.282
 2927SOL    HW2 9681   1.382   1.970   2.225
 2928SOL     OW 9682   5.398   2.866   6.914
 2928SOL    HW1 9683   5.476   2.881   6.854
 2928SOL    HW2 9684   5.337   2.797   6.874
 2929SOL     OW 9685   2.595   1.883   3.356
 2929SOL    HW1 9686   2.617   1.872   3.453
 2929SOL    HW2 9687   2.646   1.960   3.319
 2930SOL     OW 9688   0.350   3.427   4.234
 2930SOL    HW1 9689   0.352   3.526   4.252
 2930SOL    HW2 9690   0.298   3.381   4.307
 2931SOL     OW 9691   5.594   4.964   5.661
 2931SOL    HW1 9692   5.513   5.009   5.699
 2931SOL    HW2 9693   5.567   4.879   5.617
 2932SOL     OW 9694   6.501   5.153   1.216
 2932SOL    HW1 9695   6.493   5.152   1.316
 2932SOL    HW2 9696   6.506   5.248   1.184
 2933SOL     OW 9697   1.390   7.015   0.300
 2933SOL    HW1 9698   1.351   6.994   0.210
 2933SOL    HW2 9699   1.406   0.089   0.307
 2934SOL     OW 9700   4.625   5.171   1.996
 2934SOL    HW1 9701   4.554   5.240   1.981
 2934SOL    HW2 9702   4.679   5.197   2.076
 2935SOL     OW 9703   0.935   2.929   5.834
 2935SOL    HW1 9704   0.992   2.923   5.752
 2935SOL    HW2 9705   0.847   2.885   5.818
 2936SOL     OW 9706   4.548   0.083   2.165
 2936SOL    HW1 9707   4.467   0.104   2.220
 2936SOL    HW2 9708   4.618   0.043   2.224
 2937SOL     OW 9709   6.195   3.486   2.997
 2937SOL    HW1 9710   6.291   3.474   2.974
 2937SOL    HW2 9711   6.156   3.557   2.940
 2938SOL     OW 9712   0.393   4.965   0.254
 2938SOL    HW1 9713   0.434   4.896   0.194
 2938SOL    HW2 9714   0.304   4.934   0.285
 2939SOL     OW 9715   6.834   6.270   1.571
 2939SOL    HW1 9716   6.860   6.293   1.477
 2939SOL    HW2 9717   6.762   6.201   1.569
 2940SOL     OW 9718   4.592   6.087   4.160
 2940SOL    HW1 9719   4.546   6.128   4.239
 2940SOL    HW2 9720   4.541   6.108   4.077
 2941SOL     OW 9721   2.622   4.862   3.101
 2941SOL    HW1 9722   2.540   4.915   3.123
 2941SOL    HW2 9723   2.604   4.765   3.118
 2942SOL     OW 9724   3.364   2.280   1.746
 2942SOL    HW1 9725   3.447   2.330   1.773
 2942SOL    HW2 9726   3.349   2.291   1.648
 2943SOL     OW 9727   6.074   3.570   3.565
 2943SOL    HW1 9728   6.170   3.587   3.543
 2943SOL    HW2 9729   6.061   3.578   3.664
 2944SOL     OW 9730   1.587   6.198   2.739
 2944SOL    HW1 9731   1.501   6.239   2.709
 2944SOL    HW2 9732   1.594   6.205   2.839
 2945SOL     OW 9733   5.914   3.697   1.472
 2945SOL    HW1 9734   5.874   3.606   1.466
 2945SOL    HW2 9735   5.841   3.765   1.475
 2946SOL     OW 9736   3.458   2.978   4.420
 2946SOL    HW1 9737   3.452   3.041   4.498
 2946SOL    HW2 9738   3.554   2.961   4.398
 2947SOL     OW 9739   6.496   4.915   0.616
 2947SOL    HW1 9740   6.487   4.996   0.673
 2947SOL    HW2 9741   6.413   4.903   0.561
 2948SOL     OW 9742   6.877   3.852   1.836
 2948SOL    HW1 9743   6.784   3.851   1.799
 2948SOL    HW2 9744   6.909   3.946   1.844
 2949SOL     OW 9745   1.483   6.628   0.539
 2949SOL    HW1 9746   1.441   6.537   0.540
 2949SOL    HW2 9747   1.412   6.698   0.541
 2950SOL     OW 9748   6.165   5.786   2.583
 2950SOL    HW1 9749   6.250   5.741   2.610
 2950SOL    HW2 9750   6.183   5.852   2.510
 2951SOL     OW 9751   0.688   2.538   1.598
 2951SOL    HW1 9752   0.678   2.453   1.649
 2951SOL    HW2 9753   0.784   2.556   1.581
 2952SOL     OW 9754   0.205   1.889   4.849
 2952SOL    HW1 9755   0.279   1.889   4.782
 2952SOL    HW2 9756   0.120   1.861   4.806
 2953SOL     OW 9757   1.792   5.949   3.233
 2953SOL    HW1 9758   1.741   5.868   3.204
 2953SOL    HW2 9759   1.811   6.006   3.153
 2954SOL     OW 9760   0.424   4.412   6.331
 2954SOL    HW1 9761   0.437   4.319   6.368
 2954SOL    HW2 9762   0.510   4.444   6.291
 2955SOL     OW 9763   1.650   4.507   6.335
 2955SOL    HW1 9764   1.686   4.558   6.256
 2955SOL    HW2 9765   1.726   4.465   6.384
 2956SOL     OW 9766   5.446   4.358   4.179
 2956SOL    HW1 9767   5.358   4.379   4.221
 2956SOL    HW2 9768   5.467   4.261   4.192
 2957SOL     OW 9769   2.223   5.145   1.706
 2957SOL    HW1 9770   2.313   5.114   1.676
 2957SOL    HW2 9771   2.166   5.066   1.729
 2958SOL     OW 9772   1.444   4.104   1.880
 2958SOL    HW1 9773   1.466   4.152   1.795
 2958SOL    HW2 9774   1.500   4.140   1.954
 2959SOL     OW 9775   0.359   3.938   3.947
 2959SOL    HW1 9776   0.450   3.898   3.939
 2959SOL    HW2 9777   0.290   3.866   3.944
 2960SOL     OW 9778   4.769   6.196   0.600
 2960SOL    HW1 9779   4.749   6.263   0.527
 2960SOL    HW2 9780   4.732   6.230   0.686
 2961SOL     OW 9781   5.329   2.486   1.587
 2961SOL    HW1 9782   5.260   2.426   1.627
 2961SOL    HW2 9783   5.413   2.434   1.570
 2962SOL     OW 9784   0.317   6.855   3.560
 2962SOL    HW1 9785   0.381   6.817   3.493
 2962SOL    HW2 9786   0.316   6.955   3.552
 2963SOL     OW 9787   1.491   0.305   5.063
 2963SOL    HW1 9788   1.396   0.322   5.091
 2963SOL    HW2 9789   1.553   0.350   5.127
 2964SOL     OW 9790   1.463   0.348   6.516
 2964SOL    HW1 9791   1.529   0.330   6.590
 2964SOL    HW2 9792   1.461   0.446   6.497
 2965SOL     OW 9793   6.243   0.379   6.189
 2965SOL    HW1 9794   6.270   0.469   6.223
 2965SOL    HW2 9795   6.147   0.362   6.212
 2966SOL     OW 9796   3.536   5.006   2.672
 2966SOL    HW1 9797   3.488   5.042   2.591
 2966SOL    HW2 9798   3.634   5.019   2.661
 2967SOL     OW 9799   5.946   6.714   5.047
 2967SOL    HW1 9800   5.882   6.655   5.096
 2967SOL    HW2 9801   5.973   6.791   5.105
 2968SOL     OW 9802   1.054   3.990   1.315
 2968SOL    HW1 9803   1.134   3.983   1.375
 2968SOL    HW2 9804   1.080   3.963   1.222
 2969SOL     OW 9805   4.527   2.505   4.715
 2969SOL    HW1 9806   4.452   2.461   4.666
 2969SOL    HW2 9807   4.498   2.596   4.745
 2970SOL     OW 9808   2.523   2.790   5.804
 2970SOL    HW1 9809   2.512   2.885   5.773
 2970SOL    HW2 9810   2.557   2.734   5.729
 2971SOL     OW 9811   4.648   3.510   6.843
 2971SOL    HW1 9812   4.574   3.459   6.888
 2971SOL    HW2 9813   4.729   3.451   6.836
 2972SOL     OW 9814   6.972   5.506   6.764
 2972SOL    HW1 9815   6.936   5.438   6.827
 2972SOL    HW2 9816   7.002   5.587   6.816
 2973SOL     OW 9817   5.779   0.926   4.200
 2973SOL    HW1 9818   5.854   0.876   4.245
 2973SOL    HW2 9819   5.704   0.863   4.179
 2974SOL     OW 9820   5.412   6.061   2.034
 2974SOL    HW1 9821   5.512   6.052   2.034
 2974SOL    HW2 9822   5.380   6.076   2.128
 2975SOL     OW 9823   6.765   3.544   4.728
 2975SOL    HW1 9824   6.765   3.470   4.661
 2975SOL    HW2 9825   6.858   3.579   4.740
 2976SOL     OW 9826   3.566   0.591   1.442
 2976SOL    HW1 9827   3.644   0.643   1.478
 2976SOL    HW2 9828   3.572   0.587   1.342
 2977SOL     OW 9829   1.136   1.110   1.784
 2977SOL    HW1 9830   1.083   1.156   1.855
 2977SOL    HW2 9831   1.206   1.172   1.749
 2978SOL     OW 9832   2.962   5.338   0.077
 2978SOL    HW1 9833   3.046   5.285   0.075
 2978SOL    HW2 9834   2.955   5.394   7.019
 2979SOL     OW 9835   2.895   0.997   5.333
 2979SOL    HW1 9836   2.925   0.966   5.243
 2979SOL    HW2 9837   2.850   1.085   5.325
 2980SOL     OW 9838   3.517   3.380   4.133
 2980SOL    HW1 9839   3.478   3.304   4.082
 2980SOL    HW2 9840   3.492   3.372   4.230
 2981SOL     OW 9841   2.887   1.687   1.908
 2981SOL    HW1 9842   2.827   1.616   1.870
 2981SOL    HW2 9843   2.882   1.769   1.851
 2982SOL     OW 9844   1.966   0.924   0.865
 2982SOL    HW1 9845   1.887   0.956   0.917
 2982SOL    HW2 9846   1.995   0.996   0.801
 2983SOL     OW 9847   6.735   3.000   6.040
 2983SOL    HW1 9848   6.721   3.075   5.976
 2983SOL    HW2 9849   6.824   3.010   6.085
 2984SOL     OW 9850   0.212   6.376   1.690
 2984SOL    HW1 9851   0.287   6.368   1.624
 2984SOL    HW2 9852   0.219   6.304   1.759
 2985SOL     OW 9853   6.426   0.483   6.567
 2985SOL    HW1 9854   6.352   0.548   6.550
 2985SOL    HW2 9855   6.512   0.519   6.530
 2986SOL     OW 9856   3.478   3.315   1.934
 2986SOL    HW1 9857   3.537   3.362   1.869
 2986SOL    HW2 9858   3.459   3.374   2.012
 2987SOL     OW 9859   2.189   5.484   4.685
 2987SOL    HW1 9860   2.279   5.443   4.700
 2987SOL    HW2 9861   2.191   5.538   4.601
 2988SOL     OW 9862   6.762   2.123   6.145
 2988SOL    HW1 9863   6.771   2.116   6.244
 2988SOL    HW2 9864   6.751   2.032   6.106
 2989SOL     OW 9865   5.900   3.560   5.132
 2989SOL    HW1 9866   5.883   3.617   5.213
 2989SOL    HW2 9867   5.993   3.578   5.098
 2990SOL     OW 9868   5.812   1.686   5.601
 2990SOL    HW1 9869   5.830   1.598   5.644
 2990SOL    HW2 9870   5.727   1.680   5.548
 2991SOL     OW 9871   6.617   3.479   0.406
 2991SOL    HW1 9872   6.705   3.518   0.379
 2991SOL    HW2 9873   6.632   3.413   0.480
 2992SOL     OW 9874   0.797   3.761   5.328
 2992SOL    HW1 9875   0.718   3.749   5.269
 2992SOL    HW2 9876   0.855   3.680   5.324
 2993SOL     OW 9877   3.126   5.005   0.733
 2993SOL    HW1 9878   3.109   5.099   0.763
 2993SOL    HW2 9879   3.041   4.967   0.695
 2994SOL     OW 9880   3.152   4.857   4.659
 2994SOL    HW1 9881   3.240   4.899   4.681
 2994SOL    HW2 9882   3.157   4.759   4.674
 2995SOL     OW 9883   4.604   0.903   1.806
 2995SOL    HW1 9884   4.649   0.961   1.739
 2995SOL    HW2 9885   4.545   0.837   1.759
 2996SOL     OW 9886   6.543   1.167   4.457
 2996SOL    HW1 9887   6.584   1.258   4.464
 2996SOL    HW2 9888   6.601   1.109   4.400
 2997SOL     OW 9889   4.959   6.020   4.333
 2997SOL    HW1 9890   5.029   6.014   4.262
 2997SOL    HW2 9891   4.871   5.993   4.295
 2998SOL     OW 9892   2.486   0.964   1.702
 2998SOL    HW1 9893   2.523   0.909   1.628
 2998SOL    HW2 9894   2.517   1.058   1.693
 2999SOL     OW 9895   1.972   4.605   0.312
 2999SOL    HW1 9896   1.993   4.508   0.306
 2999SOL    HW2 9897   2.057   4.658   0.313
 3000SOL     OW 9898   2.032   3.948   5.146
 3000SOL    HW1 9899   1.984   3.993   5.071
 3000SOL    HW2 9900   2.131   3.951   5.128
 3001SOL     OW 9901   4.279   0.821   6.337
 3001SOL    HW1 9902   4.218   0.839   6.261
 3001SOL    HW2 9903   4.295   0.723   6.345
 3002SOL     OW 9904   1.438   2.220   2.120
 3002SOL    HW1 9905   1.431   2.289   2.048
 3002SOL    HW2 9906   1.492   2.256   2.196
 3003SOL     OW 9907   1.200   5.843   1.016
 3003SOL    HW1 9908   1.151   5.922   1.052
 3003SOL    HW2 9909   1.271   5.874   0.953
 3004SOL     OW 9910   3.126   6.526   3.836
 3004SOL    HW1 9911   3.202   6.588   3.855
 3004SOL    HW2 9912   3.044   6.558   3.883
 3005SOL     OW 9913   2.941   1.909   0.518
 3005SOL    HW1 9914   2.908   1.903   0.613
 3005SOL    HW2 9915   2.984   1.998   0.503
 3006SOL     OW 9916   5.947   1.460   5.757
 3006SOL    HW1 9917   5.863   1.469   5.812
 3006SOL    HW2 9918   6.010   1.398   5.802
 3007SOL     OW 9919   6.097   5.405   5.776
 3007SOL    HW1 9920   6.132   5.495   5.751
 3007SOL    HW2 9921   6.087   5.400   5.875
 3008SOL     OW 9922   4.826   4.273   5.502
 3008SOL    HW1 9923   4.864   4.297   5.591
 3008SOL    HW2 9924   4.786   4.355   5.460
 3009SOL     OW 9925   5.414   3.114   1.585
 3009SOL    HW1 9926   5.471   3.184   1.629
 3009SOL    HW2 9927   5.471   3.054   1.530
 3010SOL     OW 9928   4.677   5.165   1.598
 3010SOL    HW1 9929   4.729   5.153   1.514
 3010SOL    HW2 9930   4.712   5.104   1.669
 3011SOL     OW 9931   5.853   6.771   0.633
 3011SOL    HW1 9932   5.802   6.692   0.599
 3011SOL    HW2 9933   5.896   6.818   0.557
 3012SOL     OW 9934   2.647   0.997   4.684
 3012SOL    HW1 9935   2.723   1.062   4.674
 3012SOL    HW2 9936   2.562   1.047   4.697
 3013SOL     OW 9937   0.778   5.149   5.912
 3013SOL    HW1 9938   0.739   5.172   6.001
 3013SOL    HW2 9939   0.857   5.208   5.894
 3014SOL     OW 9940   4.061   0.073   6.782
 3014SOL    HW1 9941   4.113   0.081   6.697
 3014SOL    HW2 9942   4.124   0.060   6.859
 3015SOL     OW 9943   2.794   0.172   6.044
 3015SOL    HW1 9944   2.741   0.229   6.107
 3015SOL    HW2 9945   2.812   0.083   6.086
 3016SOL     OW 9946   2.941   0.458   4.215
 3016SOL    HW1 9947   2.851   0.501   4.210
 3016SOL    HW2 9948   2.962   0.414   4.128
 3017SOL     OW 9949   1.083   6.026   0.300
 3017SOL    HW1 9950   1.075   6.075   0.213
 3017SOL    HW2 9951   1.021   5.947   0.300
 3018SOL     OW 9952   3.271   2.090   2.178
 3018SOL    HW1 9953   3.329   2.113   2.099
 3018SOL    HW2 9954   3.193   2.036   2.146
 3019SOL     OW 9955   1.582   0.043   5.861
 3019SOL    HW1 9956   1.567   0.006   5.770
 3019SOL    HW2 9957   1.495   0.070   5.902
 3020SOL     OW 9958   4.943   4.661   6.837
 3020SOL    HW1 9959   4.965   4.672   6.740
 3020SOL    HW2 9960   4.981   4.574   6.870
 3021SOL     OW 9961   5.271   0.220   4.541
 3021SOL    HW1 9962   5.267   0.185   4.447
 3021SOL    HW2 9963   5.209   0.166   4.599
 3022SOL     OW 9964   4.415   6.885   4.339
 3022SOL    HW1 9965   4.357   6.892   4.257
 3022SOL    HW2 9966   4.508   6.912   4.315
 3023SOL     OW 9967   5.709   4.384   4.917
 3023SOL    HW1 9968   5.614   4.372   4.945
 3023SOL    HW2 9969   5.712   4.417   4.822
 3024SOL     OW 9970   0.000   0.938   0.333
 3024SOL    HW1 9971   0.043   0.969   0.248
 3024SOL    HW2 9972   0.041   0.988   0.410
 3025SOL     OW 9973   4.169   5.404   0.840
 3025SOL    HW1 9974   4.259   5.433   0.875
 3025SOL    HW2 9975   4.099   5.428   0.907
 3026SOL     OW 9976   0.180   0.549   2.362
 3026SOL    HW1 9977   0.269   0.554   2.317
 3026SOL    HW2 9978   0.178   0.612   2.440
 3027SOL     OW 9979   4.033   6.888   0.504
 3027SOL    HW1 9980   4.006   6.852   0.415
 3027SOL    HW2 9981   4.129   6.916   0.501
 3028SOL     OW 9982   3.587   3.502   4.421
 3028SOL    HW1 9983   3.508   3.552   4.384
 3028SOL    HW2 9984   3.660   3.566   4.444
 3029SOL     OW 9985   0.107   2.978   4.991
 3029SOL    HW1 9986   0.111   2.882   4.964
 3029SOL    HW2 9987   0.044   3.027   4.930
 3030SOL     OW 9988   1.341   2.539   6.559
 3030SOL    HW1 9989   1.376   2.633   6.568
 3030SOL    HW2 9990   1.379   2.482   6.631
 3031SOL     OW 9991   0.324   5.622   0.349
 3031SOL    HW1 9992   0.313   5.700   0.287
 3031SOL    HW2 9993   0.312   5.537   0.299
 3032SOL     OW 9994   2.714   6.771   3.533
 3032SOL    HW1 9995   2.623   6.804   3.508
 3032SOL    HW2 9996   2.731   6.683   3.489
 3033SOL     OW 9997   1.591   1.455   6.098
 3033SOL    HW1 9998   1.520   1.396   6.137
 3033SOL    HW2 9999   1.647   1.493   6.172
 3034SOL     OW10000   5.441   3.293   3.642
 3034SOL    HW110001   5.528   3.341   3.656
 3034SOL    HW210002   5.400   3.322   3.556
 3035SOL     OW10003   6.880   3.657   0.083
 3035SOL    HW110004   6.868   3.754   0.102
 3035SOL    HW210005   6.879   3.606   0.169
 3036SOL     OW10006   3.441   2.719   5.655
 3036SOL    HW110007   3.343   2.699   5.645
 3036SOL    HW210008   3.455   2.818   5.654
 3037SOL     OW10009   0.992   4.856   6.910
 3037SOL    HW110010   1.023   4.880   7.002
 3037SOL    HW210011   0.919   4.788   6.915
 3038SOL     OW10012   6.259   4.724   5.520
 3038SOL    HW110013   6.293   4.810   5.558
 3038SOL    HW210014   6.164   4.737   5.489
 3039SOL     OW10015   5.737   3.757   5.842
 3039SOL    HW110016   5.675   3.694   5.889
 3039SOL    HW210017   5.697   3.849   5.840
 3040SOL     OW10018   3.882   5.942   5.875
 3040SOL    HW110019   3.950   5.989   5.930
 3040SOL    HW210020   3.927   5.878   5.813
 3041SOL     OW10021   1.525   5.307   6.414
 3041SOL    HW110022   1.449   5.327   6.476
 3041SOL    HW210023   1.494   5.243   6.343
 3042SOL     OW10024   0.185   4.669   4.290
 3042SOL    HW110025   0.118   4.645   4.220
 3042SOL    HW210026   0.156   4.753   4.336
 3043SOL     OW10027   3.202   4.448   1.708
 3043SOL    HW110028   3.121   4.451   1.766
 3043SOL    HW210029   3.273   4.506   1.748
 3044SOL     OW10030   3.778   3.667   4.680
 3044SOL    HW110031   3.878   3.662   4.690
 3044SOL    HW210032   3.756   3.727   4.603
 3045SOL     OW10033   5.379   1.521   2.323
 3045SOL    HW110034   5.290   1.541   2.282
 3045SOL    HW210035   5.392   1.578   2.404
 3046SOL     OW10036   5.839   5.684   1.581
 3046SOL    HW110037   5.807   5.591   1.599
 3046SOL    HW210038   5.928   5.680   1.534
 3047SOL     OW10039   6.037   1.630   4.075
 3047SOL    HW110040   6.045   1.728   4.093
 3047SOL    HW210041   5.941   1.604   4.078
 3048SOL     OW10042   4.335   4.879   1.704
 3048SOL    HW110043   4.361   4.929   1.622
 3048SOL    HW210044   4.384   4.792   1.708
 3049SOL     OW10045   0.854   2.136   2.143
 3049SOL    HW110046   0.851   2.049   2.193
 3049SOL    HW210047   0.762   2.160   2.113
 3050SOL     OW10048   3.366   2.380   6.748
 3050SOL    HW110049   3.336   2.352   6.657
 3050SOL    HW210050   3.385   2.478   6.748
 3051SOL     OW10051   2.429   4.983   6.125
 3051SOL    HW110052   2.509   4.938   6.085
 3051SOL    HW210053   2.430   5.080   6.101
 3052SOL     OW10054   6.509   6.127   3.739
 3052SOL    HW110055   6.494   6.204   3.800
 3052SOL    HW210056   6.432   6.064   3.745
 3053SOL     OW10057   0.495   4.250   0.005
 3053SOL    HW110058   0.441   4.334   0.005
 3053SOL    HW210059   0.480   4.200   6.944
 3054SOL     OW10060   5.500   6.974   3.069
 3054SOL    HW110061   5.452   7.019   2.995
 3054SOL    HW210062   5.461   6.882   3.083
 3055SOL     OW10063   4.917   6.532   0.243
 3055SOL    HW110064   5.006   6.574   0.257
 3055SOL    HW210065   4.848   6.582   0.296
 3056SOL     OW10066   4.625   1.873   0.404
 3056SOL    HW110067   4.720   1.839   0.404
 3056SOL    HW210068   4.606   1.916   0.316
 3057SOL     OW10069   6.072   3.852   3.430
 3057SOL    HW110070   6.084   3.777   3.364
 3057SOL    HW210071   6.110   3.824   3.518
 3058SOL     OW10072   0.453   5.061   6.020
 3058SOL    HW110073   0.364   5.067   6.066
 3058SOL    HW210074   0.456   4.978   5.965
 3059SOL     OW10075   1.170   2.167   2.092
 3059SOL    HW110076   1.266   2.195   2.096
 3059SOL    HW210077   1.112   2.245   2.112
 3060SOL     OW10078   5.549   3.851   3.352
 3060SOL    HW110079   5.529   3.899   3.437
 3060SOL    HW210080   5.511   3.758   3.357
 3061SOL     OW10081   5.607   6.597   3.157
 3061SOL    HW110082   5.535   6.650   3.112
 3061SOL    HW210083   5.572   6.560   3.243
 3062SOL     OW10084   4.203   5.065   1.098
 3062SOL    HW110085   4.113   5.093   1.066
 3062SOL    HW210086   4.198   5.046   1.196
 3063SOL     OW10087   6.695   4.577   1.000
 3063SOL    HW110088   6.674   4.487   0.959
 3063SOL    HW210089   6.672   4.649   0.935
 3064SOL     OW10090   4.614   1.836   6.203
 3064SOL    HW110091   4.607   1.935   6.214
 3064SOL    HW210092   4.647   1.795   6.287
 3065SOL     OW10093   5.552   1.489   6.183
 3065SOL    HW110094   5.537   1.412   6.245
 3065SOL    HW210095   5.468   1.507   6.132
 3066SOL     OW10096   5.174   0.098   5.807
 3066SOL    HW110097   5.152   0.135   5.897
 3066SOL    HW210098   5.109   0.133   5.740
 3067SOL     OW10099   1.411   1.692   4.768
 3067SOL    HW110100   1.403   1.700   4.668
 3067SOL    HW210101   1.494   1.738   4.799
 3068SOL     OW10102   6.012   0.301   0.804
 3068SOL    HW110103   6.026   0.363   0.881
 3068SOL    HW210104   6.050   0.211   0.825
 3069SOL     OW10105   5.506   6.109   4.104
 3069SOL    HW110106   5.555   6.024   4.125
 3069SOL    HW210107   5.561   6.164   4.041
 3070SOL     OW10108   2.539   1.424   1.272
 3070SOL    HW110109   2.467   1.415   1.340
 3070SOL    HW210110   2.620   1.465   1.314
 3071SOL     OW10111   5.660   4.389   5.196
 3071SOL    HW110112   5.694   4.406   5.103
 3071SOL    HW210113   5.596   4.312   5.194
 3072SOL     OW10114   1.633   6.765   5.862
 3072SOL    HW110115   1.644   6.849   5.809
 3072SOL    HW210116   1.698   6.696   5.829
 3073SOL     OW10117   6.886   5.643   2.441
 3073SOL    HW110118   6.967   5.697   2.417
 3073SOL    HW210119   6.826   5.637   2.361
 3074SOL     OW10120   3.388   2.845   1.838
 3074SOL    HW110121   3.410   2.850   1.741
 3074SOL    HW210122   3.435   2.918   1.887
 3075SOL     OW10123   3.935   5.083   1.790
 3075SOL    HW110124   3.960   5.146   1.864
 3075SOL    HW210125   3.881   5.008   1.828
 3076SOL     OW10126   1.826   1.214   3.814
 3076SOL    HW110127   1.777   1.181   3.894
 3076SOL    HW210128   1.877   1.297   3.836
 3077SOL     OW10129   0.266   3.488   1.872
 3077SOL    HW110130   0.206   3.414   1.839
 3077SOL    HW210131   0.265   3.490   1.972
 3078SOL     OW10132   6.841   3.625   2.120
 3078SOL    HW110133   6.836   3.687   2.042
 3078SOL    HW210134   6.928   3.637   2.167
 3079SOL     OW10135   1.311   4.235   4.128
 3079SOL    HW110136   1.234   4.241   4.192
 3079SOL    HW210137   1.290   4.164   4.059
 3080SOL     OW10138   3.929   4.825   1.558
 3080SOL    HW110139   3.953   4.778   1.474
 3080SOL    HW210140   3.870   4.767   1.614
 3081SOL     OW10141   2.270   3.076   5.936
 3081SOL    HW110142   2.194   3.026   5.895
 3081SOL    HW210143   2.351   3.065   5.879
 3082SOL     OW10144   5.388   4.006   5.003
 3082SOL    HW110145   5.442   3.931   5.039
 3082SOL    HW210146   5.315   4.030   5.067
 3083SOL     OW10147   3.979   5.826   1.342
 3083SOL    HW110148   3.990   5.792   1.435
 3083SOL    HW210149   3.900   5.887   1.337
 3084SOL     OW10150   6.916   5.045   3.985
 3084SOL    HW110151   6.938   5.083   3.896
 3084SOL    HW210152   6.930   4.946   3.983
 3085SOL     OW10153   6.057   5.739   0.048
 3085SOL    HW110154   6.114   5.786   7.006
 3085SOL    HW210155   6.114   5.675   0.100
 3086SOL     OW10156   6.185   6.246   6.159
 3086SOL    HW110157   6.145   6.154   6.160
 3086SOL    HW210158   6.151   6.296   6.078
 3087SOL     OW10159   3.283   0.295   2.491
 3087SOL    HW110160   3.218   0.317   2.419
 3087SOL    HW210161   3.376   0.313   2.459
 3088SOL     OW10162   2.316   3.729   5.304
 3088SOL    HW110163   2.356   3.812   5.265
 3088SOL    HW210164   2.288   3.748   5.398
 3089SOL     OW10165   4.185   5.984   6.267
 3089SOL    HW110166   4.143   6.002   6.179
 3089SOL    HW210167   4.241   6.063   6.294
 3090SOL     OW10168   0.390   2.873   1.975
 3090SOL    HW110169   0.334   2.795   1.947
 3090SOL    HW210170   0.347   2.958   1.945
 3091SOL     OW10171   1.189   2.153   0.302
 3091SOL    HW110172   1.275   2.117   0.267
 3091SOL    HW210173   1.206   2.209   0.384
 3092SOL     OW10174   6.036   1.436   2.085
 3092SOL    HW110175   6.087   1.504   2.139
 3092SOL    HW210176   5.983   1.378   2.147
 3093SOL     OW10177   5.823   5.125   6.515
 3093SOL    HW110178   5.845   5.143   6.419
 3093SOL    HW210179   5.873   5.044   6.546
 3094SOL     OW10180   2.200   1.337   6.262
 3094SOL    HW110181   2.128   1.390   6.219
 3094SOL    HW210182   2.180   1.326   6.360
 3095SOL     OW10183   1.662   3.871   4.647
 3095SOL    HW110184   1.564   3.857   4.659
 3095SOL    HW210185   1.680   3.904   4.554
 3096SOL     OW10186   1.866   3.162   4.570
 3096SOL    HW110187   1.799   3.226   4.608
 3096SOL    HW210188   1.870   3.174   4.470
 3097SOL     OW10189   5.345   3.374   5.280
 3097SOL    HW110190   5.325   3.315   5.359
 3097SOL    HW210191   5.441   3.363   5.254
 3098SOL     OW10192   1.619   3.190   2.133
 3098SOL    HW110193   1.575   3.173   2.045
 3098SOL    HW210194   1.562   3.154   2.206
 3099SOL     OW10195   0.819   6.726   5.129
 3099SOL    HW110196   0.900   6.668   5.133
 3099SOL    HW210197   0.808   6.775   5.215
 3100SOL     OW10198   5.679   4.661   2.116
 3100SOL    HW110199   5.681   4.583   2.179
 3100SOL    HW210200   5.714   4.743   2.162
 3101SOL     OW10201   5.267   0.288   4.900
 3101SOL    HW110202   5.366   0.273   4.909
 3101SOL    HW210203   5.232   0.231   4.825
 3102SOL     OW10204   5.905   5.066   1.920
 3102SOL    HW110205   5.871   5.011   1.996
 3102SOL    HW210206   5.919   5.160   1.950
 3103SOL     OW10207   1.728   1.944   2.034
 3103SOL    HW110208   1.724   2.031   2.083
 3103SOL    HW210209   1.793   1.952   1.957
 3104SOL     OW10210   5.474   2.689   5.268
 3104SOL    HW110211   5.548   2.622   5.261
 3104SOL    HW210212   5.504   2.776   5.230
 3105SOL     OW10213   5.578   4.196   0.435
 3105SOL    HW110214   5.500   4.201   0.498
 3105SOL    HW210215   5.619   4.106   0.440
 3106SOL     OW10216   5.334   2.113   5.673
 3106SOL    HW110217   5.428   2.137   5.652
 3106SOL    HW210218   5.294   2.065   5.594
 3107SOL     OW10219   3.853   2.130   5.021
 3107SOL    HW110220   3.829   2.176   5.107
 3107SOL    HW210221   3.934   2.172   4.981
 3108SOL     OW10222   2.018   4.207   3.378
 3108SOL    HW110223   1.984   4.285   3.326
 3108SOL    HW210224   2.090   4.238   3.441
 3109SOL     OW10225   6.877   6.065   3.344
 3109SOL    HW110226   6.814   5.989   3.362
 3109SOL    HW210227   6.963   6.049   3.394
 3110SOL     OW10228   1.139   5.288   3.739
 3110SOL    HW110229   1.134   5.377   3.694
 3110SOL    HW210230   1.052   5.240   3.730
 3111SOL     OW10231   6.398   4.065   3.708
 3111SOL    HW110232   6.445   4.141   3.664
 3111SOL    HW210233   6.299   4.079   3.700
 3112SOL     OW10234   3.860   1.163   0.504
 3112SOL    HW110235   3.798   1.113   0.444
 3112SOL    HW210236   3.933   1.204   0.449
 3113SOL     OW10237   1.687   0.095   3.351
 3113SOL    HW110238   1.731   0.087   3.440
 3113SOL    HW210239   1.653   0.006   3.322
 3114SOL     OW10240   4.553   6.606   6.162
 3114SOL    HW110241   4.608   6.596   6.079
 3114SOL    HW210242   4.582   6.688   6.211
 3115SOL     OW10243   4.636   5.294   4.427
 3115SOL    HW110244   4.606   5.353   4.352
 3115SOL    HW210245   4.582   5.210   4.427
 3116SOL     OW10246   0.797   1.869   5.986
 3116SOL    HW110247   0.862   1.942   5.962
 3116SOL    HW210248   0.704   1.900   5.966
 3117SOL     OW10249   3.923   6.783   1.306
 3117SOL    HW110250   3.964   6.862   1.353
 3117SOL    HW210251   3.824   6.795   1.302
 3118SOL     OW10252   1.048   1.903   3.511
 3118SOL    HW110253   1.062   1.934   3.417
 3118SOL    HW210254   1.136   1.878   3.552
 3119SOL     OW10255   4.894   5.546   4.169
 3119SOL    HW110256   4.969   5.532   4.104
 3119SOL    HW210257   4.926   5.603   4.245
 3120SOL     OW10258   2.402   5.750   6.990
 3120SOL    HW110259   2.475   5.714   6.933
 3120SOL    HW210260   2.313   5.729   6.949
 3121SOL     OW10261   4.110   2.237   4.099
 3121SOL    HW110262   4.012   2.233   4.120
 3121SOL    HW210263   4.122   2.236   4.000
 3122SOL     OW10264   5.542   5.175   5.977
 3122SOL    HW110265   5.554   5.213   5.885
 3122SOL    HW210266   5.450   5.138   5.986
 3123SOL     OW10267   1.689   2.046   2.900
 3123SOL    HW110268   1.636   2.030   2.984
 3123SOL    HW210269   1.649   2.123   2.850
 3124SOL     OW10270   5.388   6.984   5.540
 3124SOL    HW110271   5.305   0.015   5.528
 3124SOL    HW210272   5.465   0.019   5.561
 3125SOL     OW10273   1.297   1.396   5.582
 3125SOL    HW110274   1.326   1.348   5.499
 3125SOL    HW210275   1.366   1.384   5.653
 3126SOL     OW10276   4.785   4.759   5.658
 3126SOL    HW110277   4.878   4.730   5.682
 3126SOL    HW210278   4.740   4.797   5.739
 3127SOL     OW10279   6.631   1.639   5.279
 3127SOL    HW110280   6.620   1.571   5.206
 3127SOL    HW210281   6.702   1.704   5.255
 3128SOL     OW10282   3.588   0.285   0.594
 3128SOL    HW110283   3.591   0.327   0.503
 3128SOL    HW210284   3.522   0.335   0.651
 3129SOL     OW10285   4.248   4.295   0.080
 3129SOL    HW110286   4.296   4.294   7.016
 3129SOL    HW210287   4.223   4.389   0.103
 3130SOL     OW10288   0.631   6.047   1.856
 3130SOL    HW110289   0.695   5.972   1.874
 3130SOL    HW210290   0.652   6.088   1.767
 3131SOL     OW10291   6.841   3.719   2.910
 3131SOL    HW110292   6.852   3.700   3.007
 3131SOL    HW210293   6.848   3.633   2.858
 3132SOL     OW10294   5.164   3.936   6.813
 3132SOL    HW110295   5.261   3.946   6.834
 3132SOL    HW210296   5.118   3.888   6.888
 3133SOL     OW10297   5.337   6.830   3.866
 3133SOL    HW110298   5.310   6.734   3.879
 3133SOL    HW210299   5.429   6.833   3.826
 3134SOL     OW10300   5.488   4.872   2.667
 3134SOL    HW110301   5.509   4.785   2.622
 3134SOL    HW210302   5.556   4.940   2.642
 3135SOL     OW10303   3.675   6.288   6.775
 3135SOL    HW110304   3.619   6.274   6.857
 3135SOL    HW210305   3.644   6.370   6.727
 3136SOL     OW10306   6.629   0.566   2.835
 3136SOL    HW110307   6.727   0.583   2.839
 3136SOL    HW210308   6.586   0.598   2.920
 3137SOL     OW10309   4.159   5.741   0.119
 3137SOL    HW110310   4.140   5.722   0.215
 3137SOL    HW210311   4.232   5.680   0.087
 3138SOL     OW10312   6.692   6.441   5.095
 3138SOL    HW110313   6.757   6.509   5.127
 3138SOL    HW210314   6.605   6.485   5.071
 3139SOL     OW10315   1.837   5.117   1.619
 3139SOL    HW110316   1.749   5.158   1.597
 3139SOL    HW210317   1.868   5.150   1.709
 3140SOL     OW10318   6.058   6.116   0.032
 3140SOL    HW110319   6.005   6.075   0.106
 3140SOL    HW210320   6.097   6.044   6.999
 3141SOL     OW10321   5.843   1.636   6.634
 3141SOL    HW110322   5.764   1.624   6.695
 3141SOL    HW210323   5.828   1.585   6.549
 3142SOL     OW10324   4.578   0.976   3.927
 3142SOL    HW110325   4.583   0.878   3.950
 3142SOL    HW210326   4.559   0.986   3.830
 3143SOL     OW10327   6.935   1.333   1.174
 3143SOL    HW110328   0.010   1.327   1.173
 3143SOL    HW210329   6.906   1.417   1.219
 3144SOL     OW10330   3.596   4.435   6.717
 3144SOL    HW110331   3.668   4.451   6.785
 3144SOL    HW210332   3.545   4.353   6.741
 3145SOL     OW10333   0.424   5.408   0.210
 3145SOL    HW110334   0.495   5.386   0.276
 3145SOL    HW210335   0.457   5.478   0.147
 3146SOL     OW10336   6.546   2.397   4.964
 3146SOL    HW110337   6.527   2.403   4.866
 3146SOL    HW210338   6.502   2.316   5.003
 3147SOL     OW10339   4.276   0.065   0.003
 3147SOL    HW110340   4.220   0.145   0.026
 3147SOL    HW210341   4.240   7.009   0.050
 3148SOL     OW10342   6.718   4.617   1.267
 3148SOL    HW110343   6.742   4.713   1.282
 3148SOL    HW210344   6.720   4.597   1.169
 3149SOL     OW10345   3.639   3.092   0.386
 3149SOL    HW110346   3.648   3.173   0.444
 3149SOL    HW210347   3.644   3.120   0.290
 3150SOL     OW10348   0.163   7.018   5.654
 3150SOL    HW110349   0.209   7.006   5.742
 3150SOL    HW210350   0.230   7.018   5.581
 3151SOL     OW10351   0.190   0.940   5.823
 3151SOL    HW110352   0.133   1.012   5.864
 3151SOL    HW210353   0.230   0.974   5.738
 3152SOL     OW10354   2.029   2.213   5.724
 3152SOL    HW110355   2.124   2.233   5.748
 3152SOL    HW210356   1.973   2.295   5.735
 3153SOL     OW10357   5.442   5.635   2.096
 3153SOL    HW110358   5.371   5.666   2.160
 3153SOL    HW210359   5.517   5.592   2.148
 3154SOL     OW10360   3.634   1.905   0.929
 3154SOL    HW110361   3.605   1.995   0.963
 3154SOL    HW210362   3.688   1.859   1.000
 3155SOL     OW10363   1.070   4.885   0.150
 3155SOL    HW110364   0.991   4.939   0.181
 3155SOL    HW210365   1.099   4.823   0.223
 3156SOL     OW10366   4.224   4.537   0.937
 3156SOL    HW110367   4.298   4.563   0.876
 3156SOL    HW210368   4.136   4.554   0.893
 3157SOL     OW10369   1.254   0.810   4.782
 3157SOL    HW110370   1.342   0.762   4.784
 3157SOL    HW210371   1.267   0.900   4.740
 3158SOL     OW10372   2.730   0.522   5.858
 3158SOL    HW110373   2.680   0.601   5.892
 3158SOL    HW210374   2.783   0.548   5.777
 3159SOL     OW10375   5.043   6.900   1.446
 3159SOL    HW110376   4.997   6.849   1.374
 3159SOL    HW210377   4.994   6.986   1.462
 3160SOL     OW10378   2.233   0.946   5.533
 3160SOL    HW110379   2.178   0.910   5.457
 3160SOL    HW210380   2.224   0.886   5.612
 3161SOL     OW10381   1.657   2.776   2.166
 3161SOL    HW110382   1.563   2.810   2.163
 3161SOL    HW210383   1.659   2.689   2.216
 3162SOL     OW10384   1.010   5.877   1.470
 3162SOL    HW110385   0.985   5.818   1.394
 3162SOL    HW210386   1.056   5.959   1.435
 3163SOL     OW10387   4.705   4.451   0.491
 3163SOL    HW110388   4.699   4.545   0.460
 3163SOL    HW210389   4.801   4.423   0.498
 3164SOL     OW10390   2.273   0.110   4.405
 3164SOL    HW110391   2.261   0.099   4.306
 3164SOL    HW210392   2.276   0.021   4.448
 3165SOL     OW10393   0.512   6.456   5.962
 3165SOL    HW110394   0.588   6.428   5.904
 3165SOL    HW210395   0.544   6.522   6.030
 3166SOL     OW10396   4.720   1.377   4.346
 3166SOL    HW110397   4.693   1.286   4.378
 3166SOL    HW210398   4.719   1.440   4.423
 3167SOL     OW10399   5.605   2.788   1.356
 3167SOL    HW110400   5.628   2.693   1.335
 3167SOL    HW210401   5.616   2.805   1.454
 3168SOL     OW10402   5.060   1.135   0.433
 3168SOL    HW110403   5.083   1.212   0.493
 3168SOL    HW210404   4.990   1.165   0.368
 3169SOL     OW10405   1.035   3.984   2.384
 3169SOL    HW110406   1.041   3.885   2.371
 3169SOL    HW210407   1.092   4.031   2.317
 3170SOL     OW10408   1.922   3.986   3.526
 3170SOL    HW110409   1.883   4.039   3.601
 3170SOL    HW210410   1.986   4.042   3.475
 3171SOL     OW10411   5.324   1.553   4.382
 3171SOL    HW110412   5.410   1.570   4.430
 3171SOL    HW210413   5.283   1.468   4.416
 3172SOL     OW10414   5.782   4.546   1.272
 3172SOL    HW110415   5.780   4.637   1.312
 3172SOL    HW210416   5.711   4.538   1.202
 3173SOL     OW10417   5.152   2.366   0.618
 3173SOL    HW110418   5.103   2.448   0.589
 3173SOL    HW210419   5.121   2.288   0.565
 3174SOL     OW10420   3.858   2.551   6.665
 3174SOL    HW110421   3.889   2.555   6.570
 3174SOL    HW210422   3.767   2.591   6.672
 3175SOL     OW10423   5.683   6.918   5.408
 3175SOL    HW110424   5.604   6.857   5.416
 3175SOL    HW210425   5.763   6.875   5.451
 3176SOL     OW10426   6.977   4.787   3.993
 3176SOL    HW110427   6.941   4.697   3.969
 3176SOL    HW210428   0.051   4.781   4.007
 3177SOL     OW10429   5.261   3.266   3.857
 3177SOL    HW110430   5.181   3.304   3.811
 3177SOL    HW210431   5.340   3.270   3.797
 3178SOL     OW10432   0.551   0.598   2.811
 3178SOL    HW110433   0.511   0.689   2.824
 3178SOL    HW210434   0.651   0.604   2.821
 3179SOL     OW10435   0.647   2.846   2.388
 3179SOL    HW110436   0.625   2.940   2.413
 3179SOL    HW210437   0.688   2.844   2.297
 3180SOL     OW10438   6.791   6.580   6.440
 3180SOL    HW110439   6.774   6.560   6.537
 3180SOL    HW210440   6.780   6.496   6.387
 3181SOL     OW10441   0.573   5.926   5.400
 3181SOL    HW110442   0.605   5.856   5.336
 3181SOL    HW210443   0.483   5.959   5.372
 3182SOL     OW10444   1.860   6.946   1.464
 3182SOL    HW110445   1.900   0.009   1.435
 3182SOL    HW210446   1.906   6.871   1.416
 3183SOL     OW10447   3.976   3.630   1.075
 3183SOL    HW110448   3.888   3.673   1.057
 3183SOL    HW210449   3.964   3.531   1.081
 3184SOL     OW10450   6.464   1.513   4.228
 3184SOL    HW110451   6.375   1.495   4.272
 3184SOL    HW210452   6.537   1.483   4.289
 3185SOL     OW10453   0.711   6.705   6.426
 3185SOL    HW110454   0.795   6.688   6.477
 3185SOL    HW210455   0.654   6.771   6.476
 3186SOL     OW10456   0.170   2.833   6.394
 3186SOL    HW110457   0.118   2.807   6.475
 3186SOL    HW210458   0.265   2.851   6.419
 3187SOL     OW10459   5.130   6.931   2.435
 3187SOL    HW110460   5.082   6.859   2.485
 3187SOL    HW210461   5.213   6.893   2.394
 3188SOL     OW10462   1.589   6.546   0.798
 3188SOL    HW110463   1.655   6.607   0.840
 3188SOL    HW210464   1.519   6.599   0.750
 3189SOL     OW10465   2.740   1.796   6.307
 3189SOL    HW110466   2.739   1.862   6.232
 3189SOL    HW210467   2.802   1.721   6.285
 3190SOL     OW10468   6.239   5.892   3.747
 3190SOL    HW110469   6.279   5.922   3.834
 3190SOL    HW210470   6.189   5.967   3.705
 3191SOL     OW10471   3.733   5.638   1.540
 3191SOL    HW110472   3.645   5.594   1.555
 3191SOL    HW210473   3.719   5.734   1.516
 3192SOL     OW10474   5.241   1.005   2.533
 3192SOL    HW110475   5.244   0.906   2.518
 3192SOL    HW210476   5.226   1.023   2.631
 3193SOL     OW10477   3.634   5.663   4.939
 3193SOL    HW110478   3.572   5.595   4.979
 3193SOL    HW210479   3.708   5.616   4.891
 3194SOL     OW10480   1.732   6.985   6.337
 3194SOL    HW110481   1.749   6.906   6.279
 3194SOL    HW210482   1.811   0.021   6.334
 3195SOL     OW10483   1.075   0.358   0.919
 3195SOL    HW110484   1.120   0.436   0.961
 3195SOL    HW210485   1.027   0.305   0.990
 3196SOL     OW10486   5.921   7.005   2.439
 3196SOL    HW110487   6.011   7.008   2.481
 3196SOL    HW210488   5.915   0.048   2.366
 3197SOL     OW10489   2.736   0.837   6.444
 3197SOL    HW110490   2.805   0.838   6.516
 3197SOL    HW210491   2.736   0.924   6.396
 3198SOL     OW10492   5.898   2.631   3.802
 3198SOL    HW110493   5.806   2.661   3.777
 3198SOL    HW210494   5.930   2.562   3.738
 3199SOL     OW10495   4.977   3.838   3.103
 3199SOL    HW110496   5.057   3.781   3.123
 3199SOL    HW210497   4.911   3.829   3.177
 3200SOL     OW10498   5.259   3.125   4.547
 3200SOL    HW110499   5.236   3.035   4.509
 3200SOL    HW210500   5.252   3.122   4.647
 3201SOL     OW10501   6.336   4.232   2.115
 3201SOL    HW110502   6.249   4.215   2.068
 3201SOL    HW210503   6.404   4.167   2.084
 3202SOL     OW10504   2.684   3.139   6.283
 3202SOL    HW110505   2.600   3.193   6.294
 3202SOL    HW210506   2.666   3.044   6.307
 3203SOL     OW10507   3.052   6.538   1.911
 3203SOL    HW110508   3.025   6.586   1.828
 3203SOL    HW210509   3.132   6.582   1.951
 3204SOL     OW10510   4.199   0.691   3.868
 3204SOL    HW110511   4.279   0.633   3.885
 3204SOL    HW210512   4.119   0.649   3.910
 3205SOL     OW10513   4.790   3.320   5.715
 3205SOL    HW110514   4.747   3.242   5.761
 3205SOL    HW210515   4.839   3.288   5.634
 3206SOL     OW10516   2.534   4.220   1.151
 3206SOL    HW110517   2.633   4.207   1.145
 3206SOL    HW210518   2.512   4.317   1.142
 3207SOL     OW10519   2.368   5.318   4.201
 3207SOL    HW110520   2.401   5.392   4.141
 3207SOL    HW210521   2.443   5.286   4.258
 3208SOL     OW10522   6.567   4.761   6.255
 3208SOL    HW110523   6.652   4.713   6.279
 3208SOL    HW210524   6.498   4.694   6.228
 3209SOL     OW10525   5.428   6.616   6.273
 3209SOL    HW110526   5.372   6.682   6.223
 3209SOL    HW210527   5.369   6.549   6.317
 3210SOL     OW10528   4.968   5.818   1.650
 3210SOL    HW110529   5.053   5.765   1.644
 3210SOL    HW210530   4.893   5.757   1.674
 3211SOL     OW10531   2.081   6.428   6.601
 3211SOL    HW110532   2.122   6.338   6.618
 3211SOL    HW210533   2.019   6.422   6.523
 3212SOL     OW10534   2.799   6.605   3.329
 3212SOL    HW110535   2.840   6.521   3.366
 3212SOL    HW210536   2.806   6.604   3.230
 3213SOL     OW10537   1.602   6.847   6.103
 3213SOL    HW110538   1.520   6.899   6.128
 3213SOL    HW210539   1.604   6.833   6.004
 3214SOL     OW10540   4.102   0.563   2.559
 3214SOL    HW110541   4.099   0.594   2.464
 3214SOL    HW210542   4.189   0.590   2.601
 3215SOL     OW10543   2.150   3.139   1.716
 3215SOL    HW110544   2.121   3.199   1.791
 3215SOL    HW210545   2.156   3.045   1.749
 3216SOL     OW10546   5.962   5.404   0.895
 3216SOL    HW110547   5.954   5.340   0.971
 3216SOL    HW210548   6.037   5.468   0.913
 3217SOL     OW10549   6.827   5.106   3.529
 3217SOL    HW110550   6.763   5.029   3.528
 3217SOL    HW210551   6.911   5.080   3.577
 3218SOL     OW10552   5.530   1.478   2.885
 3218SOL    HW110553   5.473   1.492   2.966
 3218SOL    HW210554   5.480   1.424   2.817
 3219SOL     OW10555   5.625   1.881   4.964
 3219SOL    HW110556   5.703   1.858   5.023
 3219SOL    HW210557   5.650   1.956   4.903
 3220SOL     OW10558   0.191   3.693   5.844
 3220SOL    HW110559   0.158   3.619   5.902
 3220SOL    HW210560   0.273   3.733   5.884
 3221SOL     OW10561   3.649   1.486   2.016
 3221SOL    HW110562   3.649   1.577   2.058
 3221SOL    HW210563   3.733   1.438   2.041
 3222SOL     OW10564   3.354   1.103   3.222
 3222SOL    HW110565   3.352   1.133   3.127
 3222SOL    HW210566   3.427   1.035   3.233
 3223SOL     OW10567   1.540   5.207   0.719
 3223SOL    HW110568   1.444   5.182   0.733
 3223SOL    HW210569   1.548   5.306   0.716
 3224SOL     OW10570   4.756   2.074   4.205
 3224SOL    HW110571   4.704   1.995   4.237
 3224SOL    HW210572   4.765   2.070   4.106
 3225SOL     OW10573   5.018   1.083   4.746
 3225SOL    HW110574   4.999   1.099   4.843
 3225SOL    HW210575   5.044   1.170   4.703
 3226SOL     OW10576   6.193   0.977   0.771
 3226SOL    HW110577   6.264   1.027   0.822
 3226SOL    HW210578   6.205   0.993   0.673
 3227SOL     OW10579   5.631   4.222   5.451
 3227SOL    HW110580   5.629   4.177   5.362
 3227SOL    HW210581   5.676   4.311   5.443
 3228SOL     OW10582   2.378   4.537   0.365
 3228SOL    HW110583   2.337   4.621   0.331
 3228SOL    HW210584   2.435   4.558   0.445
 3229SOL     OW10585   1.855   2.112   0.602
 3229SOL    HW110586   1.884   2.208   0.601
 3229SOL    HW210587   1.848   2.080   0.697
 3230SOL     OW10588   3.458   6.032   5.312
 3230SOL    HW110589   3.551   6.066   5.323
 3230SOL    HW210590   3.406   6.051   5.396
 3231SOL     OW10591   2.084   2.503   2.616
 3231SOL    HW110592   2.047   2.479   2.705
 3231SOL    HW210593   2.050   2.594   2.590
 3232SOL     OW10594   3.472   4.935   3.761
 3232SOL    HW110595   3.377   4.920   3.733
 3232SOL    HW210596   3.534   4.899   3.691
 3233SOL     OW10597   1.938   6.953   0.126
 3233SOL    HW110598   1.867   6.886   0.147
 3233SOL    HW210599   1.897   0.019   0.117
 3234SOL     OW10600   3.205   3.581   0.882
 3234SOL    HW110601   3.224   3.553   0.788
 3234SOL    HW210602   3.116   3.627   0.885
 3235SOL     OW10603   0.590   1.183   3.371
 3235SOL    HW110604   0.662   1.114   3.367
 3235SOL    HW210605   0.501   1.138   3.371
 3236SOL     OW10606   4.592   0.555   0.672
 3236SOL    HW110607   4.645   0.480   0.632
 3236SOL    HW210608   4.593   0.546   0.772
 3237SOL     OW10609   6.005   1.482   5.484
 3237SOL    HW110610   5.989   1.472   5.582
 3237SOL    HW210611   5.917   1.494   5.437
 3238SOL     OW10612   6.248   4.732   1.644
 3238SOL    HW110613   6.176   4.753   1.710
 3238SOL    HW210614   6.287   4.642   1.664
 3239SOL     OW10615   6.721   0.191   4.803
 3239SOL    HW110616   6.749   0.280   4.767
 3239SOL    HW210617   6.787   0.121   4.774
 3240SOL     OW10618   0.083   1.040   0.084
 3240SOL    HW110619   0.167   0.994   0.111
 3240SOL    HW210620   0.089   1.138   0.105
 3241SOL     OW10621   6.663   3.532   5.376
 3241SOL    HW110622   6.707   3.583   5.303
 3241SOL    HW210623   6.711   3.446   5.390
 3242SOL     OW10624   6.876   3.869   4.572
 3242SOL    HW110625   6.929   3.797   4.526
 3242SOL    HW210626   6.847   3.836   4.662
 3243SOL     OW10627   6.180   4.551   4.037
 3243SOL    HW110628   6.178   4.611   3.958
 3243SOL    HW210629   6.087   4.520   4.058
 3244SOL     OW10630   4.769   6.864   0.365
 3244SOL    HW110631   4.842   6.818   0.414
 3244SOL    HW210632   4.792   6.961   0.354
 3245SOL     OW10633   3.501   6.940   4.510
 3245SOL    HW110634   3.572   6.970   4.447
 3245SOL    HW210635   3.499   6.840   4.513
 3246SOL     OW10636   6.593   6.646   2.899
 3246SOL    HW110637   6.502   6.672   2.869
 3246SOL    HW210638   6.654   6.641   2.820
 3247SOL     OW10639   1.583   4.302   3.593
 3247SOL    HW110640   1.588   4.293   3.693
 3247SOL    HW210641   1.579   4.211   3.552
 3248SOL     OW10642   5.578   2.359   3.254
 3248SOL    HW110643   5.503   2.319   3.307
 3248SOL    HW210644   5.561   2.456   3.238
 3249SOL     OW10645   3.115   3.130   3.275
 3249SOL    HW110646   3.138   3.143   3.178
 3249SOL    HW210647   3.031   3.179   3.297
 3250SOL     OW10648   4.302   5.609   2.605
 3250SOL    HW110649   4.376   5.610   2.673
 3250SOL    HW210650   4.248   5.526   2.615
 3251SOL     OW10651   2.979   2.174   2.666
 3251SOL    HW110652   3.007   2.196   2.572
 3251SOL    HW210653   2.895   2.224   2.687
 3252SOL     OW10654   2.379   1.636   3.280
 3252SOL    HW110655   2.313   1.626   3.206
 3252SOL    HW210656   2.435   1.717   3.264
 3253SOL     OW10657   6.778   3.064   7.001
 3253SOL    HW110658   6.876   3.080   7.004
 3253SOL    HW210659   6.730   3.151   6.989
 3254SOL     OW10660   6.369   6.788   1.616
 3254SOL    HW110661   6.360   6.694   1.651
 3254SOL    HW210662   6.455   6.826   1.647
 3255SOL     OW10663   3.924   5.882   2.113
 3255SOL    HW110664   3.959   5.976   2.116
 3255SOL    HW210665   3.871   5.864   2.196
 3256SOL     OW10666   5.156   2.377   1.231
 3256SOL    HW110667   5.162   2.445   1.304
 3256SOL    HW210668   5.148   2.286   1.270
 3257SOL     OW10669   3.009   1.402   2.681
 3257SOL    HW110670   3.055   1.472   2.736
 3257SOL    HW210671   2.949   1.446   2.614
 3258SOL     OW10672   1.661   5.393   4.322
 3258SOL    HW110673   1.728   5.466   4.312
 3258SOL    HW210674   1.613   5.403   4.409
 3259SOL     OW10675   5.439   4.088   4.242
 3259SOL    HW110676   5.527   4.090   4.194
 3259SOL    HW210677   5.449   4.034   4.326
 3260SOL     OW10678   1.700   5.055   3.222
 3260SOL    HW110679   1.707   5.145   3.266
 3260SOL    HW210680   1.784   5.004   3.240
 3261SOL     OW10681   5.654   0.393   4.105
 3261SOL    HW110682   5.697   0.309   4.139
 3261SOL    HW210683   5.608   0.375   4.018
 3262SOL     OW10684   3.296   1.442   3.571
 3262SOL    HW110685   3.197   1.436   3.567
 3262SOL    HW210686   3.327   1.518   3.514
 3263SOL     OW10687   0.300   0.782   1.790
 3263SOL    HW110688   0.237   0.848   1.830
 3263SOL    HW210689   0.288   0.693   1.833
 3264SOL     OW10690   1.595   4.744   6.810
 3264SOL    HW110691   1.686   4.783   6.796
 3264SOL    HW210692   1.569   4.691   6.729
 3265SOL     OW10693   0.424   5.245   6.647
 3265SOL    HW110694   0.362   5.323   6.635
 3265SOL    HW210695   0.506   5.259   6.592
 3266SOL     OW10696   3.969   4.923   6.137
 3266SOL    HW110697   4.021   4.899   6.055
 3266SOL    HW210698   4.030   4.923   6.216
 3267SOL     OW10699   3.295   6.658   0.649
 3267SOL    HW110700   3.324   6.597   0.575
 3267SOL    HW210701   3.228   6.723   0.613
 3268SOL     OW10702   5.970   5.342   2.165
 3268SOL    HW110703   5.979   5.349   2.065
 3268SOL    HW210704   6.047   5.291   2.202
 3269SOL     OW10705   1.541   4.902   1.970
 3269SOL    HW110706   1.610   4.849   1.920
 3269SOL    HW210707   1.553   4.999   1.950
 3270SOL     OW10708   1.324   2.816   5.355
 3270SOL    HW110709   1.251   2.875   5.320
 3270SOL    HW210710   1.346   2.747   5.287
 3271SOL     OW10711   0.845   4.100   1.441
 3271SOL    HW110712   0.918   4.063   1.383
 3271SOL    HW210713   0.864   4.079   1.537
 3272SOL     OW10714   4.775   5.829   0.699
 3272SOL    HW110715   4.697   5.838   0.761
 3272SOL    HW210716   4.741   5.809   0.607
 3273SOL     OW10717   3.792   4.022   6.339
 3273SOL    HW110718   3.693   4.014   6.350
 3273SOL    HW210719   3.819   3.985   6.251
 3274SOL     OW10720   5.096   0.040   2.177
 3274SOL    HW110721   5.073   0.137   2.177
 3274SOL    HW210722   5.066   7.023   2.263
 3275SOL     OW10723   4.898   0.842   1.509
 3275SOL    HW110724   4.814   0.888   1.480
 3275SOL    HW210725   4.882   0.793   1.594
 3276SOL     OW10726   5.903   5.984   6.746
 3276SOL    HW110727   5.867   5.891   6.731
 3276SOL    HW210728   5.828   6.050   6.738
 3277SOL     OW10729   3.225   2.047   2.440
 3277SOL    HW110730   3.276   2.088   2.365
 3277SOL    HW210731   3.129   2.036   2.414
 3278SOL     OW10732   5.240   1.036   6.608
 3278SOL    HW110733   5.250   1.131   6.639
 3278SOL    HW210734   5.315   0.981   6.644
 3279SOL     OW10735   3.607   6.920   1.837
 3279SOL    HW110736   3.631   6.983   1.912
 3279SOL    HW210737   3.632   6.827   1.863
 3280SOL     OW10738   0.031   3.234   3.909
 3280SOL    HW110739   0.078   3.263   3.992
 3280SOL    HW210740   7.006   3.311   3.869
 3281SOL     OW10741   6.266   2.190   1.651
 3281SOL    HW110742   6.303   2.274   1.690
 3281SOL    HW210743   6.197   2.152   1.713
 3282SOL     OW10744   0.052   4.802   5.116
 3282SOL    HW110745   7.019   4.773   5.039
 3282SOL    HW210746   0.091   4.722   5.161
 3283SOL     OW10747   3.003   1.811   6.972
 3283SOL    HW110748   2.941   1.855   6.907
 3283SOL    HW210749   3.026   1.875   0.021
 3284SOL     OW10750   2.232   6.580   4.556
 3284SOL    HW110751   2.326   6.554   4.534
 3284SOL    HW210752   2.174   6.560   4.477
 3285SOL     OW10753   3.887   2.139   4.415
 3285SOL    HW110754   3.869   2.120   4.512
 3285SOL    HW210755   3.985   2.150   4.401
 3286SOL     OW10756   1.742   2.859   2.723
 3286SOL    HW110757   1.834   2.842   2.688
 3286SOL    HW210758   1.746   2.928   2.795
 3287SOL     OW10759   2.848   0.495   0.938
 3287SOL    HW110760   2.846   0.558   0.860
 3287SOL    HW210761   2.816   0.543   1.020
 3288SOL     OW10762   2.545   5.630   2.134
 3288SOL    HW110763   2.516   5.537   2.112
 3288SOL    HW210764   2.488   5.696   2.085
 3289SOL     OW10765   4.019   0.672   6.828
 3289SOL    HW110766   4.061   0.754   6.868
 3289SOL    HW210767   3.952   0.635   6.892
 3290SOL     OW10768   0.389   5.905   0.249
 3290SOL    HW110769   0.460   5.861   0.193
 3290SOL    HW210770   0.411   6.002   0.260
 3291SOL     OW10771   5.011   6.865   4.632
 3291SOL    HW110772   5.003   6.799   4.558
 3291SOL    HW210773   4.930   6.859   4.691
 3292SOL     OW10774   0.083   2.210   0.203
 3292SOL    HW110775   0.038   2.197   0.291
 3292SOL    HW210776   0.105   2.120   0.163
 3293SOL     OW10777   6.657   4.971   3.162
 3293SOL    HW110778   6.751   4.941   3.147
 3293SOL    HW210779   6.652   5.071   3.154
 3294SOL     OW10780   4.787   3.050   5.379
 3294SOL    HW110781   4.870   3.010   5.338
 3294SOL    HW210782   4.707   3.016   5.330
 3295SOL     OW10783   1.151   2.505   2.975
 3295SOL    HW110784   1.103   2.513   2.887
 3295SOL    HW210785   1.234   2.450   2.961
 3296SOL     OW10786   2.474   0.734   6.193
 3296SOL    HW110787   2.530   0.717   6.273
 3296SOL    HW210788   2.492   0.827   6.159
 3297SOL     OW10789   4.141   1.359   5.085
 3297SOL    HW110790   4.088   1.367   5.000
 3297SOL    HW210791   4.214   1.427   5.085
 3298SOL     OW10792   3.621   4.039   5.677
 3298SOL    HW110793   3.693   3.973   5.654
 3298SOL    HW210794   3.562   4.053   5.598
 3299SOL     OW10795   2.556   5.967   3.906
 3299SOL    HW110796   2.633   5.909   3.881
 3299SOL    HW210797   2.561   6.053   3.856
 3300SOL     OW10798   1.995   0.587   4.124
 3300SOL    HW110799   2.083   0.631   4.143
 3300SOL    HW210800   1.957   0.552   4.209
 3301SOL     OW10801   1.255   0.984   3.356
 3301SOL    HW110802   1.284   1.047   3.428
 3301SOL    HW210803   1.155   0.978   3.355
 3302SOL     OW10804   1.273   5.297   5.156
 3302SOL    HW110805   1.284   5.201   5.183
 3302SOL    HW210806   1.176   5.316   5.140
 3303SOL     OW10807   3.636   3.396   6.562
 3303SOL    HW110808   3.709   3.464   6.562
 3303SOL    HW210809   3.630   3.353   6.472
 3304SOL     OW10810   2.030   3.944   0.139
 3304SOL    HW110811   1.978   3.915   0.219
 3304SOL    HW210812   2.117   3.894   0.136
 3305SOL     OW10813   3.018   2.590   0.426
 3305SOL    HW110814   2.955   2.552   0.494
 3305SOL    HW210815   3.056   2.516   0.371
 3306SOL     OW10816   2.368   0.335   7.017
 3306SOL    HW110817   2.438   0.403   0.016
 3306SOL    HW210818   2.408   0.244   7.017
 3307SOL     OW10819   1.954   5.982   4.661
 3307SOL    HW110820   2.012   5.924   4.719
 3307SOL    HW210821   1.935   5.936   4.575
 3308SOL     OW10822   4.468   4.480   1.316
 3308SOL    HW110823   4.429   4.548   1.254
 3308SOL    HW210824   4.425   4.391   1.298
 3309SOL     OW10825   5.217   3.643   3.191
 3309SOL    HW110826   5.307   3.611   3.161
 3309SOL    HW210827   5.219   3.660   3.289
 3310SOL     OW10828   6.288   4.565   6.187
 3310SOL    HW110829   6.229   4.600   6.115
 3310SOL    HW210830   6.243   4.488   6.233
 3311SOL     OW10831   2.408   3.643   0.493
 3311SOL    HW110832   2.417   3.735   0.454
 3311SOL    HW210833   2.343   3.590   0.438
 3312SOL     OW10834   4.725   2.895   6.485
 3312SOL    HW110835   4.633   2.890   6.446
 3312SOL    HW210836   4.792   2.882   6.413
 3313SOL     OW10837   6.910   0.467   4.068
 3313SOL    HW110838   6.841   0.395   4.062
 3313SOL    HW210839   6.997   0.427   4.098
 3314SOL     OW10840   3.739   5.829   1.908
 3314SOL    HW110841   3.790   5.847   1.992
 3314SOL    HW210842   3.669   5.759   1.925
 3315SOL     OW10843   0.956   5.525   3.916
 3315SOL    HW110844   1.001   5.587   3.853
 3315SOL    HW210845   0.931   5.574   4.000
 3316SOL     OW10846   3.846   2.748   0.208
 3316SOL    HW110847   3.771   2.814   0.206
 3316SOL    HW210848   3.878   2.730   0.115
 3317SOL     OW10849   4.847   2.724   1.750
 3317SOL    HW110850   4.881   2.742   1.843
 3317SOL    HW210851   4.843   2.809   1.699
 3318SOL     OW10852   3.614   3.150   0.697
 3318SOL    HW110853   3.573   3.060   0.685
 3318SOL    HW210854   3.583   3.189   0.784
 3319SOL     OW10855   6.522   5.820   4.125
 3319SOL    HW110856   6.548   5.904   4.174
 3319SOL    HW210857   6.577   5.812   4.042
 3320SOL     OW10858   6.298   6.743   2.012
 3320SOL    HW110859   6.383   6.776   1.971
 3320SOL    HW210860   6.264   6.666   1.958
 3321SOL     OW10861   4.916   1.982   6.929
 3321SOL    HW110862   4.965   2.054   6.978
 3321SOL    HW210863   4.981   1.912   6.900
 3322SOL     OW10864   6.139   2.987   0.658
 3322SOL    HW110865   6.180   2.902   0.692
 3322SOL    HW210866   6.072   2.966   0.587
 3323SOL     OW10867   1.706   1.335   1.489
 3323SOL    HW110868   1.626   1.309   1.542
 3323SOL    HW210869   1.688   1.319   1.392
 3324SOL     OW10870   5.126   5.433   5.467
 3324SOL    HW110871   5.050   5.485   5.506
 3324SOL    HW210872   5.168   5.485   5.394
 3325SOL     OW10873   2.587   4.923   4.861
 3325SOL    HW110874   2.637   4.937   4.776
 3325SOL    HW210875   2.588   4.825   4.884
 3326SOL     OW10876   3.562   1.976   2.304
 3326SOL    HW110877   3.487   2.039   2.324
 3326SOL    HW210878   3.528   1.882   2.307
 3327SOL     OW10879   0.636   5.486   6.229
 3327SOL    HW110880   0.663   5.572   6.273
 3327SOL    HW210881   0.569   5.504   6.157
 3328SOL     OW10882   4.902   2.486   5.174
 3328SOL    HW110883   4.804   2.470   5.165
 3328SOL    HW210884   4.948   2.460   5.089
 3329SOL     OW10885   6.580   5.941   5.483
 3329SOL    HW110886   6.657   5.966   5.424
 3329SOL    HW210887   6.614   5.890   5.562
 3330SOL     OW10888   6.537   3.820   3.157
 3330SOL    HW110889   6.603   3.879   3.111
 3330SOL    HW210890   6.531   3.846   3.253
 3331SOL     OW10891   1.906   3.398   0.505
 3331SOL    HW110892   1.968   3.352   0.569
 3331SOL    HW210893   1.832   3.442   0.556
 3332SOL     OW10894   0.173   4.183   1.742
 3332SOL    HW110895   0.167   4.184   1.643
 3332SOL    HW210896   0.089   4.144   1.780
 3333SOL     OW10897   3.044   5.558   6.295
 3333SOL    HW110898   3.059   5.485   6.228
 3333SOL    HW210899   2.953   5.548   6.335
 3334SOL     OW10900   1.623   3.486   1.801
 3334SOL    HW110901   1.623   3.579   1.764
 3334SOL    HW210902   1.685   3.429   1.747
 3335SOL     OW10903   5.892   3.976   4.475
 3335SOL    HW110904   5.923   4.001   4.383
 3335SOL    HW210905   5.965   3.994   4.540
 3336SOL     OW10906   3.309   5.697   5.894
 3336SOL    HW110907   3.211   5.704   5.914
 3336SOL    HW210908   3.331   5.604   5.866
 3337SOL     OW10909   3.414   1.867   0.697
 3337SOL    HW110910   3.320   1.902   0.690
 3337SOL    HW210911   3.453   1.895   0.785
 3338SOL     OW10912   6.932   4.840   0.507
 3338SOL    HW110913   6.964   4.812   0.598
 3338SOL    HW210914   7.012   4.856   0.448
 3339SOL     OW10915   0.896   5.967   6.520
 3339SOL    HW110916   0.904   5.868   6.514
 3339SOL    HW210917   0.987   6.009   6.517
 3340SOL     OW10918   3.965   0.193   1.892
 3340SOL    HW110919   3.958   0.093   1.898
 3340SOL    HW210920   4.015   0.228   1.971
 3341SOL     OW10921   0.086   6.966   1.510
 3341SOL    HW110922   0.112   0.030   1.548
 3341SOL    HW210923   0.169   6.915   1.484
 3342SOL     OW10924   2.707   0.577   5.214
 3342SOL    HW110925   2.755   0.489   5.208
 3342SOL    HW210926   2.702   0.605   5.309
 3343SOL     OW10927   6.828   2.598   1.199
 3343SOL    HW110928   6.794   2.669   1.137
 3343SOL    HW210929   6.860   2.640   1.284
 3344SOL     OW10930   0.039   2.751   5.931
 3344SOL    HW110931   6.979   2.747   5.878
 3344SOL    HW210932   0.023   2.717   6.024
 3345SOL     OW10933   2.081   3.559   5.488
 3345SOL    HW110934   2.133   3.474   5.479
 3345SOL    HW210935   2.121   3.614   5.561
 3346SOL     OW10936   1.735   5.808   2.451
 3346SOL    HW110937   1.706   5.902   2.432
 3346SOL    HW210938   1.756   5.762   2.365
 3347SOL     OW10939   6.061   4.272   4.167
 3347SOL    HW110940   6.039   4.178   4.192
 3347SOL    HW210941   6.079   4.277   4.069
 3348SOL     OW10942   3.646   3.856   3.040
 3348SOL    HW110943   3.687   3.817   2.958
 3348SOL    HW210944   3.553   3.886   3.021
 3349SOL     OW10945   6.112   3.669   5.988
 3349SOL    HW110946   6.072   3.679   5.897
 3349SOL    HW210947   6.204   3.709   5.989
 3350SOL     OW10948   1.686   2.216   1.021
 3350SOL    HW110949   1.652   2.145   1.082
 3350SOL    HW210950   1.762   2.264   1.065
 3351SOL     OW10951   5.067   2.156   0.443
 3351SOL    HW110952   4.999   2.180   0.374
 3351SOL    HW210953   5.156   2.144   0.400
 3352SOL     OW10954   0.750   3.344   0.601
 3352SOL    HW110955   0.671   3.382   0.553
 3352SOL    HW210956   0.720   3.266   0.656
 3353SOL     OW10957   1.893   6.513   6.408
 3353SOL    HW110958   1.840   6.523   6.323
 3353SOL    HW210959   1.919   6.603   6.442
 3354SOL     OW10960   1.161   0.827   1.926
 3354SOL    HW110961   1.136   0.922   1.909
 3354SOL    HW210962   1.123   0.797   2.014
 3355SOL     OW10963   6.421   1.269   3.027
 3355SOL    HW110964   6.360   1.254   2.948
 3355SOL    HW210965   6.479   1.349   3.009
 3356SOL     OW10966   1.890   3.382   5.501
 3356SOL    HW110967   1.817   3.383   5.569
 3356SOL    HW210968   1.943   3.467   5.508
 3357SOL     OW10969   2.028   5.254   2.319
 3357SOL    HW110970   1.987   5.208   2.241
 3357SOL    HW210971   2.111   5.206   2.347
 3358SOL     OW10972   6.989   4.214   3.677
 3358SOL    HW110973   6.974   4.313   3.669
 3358SOL    HW210974   0.054   4.198   3.720
 3359SOL     OW10975   1.475   1.122   2.094
 3359SOL    HW110976   1.380   1.144   2.071
 3359SOL    HW210977   1.519   1.079   2.014
 3360SOL     OW10978   2.304   0.548   6.120
 3360SOL    HW110979   2.370   0.613   6.159
 3360SOL    HW210980   2.277   0.482   6.189
 3361SOL     OW10981   3.967   0.585   3.125
 3361SOL    HW110982   3.991   0.679   3.147
 3361SOL    HW210983   4.051   0.533   3.105
 3362SOL     OW10984   2.703   1.440   5.150
 3362SOL    HW110985   2.632   1.483   5.094
 3362SOL    HW210986   2.785   1.425   5.095
 3363SOL     OW10987   0.335   0.965   6.056
 3363SOL    HW110988   0.392   1.028   6.004
 3363SOL    HW210989   0.273   0.917   5.994
 3364SOL     OW10990   1.938   4.881   6.290
 3364SOL    HW110991   1.838   4.880   6.291
 3364SOL    HW210992   1.973   4.853   6.379
 3365SOL     OW10993   5.801   1.973   5.653
 3365SOL    HW110994   5.872   1.987   5.583
 3365SOL    HW210995   5.785   1.875   5.665
 3366SOL     OW10996   5.164   0.827   6.439
 3366SOL    HW110997   5.222   0.815   6.358
 3366SOL    HW210998   5.177   0.919   6.476
 3367SOL     OW10999   1.879   0.304   1.967
 3367SOL    HW111000   1.802   0.368   1.960
 3367SOL    HW211001   1.965   0.354   1.956
 3368SOL     OW11002   6.572   0.967   5.914
 3368SOL    HW111003   6.588   1.012   5.827
 3368SOL    HW211004   6.538   1.034   5.981
 3369SOL     OW11005   3.698   6.344   5.820
 3369SOL    HW111006   3.666   6.289   5.743
 3369SOL    HW211007   3.741   6.285   5.888
 3370SOL     OW11008   5.285   0.356   5.508
 3370SOL    HW111009   5.369   0.312   5.539
 3370SOL    HW211010   5.304   0.414   5.428
 3371SOL     OW11011   6.663   4.901   1.643
 3371SOL    HW111012   6.684   4.814   1.599
 3371SOL    HW211013   6.726   4.916   1.719
 3372SOL     OW11014   0.642   2.198   2.624
 3372SOL    HW111015   0.636   2.102   2.650
 3372SOL    HW211016   0.732   2.215   2.582
 3373SOL     OW11017   0.482   2.115   6.201
 3373SOL    HW111018   0.499   2.020   6.225
 3373SOL    HW211019   0.394   2.144   6.238
 3374SOL     OW11020   3.902   5.727   5.352
 3374SOL    HW111021   3.835   5.752   5.423
 3374SOL    HW211022   3.866   5.752   5.262
 3375SOL     OW11023   3.550   4.259   5.238
 3375SOL    HW111024   3.565   4.262   5.139
 3375SOL    HW211025   3.621   4.204   5.281
 3376SOL     OW11026   2.987   3.239   1.925
 3376SOL    HW111027   2.981   3.156   1.980
 3376SOL    HW211028   2.940   3.314   1.970
 3377SOL     OW11029   2.773   5.655   5.599
 3377SOL    HW111030   2.808   5.616   5.514
 3377SOL    HW211031   2.727   5.584   5.652
 3378SOL     OW11032   0.533   1.116   0.632
 3378SOL    HW111033   0.483   1.202   0.642
 3378SOL    HW211034   0.486   1.058   0.564
 3379SOL     OW11035   0.172   4.857   6.036
 3379SOL    HW111036   0.121   4.787   6.085
 3379SOL    HW211037   0.220   4.916   6.101
 3380SOL     OW11038   1.123   3.680   5.742
 3380SOL    HW111039   1.063   3.734   5.801
 3380SOL    HW211040   1.135   3.727   5.655
 3381SOL     OW11041   3.176   2.988   1.179
 3381SOL    HW111042   3.137   2.950   1.264
 3381SOL    HW211043   3.262   2.942   1.159
 3382SOL     OW11044   6.732   6.842   6.906
 3382SOL    HW111045   6.733   6.937   6.938
 3382SOL    HW211046   6.726   6.780   6.983
 3383SOL     OW11047   0.275   3.841   2.918
 3383SOL    HW111048   0.325   3.888   2.846
 3383SOL    HW211049   0.214   3.774   2.878
 3384SOL     OW11050   3.072   3.152   4.519
 3384SOL    HW111051   2.998   3.201   4.474
 3384SOL    HW211052   3.119   3.094   4.452
 3385SOL     OW11053   6.511   3.646   3.459
 3385SOL    HW111054   6.528   3.699   3.542
 3385SOL    HW211055   6.533   3.550   3.475
 3386SOL     OW11056   5.980   3.766   4.824
 3386SOL    HW111057   5.907   3.725   4.880
 3386SOL    HW211058   6.043   3.815   4.884
 3387SOL     OW11059   3.254   2.123   2.978
 3387SOL    HW111060   3.171   2.178   2.983
 3387SOL    HW211061   3.288   2.122   2.884
 3388SOL     OW11062   5.266   2.935   1.950
 3388SOL    HW111063   5.323   2.902   1.875
 3388SOL    HW211064   5.170   2.935   1.921
 3389SOL     OW11065   4.768   4.570   3.139
 3389SOL    HW111066   4.832   4.497   3.160
 3389SOL    HW211067   4.795   4.653   3.186
 3390SOL     OW11068   4.767   2.531   6.117
 3390SOL    HW111069   4.780   2.432   6.122
 3390SOL    HW211070   4.754   2.558   6.021
 3391SOL     OW11071   3.879   1.932   4.073
 3391SOL    HW111072   3.863   1.855   4.135
 3391SOL    HW211073   3.963   1.917   4.022
 3392SOL     OW11074   5.008   5.846   3.515
 3392SOL    HW111075   4.977   5.770   3.573
 3392SOL    HW211076   5.108   5.853   3.519
 3393SOL     OW11077   6.663   0.653   0.171
 3393SOL    HW111078   6.750   0.617   0.206
 3393SOL    HW211079   6.681   0.715   0.095
 3394SOL     OW11080   5.714   1.379   1.565
 3394SOL    HW111081   5.646   1.339   1.504
 3394SOL    HW211082   5.791   1.317   1.576
 3395SOL     OW11083   1.663   3.394   5.034
 3395SOL    HW111084   1.657   3.482   4.986
 3395SOL    HW211085   1.742   3.393   5.094
 3396SOL     OW11086   0.070   4.085   4.498
 3396SOL    HW111087   7.023   4.030   4.540
 3396SOL    HW211088   0.150   4.089   4.558
 3397SOL     OW11089   3.002   6.423   5.818
 3397SOL    HW111090   2.961   6.355   5.756
 3397SOL    HW211091   2.962   6.412   5.909
 3398SOL     OW11092   0.337   0.171   4.181
 3398SOL    HW111093   0.243   0.204   4.172
 3398SOL    HW211094   0.350   0.092   4.121
 3399SOL     OW11095   4.424   5.093   4.409
 3399SOL    HW111096   4.341   5.122   4.457
 3399SOL    HW211097   4.403   5.015   4.349
 3400SOL     OW11098   4.949   2.736   6.604
 3400SOL    HW111099   4.862   2.769   6.641
 3400SOL    HW211100   4.949   2.636   6.602
 3401SOL     OW11101   6.592   4.743   6.569
 3401SOL    HW111102   6.630   4.726   6.479
 3401SOL    HW211103   6.532   4.668   6.596
 3402SOL     OW11104   5.093   5.206   2.433
 3402SOL    HW111105   5.071   5.218   2.336
 3402SOL    HW211106   5.010   5.182   2.483
 3403SOL     OW11107   3.228   2.008   5.151
 3403SOL    HW111108   3.201   2.103   5.134
 3403SOL    HW211109   3.157   1.962   5.204
 3404SOL     OW11110   4.228   0.626   1.248
 3404SOL    HW111111   4.167   0.548   1.232
 3404SOL    HW211112   4.323   0.595   1.246
 3405SOL     OW11113   5.917   3.605   0.866
 3405SOL    HW111114   5.989   3.561   0.813
 3405SOL    HW211115   5.918   3.568   0.959
 3406SOL     OW11116   1.168   4.473   1.866
 3406SOL    HW111117   1.186   4.516   1.955
 3406SOL    HW211118   1.070   4.479   1.846
 3407SOL     OW11119   1.605   5.597   2.848
 3407SOL    HW111120   1.692   5.548   2.860
 3407SOL    HW211121   1.540   5.567   2.917
 3408SOL     OW11122   5.208   4.147   2.881
 3408SOL    HW111123   5.200   4.047   2.879
 3408SOL    HW211124   5.140   4.185   2.943
 3409SOL     OW11125   2.960   0.721   6.000
 3409SOL    HW111126   3.032   0.777   5.958
 3409SOL    HW211127   3.000   0.660   6.068
 3410SOL     OW11128   0.029   0.533   6.870
 3410SOL    HW111129   0.050   0.625   6.901
 3410SOL    HW211130   0.026   0.471   6.949
 3411SOL     OW11131   4.973   2.668   1.998
 3411SOL    HW111132   5.027   2.724   2.062
 3411SOL    HW211133   4.899   2.622   2.048
 3412SOL     OW11134   4.044   5.188   6.712
 3412SOL    HW111135   4.124   5.240   6.681
 3412SOL    HW211136   4.033   5.107   6.654
 3413SOL     OW11137   3.980   1.909   2.137
 3413SOL    HW111138   4.008   1.852   2.215
 3413SOL    HW211139   3.910   1.973   2.166
 3414SOL     OW11140   3.733   1.682   5.452
 3414SOL    HW111141   3.688   1.613   5.395
 3414SOL    HW211142   3.782   1.637   5.526
 3415SOL     OW11143   0.572   5.354   4.256
 3415SOL    HW111144   0.529   5.279   4.206
 3415SOL    HW211145   0.613   5.318   4.340
 3416SOL     OW11146   2.035   5.069   5.823
 3416SOL    HW111147   2.046   5.107   5.915
 3416SOL    HW211148   2.094   4.990   5.812
 3417SOL     OW11149   6.110   0.599   1.658
 3417SOL    HW111150   6.176   0.646   1.600
 3417SOL    HW211151   6.037   0.662   1.683
 3418SOL     OW11152   3.345   1.653   6.376
 3418SOL    HW111153   3.377   1.563   6.345
 3418SOL    HW211154   3.357   1.720   6.303
 3419SOL     OW11155   4.486   4.075   0.377
 3419SOL    HW111156   4.395   4.087   0.338
 3419SOL    HW211157   4.482   4.091   0.476
 3420SOL     OW11158   3.863   2.179   4.159
 3420SOL    HW111159   3.859   2.182   4.259
 3420SOL    HW211160   3.863   2.084   4.129
 3421SOL     OW11161   0.734   6.588   3.835
 3421SOL    HW111162   0.812   6.526   3.839
 3421SOL    HW211163   0.759   6.671   3.785
 3422SOL     OW11164   3.211   1.707   2.180
 3422SOL    HW111165   3.128   1.759   2.162
 3422SOL    HW211166   3.255   1.683   2.093
 3423SOL     OW11167   2.908   1.133   2.001
 3423SOL    HW111168   2.861   1.082   2.073
 3423SOL    HW211169   2.998   1.092   1.985
 3424SOL     OW11170   4.160   1.444   2.270
 3424SOL    HW111171   4.212   1.457   2.354
 3424SOL    HW211172   4.164   1.527   2.215
 3425SOL     OW11173   5.079   4.422   1.666
 3425SOL    HW111174   5.011   4.407   1.737
 3425SOL    HW211175   5.146   4.489   1.697
 3426SOL     OW11176   4.281   3.841   0.708
 3426SOL    HW111177   4.233   3.877   0.628
 3426SOL    HW211178   4.220   3.781   0.759
 3427SOL     OW11179   1.046   1.363   0.385
 3427SOL    HW111180   0.991   1.438   0.350
 3427SOL    HW211181   1.141   1.393   0.397
 3428SOL     OW11182   4.546   4.847   3.092
 3428SOL    HW111183   4.548   4.831   3.191
 3428SOL    HW211184   4.455   4.829   3.057
 3429SOL     OW11185   0.460   3.131   6.722
 3429SOL    HW111186   0.404   3.214   6.723
 3429SOL    HW211187   0.425   3.066   6.788
 3430SOL     OW11188   0.965   6.455   6.879
 3430SOL    HW111189   0.971   6.542   6.831
 3430SOL    HW211190   0.990   6.381   6.816
 3431SOL     OW11191   0.719   6.111   0.199
 3431SOL    HW111192   0.718   6.211   0.188
 3431SOL    HW211193   0.654   6.070   0.135
 3432SOL     OW11194   3.260   2.062   6.651
 3432SOL    HW111195   3.181   2.017   6.610
 3432SOL    HW211196   3.276   2.150   6.606
 3433SOL     OW11197   4.131   0.681   4.981
 3433SOL    HW111198   4.145   0.689   4.883
 3433SOL    HW211199   4.192   0.611   5.018
 3434SOL     OW11200   4.502   2.459   2.916
 3434SOL    HW111201   4.485   2.495   3.007
 3434SOL    HW211202   4.572   2.387   2.921
 3435SOL     OW11203   0.843   1.373   6.785
 3435SOL    HW111204   0.837   1.472   6.781
 3435SOL    HW211205   0.849   1.344   6.881
 3436SOL     OW11206   4.408   0.124   3.302
 3436SOL    HW111207   4.384   0.056   3.371
 3436SOL    HW211208   4.370   0.213   3.329
 3437SOL     OW11209   3.940   0.655   6.400
 3437SOL    HW111210   3.956   0.753   6.385
 3437SOL    HW211211   3.879   0.620   6.329
 3438SOL     OW11212   1.420   3.883   6.634
 3438SOL    HW111213   1.433   3.904   6.731
 3438SOL    HW211214   1.445   3.963   6.579
 3439SOL     OW11215   2.562   6.524   3.440
 3439SOL    HW111216   2.584   6.622   3.446
 3439SOL    HW211217   2.472   6.508   3.482
 3440SOL     OW11218   4.013   1.923   1.074
 3440SOL    HW111219   4.056   1.884   0.993
 3440SOL    HW211220   3.942   1.860   1.107
 3441SOL     OW11221   3.709   0.523   4.270
 3441SOL    HW111222   3.631   0.467   4.241
 3441SOL    HW211223   3.722   0.514   4.369
 3442SOL     OW11224   1.610   4.790   2.999
 3442SOL    HW111225   1.613   4.760   3.095
 3442SOL    HW211226   1.682   4.858   2.983
 3443SOL     OW11227   5.933   0.703   3.714
 3443SOL    HW111228   5.985   0.767   3.658
 3443SOL    HW211229   5.963   0.711   3.809
 3444SOL     OW11230   4.368   5.079   0.539
 3444SOL    HW111231   4.280   5.063   0.585
 3444SOL    HW211232   4.421   4.994   0.540
 3445SOL     OW11233   5.973   4.960   4.842
 3445SOL    HW111234   6.022   4.982   4.757
 3445SOL    HW211235   5.875   4.954   4.823
 3446SOL     OW11236   3.248   6.541   3.061
 3446SOL    HW111237   3.189   6.610   3.104
 3446SOL    HW211238   3.329   6.528   3.117
 3447SOL     OW11239   5.904   4.787   6.078
 3447SOL    HW111240   5.870   4.729   6.152
 3447SOL    HW211241   5.831   4.847   6.047
 3448SOL     OW11242   3.488   1.987   1.284
 3448SOL    HW111243   3.517   2.030   1.199
 3448SOL    HW211244   3.535   1.900   1.296
 3449SOL     OW11245   6.104   6.420   3.307
 3449SOL    HW111246   6.008   6.430   3.335
 3449SOL    HW211247   6.126   6.489   3.238
 3450SOL     OW11248   0.834   2.036   1.567
 3450SOL    HW111249   0.933   2.036   1.560
 3450SOL    HW211250   0.798   1.952   1.525
 3451SOL     OW11251   1.310   5.251   3.955
 3451SOL    HW111252   1.227   5.263   3.901
 3451SOL    HW211253   1.340   5.156   3.950
 3452SOL     OW11254   6.435   2.379   0.265
 3452SOL    HW111255   6.476   2.457   0.312
 3452SOL    HW211256   6.395   2.317   0.332
 3453SOL     OW11257   6.642   6.008   5.757
 3453SOL    HW111258   6.708   6.082   5.746
 3453SOL    HW211259   6.553   6.045   5.783
 3454SOL     OW11260   0.550   1.191   0.310
 3454SOL    HW111261   0.585   1.177   0.218
 3454SOL    HW211262   0.509   1.107   0.344
 3455SOL     OW11263   2.260   2.103   4.731
 3455SOL    HW111264   2.349   2.141   4.756
 3455SOL    HW211265   2.260   2.082   4.633
 3456SOL     OW11266   6.537   0.290   1.329
 3456SOL    HW111267   6.567   0.195   1.338
 3456SOL    HW211268   6.600   0.350   1.379
 3457SOL     OW11269   2.327   5.593   3.760
 3457SOL    HW111270   2.359   5.677   3.804
 3457SOL    HW211271   2.234   5.608   3.725
 3458SOL     OW11272   5.279   5.476   1.151
 3458SOL    HW111273   5.259   5.566   1.111
 3458SOL    HW211274   5.263   5.405   1.083
 3459SOL     OW11275   6.545   6.583   3.441
 3459SOL    HW111276   6.584   6.625   3.522
 3459SOL    HW211277   6.577   6.489   3.433
 3460SOL     OW11278   4.033   3.825   5.825
 3460SOL    HW111279   4.118   3.798   5.871
 3460SOL    HW211280   3.957   3.773   5.864
 3461SOL     OW11281   3.264   5.639   2.593
 3461SOL    HW111282   3.321   5.651   2.674
 3461SOL    HW211283   3.229   5.545   2.590
 3462SOL     OW11284   4.842   3.278   3.313
 3462SOL    HW111285   4.773   3.221   3.267
 3462SOL    HW211286   4.886   3.224   3.385
 3463SOL     OW11287   2.210   2.820   0.949
 3463SOL    HW111288   2.176   2.744   1.003
 3463SOL    HW211289   2.265   2.880   1.007
 3464SOL     OW11290   4.498   2.603   6.512
 3464SOL    HW111291   4.549   2.681   6.546
 3464SOL    HW211292   4.481   2.538   6.586
 3465SOL     OW11293   1.605   3.861   1.874
 3465SOL    HW111294   1.651   3.779   1.906
 3465SOL    HW211295   1.528   3.883   1.934
 3466SOL     OW11296   6.412   4.418   3.950
 3466SOL    HW111297   6.330   4.448   3.999
 3466SOL    HW211298   6.493   4.441   4.004
 3467SOL     OW11299   2.730   2.399   1.415
 3467SOL    HW111300   2.777   2.482   1.385
 3467SOL    HW211301   2.647   2.424   1.466
 3468SOL     OW11302   3.661   1.757   0.675
 3468SOL    HW111303   3.564   1.772   0.690
 3468SOL    HW211304   3.707   1.845   0.664
 3469SOL     OW11305   3.709   6.006   5.620
 3469SOL    HW111306   3.712   5.933   5.552
 3469SOL    HW211307   3.738   5.970   5.709
 3470SOL     OW11308   1.196   3.250   1.529
 3470SOL    HW111309   1.174   3.324   1.593
 3470SOL    HW211310   1.259   3.284   1.459
 3471SOL     OW11311   5.134   3.344   4.437
 3471SOL    HW111312   5.046   3.316   4.476
 3471SOL    HW211313   5.204   3.277   4.461
 3472SOL     OW11314   4.230   2.093   2.628
 3472SOL    HW111315   4.146   2.072   2.678
 3472SOL    HW211316   4.206   2.142   2.544
 3473SOL     OW11317   6.919   4.427   1.875
 3473SOL    HW111318   7.003   4.392   1.917
 3473SOL    HW211319   6.898   4.517   1.914
 3474SOL     OW11320   5.329   4.804   3.961
 3474SOL    HW111321   5.257   4.831   4.025
 3474SOL    HW211322   5.302   4.830   3.868
 3475SOL     OW11323   6.980   4.539   4.186
 3475SOL    HW111324   6.960   4.505   4.094
 3475SOL    HW211325   0.020   4.477   4.230
 3476SOL     OW11326   1.591   0.869   3.686
 3476SOL    HW111327   1.603   0.868   3.786
 3476SOL    HW211328   1.653   0.937   3.646
 3477SOL     OW11329   0.538   4.002   2.434
 3477SOL    HW111330   0.470   3.932   2.455
 3477SOL    HW211331   0.628   3.972   2.466
 3478SOL     OW11332   2.324   1.111   1.346
 3478SOL    HW111333   2.364   1.019   1.338
 3478SOL    HW211334   2.273   1.132   1.263
 3479SOL     OW11335   1.216   4.404   4.785
 3479SOL    HW111336   1.289   4.402   4.853
 3479SOL    HW211337   1.244   4.459   4.706
 3480SOL     OW11338   1.356   4.849   6.871
 3480SOL    HW111339   1.293   4.778   6.839
 3480SOL    HW211340   1.450   4.815   6.866
 3481SOL     OW11341   6.508   0.888   5.366
 3481SOL    HW111342   6.443   0.845   5.428
 3481SOL    HW211343   6.600   0.883   5.406
 3482SOL     OW11344   5.685   3.740   5.296
 3482SOL    HW111345   5.594   3.760   5.259
 3482SOL    HW211346   5.681   3.739   5.396
 3483SOL     OW11347   5.287   2.675   4.884
 3483SOL    HW111348   5.268   2.605   4.953
 3483SOL    HW211349   5.305   2.763   4.930
 3484SOL     OW11350   1.893   3.345   5.153
 3484SOL    HW111351   1.852   3.268   5.201
 3484SOL    HW211352   1.993   3.340   5.160
 3485SOL     OW11353   6.838   2.619   6.438
 3485SOL    HW111354   6.933   2.595   6.456
 3485SOL    HW211355   6.822   2.713   6.468
 3486SOL     OW11356   2.463   6.260   4.857
 3486SOL    HW111357   2.463   6.344   4.803
 3486SOL    HW211358   2.461   6.283   4.954
 3487SOL     OW11359   4.801   1.432   6.458
 3487SOL    HW111360   4.744   1.381   6.393
 3487SOL    HW211361   4.897   1.416   6.438
 3488SOL     OW11362   5.830   0.432   5.000
 3488SOL    HW111363   5.777   0.409   5.082
 3488SOL    HW211364   5.927   0.439   5.025
 3489SOL     OW11365   2.896   6.257   0.505
 3489SOL    HW111366   2.876   6.351   0.476
 3489SOL    HW211367   2.811   6.205   0.507
 3490SOL     OW11368   3.491   6.369   0.197
 3490SOL    HW111369   3.590   6.381   0.188
 3490SOL    HW211370   3.471   6.299   0.265
 3491SOL     OW11371   4.460   4.907   6.187
 3491SOL    HW111372   4.419   4.928   6.098
 3491SOL    HW211373   4.553   4.943   6.189
 3492SOL     OW11374   5.867   4.484   2.424
 3492SOL    HW111375   5.891   4.421   2.497
 3492SOL    HW211376   5.887   4.442   2.335
 3493SOL     OW11377   6.739   3.064   5.251
 3493SOL    HW111378   6.677   3.122   5.304
 3493SOL    HW211379   6.727   3.083   5.153
 3494SOL     OW11380   4.407   1.880   2.168
 3494SOL    HW111381   4.367   1.814   2.231
 3494SOL    HW211382   4.371   1.865   2.076
 3495SOL     OW11383   0.996   2.742   2.507
 3495SOL    HW111384   1.076   2.718   2.562
 3495SOL    HW211385   0.914   2.706   2.550
 3496SOL     OW11386   5.949   5.290   1.152
 3496SOL    HW111387   5.864   5.248   1.181
 3496SOL    HW211388   6.006   5.308   1.232
 3497SOL     OW11389   3.189   6.524   2.651
 3497SOL    HW111390   3.110   6.465   2.637
 3497SOL    HW211391   3.272   6.468   2.652
 3498SOL     OW11392   2.194   2.683   1.595
 3498SOL    HW111393   2.185   2.759   1.660
 3498SOL    HW211394   2.120   2.687   1.528
 3499SOL     OW11395   6.143   5.515   5.067
 3499SOL    HW111396   6.206   5.585   5.102
 3499SOL    HW211397   6.124   5.448   5.139
 3500SOL     OW11398   2.059   1.712   4.740
 3500SOL    HW111399   2.136   1.765   4.776
 3500SOL    HW211400   1.979   1.771   4.730
 3501SOL     OW11401   1.657   0.289   5.349
 3501SOL    HW111402   1.695   0.349   5.278
 3501SOL    HW211403   1.606   0.344   5.415
 3502SOL     OW11404   4.811   2.892   2.190
 3502SOL    HW111405   4.787   2.971   2.134
 3502SOL    HW211406   4.892   2.847   2.152
 3503SOL     OW11407   6.345   6.200   6.646
 3503SOL    HW111408   6.274   6.180   6.578
 3503SOL    HW211409   6.306   6.260   6.716
 3504SOL     OW11410   0.934   0.951   0.481
 3504SOL    HW111411   0.941   1.050   0.471
 3504SOL    HW211412   1.024   0.910   0.464
 3505SOL     OW11413   5.129   4.954   6.406
 3505SOL    HW111414   5.204   4.911   6.457
 3505SOL    HW211415   5.049   4.894   6.407
 3506SOL     OW11416   4.978   4.720   4.857
 3506SOL    HW111417   4.979   4.645   4.923
 3506SOL    HW211418   4.917   4.697   4.781
 3507SOL     OW11419   3.123   0.385   0.640
 3507SOL    HW111420   3.217   0.374   0.671
 3507SOL    HW211421   3.069   0.305   0.669
 3508SOL     OW11422   3.025   1.890   5.389
 3508SOL    HW111423   2.926   1.877   5.389
 3508SOL    HW211424   3.070   1.802   5.402
 3509SOL     OW11425   3.650   5.627   6.383
 3509SOL    HW111426   3.559   5.667   6.369
 3509SOL    HW211427   3.694   5.674   6.460
 3510SOL     OW11428   2.544   1.570   0.731
 3510SOL    HW111429   2.493   1.621   0.799
 3510SOL    HW211430   2.569   1.630   0.655
 3511SOL     OW11431   2.945   4.185   1.703
 3511SOL    HW111432   2.919   4.273   1.742
 3511SOL    HW211433   3.044   4.182   1.692
 3512SOL     OW11434   0.274   5.320   6.281
 3512SOL    HW111435   0.336   5.314   6.203
 3512SOL    HW211436   0.285   5.410   6.325
 3513SOL     OW11437   5.787   1.894   0.501
 3513SOL    HW111438   5.829   1.958   0.436
 3513SOL    HW211439   5.813   1.919   0.594
 3514SOL     OW11440   3.909   1.428   2.372
 3514SOL    HW111441   4.007   1.447   2.370
 3514SOL    HW211442   3.859   1.507   2.336
 3515SOL     OW11443   0.253   5.775   4.250
 3515SOL    HW111444   0.161   5.744   4.275
 3515SOL    HW211445   0.320   5.708   4.281
 3516SOL     OW11446   4.392   0.299   1.319
 3516SOL    HW111447   4.379   0.394   1.292
 3516SOL    HW211448   4.308   0.248   1.301
 3517SOL     OW11449   5.909   0.301   1.349
 3517SOL    HW111450   5.886   0.225   1.410
 3517SOL    HW211451   5.949   0.376   1.401
 3518SOL     OW11452   5.328   0.998   5.375
 3518SOL    HW111453   5.237   1.011   5.415
 3518SOL    HW211454   5.396   1.038   5.436
 3519SOL     OW11455   3.524   0.646   1.125
 3519SOL    HW111456   3.481   0.732   1.154
 3519SOL    HW211457   3.623   0.661   1.113
 3520SOL     OW11458   2.707   6.207   4.582
 3520SOL    HW111459   2.785   6.244   4.532
 3520SOL    HW211460   2.694   6.111   4.558
 3521SOL     OW11461   2.296   3.296   0.459
 3521SOL    HW111462   2.223   3.305   0.526
 3521SOL    HW211463   2.379   3.264   0.504
 3522SOL     OW11464   0.612   5.626   6.728
 3522SOL    HW111465   0.582   5.676   6.647
 3522SOL    HW211466   0.688   5.566   6.703
 3523SOL     OW11467   1.817   5.588   6.926
 3523SOL    HW111468   1.721   5.569   6.905
 3523SOL    HW211469   1.843   5.540   7.009
 3524SOL     OW11470   5.401   1.151   3.428
 3524SOL    HW111471   5.445   1.130   3.515
 3524SOL    HW211472   5.386   1.066   3.377
 3525SOL     OW11473   6.231   3.924   2.863
 3525SOL    HW111474   6.236   3.852   2.933
 3525SOL    HW211475   6.178   4.001   2.898
 3526SOL     OW11476   0.918   6.692   3.002
 3526SOL    HW111477   0.838   6.739   2.964
 3526SOL    HW211478   0.892   6.598   3.027
 3527SOL     OW11479   0.256   2.533   6.011
 3527SOL    HW111480   0.321   2.533   5.935
 3527SOL    HW211481   0.197   2.613   6.004
 3528SOL     OW11482   2.457   5.909   4.937
 3528SOL    HW111483   2.381   5.968   4.910
 3528SOL    HW211484   2.538   5.932   4.883
 3529SOL     OW11485   4.593   5.199   0.903
 3529SOL    HW111486   4.564   5.240   0.817
 3529SOL    HW211487   4.515   5.192   0.965
 3530SOL     OW11488   6.971   6.927   1.972
 3530SOL    HW111489   0.017   6.863   1.942
 3530SOL    HW211490   6.913   6.883   2.040
 3531SOL     OW11491   5.427   1.764   0.237
 3531SOL    HW111492   5.506   1.824   0.222
 3531SOL    HW211493   5.439   1.679   0.185
 3532SOL     OW11494   2.148   1.363   1.892
 3532SOL    HW111495   2.054   1.392   1.913
 3532SOL    HW211496   2.152   1.263   1.888
 3533SOL     OW11497   0.999   1.529   3.003
 3533SOL    HW111498   0.925   1.494   2.946
 3533SOL    HW211499   1.079   1.470   2.995
 3534SOL     OW11500   0.376   1.639   0.898
 3534SOL    HW111501   0.424   1.574   0.956
 3534SOL    HW211502   0.438   1.672   0.827
 3535SOL     OW11503   2.747   5.939   4.454
 3535SOL    HW111504   2.770   5.993   4.373
 3535SOL    HW211505   2.831   5.909   4.499
 3536SOL     OW11506   3.524   1.980   2.775
 3536SOL    HW111507   3.433   2.021   2.769
 3536SOL    HW211508   3.580   2.033   2.839
 3537SOL     OW11509   1.815   6.070   2.989
 3537SOL    HW111510   1.805   5.991   2.929
 3537SOL    HW211511   1.901   6.116   2.970
 3538SOL     OW11512   3.458   5.273   3.833
 3538SOL    HW111513   3.513   5.192   3.855
 3538SOL    HW211514   3.446   5.280   3.734
 3539SOL     OW11515   3.384   3.700   4.400
 3539SOL    HW111516   3.413   3.720   4.306
 3539SOL    HW211517   3.401   3.779   4.458
 3540SOL     OW11518   1.932   1.927   3.315
 3540SOL    HW111519   1.922   1.834   3.281
 3540SOL    HW211520   2.016   1.967   3.279
 3541SOL     OW11521   3.147   4.159   5.156
 3541SOL    HW111522   3.075   4.114   5.103
 3541SOL    HW211523   3.210   4.091   5.192
 3542SOL     OW11524   0.419   5.484   1.547
 3542SOL    HW111525   0.463   5.563   1.504
 3542SOL    HW211526   0.417   5.408   1.483
 3543SOL     OW11527   6.538   2.785   4.995
 3543SOL    HW111528   6.535   2.773   5.094
 3543SOL    HW211529   6.540   2.695   4.950
 3544SOL     OW11530   1.945   5.806   6.840
 3544SOL    HW111531   1.896   5.723   6.867
 3544SOL    HW211532   1.932   5.877   6.909
 3545SOL     OW11533   3.207   5.224   0.014
 3545SOL    HW111534   3.274   5.296   0.034
 3545SOL    HW211535   3.229   5.182   6.950
 3546SOL     OW11536   6.141   4.691   2.621
 3546SOL    HW111537   6.170   4.699   2.716
 3546SOL    HW211538   6.044   4.716   2.614
 3547SOL     OW11539   4.812   4.616   3.809
 3547SOL    HW111540   4.773   4.690   3.864
 3547SOL    HW211541   4.742   4.546   3.793
 3548SOL     OW11542   4.428   3.255   5.326
 3548SOL    HW111543   4.458   3.160   5.321
 3548SOL    HW211544   4.507   3.315   5.337
 3549SOL     OW11545   6.133   3.709   2.690
 3549SOL    HW111546   6.061   3.688   2.756
 3549SOL    HW211547   6.183   3.791   2.720
 3550SOL     OW11548   5.887   2.237   2.440
 3550SOL    HW111549   5.879   2.238   2.341
 3550SOL    HW211550   5.983   2.231   2.466
 3551SOL     OW11551   2.316   6.841   3.062
 3551SOL    HW111552   2.301   6.752   3.019
 3551SOL    HW211553   2.414   6.858   3.071
 3552SOL     OW11554   6.840   4.372   3.179
 3552SOL    HW111555   6.829   4.465   3.215
 3552SOL    HW211556   6.869   4.377   3.084
 3553SOL     OW11557   5.954   2.296   3.311
 3553SOL    HW111558   5.997   2.385   3.295
 3553SOL    HW211559   5.871   2.289   3.257
 3554SOL     OW11560   3.882   5.578   6.789
 3554SOL    HW111561   3.816   5.559   6.862
 3554SOL    HW211562   3.853   5.658   6.737
 3555SOL     OW11563   1.091   2.831   3.710
 3555SOL    HW111564   1.042   2.758   3.663
 3555SOL    HW211565   1.032   2.913   3.714
 3556SOL     OW11566   3.802   0.716   6.613
 3556SOL    HW111567   3.847   0.796   6.653
 3556SOL    HW211568   3.856   0.682   6.536
 3557SOL     OW11569   0.851   1.131   4.680
 3557SOL    HW111570   0.870   1.033   4.688
 3557SOL    HW211571   0.865   1.174   4.769
 3558SOL     OW11572   6.747   5.539   1.195
 3558SOL    HW111573   6.716   5.455   1.240
 3558SOL    HW211574   6.670   5.579   1.144
 3559SOL     OW11575   0.681   1.284   5.587
 3559SOL    HW111576   0.654   1.368   5.633
 3559SOL    HW211577   0.626   1.272   5.504
 3560SOL     OW11578   6.767   6.302   1.859
 3560SOL    HW111579   6.794   6.320   1.764
 3560SOL    HW211580   6.845   6.322   1.919
 3561SOL     OW11581   4.257   4.669   4.088
 3561SOL    HW111582   4.324   4.619   4.144
 3561SOL    HW211583   4.165   4.648   4.121
 3562SOL     OW11584   4.608   2.681   2.788
 3562SOL    HW111585   4.572   2.603   2.840
 3562SOL    HW211586   4.562   2.686   2.699
 3563SOL     OW11587   4.513   0.546   1.280
 3563SOL    HW111588   4.549   0.581   1.367
 3563SOL    HW211589   4.546   0.602   1.205
 3564SOL     OW11590   0.149   4.322   2.942
 3564SOL    HW111591   0.210   4.297   2.866
 3564SOL    HW211592   0.057   4.337   2.907
 3565SOL     OW11593   1.921   0.044   5.010
 3565SOL    HW111594   1.837   0.091   4.981
 3565SOL    HW211595   1.991   0.056   4.940
 3566SOL     OW11596   0.739   4.149   5.601
 3566SOL    HW111597   0.726   4.051   5.614
 3566SOL    HW211598   0.826   4.177   5.643
 3567SOL     OW11599   6.976   3.002   0.593
 3567SOL    HW111600   7.005   3.087   0.549
 3567SOL    HW211601   6.884   3.014   0.631
 3568SOL     OW11602   5.245   3.753   3.451
 3568SOL    HW111603   5.202   3.827   3.501
 3568SOL    HW211604   5.311   3.707   3.510
 3569SOL     OW11605   3.765   3.504   4.034
 3569SOL    HW111606   3.680   3.456   4.059
 3569SOL    HW211607   3.800   3.468   3.948
 3570SOL     OW11608   0.513   2.470   5.566
 3570SOL    HW111609   0.558   2.559   5.565
 3570SOL    HW211610   0.447   2.465   5.492
 3571SOL     OW11611   2.690   6.831   5.079
 3571SOL    HW111612   2.597   6.866   5.092
 3571SOL    HW211613   2.692   6.768   5.001
 3572SOL     OW11614   5.042   4.712   1.876
 3572SOL    HW111615   5.085   4.781   1.934
 3572SOL    HW211616   5.110   4.674   1.813
 3573SOL     OW11617   0.634   3.784   3.254
 3573SOL    HW111618   0.582   3.801   3.338
 3573SOL    HW211619   0.720   3.835   3.257
 3574SOL     OW11620   1.961   1.365   5.467
 3574SOL    HW111621   2.049   1.407   5.486
 3574SOL    HW211622   1.950   1.282   5.522
 3575SOL     OW11623   5.410   0.138   6.826
 3575SOL    HW111624   5.453   0.104   6.742
 3575SOL    HW211625   5.473   0.198   6.875
 3576SOL     OW11626   1.102   2.621   0.759
 3576SOL    HW111627   1.162   2.661   0.690
 3576SOL    HW211628   1.156   2.561   0.818
 3577SOL     OW11629   2.157   2.540   5.648
 3577SOL    HW111630   2.177   2.483   5.728
 3577SOL    HW211631   2.237   2.596   5.628
 3578SOL     OW11632   3.503   2.668   6.313
 3578SOL    HW111633   3.417   2.705   6.348
 3578SOL    HW211634   3.528   2.587   6.365
 3579SOL     OW11635   0.666   3.622   1.616
 3579SOL    HW111636   0.757   3.660   1.633
 3579SOL    HW211637   0.669   3.523   1.632
 3580SOL     OW11638   0.554   4.239   2.309
 3580SOL    HW111639   0.509   4.311   2.362
 3580SOL    HW211640   0.549   4.153   2.359
 3581SOL     OW11641   1.146   0.453   2.729
 3581SOL    HW111642   1.185   0.393   2.799
 3581SOL    HW211643   1.172   0.419   2.638
 3582SOL     OW11644   4.289   5.350   6.617
 3582SOL    HW111645   4.236   5.428   6.652
 3582SOL    HW211646   4.288   5.352   6.517
 3583SOL     OW11647   1.199   4.830   1.046
 3583SOL    HW111648   1.148   4.746   1.065
 3583SOL    HW211649   1.257   4.851   1.125
 3584SOL     OW11650   6.627   5.004   5.114
 3584SOL    HW111651   6.697   5.008   5.042
 3584SOL    HW211652   6.614   5.096   5.152
 3585SOL     OW11653   3.522   1.335   3.695
 3585SOL    HW111654   3.606   1.385   3.678
 3585SOL    HW211655   3.443   1.392   3.671
 3586SOL     OW11656   0.083   2.302   5.338
 3586SOL    HW111657   0.118   2.319   5.246
 3586SOL    HW211658   0.112   2.211   5.369
 3587SOL     OW11659   3.211   0.049   6.265
 3587SOL    HW111660   3.240   6.979   6.279
 3587SOL    HW211661   3.117   0.051   6.230
 3588SOL     OW11662   6.331   5.142   4.777
 3588SOL    HW111663   6.247   5.106   4.737
 3588SOL    HW211664   6.319   5.239   4.798
 3589SOL     OW11665   0.296   0.313   5.720
 3589SOL    HW111666   0.239   0.236   5.747
 3589SOL    HW211667   0.286   0.388   5.786
 3590SOL     OW11668   0.285   5.561   6.462
 3590SOL    HW111669   0.236   5.525   6.541
 3590SOL    HW211670   0.379   5.581   6.487
 3591SOL     OW11671   6.048   1.304   6.877
 3591SOL    HW111672   5.962   1.290   6.926
 3591SOL    HW211673   6.044   1.390   6.825
 3592SOL     OW11674   1.350   6.217   1.382
 3592SOL    HW111675   1.447   6.242   1.377
 3592SOL    HW211676   1.309   6.260   1.463
 3593SOL     OW11677   4.030   3.127   5.252
 3593SOL    HW111678   4.021   3.166   5.344
 3593SOL    HW211679   4.011   3.029   5.256
 3594SOL     OW11680   4.561   4.765   4.957
 3594SOL    HW111681   4.497   4.691   4.935
 3594SOL    HW211682   4.647   4.749   4.910
 3595SOL     OW11683   5.474   6.196   4.470
 3595SOL    HW111684   5.440   6.288   4.488
 3595SOL    HW211685   5.542   6.171   4.539
 3596SOL     OW11686   4.102   1.721   3.281
 3596SOL    HW111687   4.016   1.705   3.329
 3596SOL    HW211688   4.092   1.695   3.185
 3597SOL     OW11689   2.776   3.013   5.611
 3597SOL    HW111690   2.829   3.098   5.610
 3597SOL    HW211691   2.779   2.971   5.520
 3598SOL     OW11692   0.670   5.619   4.812
 3598SOL    HW111693   0.687   5.716   4.794
 3598SOL    HW211694   0.758   5.570   4.816
 3599SOL     OW11695   3.109   1.453   5.107
 3599SOL    HW111696   3.035   1.387   5.095
 3599SOL    HW211697   3.197   1.404   5.106
 3600SOL     OW11698   3.155   3.497   0.016
 3600SOL    HW111699   3.114   3.431   0.078
 3600SOL    HW211700   3.180   3.452   6.955
 3601SOL     OW11701   4.619   1.183   4.907
 3601SOL    HW111702   4.595   1.195   5.004
 3601SOL    HW211703   4.707   1.225   4.889
 3602SOL     OW11704   1.880   1.658   1.242
 3602SOL    HW111705   1.958   1.595   1.233
 3602SOL    HW211706   1.841   1.649   1.333
 3603SOL     OW11707   2.586   0.372   5.500
 3603SOL    HW111708   2.685   0.361   5.510
 3603SOL    HW211709   2.540   0.326   5.576
 3604SOL     OW11710   0.097   0.326   3.591
 3604SOL    HW111711   0.078   0.304   3.687
 3604SOL    HW211712   0.170   0.394   3.587
 3605SOL     OW11713   1.109   6.689   4.305
 3605SOL    HW111714   1.026   6.740   4.327
 3605SOL    HW211715   1.170   6.690   4.384
 3606SOL     OW11716   2.143   0.115   2.408
 3606SOL    HW111717   2.112   0.193   2.353
 3606SOL    HW211718   2.064   0.058   2.432
 3607SOL     OW11719   6.072   1.652   2.963
 3607SOL    HW111720   6.068   1.750   2.941
 3607SOL    HW211721   5.979   1.614   2.959
 3608SOL     OW11722   2.992   1.732   5.746
 3608SOL    HW111723   2.928   1.808   5.740
 3608SOL    HW211724   2.947   1.653   5.789
 3609SOL     OW11725   3.861   0.579   5.341
 3609SOL    HW111726   3.937   0.555   5.281
 3609SOL    HW211727   3.786   0.616   5.285
 3610SOL     OW11728   1.735   0.762   5.728
 3610SOL    HW111729   1.660   0.771   5.663
 3610SOL    HW211730   1.760   0.666   5.737
 3611SOL     OW11731   5.405   4.462   2.767
 3611SOL    HW111732   5.383   4.536   2.832
 3611SOL    HW211733   5.324   4.437   2.715
 3612SOL     OW11734   5.621   1.157   0.102
 3612SOL    HW111735   5.524   1.137   0.087
 3612SOL    HW211736   5.634   1.256   0.111
 3613SOL     OW11737   4.167   6.541   2.449
 3613SOL    HW111738   4.197   6.482   2.373
 3613SOL    HW211739   4.211   6.630   2.442
 3614SOL     OW11740   3.732   5.500   7.011
 3614SOL    HW111741   3.790   5.427   0.022
 3614SOL    HW211742   3.698   5.555   0.062
 3615SOL     OW11743   5.865   2.383   5.754
 3615SOL    HW111744   5.814   2.459   5.793
 3615SOL    HW211745   5.960   2.412   5.738
 3616SOL     OW11746   1.142   2.354   0.492
 3616SOL    HW111747   1.190   2.330   0.577
 3616SOL    HW211748   1.052   2.392   0.514
 3617SOL     OW11749   3.978   6.069   5.569
 3617SOL    HW111750   3.883   6.080   5.599
 3617SOL    HW211751   3.985   6.097   5.473
 3618SOL     OW11752   0.978   4.875   4.135
 3618SOL    HW111753   0.988   4.920   4.046
 3618SOL    HW211754   1.068   4.862   4.176
 3619SOL     OW11755   5.952   2.852   1.812
 3619SOL    HW111756   6.050   2.832   1.807
 3619SOL    HW211757   5.901   2.766   1.826
 3620SOL     OW11758   5.567   5.558   4.774
 3620SOL    HW111759   5.531   5.508   4.853
 3620SOL    HW211760   5.495   5.617   4.736
 3621SOL     OW11761   3.935   3.294   3.752
 3621SOL    HW111762   3.932   3.196   3.736
 3621SOL    HW211763   3.849   3.336   3.722
 3622SOL     OW11764   1.659   6.388   6.033
 3622SOL    HW111765   1.717   6.469   6.028
 3622SOL    HW211766   1.642   6.364   6.128
 3623SOL     OW11767   1.158   5.866   6.068
 3623SOL    HW111768   1.235   5.926   6.088
 3623SOL    HW211769   1.180   5.808   5.989
 3624SOL     OW11770   2.377   1.975   1.940
 3624SOL    HW111771   2.445   2.018   2.000
 3624SOL    HW211772   2.360   1.882   1.970
 3625SOL     OW11773   6.711   2.347   0.909
 3625SOL    HW111774   6.770   2.268   0.892
 3625SOL    HW211775   6.621   2.315   0.940
 3626SOL     OW11776   1.795   3.193   5.346
 3626SOL    HW111777   1.773   3.118   5.408
 3626SOL    HW211778   1.847   3.263   5.394
 3627SOL     OW11779   3.499   2.056   1.917
 3627SOL    HW111780   3.573   2.118   1.943
 3627SOL    HW211781   3.502   2.041   1.818
 3628SOL     OW11782   6.491   1.898   2.127
 3628SOL    HW111783   6.485   1.976   2.063
 3628SOL    HW211784   6.443   1.820   2.088
 3629SOL     OW11785   1.665   1.559   4.610
 3629SOL    HW111786   1.746   1.502   4.624
 3629SOL    HW211787   1.663   1.632   4.678
 3630SOL     OW11788   6.775   2.120   1.828
 3630SOL    HW111789   6.843   2.058   1.865
 3630SOL    HW211790   6.779   2.118   1.728
 3631SOL     OW11791   2.248   6.679   1.939
 3631SOL    HW111792   2.216   6.760   1.891
 3631SOL    HW211793   2.216   6.682   2.034
 3632SOL     OW11794   4.622   3.716   1.691
 3632SOL    HW111795   4.664   3.626   1.704
 3632SOL    HW211796   4.570   3.716   1.607
 3633SOL     OW11797   3.976   4.309   6.936
 3633SOL    HW111798   4.053   4.250   6.961
 3633SOL    HW211799   3.936   4.348   7.019
 3634SOL     OW11800   2.743   5.484   6.591
 3634SOL    HW111801   2.665   5.431   6.627
 3634SOL    HW211802   2.750   5.471   6.492
 3635SOL     OW11803   1.182   6.264   2.091
 3635SOL    HW111804   1.113   6.232   2.026
 3635SOL    HW211805   1.148   6.250   2.184
 3636SOL     OW11806   0.389   5.331   6.047
 3636SOL    HW111807   0.424   5.398   5.982
 3636SOL    HW211808   0.404   5.239   6.012
 3637SOL     OW11809   5.765   2.882   6.626
 3637SOL    HW111810   5.710   2.914   6.702
 3637SOL    HW211811   5.746   2.938   6.545
 3638SOL     OW11812   6.804   3.171   3.506
 3638SOL    HW111813   6.792   3.261   3.548
 3638SOL    HW211814   6.739   3.106   3.546
 3639SOL     OW11815   4.144   3.550   4.074
 3639SOL    HW111816   4.125   3.457   4.042
 3639SOL    HW211817   4.128   3.614   4.000
 3640SOL     OW11818   4.077   1.928   1.612
 3640SOL    HW111819   3.990   1.957   1.653
 3640SOL    HW211820   4.122   2.007   1.570
 3641SOL     OW11821   5.956   3.984   2.154
 3641SOL    HW111822   5.969   4.012   2.249
 3641SOL    HW211823   6.041   3.947   2.118
 3642SOL     OW11824   5.111   3.348   6.160
 3642SOL    HW111825   5.071   3.267   6.203
 3642SOL    HW211826   5.062   3.430   6.191
 3643SOL     OW11827   4.250   5.877   5.065
 3643SOL    HW111828   4.236   5.880   5.164
 3643SOL    HW211829   4.183   5.815   5.024
 3644SOL     OW11830   2.963   0.521   1.765
 3644SOL    HW111831   3.004   0.610   1.745
 3644SOL    HW211832   2.865   0.524   1.743
 3645SOL     OW11833   1.561   3.641   3.851
 3645SOL    HW111834   1.570   3.565   3.916
 3645SOL    HW211835   1.614   3.719   3.883
 3646SOL     OW11836   1.498   5.113   6.216
 3646SOL    HW111837   1.406   5.086   6.187
 3646SOL    HW211838   1.550   5.031   6.240
 3647SOL     OW11839   2.606   6.609   6.931
 3647SOL    HW111840   2.598   6.637   0.002
 3647SOL    HW211841   2.547   6.530   6.915
 3648SOL     OW11842   4.709   5.628   3.393
 3648SOL    HW111843   4.614   5.645   3.366
 3648SOL    HW211844   4.744   5.549   3.343
 3649SOL     OW11845   5.682   2.179   0.248
 3649SOL    HW111846   5.764   2.205   0.197
 3649SOL    HW211847   5.689   2.214   0.341
 3650SOL     OW11848   5.457   6.031   6.034
 3650SOL    HW111849   5.525   5.957   6.037
 3650SOL    HW211850   5.365   5.992   6.041
 3651SOL     OW11851   0.946   2.093   5.960
 3651SOL    HW111852   0.865   2.151   5.955
 3651SOL    HW211853   1.026   2.143   5.926
 3652SOL     OW11854   4.299   1.823   1.898
 3652SOL    HW111855   4.262   1.765   1.826
 3652SOL    HW211856   4.297   1.919   1.869
 3653SOL     OW11857   1.666   1.631   0.847
 3653SOL    HW111858   1.576   1.651   0.809
 3653SOL    HW211859   1.735   1.681   0.794
 3654SOL     OW11860   4.528   6.664   1.678
 3654SOL    HW111861   4.569   6.712   1.601
 3654SOL    HW211862   4.548   6.566   1.670
 3655SOL     OW11863   0.899   0.481   3.928
 3655SOL    HW111864   0.947   0.561   3.964
 3655SOL    HW211865   0.842   0.442   4.000
 3656SOL     OW11866   0.247   0.302   1.322
 3656SOL    HW111867   0.214   0.354   1.401
 3656SOL    HW211868   0.181   0.232   1.298
 3657SOL     OW11869   5.722   5.391   6.266
 3657SOL    HW111870   5.654   5.318   6.269
 3657SOL    HW211871   5.718   5.436   6.177
 3658SOL     OW11872   2.144   5.112   5.469
 3658SOL    HW111873   2.046   5.093   5.459
 3658SOL    HW211874   2.174   5.087   5.561
 3659SOL     OW11875   0.450   2.931   6.474
 3659SOL    HW111876   0.434   3.011   6.532
 3659SOL    HW211877   0.463   2.959   6.380
 3660SOL     OW11878   4.450   5.658   5.646
 3660SOL    HW111879   4.537   5.680   5.690
 3660SOL    HW211880   4.408   5.580   5.693
 3661SOL     OW11881   0.495   1.318   4.803
 3661SOL    HW111882   0.530   1.284   4.715
 3661SOL    HW211883   0.539   1.405   4.825
 3662SOL     OW11884   2.968   2.076   6.017
 3662SOL    HW111885   3.007   2.161   6.052
 3662SOL    HW211886   3.041   2.018   5.982
 3663SOL     OW11887   2.542   2.511   6.522
 3663SOL    HW111888   2.493   2.550   6.444
 3663SOL    HW211889   2.484   2.513   6.603
 3664SOL     OW11890   3.045   1.609   0.901
 3664SOL    HW111891   3.141   1.579   0.897
 3664SOL    HW211892   3.042   1.709   0.899
 3665SOL     OW11893   0.367   5.698   5.481
 3665SOL    HW111894   0.449   5.732   5.528
 3665SOL    HW211895   0.295   5.682   5.549
 3666SOL     OW11896   2.187   3.234   4.308
 3666SOL    HW111897   2.194   3.156   4.245
 3666SOL    HW211898   2.203   3.202   4.401
 3667SOL     OW11899   1.708   6.927   1.080
 3667SOL    HW111900   1.719   6.869   0.999
 3667SOL    HW211901   1.654   6.879   1.148
 3668SOL     OW11902   6.347   1.323   0.735
 3668SOL    HW111903   6.415   1.374   0.683
 3668SOL    HW211904   6.393   1.252   0.789
 3669SOL     OW11905   0.705   0.973   3.182
 3669SOL    HW111906   0.712   0.897   3.247
 3669SOL    HW211907   0.722   0.939   3.090
 3670SOL     OW11908   2.309   0.318   1.734
 3670SOL    HW111909   2.373   0.280   1.667
 3670SOL    HW211910   2.286   0.412   1.709
 3671SOL     OW11911   7.004   1.023   4.509
 3671SOL    HW111912   0.011   1.113   4.537
 3671SOL    HW211913   7.013   0.959   4.586
 3672SOL     OW11914   3.864   6.968   3.442
 3672SOL    HW111915   3.857   0.037   3.476
 3672SOL    HW211916   3.780   6.918   3.465
 3673SOL     OW11917   3.243   0.439   1.454
 3673SOL    HW111918   3.270   0.347   1.483
 3673SOL    HW211919   3.308   0.473   1.386
 3674SOL     OW11920   0.572   4.607   6.684
 3674SOL    HW111921   0.642   4.563   6.628
 3674SOL    HW211922   0.481   4.580   6.651
 3675SOL     OW11923   0.615   0.711   4.053
 3675SOL    HW111924   0.684   0.783   4.051
 3675SOL    HW211925   0.569   0.711   4.142
 3676SOL     OW11926   3.418   1.131   5.214
 3676SOL    HW111927   3.384   1.092   5.300
 3676SOL    HW211928   3.420   1.060   5.143
 3677SOL     OW11929   1.562   1.258   4.572
 3677SOL    HW111930   1.571   1.355   4.548
 3677SOL    HW211931   1.466   1.231   4.570
 3678SOL     OW11932   2.009   1.065   3.426
 3678SOL    HW111933   2.029   0.968   3.443
 3678SOL    HW211934   2.086   1.107   3.378
 3679SOL     OW11935   3.791   0.448   2.465
 3679SOL    HW111936   3.814   0.542   2.441
 3679SOL    HW211937   3.870   0.389   2.448
 3680SOL     OW11938   3.232   2.140   4.590
 3680SOL    HW111939   3.294   2.215   4.567
 3680SOL    HW211940   3.164   2.129   4.518
 3681SOL     OW11941   1.016   6.549   4.026
 3681SOL    HW111942   1.030   6.506   4.115
 3681SOL    HW211943   1.004   6.648   4.039
 3682SOL     OW11944   4.919   2.030   0.670
 3682SOL    HW111945   4.968   2.060   0.752
 3682SOL    HW211946   4.976   2.049   0.590
 3683SOL     OW11947   6.677   1.604   0.804
 3683SOL    HW111948   6.706   1.547   0.881
 3683SOL    HW211949   6.591   1.649   0.827
 3684SOL     OW11950   2.660   5.904   5.470
 3684SOL    HW111951   2.578   5.846   5.467
 3684SOL    HW211952   2.718   5.875   5.546
 3685SOL     OW11953   2.063   6.160   4.508
 3685SOL    HW111954   2.056   6.126   4.414
 3685SOL    HW211955   2.000   6.109   4.566
 3686SOL     OW11956   0.256   4.014   0.729
 3686SOL    HW111957   0.240   3.960   0.647
 3686SOL    HW211958   0.219   3.966   0.808
 3687SOL     OW11959   5.772   4.577   4.254
 3687SOL    HW111960   5.858   4.572   4.306
 3687SOL    HW211961   5.725   4.663   4.275
 3688SOL     OW11962   6.718   2.896   1.361
 3688SOL    HW111963   6.707   2.836   1.441
 3688SOL    HW211964   6.812   2.928   1.356
 3689SOL     OW11965   0.955   0.992   6.219
 3689SOL    HW111966   0.935   0.933   6.297
 3689SOL    HW211967   1.032   0.954   6.167
 3690SOL     OW11968   5.602   4.969   1.902
 3690SOL    HW111969   5.634   4.944   1.993
 3690SOL    HW211970   5.664   4.932   1.833
 3691SOL     OW11971   1.539   2.741   0.641
 3691SOL    HW111972   1.493   2.687   0.570
 3691SOL    HW211973   1.472   2.767   0.710
 3692SOL     OW11974   1.077   3.246   5.300
 3692SOL    HW111975   1.162   3.251   5.248
 3692SOL    HW211976   1.095   3.261   5.397
 3693SOL     OW11977   0.180   1.609   2.840
 3693SOL    HW111978   0.121   1.644   2.913
 3693SOL    HW211979   0.247   1.546   2.880
 3694SOL     OW11980   6.359   0.033   2.804
 3694SOL    HW111981   6.409   0.097   2.862
 3694SOL    HW211982   6.315   0.083   2.729
 3695SOL     OW11983   6.022   3.681   3.220
 3695SOL    HW111984   5.945   3.744   3.225
 3695SOL    HW211985   6.084   3.709   3.147
 3696SOL     OW11986   4.246   0.454   4.302
 3696SOL    HW111987   4.238   0.397   4.384
 3696SOL    HW211988   4.255   0.550   4.329
 3697SOL     OW11989   6.495   5.965   2.938
 3697SOL    HW111990   6.548   6.045   2.967
 3697SOL    HW211991   6.507   5.891   3.004
 3698SOL     OW11992   2.174   0.215   3.783
 3698SOL    HW111993   2.231   0.295   3.802
 3698SOL    HW211994   2.089   0.221   3.836
 3699SOL     OW11995   2.635   2.384   3.372
 3699SOL    HW111996   2.553   2.328   3.373
 3699SOL    HW211997   2.626   2.456   3.303
 3700SOL     OW11998   0.993   4.382   4.957
 3700SOL    HW111999   1.028   4.405   4.866
 3700SOL    HW212000   1.038   4.300   4.991
 3701SOL     OW12001   0.340   1.240   2.669
 3701SOL    HW112002   0.333   1.210   2.764
 3701SOL    HW212003   0.304   1.333   2.660
 3702SOL     OW12004   6.336   3.818   3.615
 3702SOL    HW112005   6.358   3.896   3.674
 3702SOL    HW212006   6.394   3.821   3.533
 3703SOL     OW12007   1.536   1.318   3.575
 3703SOL    HW112008   1.578   1.385   3.636
 3703SOL    HW212009   1.584   1.320   3.487
 3704SOL     OW12010   5.956   0.515   1.027
 3704SOL    HW112011   5.867   0.472   1.015
 3704SOL    HW212012   5.956   0.605   0.983
 3705SOL     OW12013   5.789   4.123   3.558
 3705SOL    HW112014   5.827   4.215   3.550
 3705SOL    HW212015   5.745   4.113   3.648
 3706SOL     OW12016   1.003   5.027   6.566
 3706SOL    HW112017   0.984   5.067   6.656
 3706SOL    HW212018   0.945   5.070   6.497
 3707SOL     OW12019   1.349   4.525   3.453
 3707SOL    HW112020   1.417   4.592   3.482
 3707SOL    HW212021   1.385   4.433   3.465
 3708SOL     OW12022   1.896   6.329   0.879
 3708SOL    HW112023   1.893   6.354   0.976
 3708SOL    HW212024   1.989   6.343   0.844
 3709SOL     OW12025   1.036   1.540   1.969
 3709SOL    HW112026   1.107   1.607   1.948
 3709SOL    HW212027   1.019   1.483   1.889
 3710SOL     OW12028   1.612   3.942   5.227
 3710SOL    HW112029   1.703   3.902   5.237
 3710SOL    HW212030   1.544   3.870   5.223
 3711SOL     OW12031   1.746   5.626   4.769
 3711SOL    HW112032   1.690   5.543   4.763
 3711SOL    HW212033   1.716   5.692   4.701
 3712SOL     OW12034   3.016   5.378   4.592
 3712SOL    HW112035   2.984   5.472   4.602
 3712SOL    HW212036   3.110   5.371   4.626
 3713SOL     OW12037   6.124   0.474   5.019
 3713SOL    HW112038   6.146   0.547   5.083
 3713SOL    HW212039   6.113   0.388   5.069
 3714SOL     OW12040   0.308   4.387   0.198
 3714SOL    HW112041   0.370   4.312   0.223
 3714SOL    HW212042   0.225   4.350   0.158
 3715SOL     OW12043   6.289   4.468   3.702
 3715SOL    HW112044   6.339   4.440   3.784
 3715SOL    HW212045   6.273   4.388   3.644
 3716SOL     OW12046   5.490   5.852   5.206
 3716SOL    HW112047   5.569   5.797   5.232
 3716SOL    HW212048   5.517   5.921   5.140
 3717SOL     OW12049   4.347   0.682   0.630
 3717SOL    HW112050   4.430   0.628   0.648
 3717SOL    HW212051   4.354   0.770   0.677
 3718SOL     OW12052   6.209   6.610   6.051
 3718SOL    HW112053   6.277   6.656   6.108
 3718SOL    HW212054   6.125   6.665   6.049
 3719SOL     OW12055   2.979   4.396   0.313
 3719SOL    HW112056   3.078   4.394   0.300
 3719SOL    HW212057   2.950   4.315   0.365
 3720SOL     OW12058   0.066   2.862   0.994
 3720SOL    HW112059   0.110   2.934   0.940
 3720SOL    HW212060   0.086   2.875   1.091
 3721SOL     OW12061   6.568   0.608   5.477
 3721SOL    HW112062   6.566   0.511   5.502
 3721SOL    HW212063   6.511   0.660   5.540
 3722SOL     OW12064   5.528   6.378   2.055
 3722SOL    HW112065   5.441   6.373   2.005
 3722SOL    HW212066   5.551   6.288   2.090
 3723SOL     OW12067   4.835   3.754   6.189
 3723SOL    HW112068   4.760   3.810   6.224
 3723SOL    HW212069   4.812   3.721   6.097
 3724SOL     OW12070   0.380   4.017   4.512
 3724SOL    HW112071   0.374   4.069   4.426
 3724SOL    HW212072   0.464   3.963   4.512
 3725SOL     OW12073   1.340   5.964   6.927
 3725SOL    HW112074   1.288   6.048   6.945
 3725SOL    HW212075   1.366   5.961   6.830
 3726SOL     OW12076   6.268   3.814   5.613
 3726SOL    HW112077   6.323   3.775   5.539
 3726SOL    HW212078   6.173   3.822   5.583
 3727SOL     OW12079   6.821   2.344   4.163
 3727SOL    HW112080   6.782   2.252   4.150
 3727SOL    HW212081   6.767   2.394   4.230
 3728SOL     OW12082   2.336   4.500   0.811
 3728SOL    HW112083   2.322   4.414   0.763
 3728SOL    HW212084   2.431   4.505   0.843
 3729SOL     OW12085   6.982   6.838   5.627
 3729SOL    HW112086   0.002   6.751   5.608
 3729SOL    HW212087   0.025   6.912   5.623
 3730SOL     OW12088   4.803   5.137   4.602
 3730SOL    HW112089   4.824   5.180   4.690
 3730SOL    HW212090   4.763   5.205   4.541
 3731SOL     OW12091   0.319   2.288   0.805
 3731SOL    HW112092   0.307   2.329   0.895
 3731SOL    HW212093   0.230   2.266   0.766
 3732SOL     OW12094   3.627   3.103   6.852
 3732SOL    HW112095   3.699   3.037   6.875
 3732SOL    HW212096   3.551   3.055   6.809
 3733SOL     OW12097   1.158   0.687   3.803
 3733SOL    HW112098   1.217   0.760   3.767
 3733SOL    HW212099   1.101   0.651   3.730
 3734SOL     OW12100   3.612   7.021   1.491
 3734SOL    HW112101   3.526   6.984   1.528
 3734SOL    HW212102   3.601   0.013   1.393
 3735SOL     OW12103   4.654   0.288   3.031
 3735SOL    HW112104   4.692   0.200   3.005
 3735SOL    HW212105   4.651   0.348   2.951
 3736SOL     OW12106   0.205   1.283   0.123
 3736SOL    HW112107   0.278   1.287   0.192
 3736SOL    HW212108   0.190   1.374   0.085
 3737SOL     OW12109   5.907   2.197   2.806
 3737SOL    HW112110   5.966   2.212   2.885
 3737SOL    HW212111   5.913   2.274   2.743
 3738SOL     OW12112   0.715   0.768   1.153
 3738SOL    HW112113   0.647   0.827   1.109
 3738SOL    HW212114   0.668   0.695   1.202
 3739SOL     OW12115   2.918   4.037   6.846
 3739SOL    HW112116   2.868   4.096   6.783
 3739SOL    HW212117   2.984   4.091   6.898
 3740SOL     OW12118   5.286   6.014   6.373
 3740SOL    HW112119   5.308   5.921   6.401
 3740SOL    HW212120   5.247   6.064   6.450
 3741SOL     OW12121   5.008   3.646   0.433
 3741SOL    HW112122   4.982   3.594   0.352
 3741SOL    HW212123   5.097   3.613   0.466
 3742SOL     OW12124   4.769   5.616   1.125
 3742SOL    HW112125   4.740   5.520   1.134
 3742SOL    HW212126   4.812   5.630   1.036
 3743SOL     OW12127   3.451   4.173   0.764
 3743SOL    HW112128   3.520   4.224   0.814
 3743SOL    HW212129   3.475   4.076   0.764
 3744SOL     OW12130   6.492   6.270   2.732
 3744SOL    HW112131   6.421   6.203   2.712
 3744SOL    HW212132   6.457   6.362   2.712
 3745SOL     OW12133   4.797   2.932   2.830
 3745SOL    HW112134   4.742   2.854   2.858
 3745SOL    HW212135   4.761   2.969   2.744
 3746SOL     OW12136   6.153   0.371   4.460
 3746SOL    HW112137   6.145   0.464   4.423
 3746SOL    HW212138   6.152   0.375   4.560
 3747SOL     OW12139   3.292   5.861   5.147
 3747SOL    HW112140   3.347   5.939   5.179
 3747SOL    HW212141   3.195   5.886   5.148
 3748SOL     OW12142   4.987   2.489   3.995
 3748SOL    HW112143   4.973   2.390   3.987
 3748SOL    HW212144   4.899   2.536   3.988
 3749SOL     OW12145   6.740   6.415   2.490
 3749SOL    HW112146   6.788   6.363   2.560
 3749SOL    HW212147   6.735   6.361   2.406
 3750SOL     OW12148   5.567   3.874   1.190
 3750SOL    HW112149   5.507   3.912   1.260
 3750SOL    HW212150   5.657   3.918   1.195
 3751SOL     OW12151   0.815   4.185   1.797
 3751SOL    HW112152   0.733   4.231   1.764
 3751SOL    HW212153   0.822   4.095   1.754
 3752SOL     OW12154   0.403   6.746   5.850
 3752SOL    HW112155   0.400   6.673   5.781
 3752SOL    HW212156   0.438   6.708   5.936
 3753SOL     OW12157   6.947   1.004   4.902
 3753SOL    HW112158   6.958   1.102   4.917
 3753SOL    HW212159   6.920   0.959   4.987
 3754SOL     OW12160   6.536   6.113   1.363
 3754SOL    HW112161   6.509   6.036   1.420
 3754SOL    HW212162   6.462   6.180   1.359
 3755SOL     OW12163   4.792   2.920   2.464
 3755SOL    HW112164   4.767   2.919   2.367
 3755SOL    HW212165   4.836   3.007   2.486
 3756SOL     OW12166   3.517   0.181   6.666
 3756SOL    HW112167   3.484   0.255   6.725
 3756SOL    HW212168   3.538   0.101   6.723
 3757SOL     OW12169   3.969   4.710   6.525
 3757SOL    HW112170   3.906   4.632   6.531
 3757SOL    HW212171   3.921   4.789   6.487
 3758SOL     OW12172   0.082   0.413   2.795
 3758SOL    HW112173   0.143   0.348   2.840
 3758SOL    HW212174   0.093   0.406   2.696
 3759SOL     OW12175   5.104   5.359   0.708
 3759SOL    HW112176   5.049   5.441   0.726
 3759SOL    HW212177   5.134   5.320   0.796
 3760SOL     OW12178   1.888   1.999   5.815
 3760SOL    HW112179   1.944   2.069   5.770
 3760SOL    HW212180   1.914   1.992   5.911
 3761SOL     OW12181   0.292   6.640   4.401
 3761SOL    HW112182   0.216   6.701   4.423
 3761SOL    HW212183   0.321   6.655   4.307
 3762SOL     OW12184   0.554   3.615   6.752
 3762SOL    HW112185   0.569   3.713   6.739
 3762SOL    HW212186   0.643   3.569   6.762
 3763SOL     OW12187   6.766   3.812   5.704
 3763SOL    HW112188   6.854   3.854   5.684
 3763SOL    HW212189   6.694   3.857   5.651
 3764SOL     OW12190   2.839   6.676   4.492
 3764SOL    HW112191   2.751   6.632   4.511
 3764SOL    HW212192   2.909   6.639   4.554
 3765SOL     OW12193   6.098   1.393   3.544
 3765SOL    HW112194   6.042   1.318   3.580
 3765SOL    HW212195   6.051   1.437   3.468
 3766SOL     OW12196   1.691   0.166   4.920
 3766SOL    HW112197   1.615   0.213   4.966
 3766SOL    HW212198   1.663   0.072   4.898
 3767SOL     OW12199   1.049   4.711   0.631
 3767SOL    HW112200   1.088   4.736   0.543
 3767SOL    HW212201   1.070   4.615   0.651
 3768SOL     OW12202   4.306   6.490   1.205
 3768SOL    HW112203   4.219   6.537   1.192
 3768SOL    HW212204   4.366   6.546   1.263
 3769SOL     OW12205   4.360   6.855   4.868
 3769SOL    HW112206   4.445   6.844   4.816
 3769SOL    HW212207   4.282   6.856   4.804
 3770SOL     OW12208   2.255   1.914   0.272
 3770SOL    HW112209   2.184   1.938   0.206
 3770SOL    HW212210   2.255   1.980   0.347
 3771SOL     OW12211   4.359   1.523   5.067
 3771SOL    HW112212   4.366   1.497   4.971
 3771SOL    HW212213   4.438   1.488   5.118
 3772SOL     OW12214   4.536   0.511   2.387
 3772SOL    HW112215   4.455   0.489   2.333
 3772SOL    HW212216   4.510   0.572   2.462
 3773SOL     OW12217   6.707   2.017   0.633
 3773SOL    HW112218   6.702   2.098   0.576
 3773SOL    HW212219   6.614   1.986   0.655
 3774SOL     OW12220   0.999   2.293   2.293
 3774SOL    HW112221   1.029   2.373   2.240
 3774SOL    HW212222   0.940   2.236   2.235
 3775SOL     OW12223   5.747   3.148   3.406
 3775SOL    HW112224   5.818   3.078   3.403
 3775SOL    HW212225   5.757   3.202   3.489
 3776SOL     OW12226   2.656   3.040   6.791
 3776SOL    HW112227   2.561   3.020   6.766
 3776SOL    HW212228   2.689   2.969   6.853
 3777SOL     OW12229   1.579   3.765   3.391
 3777SOL    HW112230   1.663   3.776   3.339
 3777SOL    HW212231   1.544   3.855   3.418
 3778SOL     OW12232   2.496   6.365   2.121
 3778SOL    HW112233   2.580   6.318   2.147
 3778SOL    HW212234   2.508   6.409   2.032
 3779SOL     OW12235   2.214   4.967   6.912
 3779SOL    HW112236   2.180   4.874   6.905
 3779SOL    HW212237   2.292   4.978   6.851
 3780SOL     OW12238   2.858   0.093   4.331
 3780SOL    HW112239   2.850   0.150   4.249
 3780SOL    HW212240   2.815   0.141   4.409
 3781SOL     OW12241   2.527   5.660   4.845
 3781SOL    HW112242   2.491   5.746   4.881
 3781SOL    HW212243   2.469   5.584   4.874
 3782SOL     OW12244   2.330   1.188   2.971
 3782SOL    HW112245   2.386   1.105   2.973
 3782SOL    HW212246   2.389   1.267   2.953
 3783SOL     OW12247   5.033   6.102   5.627
 3783SOL    HW112248   5.020   6.080   5.724
 3783SOL    HW212249   5.089   6.184   5.619
 3784SOL     OW12250   5.074   2.161   3.949
 3784SOL    HW112251   5.126   2.099   3.891
 3784SOL    HW212252   5.130   2.187   4.028
 3785SOL     OW12253   1.325   1.988   1.726
 3785SOL    HW112254   1.394   2.060   1.723
 3785SOL    HW212255   1.365   1.905   1.766
 3786SOL     OW12256   3.287   5.983   2.709
 3786SOL    HW112257   3.188   5.989   2.717
 3786SOL    HW212258   3.318   6.042   2.634
 3787SOL     OW12259   4.474   1.319   4.163
 3787SOL    HW112260   4.451   1.390   4.230
 3787SOL    HW212261   4.466   1.229   4.206
 3788SOL     OW12262   6.092   3.478   2.028
 3788SOL    HW112263   6.159   3.412   1.994
 3788SOL    HW212264   6.140   3.552   2.076
 3789SOL     OW12265   1.547   5.771   2.641
 3789SOL    HW112266   1.618   5.763   2.571
 3789SOL    HW212267   1.572   5.713   2.719
 3790SOL     OW12268   2.253   2.875   3.083
 3790SOL    HW112269   2.283   2.877   2.987
 3790SOL    HW212270   2.332   2.858   3.142
 3791SOL     OW12271   6.416   0.420   2.145
 3791SOL    HW112272   6.380   0.378   2.061
 3791SOL    HW212273   6.505   0.379   2.166
 3792SOL     OW12274   0.095   6.865   6.076
 3792SOL    HW112275   0.111   6.899   6.168
 3792SOL    HW212276   0.154   6.913   6.011
 3793SOL     OW12277   1.294   6.575   2.885
 3793SOL    HW112278   1.374   6.589   2.944
 3793SOL    HW212279   1.230   6.514   2.930
 3794SOL     OW12280   3.812   6.697   2.776
 3794SOL    HW112281   3.764   6.782   2.796
 3794SOL    HW212282   3.838   6.695   2.680
 3795SOL     OW12283   5.055   0.233   0.955
 3795SOL    HW112284   5.112   0.283   1.020
 3795SOL    HW212285   5.018   0.152   1.000
 3796SOL     OW12286   1.326   3.205   0.931
 3796SOL    HW112287   1.278   3.138   0.988
 3796SOL    HW212288   1.373   3.157   0.857
 3797SOL     OW12289   0.320   5.745   2.236
 3797SOL    HW112290   0.277   5.665   2.278
 3797SOL    HW212291   0.310   5.740   2.136
 3798SOL     OW12292   0.909   4.331   1.102
 3798SOL    HW112293   1.000   4.370   1.114
 3798SOL    HW212294   0.868   4.315   1.192
 3799SOL     OW12295   1.445   0.405   5.640
 3799SOL    HW112296   1.434   0.504   5.654
 3799SOL    HW212297   1.363   0.358   5.673
 3800SOL     OW12298   5.372   2.500   5.071
 3800SOL    HW112299   5.375   2.404   5.100
 3800SOL    HW212300   5.414   2.557   5.142
 3801SOL     OW12301   0.140   0.295   6.525
 3801SOL    HW112302   0.133   0.215   6.584
 3801SOL    HW212303   0.049   0.333   6.509
 3802SOL     OW12304   1.221   2.257   5.467
 3802SOL    HW112305   1.312   2.220   5.487
 3802SOL    HW212306   1.172   2.194   5.407
 3803SOL     OW12307   3.679   1.002   1.318
 3803SOL    HW112308   3.750   1.013   1.249
 3803SOL    HW212309   3.596   0.967   1.275
 3804SOL     OW12310   4.518   2.995   5.305
 3804SOL    HW112311   4.423   2.967   5.289
 3804SOL    HW212312   4.573   2.975   5.224
 3805SOL     OW12313   1.869   3.722   1.882
 3805SOL    HW112314   1.915   3.649   1.832
 3805SOL    HW212315   1.934   3.768   1.942
 3806SOL     OW12316   3.339   1.256   0.872
 3806SOL    HW112317   3.294   1.218   0.792
 3806SOL    HW212318   3.303   1.348   0.890
 3807SOL     OW12319   1.906   6.989   2.731
 3807SOL    HW112320   2.000   6.995   2.766
 3807SOL    HW212321   1.894   0.033   2.658
 3808SOL     OW12322   3.028   0.611   0.571
 3808SOL    HW112323   3.064   0.524   0.605
 3808SOL    HW212324   3.099   0.681   0.579
 3809SOL     OW12325   4.206   0.282   6.535
 3809SOL    HW112326   4.199   0.376   6.568
 3809SOL    HW212327   4.124   0.257   6.485
 3810SOL     OW12328   2.413   3.236   6.130
 3810SOL    HW112329   2.499   3.274   6.096
 3810SOL    HW212330   2.367   3.188   6.055
 3811SOL     OW12331   1.116   0.804   6.116
 3811SOL    HW112332   1.102   0.718   6.066
 3811SOL    HW212333   1.192   0.854   6.075
 3812SOL     OW12334   5.421   1.441   5.711
 3812SOL    HW112335   5.421   1.486   5.622
 3812SOL    HW212336   5.479   1.359   5.707
 3813SOL     OW12337   3.895   4.819   1.912
 3813SOL    HW112338   3.797   4.803   1.924
 3813SOL    HW212339   3.936   4.839   2.001
 3814SOL     OW12340   1.791   0.064   2.272
 3814SOL    HW112341   1.707   0.046   2.220
 3814SOL    HW212342   1.869   0.021   2.225
 3815SOL     OW12343   5.544   2.023   1.383
 3815SOL    HW112344   5.625   2.075   1.408
 3815SOL    HW212345   5.465   2.056   1.436
 3816SOL     OW12346   7.023   6.758   1.096
 3816SOL    HW112347   6.934   6.789   1.130
 3816SOL    HW212348   0.012   6.662   1.122
 3817SOL     OW12349   4.807   1.270   5.494
 3817SOL    HW112350   4.792   1.340   5.564
 3817SOL    HW212351   4.723   1.218   5.479
 3818SOL     OW12352   4.508   5.603   2.818
 3818SOL    HW112353   4.608   5.609   2.820
 3818SOL    HW212354   4.470   5.652   2.897
 3819SOL     OW12355   5.750   4.499   6.007
 3819SOL    HW112356   5.768   4.567   6.079
 3819SOL    HW212357   5.699   4.423   6.046
 3820SOL     OW12358   4.930   6.354   3.644
 3820SOL    HW112359   4.908   6.287   3.714
 3820SOL    HW212360   4.997   6.316   3.580
 3821SOL     OW12361   0.506   4.451   1.265
 3821SOL    HW112362   0.509   4.440   1.165
 3821SOL    HW212363   0.597   4.436   1.303
 3822SOL     OW12364   1.118   4.836   1.639
 3822SOL    HW112365   1.033   4.858   1.686
 3822SOL    HW212366   1.180   4.915   1.641
 3823SOL     OW12367   2.349   2.959   5.582
 3823SOL    HW112368   2.429   3.012   5.608
 3823SOL    HW212369   2.298   3.007   5.511
 3824SOL     OW12370   6.548   2.182   6.679
 3824SOL    HW112371   6.483   2.160   6.607
 3824SOL    HW212372   6.529   2.125   6.759
 3825SOL     OW12373   6.550   6.641   6.065
 3825SOL    HW112374   6.532   6.622   5.968
 3825SOL    HW212375   6.529   6.736   6.085
 3826SOL     OW12376   6.886   2.101   0.834
 3826SOL    HW112377   6.816   2.048   0.786
 3826SOL    HW212378   6.932   2.043   0.901
 3827SOL     OW12379   5.508   2.392   1.018
 3827SOL    HW112380   5.522   2.385   1.117
 3827SOL    HW212381   5.417   2.357   0.996
 3828SOL     OW12382   4.299   1.078   1.293
 3828SOL    HW112383   4.373   1.135   1.328
 3828SOL    HW212384   4.218   1.088   1.352
 3829SOL     OW12385   0.789   4.800   3.622
 3829SOL    HW112386   0.839   4.871   3.572
 3829SOL    HW212387   0.716   4.841   3.675
 3830SOL     OW12388   3.119   0.383   5.550
 3830SOL    HW112389   3.198   0.327   5.523
 3830SOL    HW212390   3.106   0.456   5.484
 3831SOL     OW12391   4.594   1.813   2.511
 3831SOL    HW112392   4.650   1.880   2.464
 3831SOL    HW212393   4.550   1.855   2.590
 3832SOL     OW12394   5.206   0.370   2.476
 3832SOL    HW112395   5.295   0.415   2.477
 3832SOL    HW212396   5.175   0.358   2.382
 3833SOL     OW12397   1.929   6.203   1.294
 3833SOL    HW112398   1.977   6.148   1.225
 3833SOL    HW212399   1.884   6.143   1.359
 3834SOL     OW12400   2.385   2.694   0.744
 3834SOL    HW112401   2.358   2.734   0.832
 3834SOL    HW212402   2.483   2.706   0.731
 3835SOL     OW12403   3.485   5.623   3.943
 3835SOL    HW112404   3.413   5.554   3.935
 3835SOL    HW212405   3.552   5.609   3.870
 3836SOL     OW12406   1.855   2.936   5.127
 3836SOL    HW112407   1.815   3.026   5.110
 3836SOL    HW212408   1.888   2.897   5.040
 3837SOL     OW12409   3.272   3.365   6.782
 3837SOL    HW112410   3.260   3.447   6.727
 3837SOL    HW212411   3.369   3.339   6.784
 3838SOL     OW12412   5.930   3.026   4.905
 3838SOL    HW112413   5.954   3.116   4.940
 3838SOL    HW212414   5.998   2.959   4.937
 3839SOL     OW12415   6.989   5.897   6.297
 3839SOL    HW112416   7.019   5.802   6.304
 3839SOL    HW212417   0.014   5.953   6.364
 3840SOL     OW12418   2.574   1.032   3.665
 3840SOL    HW112419   2.624   1.118   3.661
 3840SOL    HW212420   2.632   0.962   3.708
 3841SOL     OW12421   1.097   3.841   4.690
 3841SOL    HW112422   1.108   3.797   4.600
 3841SOL    HW212423   1.147   3.927   4.690
 3842SOL     OW12424   1.773   5.235   6.978
 3842SOL    HW112425   1.795   5.308   0.018
 3842SOL    HW212426   1.706   5.269   6.911
 3843SOL     OW12427   5.726   4.104   0.189
 3843SOL    HW112428   5.734   4.066   0.281
 3843SOL    HW212429   5.794   4.176   0.177
 3844SOL     OW12430   2.528   4.217   5.834
 3844SOL    HW112431   2.541   4.316   5.828
 3844SOL    HW212432   2.604   4.171   5.790
 3845SOL     OW12433   3.251   3.279   3.705
 3845SOL    HW112434   3.271   3.273   3.608
 3845SOL    HW212435   3.294   3.361   3.743
 3846SOL     OW12436   6.666   4.232   4.354
 3846SOL    HW112437   6.619   4.173   4.420
 3846SOL    HW212438   6.642   4.203   4.261
 3847SOL     OW12439   0.547   6.966   0.659
 3847SOL    HW112440   0.561   6.972   0.561
 3847SOL    HW212441   0.538   6.870   0.686
 3848SOL     OW12442   2.812   5.300   1.174
 3848SOL    HW112443   2.712   5.299   1.169
 3848SOL    HW212444   2.849   5.219   1.130
 3849SOL     OW12445   2.471   1.767   6.095
 3849SOL    HW112446   2.563   1.803   6.109
 3849SOL    HW212447   2.456   1.689   6.155
 3850SOL     OW12448   2.067   3.740   1.336
 3850SOL    HW112449   2.112   3.694   1.413
 3850SOL    HW212450   1.984   3.785   1.369
 3851SOL     OW12451   2.412   2.803   1.165
 3851SOL    HW112452   2.415   2.808   1.265
 3851SOL    HW212453   2.500   2.832   1.127
 3852SOL     OW12454   4.478   1.100   5.144
 3852SOL    HW112455   4.462   1.095   5.243
 3852SOL    HW212456   4.410   1.045   5.096
 3853SOL     OW12457   1.294   2.995   1.844
 3853SOL    HW112458   1.243   2.925   1.894
 3853SOL    HW212459   1.306   2.966   1.749
 3854SOL     OW12460   1.772   3.121   4.924
 3854SOL    HW112461   1.743   3.095   4.832
 3854SOL    HW212462   1.724   3.204   4.952
 3855SOL     OW12463   6.909   1.686   5.492
 3855SOL    HW112464   6.848   1.744   5.439
 3855SOL    HW212465   6.964   1.742   5.554
 3856SOL     OW12466   0.921   6.588   5.492
 3856SOL    HW112467   0.888   6.664   5.435
 3856SOL    HW212468   0.973   6.624   5.569
 3857SOL     OW12469   0.977   0.168   6.865
 3857SOL    HW112470   0.882   0.196   6.868
 3857SOL    HW212471   1.035   0.246   6.842
 3858SOL     OW12472   2.470   5.214   6.991
 3858SOL    HW112473   2.468   5.149   0.042
 3858SOL    HW212474   2.379   5.219   6.949
 3859SOL     OW12475   6.368   2.691   1.594
 3859SOL    HW112476   6.404   2.627   1.526
 3859SOL    HW212477   6.328   2.770   1.549
 3860SOL     OW12478   2.202   6.204   5.145
 3860SOL    HW112479   2.259   6.269   5.094
 3860SOL    HW212480   2.137   6.160   5.083
 3861SOL     OW12481   3.851   4.411   0.131
 3861SOL    HW112482   3.888   4.363   0.211
 3861SOL    HW212483   3.893   4.502   0.125
 3862SOL     OW12484   0.584   5.710   5.654
 3862SOL    HW112485   0.671   5.745   5.620
 3862SOL    HW212486   0.553   5.766   5.730
 3863SOL     OW12487   3.146   3.598   0.293
 3863SOL    HW112488   3.161   3.595   0.194
 3863SOL    HW212489   3.109   3.510   0.323
 3864SOL     OW12490   2.991   1.384   0.554
 3864SOL    HW112491   2.906   1.368   0.604
 3864SOL    HW212492   2.971   1.395   0.457
 3865SOL     OW12493   4.128   0.783   2.326
 3865SOL    HW112494   4.047   0.842   2.318
 3865SOL    HW212495   4.211   0.838   2.317
 3866SOL     OW12496   2.932   6.438   6.356
 3866SOL    HW112497   3.028   6.445   6.329
 3866SOL    HW212498   2.876   6.421   6.275
 3867SOL     OW12499   1.844   4.627   3.390
 3867SOL    HW112500   1.760   4.651   3.342
 3867SOL    HW212501   1.906   4.580   3.327
 3868SOL     OW12502   2.683   5.397   2.956
 3868SOL    HW112503   2.757   5.363   3.014
 3868SOL    HW212504   2.696   5.364   2.863
 3869SOL     OW12505   0.467   1.205   3.952
 3869SOL    HW112506   0.482   1.213   3.853
 3869SOL    HW212507   0.543   1.247   4.001
 3870SOL     OW12508   4.088   4.345   0.689
 3870SOL    HW112509   4.149   4.338   0.609
 3870SOL    HW212510   4.082   4.440   0.718
 3871SOL     OW12511   3.376   1.333   5.038
 3871SOL    HW112512   3.438   1.349   4.961
 3871SOL    HW212513   3.408   1.253   5.090
 3872SOL     OW12514   4.501   4.064   0.646
 3872SOL    HW112515   4.592   4.025   0.665
 3872SOL    HW212516   4.431   4.004   0.685
 3873SOL     OW12517   5.369   4.791   2.107
 3873SOL    HW112518   5.289   4.843   2.078
 3873SOL    HW212519   5.431   4.779   2.029
 3874SOL     OW12520   4.664   5.815   5.788
 3874SOL    HW112521   4.599   5.800   5.863
 3874SOL    HW212522   4.659   5.910   5.759
 3875SOL     OW12523   2.029   4.314   0.323
 3875SOL    HW112524   2.015   4.224   0.283
 3875SOL    HW212525   2.093   4.307   0.400
 3876SOL     OW12526   5.587   3.558   1.879
 3876SOL    HW112527   5.673   3.530   1.921
 3876SOL    HW212528   5.597   3.560   1.779
 3877SOL     OW12529   4.669   1.761   2.122
 3877SOL    HW112530   4.614   1.844   2.119
 3877SOL    HW212531   4.766   1.784   2.124
 3878SOL     OW12532   4.696   5.895   4.613
 3878SOL    HW112533   4.755   5.960   4.563
 3878SOL    HW212534   4.627   5.946   4.664
 3879SOL     OW12535   2.686   6.034   0.780
 3879SOL    HW112536   2.682   6.012   0.683
 3879SOL    HW212537   2.604   6.083   0.807
 3880SOL     OW12538   5.909   2.100   4.312
 3880SOL    HW112539   5.948   2.033   4.249
 3880SOL    HW212540   5.822   2.134   4.275
 3881SOL     OW12541   0.499   5.905   0.819
 3881SOL    HW112542   0.580   5.847   0.806
 3881SOL    HW212543   0.417   5.851   0.802
 3882SOL     OW12544   0.347   6.136   6.692
 3882SOL    HW112545   0.389   6.220   6.727
 3882SOL    HW212546   0.387   6.113   6.604
 3883SOL     OW12547   3.520   1.958   6.989
 3883SOL    HW112548   3.595   1.991   6.931
 3883SOL    HW212549   3.511   2.017   0.044
 3884SOL     OW12550   1.952   5.309   5.653
 3884SOL    HW112551   1.990   5.241   5.716
 3884SOL    HW212552   1.876   5.268   5.602
 3885SOL     OW12553   0.015   1.316   4.603
 3885SOL    HW112554   0.101   1.335   4.650
 3885SOL    HW212555   6.970   1.381   4.633
 3886SOL     OW12556   0.305   6.025   5.379
 3886SOL    HW112557   0.250   5.971   5.315
 3886SOL    HW212558   0.290   5.993   5.472
 3887SOL     OW12559   5.809   2.787   4.763
 3887SOL    HW112560   5.853   2.876   4.773
 3887SOL    HW212561   5.787   2.771   4.667
 3888SOL     OW12562   5.559   2.042   2.297
 3888SOL    HW112563   5.583   1.969   2.361
 3888SOL    HW212564   5.564   2.130   2.343
 3889SOL     OW12565   6.448   5.937   6.673
 3889SOL    HW112566   6.405   6.028   6.668
 3889SOL    HW212567   6.444   5.894   6.583
 3890SOL     OW12568   6.784   3.215   2.876
 3890SOL    HW112569   6.803   3.127   2.834
 3890SOL    HW212570   6.695   3.249   2.844
 3891SOL     OW12571   4.807   5.455   5.781
 3891SOL    HW112572   4.714   5.421   5.766
 3891SOL    HW212573   4.847   5.481   5.693
 3892SOL     OW12574   5.716   5.876   4.157
 3892SOL    HW112575   5.672   5.818   4.225
 3892SOL    HW212576   5.812   5.850   4.149
 3893SOL     OW12577   2.896   6.325   4.423
 3893SOL    HW112578   2.971   6.312   4.358
 3893SOL    HW212579   2.931   6.371   4.505
 3894SOL     OW12580   5.208   5.283   6.560
 3894SOL    HW112581   5.140   5.302   6.631
 3894SOL    HW212582   5.290   5.244   6.602
 3895SOL     OW12583   1.646   1.894   5.691
 3895SOL    HW112584   1.730   1.898   5.745
 3895SOL    HW212585   1.614   1.986   5.671
 3896SOL     OW12586   6.206   3.501   0.027
 3896SOL    HW112587   6.177   3.431   6.987
 3896SOL    HW212588   6.298   3.480   0.060
 3897SOL     OW12589   3.435   6.706   3.363
 3897SOL    HW112590   3.357   6.749   3.409
 3897SOL    HW212591   3.467   6.765   3.289
 3898SOL     OW12592   2.982   3.501   4.298
 3898SOL    HW112593   3.014   3.414   4.260
 3898SOL    HW212594   2.915   3.543   4.236
 3899SOL     OW12595   4.197   2.249   6.123
 3899SOL    HW112596   4.280   2.303   6.105
 3899SOL    HW212597   4.219   2.152   6.115
 3900SOL     OW12598   0.746   2.677   4.131
 3900SOL    HW112599   0.758   2.775   4.138
 3900SOL    HW212600   0.666   2.657   4.074
 3901SOL     OW12601   3.086   5.542   5.696
 3901SOL    HW112602   3.093   5.557   5.597
 3901SOL    HW212603   3.173   5.507   5.730
 3902SOL     OW12604   4.235   5.202   3.097
 3902SOL    HW112605   4.334   5.218   3.087
 3902SOL    HW212606   4.215   5.173   3.190
 3903SOL     OW12607   3.698   3.646   6.224
 3903SOL    HW112608   3.770   3.677   6.161
 3903SOL    HW212609   3.646   3.573   6.181
 3904SOL     OW12610   2.217   0.168   0.300
 3904SOL    HW112611   2.133   0.203   0.258
 3904SOL    HW212612   2.215   0.068   0.298
 3905SOL     OW12613   4.916   0.303   6.185
 3905SOL    HW112614   4.926   0.333   6.280
 3905SOL    HW212615   4.827   0.258   6.174
 3906SOL     OW12616   6.786   5.808   4.668
 3906SOL    HW112617   6.697   5.777   4.634
 3906SOL    HW212618   6.803   5.901   4.639
 3907SOL     OW12619   0.312   1.881   4.609
 3907SOL    HW112620   0.297   1.980   4.612
 3907SOL    HW212621   0.308   1.850   4.514
 3908SOL     OW12622   2.080   0.392   4.984
 3908SOL    HW112623   2.062   0.489   4.967
 3908SOL    HW212624   2.132   0.382   5.069
 3909SOL     OW12625   5.399   3.771   1.874
 3909SOL    HW112626   5.322   3.741   1.930
 3909SOL    HW212627   5.470   3.700   1.874
 3910SOL     OW12628   2.852   2.900   1.356
 3910SOL    HW112629   2.819   2.906   1.450
 3910SOL    HW212630   2.803   2.967   1.300
 3911SOL     OW12631   0.194   1.335   1.142
 3911SOL    HW112632   0.205   1.237   1.127
 3911SOL    HW212633   0.176   1.381   1.055
 3912SOL     OW12634   4.530   4.242   0.169
 3912SOL    HW112635   4.541   4.189   0.253
 3912SOL    HW212636   4.440   4.287   0.169
 3913SOL     OW12637   4.106   5.063   1.357
 3913SOL    HW112638   4.083   5.143   1.412
 3913SOL    HW212639   4.070   4.981   1.401
 3914SOL     OW12640   6.990   1.530   0.564
 3914SOL    HW112641   0.041   1.553   0.503
 3914SOL    HW212642   7.011   1.563   0.657
 3915SOL     OW12643   5.980   0.608   5.299
 3915SOL    HW112644   6.072   0.643   5.282
 3915SOL    HW212645   5.917   0.647   5.232
 3916SOL     OW12646   1.608   2.345   2.287
 3916SOL    HW112647   1.675   2.270   2.283
 3916SOL    HW212648   1.655   2.430   2.311
 3917SOL     OW12649   4.458   5.386   2.224
 3917SOL    HW112650   4.432   5.338   2.307
 3917SOL    HW212651   4.555   5.372   2.205
 3918SOL     OW12652   4.337   0.082   1.106
 3918SOL    HW112653   4.255   0.033   1.077
 3918SOL    HW212654   4.331   0.178   1.078
 3919SOL     OW12655   5.113   5.480   3.244
 3919SOL    HW112656   5.174   5.475   3.165
 3919SOL    HW212657   5.019   5.494   3.213
 3920SOL     OW12658   3.657   2.045   5.522
 3920SOL    HW112659   3.717   2.122   5.545
 3920SOL    HW212660   3.696   1.995   5.444
 3921SOL     OW12661   1.469   3.202   5.694
 3921SOL    HW112662   1.452   3.300   5.687
 3921SOL    HW212663   1.469   3.161   5.603
 3922SOL     OW12664   5.035   2.775   4.008
 3922SOL    HW112665   5.018   2.677   4.002
 3922SOL    HW212666   4.972   2.816   4.074
 3923SOL     OW12667   5.508   1.052   1.551
 3923SOL    HW112668   5.430   1.067   1.610
 3923SOL    HW212669   5.530   1.136   1.501
 3924SOL     OW12670   5.202   4.730   4.336
 3924SOL    HW112671   5.179   4.775   4.423
 3924SOL    HW212672   5.172   4.786   4.260
 3925SOL     OW12673   4.139   5.686   1.609
 3925SOL    HW112674   4.093   5.697   1.697
 3925SOL    HW212675   4.183   5.597   1.605
 3926SOL     OW12676   0.833   6.131   5.031
 3926SOL    HW112677   0.811   6.042   5.071
 3926SOL    HW212678   0.930   6.152   5.047
 3927SOL     OW12679   6.022   0.313   5.240
 3927SOL    HW112680   6.007   0.409   5.265
 3927SOL    HW212681   6.040   0.260   5.322
 3928SOL     OW12682   4.605   6.427   2.606
 3928SOL    HW112683   4.565   6.419   2.697
 3928SOL    HW212684   4.632   6.336   2.573
 3929SOL     OW12685   1.250   0.930   5.710
 3929SOL    HW112686   1.225   0.943   5.614
 3929SOL    HW212687   1.274   1.018   5.751
 3930SOL     OW12688   2.316   6.023   4.711
 3930SOL    HW112689   2.356   5.991   4.625
 3930SOL    HW212690   2.346   6.117   4.728
 3931SOL     OW12691   0.772   2.373   0.331
 3931SOL    HW112692   0.734   2.461   0.359
 3931SOL    HW212693   0.776   2.312   0.409
 3932SOL     OW12694   2.267   4.131   2.685
 3932SOL    HW112695   2.178   4.121   2.730
 3932SOL    HW212696   2.329   4.060   2.718
 3933SOL     OW12697   2.095   6.496   1.351
 3933SOL    HW112698   2.068   6.444   1.270
 3933SOL    HW212699   2.175   6.453   1.393
 3934SOL     OW12700   2.046   6.587   1.624
 3934SOL    HW112701   2.116   6.548   1.563
 3934SOL    HW212702   2.088   6.659   1.680
 3935SOL     OW12703   0.361   2.505   4.967
 3935SOL    HW112704   0.382   2.594   4.928
 3935SOL    HW212705   0.443   2.448   4.967
 3936SOL     OW12706   0.106   3.956   4.223
 3936SOL    HW112707   0.102   4.012   4.306
 3936SOL    HW212708   0.015   3.953   4.181
 3937SOL     OW12709   0.903   6.281   0.374
 3937SOL    HW112710   0.822   6.331   0.344
 3937SOL    HW212711   0.875   6.195   0.416
 3938SOL     OW12712   0.597   3.873   0.122
 3938SOL    HW112713   0.661   3.882   0.199
 3938SOL    HW212714   0.555   3.782   0.124
 3939SOL     OW12715   1.506   6.845   4.015
 3939SOL    HW112716   1.587   6.902   4.000
 3939SOL    HW212717   1.431   6.877   3.957
 3940SOL     OW12718   2.504   5.920   6.384
 3940SOL    HW112719   2.453   5.927   6.298
 3940SOL    HW212720   2.586   5.977   6.379
 3941SOL     OW12721   5.462   5.454   2.434
 3941SOL    HW112722   5.404   5.420   2.360
 3941SOL    HW212723   5.502   5.541   2.407
 3942SOL     OW12724   6.368   6.643   6.393
 3942SOL    HW112725   6.321   6.557   6.372
 3942SOL    HW212726   6.327   6.718   6.340
 3943SOL     OW12727   1.499   3.623   0.091
 3943SOL    HW112728   1.490   3.721   0.109
 3943SOL    HW212729   1.417   3.576   0.124
 3944SOL     OW12730   4.739   3.468   6.522
 3944SOL    HW112731   4.713   3.549   6.575
 3944SOL    HW212732   4.837   3.453   6.529
 3945SOL     OW12733   6.508   0.769   3.344
 3945SOL    HW112734   6.544   0.763   3.438
 3945SOL    HW212735   6.480   0.863   3.326
 3946SOL     OW12736   6.044   2.792   1.102
 3946SOL    HW112737   6.085   2.883   1.105
 3946SOL    HW212738   5.958   2.797   1.050
 3947SOL     OW12739   5.966   6.760   2.331
 3947SOL    HW112740   5.922   6.759   2.242
 3947SOL    HW212741   5.969   6.853   2.366
 3948SOL     OW12742   2.403   0.880   5.002
 3948SOL    HW112743   2.456   0.845   4.924
 3948SOL    HW212744   2.391   0.807   5.069
 3949SOL     OW12745   5.990   0.132   2.182
 3949SOL    HW112746   6.010   0.229   2.171
 3949SOL    HW212747   6.066   0.079   2.144
 3950SOL     OW12748   2.978   4.523   1.510
 3950SOL    HW112749   2.893   4.509   1.561
 3950SOL    HW212750   3.055   4.523   1.573
 3951SOL     OW12751   6.882   2.485   3.490
 3951SOL    HW112752   6.936   2.560   3.450
 3951SOL    HW212753   6.909   2.472   3.585
 3952SOL     OW12754   5.676   4.596   6.730
 3952SOL    HW112755   5.772   4.568   6.728
 3952SOL    HW212756   5.625   4.536   6.791
 3953SOL     OW12757   3.350   3.797   5.496
 3953SOL    HW112758   3.390   3.871   5.442
 3953SOL    HW212759   3.251   3.797   5.484
 3954SOL     OW12760   1.279   3.312   5.116
 3954SOL    HW112761   1.276   3.374   5.037
 3954SOL    HW212762   1.374   3.292   5.138
 3955SOL     OW12763   6.020   3.179   0.249
 3955SOL    HW112764   6.053   3.254   0.305
 3955SOL    HW212765   5.932   3.203   0.209
 3956SOL     OW12766   6.895   2.861   5.383
 3956SOL    HW112767   6.826   2.923   5.347
 3956SOL    HW212768   6.893   2.775   5.331
 3957SOL     OW12769   0.456   2.230   1.870
 3957SOL    HW112770   0.456   2.231   1.970
 3957SOL    HW212771   0.451   2.136   1.837
 3958SOL     OW12772   5.632   5.930   1.268
 3958SOL    HW112773   5.663   6.019   1.302
 3958SOL    HW212774   5.587   5.880   1.342
 3959SOL     OW12775   2.743   5.013   1.781
 3959SOL    HW112776   2.686   4.986   1.858
 3959SOL    HW212777   2.833   4.971   1.789
 3960SOL     OW12778   5.757   2.849   0.328
 3960SOL    HW112779   5.729   2.868   0.234
 3960SOL    HW212780   5.681   2.807   0.377
 3961SOL     OW12781   0.139   1.063   1.165
 3961SOL    HW112782   0.087   1.049   1.249
 3961SOL    HW212783   0.151   0.975   1.119
 3962SOL     OW12784   6.924   0.222   6.150
 3962SOL    HW112785   6.910   0.164   6.069
 3962SOL    HW212786   6.969   0.307   6.122
 3963SOL     OW12787   4.960   4.224   4.011
 3963SOL    HW112788   4.995   4.132   3.993
 3963SOL    HW212789   4.944   4.270   3.923
 3964SOL     OW12790   5.806   4.757   0.292
 3964SOL    HW112791   5.724   4.774   0.346
 3964SOL    HW212792   5.789   4.783   0.197
 3965SOL     OW12793   3.533   3.822   1.051
 3965SOL    HW112794   3.543   3.730   1.091
 3965SOL    HW212795   3.436   3.843   1.039
 3966SOL     OW12796   6.810   3.454   5.900
 3966SOL    HW112797   6.770   3.362   5.900
 3966SOL    HW212798   6.832   3.481   5.806
 3967SOL     OW12799   2.290   6.743   0.502
 3967SOL    HW112800   2.252   6.673   0.441
 3967SOL    HW212801   2.271   6.718   0.597
 3968SOL     OW12802   4.751   2.449   0.886
 3968SOL    HW112803   4.851   2.442   0.885
 3968SOL    HW212804   4.719   2.482   0.798
 3969SOL     OW12805   0.037   6.585   0.793
 3969SOL    HW112806   0.127   6.600   0.753
 3969SOL    HW212807   0.046   6.544   0.883
 3970SOL     OW12808   5.713   4.403   3.722
 3970SOL    HW112809   5.670   4.451   3.800
 3970SOL    HW212810   5.809   4.429   3.717
 3971SOL     OW12811   0.605   5.537   3.829
 3971SOL    HW112812   0.653   5.581   3.905
 3971SOL    HW212813   0.656   5.551   3.744
 3972SOL     OW12814   1.280   0.200   5.897
 3972SOL    HW112815   1.209   0.262   5.863
 3972SOL    HW212816   1.239   0.112   5.921
 3973SOL     OW12817   4.119   3.689   2.521
 3973SOL    HW112818   4.195   3.753   2.535
 3973SOL    HW212819   4.134   3.606   2.574
 3974SOL     OW12820   4.916   0.874   6.509
 3974SOL    HW112821   4.847   0.803   6.488
 3974SOL    HW212822   5.007   0.837   6.493
 3975SOL     OW12823   0.318   7.014   4.367
 3975SOL    HW112824   0.343   0.060   4.302
 3975SOL    HW212825   0.219   7.000   4.364
 3976SOL     OW12826   1.103   2.961   5.621
 3976SOL    HW112827   1.144   2.998   5.704
 3976SOL    HW212828   1.174   2.924   5.561
 3977SOL     OW12829   3.208   5.280   5.179
 3977SOL    HW112830   3.189   5.207   5.114
 3977SOL    HW212831   3.294   5.262   5.226
 3978SOL     OW12832   5.813   3.461   6.260
 3978SOL    HW112833   5.838   3.409   6.178
 3978SOL    HW212834   5.869   3.544   6.265
 3979SOL     OW12835   0.932   5.927   3.116
 3979SOL    HW112836   0.965   5.970   3.031
 3979SOL    HW212837   0.846   5.970   3.143
 3980SOL     OW12838   5.215   4.013   4.098
 3980SOL    HW112839   5.225   3.947   4.023
 3980SOL    HW212840   5.304   4.028   4.140
 3981SOL     OW12841   7.013   1.205   6.376
 3981SOL    HW112842   6.936   1.207   6.440
 3981SOL    HW212843   6.994   1.268   6.300
 3982SOL     OW12844   2.163   2.852   4.613
 3982SOL    HW112845   2.190   2.764   4.652
 3982SOL    HW212846   2.159   2.920   4.686
 3983SOL     OW12847   3.447   0.562   3.927
 3983SOL    HW112848   3.424   0.482   3.872
 3983SOL    HW212849   3.377   0.576   3.997
 3984SOL     OW12850   1.467   5.649   2.351
 3984SOL    HW112851   1.492   5.553   2.348
 3984SOL    HW212852   1.503   5.691   2.434
 3985SOL     OW12853   2.067   2.406   1.344
 3985SOL    HW112854   2.041   2.331   1.405
 3985SOL    HW212855   2.161   2.434   1.366
 3986SOL     OW12856   0.091   2.445   2.677
 3986SOL    HW112857   0.155   2.481   2.745
 3986SOL    HW212858   0.094   2.345   2.678
 3987SOL     OW12859   1.338   4.349   5.077
 3987SOL    HW112860   1.258   4.293   5.099
 3987SOL    HW212861   1.420   4.292   5.075
 3988SOL     OW12862   4.845   6.849   1.752
 3988SOL    HW112863   4.763   6.836   1.806
 3988SOL    HW212864   4.896   6.928   1.787
 3989SOL     OW12865   4.078   1.090   5.850
 3989SOL    HW112866   4.128   1.098   5.764
 3989SOL    HW212867   4.065   0.994   5.873
 3990SOL     OW12868   6.331   1.264   4.105
 3990SOL    HW112869   6.318   1.245   4.202
 3990SOL    HW212870   6.344   1.363   4.091
 3991SOL     OW12871   0.120   2.119   3.322
 3991SOL    HW112872   0.195   2.106   3.387
 3991SOL    HW212873   0.039   2.070   3.353
 3992SOL     OW12874   5.414   3.633   6.557
 3992SOL    HW112875   5.443   3.537   6.550
 3992SOL    HW212876   5.457   3.686   6.484
 3993SOL     OW12877   1.630   0.880   3.975
 3993SOL    HW112878   1.671   0.956   4.025
 3993SOL    HW212879   1.697   0.807   3.965
 3994SOL     OW12880   3.346   1.927   3.649
 3994SOL    HW112881   3.431   1.975   3.630
 3994SOL    HW212882   3.275   1.959   3.586
 3995SOL     OW12883   1.461   3.623   2.414
 3995SOL    HW112884   1.415   3.537   2.434
 3995SOL    HW212885   1.453   3.642   2.316
 3996SOL     OW12886   6.422   6.512   5.041
 3996SOL    HW112887   6.397   6.607   5.055
 3996SOL    HW212888   6.340   6.455   5.046
 3997SOL     OW12889   5.667   3.677   4.082
 3997SOL    HW112890   5.630   3.766   4.110
 3997SOL    HW212891   5.607   3.604   4.115
 3998SOL     OW12892   4.761   2.330   3.668
 3998SOL    HW112893   4.795   2.401   3.606
 3998SOL    HW212894   4.681   2.286   3.628
 3999SOL     OW12895   4.858   2.895   0.653
 3999SOL    HW112896   4.850   2.992   0.675
 3999SOL    HW212897   4.897   2.846   0.731
 4000SOL     OW12898   2.418   4.899   3.445
 4000SOL    HW112899   2.379   4.951   3.369
 4000SOL    HW212900   2.372   4.923   3.530
 4001SOL     OW12901   0.394   6.241   4.333
 4001SOL    HW112902   0.400   6.141   4.335
 4001SOL    HW212903   0.344   6.273   4.414
 4002SOL     OW12904   3.971   3.916   4.870
 4002SOL    HW112905   3.873   3.900   4.878
 4002SOL    HW212906   4.021   3.836   4.905
 4003SOL     OW12907   2.141   0.683   4.920
 4003SOL    HW112908   2.222   0.731   4.953
 4003SOL    HW212909   2.147   0.671   4.821
 4004SOL     OW12910   2.126   4.902   4.902
 4004SOL    HW112911   2.167   4.824   4.856
 4004SOL    HW212912   2.194   4.946   4.962
 4005SOL     OW12913   4.989   2.810   0.373
 4005SOL    HW112914   4.935   2.852   0.445
 4005SOL    HW212915   4.956   2.841   0.284
 4006SOL     OW12916   6.915   5.248   2.152
 4006SOL    HW112917   6.858   5.257   2.233
 4006SOL    HW212918   6.857   5.234   2.071
 4007SOL     OW12919   0.950   1.154   1.995
 4007SOL    HW112920   0.888   1.225   1.960
 4007SOL    HW212921   0.927   1.135   2.091
 4008SOL     OW12922   3.066   1.401   1.297
 4008SOL    HW112923   3.018   1.385   1.383
 4008SOL    HW212924   3.057   1.497   1.271
 4009SOL     OW12925   4.051   2.504   0.727
 4009SOL    HW112926   4.146   2.473   0.731
 4009SOL    HW212927   4.046   2.599   0.757
 4010SOL     OW12928   1.908   4.541   0.885
 4010SOL    HW112929   1.925   4.460   0.829
 4010SOL    HW212930   1.859   4.515   0.968
 4011SOL     OW12931   6.244   7.009   5.995
 4011SOL    HW112932   6.250   0.082   5.976
 4011SOL    HW212933   6.315   6.960   5.945
 4012SOL     OW12934   5.898   5.506   2.522
 4012SOL    HW112935   5.882   5.602   2.545
 4012SOL    HW212936   5.995   5.485   2.532
 4013SOL     OW12937   6.844   1.628   6.906
 4013SOL    HW112938   6.783   1.694   6.949
 4013SOL    HW212939   6.917   1.604   6.970
 4014SOL     OW12940   3.691   6.011   2.319
 4014SOL    HW112941   3.677   5.912   2.324
 4014SOL    HW212942   3.727   6.044   2.406
 4015SOL     OW12943   4.460   5.472   6.059
 4015SOL    HW112944   4.526   5.398   6.067
 4015SOL    HW212945   4.507   5.559   6.049
 4016SOL     OW12946   4.989   5.028   4.420
 4016SOL    HW112947   5.064   4.997   4.479
 4016SOL    HW212948   4.928   5.087   4.473
 4017SOL     OW12949   1.580   6.176   5.368
 4017SOL    HW112950   1.652   6.113   5.396
 4017SOL    HW212951   1.567   6.171   5.268
 4018SOL     OW12952   4.501   5.518   1.309
 4018SOL    HW112953   4.576   5.459   1.279
 4018SOL    HW212954   4.498   5.600   1.253
 4019SOL     OW12955   6.727   3.409   2.009
 4019SOL    HW112956   6.787   3.398   1.930
 4019SOL    HW212957   6.754   3.491   2.060
 4020SOL     OW12958   6.950   5.745   4.459
 4020SOL    HW112959   6.901   5.726   4.544
 4020SOL    HW212960   6.917   5.830   4.419
 4021SOL     OW12961   4.358   5.318   6.366
 4021SOL    HW112962   4.425   5.246   6.387
 4021SOL    HW212963   4.309   5.294   6.282
 4022SOL     OW12964   2.864   6.107   0.976
 4022SOL    HW112965   2.816   6.072   0.895
 4022SOL    HW212966   2.797   6.130   1.047
 4023SOL     OW12967   0.275   1.732   4.341
 4023SOL    HW112968   0.329   1.765   4.264
 4023SOL    HW212969   0.303   1.638   4.364
 4024SOL     OW12970   0.171   6.337   5.497
 4024SOL    HW112971   0.209   6.312   5.408
 4024SOL    HW212972   0.183   6.261   5.560
 4025SOL     OW12973   6.925   4.524   3.911
 4025SOL    HW112974   6.831   4.512   3.942
 4025SOL    HW212975   6.937   4.475   3.824
 4026SOL     OW12976   0.451   6.554   3.840
 4026SOL    HW112977   0.411   6.645   3.831
 4026SOL    HW212978   0.550   6.562   3.848
 4027SOL     OW12979   3.655   5.088   4.796
 4027SOL    HW112980   3.656   5.038   4.710
 4027SOL    HW212981   3.740   5.071   4.846
 4028SOL     OW12982   5.114   1.467   3.917
 4028SOL    HW112983   5.119   1.491   4.014
 4028SOL    HW212984   5.019   1.457   3.890
 4029SOL     OW12985   1.055   6.646   0.679
 4029SOL    HW112986   1.135   6.705   0.691
 4029SOL    HW212987   0.976   6.689   0.722
 4030SOL     OW12988   0.518   1.604   2.128
 4030SOL    HW112989   0.594   1.549   2.092
 4030SOL    HW212990   0.432   1.554   2.114
 4031SOL     OW12991   5.628   6.133   0.106
 4031SOL    HW112992   5.601   6.176   0.192
 4031SOL    HW212993   5.575   6.049   0.093
 4032SOL     OW12994   5.212   1.075   2.800
 4032SOL    HW112995   5.134   1.136   2.787
 4032SOL    HW212996   5.219   1.051   2.897
 4033SOL     OW12997   2.462   2.625   2.895
 4033SOL    HW112998   2.489   2.573   2.815
 4033SOL    HW212999   2.537   2.626   2.962
 4034SOL     OW13000   1.483   2.352   4.720
 4034SOL    HW113001   1.412   2.325   4.785
 4034SOL    HW213002   1.440   2.390   4.638
 4035SOL     OW13003   4.647   2.139   2.124
 4035SOL    HW113004   4.586   2.169   2.051
 4035SOL    HW213005   4.595   2.091   2.194
 4036SOL     OW13006   3.337   5.711   3.395
 4036SOL    HW113007   3.304   5.791   3.345
 4036SOL    HW213008   3.343   5.633   3.332
 4037SOL     OW13009   2.072   2.236   6.505
 4037SOL    HW113010   2.024   2.293   6.438
 4037SOL    HW213011   2.060   2.140   6.481
 4038SOL     OW13012   3.515   4.652   6.043
 4038SOL    HW113013   3.562   4.637   6.129
 4038SOL    HW213014   3.576   4.697   5.978
 4039SOL     OW13015   5.606   4.955   1.531
 4039SOL    HW113016   5.646   4.888   1.593
 4039SOL    HW213017   5.637   5.047   1.556
 4040SOL     OW13018   3.418   0.558   5.046
 4040SOL    HW113019   3.366   0.620   5.105
 4040SOL    HW213020   3.399   0.463   5.072
 4041SOL     OW13021   1.234   5.441   2.007
 4041SOL    HW113022   1.293   5.391   2.070
 4041SOL    HW213023   1.290   5.482   1.934
 4042SOL     OW13024   0.231   1.565   3.145
 4042SOL    HW113025   0.265   1.525   3.060
 4042SOL    HW213026   0.146   1.615   3.127
 4043SOL     OW13027   5.064   3.085   6.005
 4043SOL    HW113028   5.040   3.104   6.101
 4043SOL    HW213029   4.991   3.118   5.946
 4044SOL     OW13030   4.905   4.109   3.096
 4044SOL    HW113031   4.943   4.016   3.092
 4044SOL    HW213032   4.979   4.175   3.101
 4045SOL     OW13033   4.387   1.090   5.423
 4045SOL    HW113034   4.339   1.120   5.505
 4045SOL    HW213035   4.457   1.022   5.448
 4046SOL     OW13036   5.485   1.702   3.890
 4046SOL    HW113037   5.474   1.633   3.962
 4046SOL    HW213038   5.441   1.670   3.806
 4047SOL     OW13039   3.325   2.697   6.685
 4047SOL    HW113040   3.252   2.736   6.741
 4047SOL    HW213041   3.290   2.679   6.593
 4048SOL     OW13042   4.923   1.858   2.831
 4048SOL    HW113043   4.918   1.795   2.753
 4048SOL    HW213044   4.836   1.860   2.879
 4049SOL     OW13045   4.132   4.115   0.857
 4049SOL    HW113046   4.064   4.042   0.858
 4049SOL    HW213047   4.113   4.177   0.782
 4050SOL     OW13048   0.431   5.117   2.723
 4050SOL    HW113049   0.471   5.069   2.645
 4050SOL    HW213050   0.433   5.216   2.705
 4051SOL     OW13051   5.735   0.818   5.556
 4051SOL    HW113052   5.750   0.907   5.512
 4051SOL    HW213053   5.738   0.829   5.655
 4052SOL     OW13054   5.243   2.009   3.622
 4052SOL    HW113055   5.196   1.929   3.585
 4052SOL    HW213056   5.267   1.993   3.717
 4053SOL     OW13057   0.870   4.618   4.054
 4053SOL    HW113058   0.860   4.625   3.955
 4053SOL    HW213059   0.890   4.708   4.092
 4054SOL     OW13060   4.357   3.932   1.035
 4054SOL    HW113061   4.290   3.917   1.107
 4054SOL    HW213062   4.310   3.949   0.948
 4055SOL     OW13063   0.190   4.227   0.440
 4055SOL    HW113064   0.112   4.253   0.383
 4055SOL    HW213065   0.179   4.267   0.531
 4056SOL     OW13066   4.886   3.340   6.850
 4056SOL    HW113067   4.948   3.326   6.773
 4056SOL    HW213068   4.881   3.255   6.903
 4057SOL     OW13069   0.258   3.950   0.474
 4057SOL    HW113070   0.245   4.044   0.445
 4057SOL    HW213071   0.197   3.890   0.422
 4058SOL     OW13072   2.865   0.484   4.818
 4058SOL    HW113073   2.949   0.441   4.785
 4058SOL    HW213074   2.862   0.579   4.786
 4059SOL     OW13075   0.339   1.418   3.627
 4059SOL    HW113076   0.392   1.337   3.653
 4059SOL    HW213077   0.388   1.468   3.555
 4060SOL     OW13078   0.012   6.148   4.462
 4060SOL    HW113079   0.025   6.241   4.428
 4060SOL    HW213080   6.959   6.146   4.525
 4061SOL     OW13081   1.365   4.865   1.407
 4061SOL    HW113082   1.379   4.901   1.499
 4061SOL    HW213083   1.269   4.878   1.381
 4062SOL     OW13084   1.708   3.544   0.657
 4062SOL    HW113085   1.726   3.642   0.664
 4062SOL    HW213086   1.620   3.523   0.700
 4063SOL     OW13087   4.125   0.275   0.765
 4063SOL    HW113088   4.065   0.302   0.689
 4063SOL    HW213089   4.154   0.180   0.752
 4064SOL     OW13090   1.872   1.142   5.645
 4064SOL    HW113091   1.833   1.068   5.589
 4064SOL    HW213092   1.905   1.104   5.732
 4065SOL     OW13093   2.306   0.556   1.225
 4065SOL    HW113094   2.314   0.514   1.135
 4065SOL    HW213095   2.344   0.495   1.294
 4066SOL     OW13096   0.669   3.581   3.657
 4066SOL    HW113097   0.735   3.603   3.585
 4066SOL    HW213098   0.656   3.481   3.661
 4067SOL     OW13099   5.533   5.185   0.770
 4067SOL    HW113100   5.465   5.248   0.732
 4067SOL    HW213101   5.621   5.201   0.726
 4068SOL     OW13102   2.402   2.736   4.990
 4068SOL    HW113103   2.381   2.827   5.026
 4068SOL    HW213104   2.318   2.694   4.955
 4069SOL     OW13105   5.245   6.461   6.412
 4069SOL    HW113106   5.152   6.440   6.382
 4069SOL    HW213107   5.242   6.504   6.502
 4070SOL     OW13108   1.292   3.653   3.837
 4070SOL    HW113109   1.392   3.642   3.841
 4070SOL    HW213110   1.250   3.563   3.823
 4071SOL     OW13111   1.343   0.743   5.344
 4071SOL    HW113112   1.388   0.703   5.264
 4071SOL    HW213113   1.326   0.840   5.328
 4072SOL     OW13114   2.924   6.197   2.940
 4072SOL    HW113115   2.849   6.237   2.887
 4072SOL    HW213116   2.925   6.237   3.032
 4073SOL     OW13117   4.689   5.266   6.986
 4073SOL    HW113118   4.667   5.282   6.890
 4073SOL    HW213119   4.610   5.228   0.008
 4074SOL     OW13120   1.853   5.880   2.815
 4074SOL    HW113121   1.792   5.837   2.748
 4074SOL    HW213122   1.937   5.827   2.821
 4075SOL     OW13123   6.532   0.444   0.629
 4075SOL    HW113124   6.546   0.405   0.538
 4075SOL    HW213125   6.486   0.376   0.687
 4076SOL     OW13126   2.263   5.052   4.239
 4076SOL    HW113127   2.278   5.150   4.226
 4076SOL    HW213128   2.231   5.035   4.332
 4077SOL     OW13129   2.888   0.431   2.205
 4077SOL    HW113130   2.827   0.504   2.236
 4077SOL    HW213131   2.955   0.468   2.140
 4078SOL     OW13132   3.460   4.940   2.203
 4078SOL    HW113133   3.387   4.872   2.202
 4078SOL    HW213134   3.544   4.899   2.167
 4079SOL     OW13135   0.358   2.272   3.771
 4079SOL    HW113136   0.445   2.264   3.819
 4079SOL    HW213137   0.335   2.183   3.730
 4080SOL     OW13138   6.746   2.072   5.565
 4080SOL    HW113139   6.737   2.114   5.655
 4080SOL    HW213140   6.695   2.127   5.498
 4081SOL     OW13141   0.912   3.055   3.770
 4081SOL    HW113142   0.882   3.082   3.678
 4081SOL    HW213143   0.949   3.134   3.817
 4082SOL     OW13144   0.487   3.744   0.715
 4082SOL    HW113145   0.426   3.823   0.724
 4082SOL    HW213146   0.566   3.756   0.775
 4083SOL     OW13147   6.707   2.946   4.856
 4083SOL    HW113148   6.638   2.893   4.905
 4083SOL    HW213149   6.730   2.899   4.770
 4084SOL     OW13150   6.663   1.434   4.396
 4084SOL    HW113151   6.719   1.509   4.430
 4084SOL    HW213152   6.711   1.387   4.322
 4085SOL     OW13153   2.400   6.338   0.576
 4085SOL    HW113154   2.322   6.377   0.526
 4085SOL    HW213155   2.436   6.260   0.525
 4086SOL     OW13156   1.027   4.249   0.813
 4086SOL    HW113157   1.069   4.209   0.732
 4086SOL    HW213158   0.930   4.223   0.816
 4087SOL     OW13159   2.599   1.504   2.721
 4087SOL    HW113160   2.504   1.494   2.750
 4087SOL    HW213161   2.657   1.522   2.800
 4088SOL     OW13162   6.299   1.980   0.392
 4088SOL    HW113163   6.225   1.933   0.343
 4088SOL    HW213164   6.387   1.939   0.367
 4089SOL     OW13165   1.205   1.710   5.543
 4089SOL    HW113166   1.196   1.610   5.537
 4089SOL    HW213167   1.200   1.749   5.451
 4090SOL     OW13168   2.315   4.546   6.282
 4090SOL    HW113169   2.299   4.604   6.362
 4090SOL    HW213170   2.393   4.581   6.231
 4091SOL     OW13171   3.748   6.854   0.537
 4091SOL    HW113172   3.847   6.851   0.521
 4091SOL    HW213173   3.729   6.916   0.613
 4092SOL     OW13174   6.979   1.887   4.714
 4092SOL    HW113175   6.972   1.964   4.778
 4092SOL    HW213176   6.974   1.921   4.620
 4093SOL     OW13177   5.764   6.594   4.770
 4093SOL    HW113178   5.721   6.668   4.822
 4093SOL    HW213179   5.773   6.513   4.828
 4094SOL     OW13180   2.998   4.609   5.313
 4094SOL    HW113181   2.930   4.625   5.242
 4094SOL    HW213182   3.025   4.513   5.312
 4095SOL     OW13183   1.871   3.623   5.826
 4095SOL    HW113184   1.952   3.661   5.869
 4095SOL    HW213185   1.826   3.693   5.771
 4096SOL     OW13186   4.261   4.701   2.283
 4096SOL    HW113187   4.181   4.751   2.247
 4096SOL    HW213188   4.284   4.626   2.221
 4097SOL     OW13189   2.864   3.671   4.094
 4097SOL    HW113190   2.794   3.741   4.108
 4097SOL    HW213191   2.950   3.715   4.068
 4098SOL     OW13192   0.338   2.686   2.202
 4098SOL    HW113193   0.398   2.620   2.158
 4098SOL    HW213194   0.350   2.776   2.160
 4099SOL     OW13195   2.953   6.311   1.644
 4099SOL    HW113196   2.903   6.288   1.728
 4099SOL    HW213197   2.889   6.315   1.567
 4100SOL     OW13198   3.644   6.410   3.096
 4100SOL    HW113199   3.670   6.322   3.135
 4100SOL    HW213200   3.628   6.400   2.998
 4101SOL     OW13201   4.425   1.173   6.940
 4101SOL    HW113202   4.383   1.222   7.016
 4101SOL    HW213203   4.384   1.203   6.853
 4102SOL     OW13204   5.434   1.194   0.481
 4102SOL    HW113205   5.524   1.229   0.453
 4102SOL    HW213206   5.439   1.094   0.489
 4103SOL     OW13207   0.081   0.334   2.067
 4103SOL    HW113208   0.035   0.275   2.001
 4103SOL    HW213209   0.180   0.329   2.053
 4104SOL     OW13210   1.589   4.877   2.602
 4104SOL    HW113211   1.525   4.827   2.659
 4104SOL    HW213212   1.670   4.821   2.586
 4105SOL     OW13213   5.422   5.239   0.385
 4105SOL    HW113214   5.343   5.206   0.335
 4105SOL    HW213215   5.503   5.235   0.327
 4106SOL     OW13216   0.396   3.924   4.982
 4106SOL    HW113217   0.348   4.011   4.990
 4106SOL    HW213218   0.330   3.850   4.976
 4107SOL     OW13219   6.965   1.068   0.885
 4107SOL    HW113220   7.003   0.990   0.836
 4107SOL    HW213221   6.981   1.058   0.983
 4108SOL     OW13222   6.636   3.173   5.020
 4108SOL    HW113223   6.630   3.093   4.961
 4108SOL    HW213224   6.696   3.241   4.978
 4109SOL     OW13225   2.760   6.346   3.397
 4109SOL    HW113226   2.835   6.354   3.463
 4109SOL    HW213227   2.689   6.412   3.419
 4110SOL     OW13228   4.214   3.333   5.172
 4110SOL    HW113229   4.301   3.322   5.221
 4110SOL    HW213230   4.157   3.252   5.186
 4111SOL     OW13231   4.460   3.404   6.513
 4111SOL    HW113232   4.448   3.440   6.420
 4111SOL    HW213233   4.552   3.426   6.546
 4112SOL     OW13234   3.628   0.817   4.395
 4112SOL    HW113235   3.590   0.754   4.462
 4112SOL    HW213236   3.714   0.781   4.360
 4113SOL     OW13237   3.921   5.680   4.711
 4113SOL    HW113238   3.883   5.598   4.754
 4113SOL    HW213239   3.928   5.666   4.613
 4114SOL     OW13240   3.316   2.110   2.723
 4114SOL    HW113241   3.236   2.057   2.696
 4114SOL    HW213242   3.330   2.186   2.659
 4115SOL     OW13243   5.535   5.008   2.275
 4115SOL    HW113244   5.465   5.039   2.339
 4115SOL    HW213245   5.500   4.930   2.223
 4116SOL     OW13246   3.349   1.165   2.313
 4116SOL    HW113247   3.421   1.157   2.382
 4116SOL    HW213248   3.271   1.216   2.351
 4117SOL     OW13249   0.933   5.549   1.801
 4117SOL    HW113250   0.933   5.555   1.901
 4117SOL    HW213251   0.876   5.472   1.772
 4118SOL     OW13252   2.534   6.794   0.873
 4118SOL    HW113253   2.474   6.805   0.952
 4118SOL    HW213254   2.514   6.866   0.806
 4119SOL     OW13255   4.817   0.993   3.658
 4119SOL    HW113256   4.876   1.027   3.585
 4119SOL    HW213257   4.827   0.894   3.666
 4120SOL     OW13258   3.930   0.956   2.328
 4120SOL    HW113259   3.991   1.031   2.302
 4120SOL    HW213260   3.847   0.993   2.371
 4121SOL     OW13261   6.942   3.093   4.847
 4121SOL    HW113262   6.876   3.024   4.876
 4121SOL    HW213263   6.908   3.184   4.869
 4122SOL     OW13264   1.628   5.870   6.654
 4122SOL    HW113265   1.628   5.826   6.565
 4122SOL    HW213266   1.705   5.934   6.660
 4123SOL     OW13267   4.739   4.472   6.111
 4123SOL    HW113268   4.835   4.499   6.118
 4123SOL    HW213269   4.680   4.550   6.131
 4124SOL     OW13270   4.660   6.339   3.888
 4124SOL    HW113271   4.749   6.295   3.898
 4124SOL    HW213272   4.672   6.430   3.847
 4125SOL     OW13273   5.137   0.960   1.099
 4125SOL    HW113274   5.157   1.048   1.055
 4125SOL    HW213275   5.053   0.922   1.061
 4126SOL     OW13276   2.061   5.073   4.679
 4126SOL    HW113277   1.982   5.122   4.641
 4126SOL    HW213278   2.034   5.025   4.762
 4127SOL     OW13279   6.138   4.124   4.936
 4127SOL    HW113280   6.172   4.209   4.977
 4127SOL    HW213281   6.043   4.135   4.909
 4128SOL     OW13282   1.105   1.902   2.069
 4128SOL    HW113283   1.012   1.888   2.035
 4128SOL    HW213284   1.123   2.000   2.078
 4129SOL     OW13285   5.812   2.231   6.095
 4129SOL    HW113286   5.772   2.169   6.163
 4129SOL    HW213287   5.813   2.186   6.006
 4130SOL     OW13288   5.961   3.273   1.213
 4130SOL    HW113289   5.987   3.288   1.118
 4130SOL    HW213290   5.864   3.251   1.219
 4131SOL     OW13291   6.522   3.974   3.427
 4131SOL    HW113292   6.497   4.036   3.353
 4131SOL    HW213293   6.609   4.003   3.468
 4132SOL     OW13294   5.128   2.165   4.413
 4132SOL    HW113295   5.055   2.207   4.467
 4132SOL    HW213296   5.090   2.093   4.355
 4133SOL     OW13297   2.610   2.103   1.351
 4133SOL    HW113298   2.596   2.202   1.356
 4133SOL    HW213299   2.663   2.073   1.431
 4134SOL     OW13300   1.266   1.828   6.858
 4134SOL    HW113301   1.321   1.758   6.902
 4134SOL    HW213302   1.246   1.901   6.924
 4135SOL     OW13303   1.408   0.590   1.179
 4135SOL    HW113304   1.425   0.510   1.121
 4135SOL    HW213305   1.325   0.636   1.148
 4136SOL     OW13306   0.917   1.506   3.471
 4136SOL    HW113307   0.906   1.424   3.415
 4136SOL    HW213308   1.014   1.522   3.489
 4137SOL     OW13309   3.807   3.857   5.250
 4137SOL    HW113310   3.879   3.905   5.200
 4137SOL    HW213311   3.845   3.774   5.290
 4138SOL     OW13312   3.954   5.435   2.765
 4138SOL    HW113313   4.004   5.380   2.832
 4138SOL    HW213314   3.856   5.424   2.780
 4139SOL     OW13315   1.955   0.789   0.362
 4139SOL    HW113316   1.954   0.698   0.321
 4139SOL    HW213317   2.010   0.851   0.305
 4140SOL     OW13318   4.694   1.599   5.418
 4140SOL    HW113319   4.655   1.690   5.403
 4140SOL    HW213320   4.644   1.553   5.492
 4141SOL     OW13321   5.691   5.541   0.652
 4141SOL    HW113322   5.643   5.541   0.740
 4141SOL    HW213323   5.747   5.458   0.645
 4142SOL     OW13324   6.637   2.776   1.638
 4142SOL    HW113325   6.545   2.742   1.618
 4142SOL    HW213326   6.675   2.726   1.716
 4143SOL     OW13327   0.695   2.261   1.701
 4143SOL    HW113328   0.629   2.254   1.776
 4143SOL    HW213329   0.714   2.169   1.665
 4144SOL     OW13330   4.680   0.661   2.144
 4144SOL    HW113331   4.602   0.719   2.119
 4144SOL    HW213332   4.660   0.614   2.230
 4145SOL     OW13333   3.327   0.148   2.701
 4145SOL    HW113334   3.290   0.215   2.637
 4145SOL    HW213335   3.281   0.060   2.687
 4146SOL     OW13336   5.081   5.607   0.079
 4146SOL    HW113337   4.990   5.567   0.082
 4146SOL    HW213338   5.117   5.616   0.171
 4147SOL     OW13339   2.984   2.419   5.711
 4147SOL    HW113340   2.926   2.396   5.634
 4147SOL    HW213341   3.041   2.499   5.688
 4148SOL     OW13342   5.832   0.133   2.837
 4148SOL    HW113343   5.761   0.091   2.779
 4148SOL    HW213344   5.869   0.064   2.899
 4149SOL     OW13345   5.415   4.518   1.496
 4149SOL    HW113346   5.362   4.530   1.581
 4149SOL    HW213347   5.409   4.601   1.442
 4150SOL     OW13348   4.754   0.703   5.853
 4150SOL    HW113349   4.810   0.654   5.921
 4150SOL    HW213350   4.801   0.787   5.825
 4151SOL     OW13351   0.476   5.602   0.584
 4151SOL    HW113352   0.442   5.511   0.608
 4151SOL    HW213353   0.423   5.639   0.507
 4152SOL     OW13354   3.689   4.328   1.295
 4152SOL    HW113355   3.693   4.368   1.387
 4152SOL    HW213356   3.617   4.259   1.293
 4153SOL     OW13357   6.066   5.415   6.052
 4153SOL    HW113358   6.084   5.434   6.149
 4153SOL    HW213359   5.980   5.365   6.044
 4154SOL     OW13360   4.528   2.907   5.577
 4154SOL    HW113361   4.561   2.980   5.516
 4154SOL    HW213362   4.521   2.822   5.526
 4155SOL     OW13363   1.643   3.205   1.011
 4155SOL    HW113364   1.738   3.230   0.994
 4155SOL    HW213365   1.613   3.248   1.096
 4156SOL     OW13366   6.376   0.190   5.404
 4156SOL    HW113367   6.394   0.126   5.478
 4156SOL    HW213368   6.304   0.154   5.345
 4157SOL     OW13369   3.275   0.573   4.132
 4157SOL    HW113370   3.183   0.576   4.094
 4157SOL    HW213371   3.276   0.617   4.222
 4158SOL     OW13372   0.547   0.326   4.200
 4158SOL    HW113373   0.604   0.279   4.267
 4158SOL    HW213374   0.459   0.278   4.191
 4159SOL     OW13375   0.570   3.478   5.475
 4159SOL    HW113376   0.590   3.506   5.569
 4159SOL    HW213377   0.594   3.382   5.463
 4160SOL     OW13378   1.452   1.142   0.744
 4160SOL    HW113379   1.493   1.061   0.787
 4160SOL    HW213380   1.444   1.127   0.645
 4161SOL     OW13381   6.058   1.867   0.242
 4161SOL    HW113382   6.017   1.954   0.267
 4161SOL    HW213383   6.003   1.792   0.280
 4162SOL     OW13384   0.030   6.723   4.871
 4162SOL    HW113385   7.023   6.628   4.873
 4162SOL    HW213386   0.118   6.729   4.918
 4163SOL     OW13387   6.240   0.910   4.370
 4163SOL    HW113388   6.308   0.841   4.396
 4163SOL    HW213389   6.156   0.864   4.341
 4164SOL     OW13390   2.708   6.791   6.407
 4164SOL    HW113391   2.675   6.874   6.453
 4164SOL    HW213392   2.640   6.718   6.418
 4165SOL     OW13393   2.779   5.907   2.654
 4165SOL    HW113394   2.730   5.882   2.738
 4165SOL    HW213395   2.716   5.904   2.576
 4166SOL     OW13396   5.916   2.598   1.242
 4166SOL    HW113397   5.934   2.692   1.213
 4166SOL    HW213398   5.818   2.578   1.235
 4167SOL     OW13399   2.467   3.150   1.287
 4167SOL    HW113400   2.385   3.136   1.342
 4167SOL    HW213401   2.520   3.225   1.326
 4168SOL     OW13402   1.376   4.544   0.962
 4168SOL    HW113403   1.307   4.613   0.983
 4168SOL    HW213404   1.430   4.525   1.044
 4169SOL     OW13405   6.131   3.693   4.606
 4169SOL    HW113406   6.082   3.710   4.691
 4169SOL    HW213407   6.079   3.629   4.550
 4170SOL     OW13408   4.216   2.221   5.248
 4170SOL    HW113409   4.229   2.315   5.216
 4170SOL    HW213410   4.119   2.196   5.237
 4171SOL     OW13411   5.406   3.513   1.318
 4171SOL    HW113412   5.410   3.419   1.284
 4171SOL    HW213413   5.363   3.514   1.408
 4172SOL     OW13414   2.666   1.019   6.981
 4172SOL    HW113415   2.631   1.103   6.941
 4172SOL    HW213416   2.619   0.940   6.942
 4173SOL     OW13417   5.680   3.472   5.384
 4173SOL    HW113418   5.761   3.444   5.435
 4173SOL    HW213419   5.704   3.543   5.318
 4174SOL     OW13420   5.329   0.563   4.340
 4174SOL    HW113421   5.304   0.470   4.312
 4174SOL    HW213422   5.401   0.597   4.279
 4175SOL     OW13423   3.604   1.602   3.506
 4175SOL    HW113424   3.576   1.642   3.593
 4175SOL    HW213425   3.571   1.659   3.431
 4176SOL     OW13426   6.134   5.480   3.045
 4176SOL    HW113427   6.217   5.463   3.099
 4176SOL    HW213428   6.150   5.558   2.985
 4177SOL     OW13429   6.525   4.952   2.868
 4177SOL    HW113430   6.593   4.918   2.932
 4177SOL    HW213431   6.461   5.012   2.916
 4178SOL     OW13432   3.892   3.073   5.994
 4178SOL    HW113433   3.986   3.039   5.992
 4178SOL    HW213434   3.870   3.101   6.087
 4179SOL     OW13435   6.372   2.804   6.463
 4179SOL    HW113436   6.280   2.769   6.447
 4179SOL    HW213437   6.413   2.757   6.541
 4180SOL     OW13438   4.303   3.563   1.649
 4180SOL    HW113439   4.240   3.576   1.726
 4180SOL    HW213440   4.298   3.643   1.588
 4181SOL     OW13441   6.801   1.304   0.516
 4181SOL    HW113442   6.870   1.372   0.491
 4181SOL    HW213443   6.799   1.293   0.615
 4182SOL     OW13444   5.453   1.058   3.720
 4182SOL    HW113445   5.406   1.085   3.804
 4182SOL    HW213446   5.551   1.048   3.738
 4183SOL     OW13447   1.804   2.019   1.306
 4183SOL    HW113448   1.818   1.937   1.361
 4183SOL    HW213449   1.890   2.049   1.266
 4184SOL     OW13450   3.798   5.166   6.841
 4184SOL    HW113451   3.875   5.157   6.778
 4184SOL    HW213452   3.832   5.179   6.934
 4185SOL     OW13453   6.873   6.497   4.119
 4185SOL    HW113454   6.963   6.540   4.110
 4185SOL    HW213455   6.871   6.412   4.066
 4186SOL     OW13456   3.667   4.258   1.777
 4186SOL    HW113457   3.568   4.256   1.771
 4186SOL    HW213458   3.700   4.171   1.813
 4187SOL     OW13459   4.263   4.979   6.608
 4187SOL    HW113460   4.250   4.912   6.681
 4187SOL    HW213461   4.360   5.001   6.600
 4188SOL     OW13462   5.388   6.464   4.571
 4188SOL    HW113463   5.379   6.556   4.608
 4188SOL    HW213464   5.299   6.431   4.539
 4189SOL     OW13465   2.007   3.385   3.414
 4189SOL    HW113466   1.919   3.339   3.426
 4189SOL    HW213467   1.994   3.484   3.421
 4190SOL     OW13468   2.990   7.011   1.666
 4190SOL    HW113469   2.925   6.958   1.719
 4190SOL    HW213470   2.974   6.996   1.568
 4191SOL     OW13471   0.632   2.758   1.886
 4191SOL    HW113472   0.668   2.762   1.793
 4191SOL    HW213473   0.555   2.822   1.894
 4192SOL     OW13474   5.875   0.988   2.722
 4192SOL    HW113475   5.780   0.955   2.723
 4192SOL    HW213476   5.892   1.045   2.801
 4193SOL     OW13477   1.979   6.583   2.698
 4193SOL    HW113478   2.026   6.655   2.646
 4193SOL    HW213479   1.932   6.522   2.635
 4194SOL     OW13480   6.547   1.152   3.758
 4194SOL    HW113481   6.482   1.085   3.722
 4194SOL    HW213482   6.625   1.105   3.798
 4195SOL     OW13483   5.280   1.037   3.071
 4195SOL    HW113484   5.378   1.058   3.065
 4195SOL    HW213485   5.268   0.952   3.123
 4196SOL     OW13486   4.277   2.287   3.466
 4196SOL    HW113487   4.243   2.196   3.488
 4196SOL    HW213488   4.254   2.309   3.371
 4197SOL     OW13489   4.814   3.930   4.513
 4197SOL    HW113490   4.891   3.992   4.534
 4197SOL    HW213491   4.832   3.841   4.554
 4198SOL     OW13492   5.621   4.280   6.095
 4198SOL    HW113493   5.567   4.228   6.029
 4198SOL    HW213494   5.681   4.217   6.146
 4199SOL     OW13495   3.119   3.690   5.190
 4199SOL    HW113496   3.024   3.659   5.185
 4199SOL    HW213497   3.177   3.629   5.137
 4200SOL     OW13498   2.437   0.146   6.009
 4200SOL    HW113499   2.466   0.154   6.105
 4200SOL    HW213500   2.347   0.188   5.998
 4201SOL     OW13501   5.955   6.659   4.555
 4201SOL    HW113502   6.029   6.684   4.617
 4201SOL    HW213503   5.867   6.675   4.600
 4202SOL     OW13504   5.739   3.686   4.968
 4202SOL    HW113505   5.781   3.632   5.041
 4202SOL    HW213506   5.642   3.664   4.962
 4203SOL     OW13507   4.807   5.277   4.061
 4203SOL    HW113508   4.872   5.318   4.126
 4203SOL    HW213509   4.714   5.305   4.084
 4204SOL     OW13510   2.071   4.361   0.760
 4204SOL    HW113511   2.126   4.379   0.842
 4204SOL    HW213512   2.131   4.343   0.683
 4205SOL     OW13513   2.923   5.802   3.190
 4205SOL    HW113514   3.018   5.807   3.222
 4205SOL    HW213515   2.922   5.787   3.092
 4206SOL     OW13516   5.483   6.515   4.112
 4206SOL    HW113517   5.474   6.609   4.145
 4206SOL    HW213518   5.553   6.468   4.164
 4207SOL     OW13519   0.765   0.660   0.676
 4207SOL    HW113520   0.754   0.745   0.624
 4207SOL    HW213521   0.844   0.609   0.641
 4208SOL     OW13522   0.879   2.662   0.385
 4208SOL    HW113523   0.856   2.759   0.392
 4208SOL    HW213524   0.824   2.620   0.313
 4209SOL     OW13525   2.805   0.790   5.070
 4209SOL    HW113526   2.755   0.718   5.119
 4209SOL    HW213527   2.870   0.747   5.007
 4210SOL     OW13528   4.766   2.541   0.037
 4210SOL    HW113529   4.714   2.592   0.104
 4210SOL    HW213530   4.704   2.489   7.003
 4211SOL     OW13531   5.367   3.751   3.787
 4211SOL    HW113532   5.274   3.769   3.818
 4211SOL    HW213533   5.395   3.658   3.813
 4212SOL     OW13534   6.443   6.521   2.631
 4212SOL    HW113535   6.397   6.591   2.686
 4212SOL    HW213536   6.542   6.535   2.635
 4213SOL     OW13537   0.898   6.953   1.506
 4213SOL    HW113538   0.843   6.871   1.488
 4213SOL    HW213539   0.852   7.011   1.573
 4214SOL     OW13540   2.716   5.144   4.974
 4214SOL    HW113541   2.662   5.070   4.935
 4214SOL    HW213542   2.735   5.125   5.070
 4215SOL     OW13543   1.001   5.727   5.624
 4215SOL    HW113544   0.931   5.676   5.674
 4215SOL    HW213545   1.002   5.822   5.655
 4216SOL     OW13546   2.777   2.932   5.350
 4216SOL    HW113547   2.689   2.885   5.355
 4216SOL    HW213548   2.811   2.931   5.256
 4217SOL     OW13549   0.039   0.968   3.235
 4217SOL    HW113550   7.024   0.883   3.201
 4217SOL    HW213551   7.018   1.046   3.192
 4218SOL     OW13552   2.998   6.297   2.046
 4218SOL    HW113553   3.030   6.385   2.011
 4218SOL    HW213554   3.060   6.225   2.016
 4219SOL     OW13555   5.020   0.069   3.001
 4219SOL    HW113556   4.971   0.007   3.062
 4219SOL    HW213557   5.040   0.154   3.049
 4220SOL     OW13558   0.867   3.990   3.326
 4220SOL    HW113559   0.962   4.020   3.331
 4220SOL    HW213560   0.822   4.004   3.415
 4221SOL     OW13561   5.620   6.194   5.811
 4221SOL    HW113562   5.579   6.255   5.744
 4221SOL    HW213563   5.552   6.172   5.882
 4222SOL     OW13564   3.134   2.826   6.880
 4222SOL    HW113565   3.120   2.924   6.864
 4222SOL    HW213566   3.068   2.794   6.949
 4223SOL     OW13567   3.017   3.218   2.536
 4223SOL    HW113568   2.962   3.296   2.509
 4223SOL    HW213569   3.111   3.247   2.551
 4224SOL     OW13570   3.867   1.985   5.708
 4224SOL    HW113571   3.816   2.031   5.636
 4224SOL    HW213572   3.900   2.052   5.774
 4225SOL     OW13573   5.425   0.302   4.260
 4225SOL    HW113574   5.507   0.347   4.227
 4225SOL    HW213575   5.450   0.227   4.322
 4226SOL     OW13576   1.659   1.312   3.334
 4226SOL    HW113577   1.719   1.367   3.275
 4226SOL    HW213578   1.585   1.273   3.280
 4227SOL     OW13579   5.706   3.762   0.040
 4227SOL    HW113580   5.670   3.776   6.972
 4227SOL    HW213581   5.803   3.740   0.036
 4228SOL     OW13582   5.540   5.482   3.270
 4228SOL    HW113583   5.628   5.471   3.224
 4228SOL    HW213584   5.478   5.410   3.240
 4229SOL     OW13585   4.481   4.943   5.350
 4229SOL    HW113586   4.511   5.032   5.386
 4229SOL    HW213587   4.402   4.911   5.402
 4230SOL     OW13588   3.154   0.266   5.070
 4230SOL    HW113589   3.167   0.177   5.027
 4230SOL    HW213590   3.239   0.294   5.115
 4231SOL     OW13591   3.744   6.686   5.656
 4231SOL    HW113592   3.791   6.760   5.703
 4231SOL    HW213593   3.716   6.616   5.723
 4232SOL     OW13594   2.417   4.335   1.529
 4232SOL    HW113595   2.501   4.304   1.572
 4232SOL    HW213596   2.436   4.413   1.469
 4233SOL     OW13597   5.568   6.598   1.155
 4233SOL    HW113598   5.575   6.635   1.062
 4233SOL    HW213599   5.659   6.569   1.186
 4234SOL     OW13600   3.089   3.837   5.447
 4234SOL    HW113601   3.090   3.935   5.424
 4234SOL    HW213602   3.083   3.783   5.364
 4235SOL     OW13603   0.458   4.047   5.299
 4235SOL    HW113604   0.489   4.028   5.207
 4235SOL    HW213605   0.388   4.119   5.297
 4236SOL     OW13606   0.862   3.768   4.871
 4236SOL    HW113607   0.948   3.764   4.820
 4236SOL    HW213608   0.824   3.860   4.863
 4237SOL     OW13609   5.653   4.674   5.549
 4237SOL    HW113610   5.674   4.595   5.491
 4237SOL    HW213611   5.708   4.670   5.632
 4238SOL     OW13612   4.732   4.193   4.548
 4238SOL    HW113613   4.743   4.094   4.556
 4238SOL    HW213614   4.716   4.232   4.639
 4239SOL     OW13615   5.526   5.854   5.595
 4239SOL    HW113616   5.507   5.760   5.622
 4239SOL    HW213617   5.458   5.914   5.638
 4240SOL     OW13618   2.669   4.912   6.392
 4240SOL    HW113619   2.575   4.942   6.374
 4240SOL    HW213620   2.733   4.972   6.343
 4241SOL     OW13621   4.315   1.457   0.321
 4241SOL    HW113622   4.238   1.518   0.336
 4241SOL    HW213623   4.393   1.487   0.377
 4242SOL     OW13624   1.319   0.537   2.402
 4242SOL    HW113625   1.285   0.457   2.452
 4242SOL    HW213626   1.258   0.556   2.325
 4243SOL     OW13627   1.603   2.618   2.873
 4243SOL    HW113628   1.702   2.615   2.886
 4243SOL    HW213629   1.564   2.695   2.923
 4244SOL     OW13630   3.396   0.203   0.901
 4244SOL    HW113631   3.316   0.161   0.944
 4244SOL    HW213632   3.475   0.195   0.963
 4245SOL     OW13633   6.657   1.822   1.032
 4245SOL    HW113634   6.616   1.771   1.108
 4245SOL    HW213635   6.610   1.799   0.947
 4246SOL     OW13636   4.852   2.709   3.742
 4246SOL    HW113637   4.828   2.683   3.836
 4246SOL    HW213638   4.952   2.717   3.734
 4247SOL     OW13639   1.877   4.790   6.739
 4247SOL    HW113640   1.881   4.885   6.769
 4247SOL    HW213641   1.942   4.776   6.664
 4248SOL     OW13642   2.343   0.763   3.460
 4248SOL    HW113643   2.360   0.857   3.489
 4248SOL    HW213644   2.245   0.749   3.445
 4249SOL     OW13645   5.911   0.472   6.192
 4249SOL    HW113646   5.886   0.463   6.288
 4249SOL    HW213647   5.933   0.568   6.172
 4250SOL     OW13648   6.996   6.169   4.779
 4250SOL    HW113649   6.988   6.154   4.878
 4250SOL    HW213650   0.062   6.143   4.748
 4251SOL     OW13651   4.591   2.405   5.511
 4251SOL    HW113652   4.539   2.335   5.462
 4251SOL    HW213653   4.660   2.362   5.569
 4252SOL     OW13654   0.141   0.103   6.767
 4252SOL    HW113655   0.059   0.159   6.758
 4252SOL    HW213656   0.115   0.008   6.785
 4253SOL     OW13657   4.251   6.471   2.712
 4253SOL    HW113658   4.334   6.432   2.751
 4253SOL    HW213659   4.266   6.489   2.614
 4254SOL     OW13660   1.374   2.204   6.320
 4254SOL    HW113661   1.305   2.132   6.311
 4254SOL    HW213662   1.428   2.208   6.236
 4255SOL     OW13663   1.224   2.812   2.924
 4255SOL    HW113664   1.313   2.832   2.885
 4255SOL    HW213665   1.236   2.758   3.008
 4256SOL     OW13666   6.389   5.982   0.997
 4256SOL    HW113667   6.300   5.938   1.010
 4256SOL    HW213668   6.411   5.984   0.900
 4257SOL     OW13669   6.250   0.733   3.456
 4257SOL    HW113670   6.182   0.686   3.401
 4257SOL    HW213671   6.332   0.749   3.401
 4258SOL     OW13672   2.978   5.802   0.800
 4258SOL    HW113673   3.000   5.823   0.895
 4258SOL    HW213674   2.966   5.888   0.749
 4259SOL     OW13675   1.266   0.216   0.536
 4259SOL    HW113676   1.326   0.193   0.613
 4259SOL    HW213677   1.320   0.232   0.454
 4260SOL     OW13678   6.144   0.369   4.736
 4260SOL    HW113679   6.163   0.449   4.793
 4260SOL    HW213680   6.216   0.301   4.749
 4261SOL     OW13681   2.118   6.361   4.208
 4261SOL    HW113682   2.122   6.456   4.177
 4261SOL    HW213683   2.023   6.335   4.225
 4262SOL     OW13684   1.866   5.101   5.463
 4262SOL    HW113685   1.770   5.090   5.487
 4262SOL    HW213686   1.877   5.096   5.363
 4263SOL     OW13687   2.773   1.665   3.172
 4263SOL    HW113688   2.716   1.709   3.242
 4263SOL    HW213689   2.868   1.690   3.186
 4264SOL     OW13690   4.411   2.105   5.901
 4264SOL    HW113691   4.376   2.050   5.977
 4264SOL    HW213692   4.341   2.111   5.830
 4265SOL     OW13693   2.747   6.230   6.414
 4265SOL    HW113694   2.660   6.256   6.456
 4265SOL    HW213695   2.813   6.304   6.427
 4266SOL     OW13696   1.062   5.275   1.878
 4266SOL    HW113697   1.129   5.339   1.915
 4266SOL    HW213698   1.086   5.253   1.783
 4267SOL     OW13699   1.059   3.623   4.169
 4267SOL    HW113700   1.059   3.572   4.255
 4267SOL    HW213701   0.971   3.608   4.122
 4268SOL     OW13702   1.331   4.416   5.982
 4268SOL    HW113703   1.380   4.366   5.910
 4268SOL    HW213704   1.364   4.510   5.985
 4269SOL     OW13705   2.993   1.281   4.413
 4269SOL    HW113706   2.997   1.380   4.399
 4269SOL    HW213707   2.950   1.261   4.501
 4270SOL     OW13708   4.226   4.158   0.309
 4270SOL    HW113709   4.252   4.232   0.371
 4270SOL    HW213710   4.208   4.196   0.218
 4271SOL     OW13711   6.818   0.420   1.071
 4271SOL    HW113712   6.720   0.427   1.053
 4271SOL    HW213713   6.859   0.511   1.066
 4272SOL     OW13714   0.134   1.763   5.943
 4272SOL    HW113715   0.175   1.746   5.854
 4272SOL    HW213716   0.206   1.776   6.012
 4273SOL     OW13717   2.829   6.109   3.798
 4273SOL    HW113718   2.856   6.116   3.702
 4273SOL    HW213719   2.746   6.162   3.814
 4274SOL     OW13720   0.662   1.241   2.253
 4274SOL    HW113721   0.585   1.253   2.316
 4274SOL    HW213722   0.686   1.330   2.213
 4275SOL     OW13723   6.982   2.215   3.969
 4275SOL    HW113724   6.926   2.226   3.886
 4275SOL    HW213725   6.926   2.235   4.049
 4276SOL     OW13726   1.141   6.807   2.594
 4276SOL    HW113727   1.234   6.771   2.597
 4276SOL    HW213728   1.133   6.873   2.520
 4277SOL     OW13729   6.657   5.259   3.173
 4277SOL    HW113730   6.717   5.260   3.093
 4277SOL    HW213731   6.710   5.279   3.255
 4278SOL     OW13732   0.670   6.879   1.063
 4278SOL    HW113733   0.587   6.861   1.116
 4278SOL    HW213734   0.743   6.907   1.124
 4279SOL     OW13735   0.836   2.266   3.415
 4279SOL    HW113736   0.797   2.223   3.333
 4279SOL    HW213737   0.823   2.365   3.410
 4280SOL     OW13738   1.599   6.427   6.718
 4280SOL    HW113739   1.510   6.410   6.761
 4280SOL    HW213740   1.597   6.515   6.670
 4281SOL     OW13741   6.391   6.031   3.435
 4281SOL    HW113742   6.487   6.026   3.406
 4281SOL    HW213743   6.364   6.126   3.444
 4282SOL     OW13744   5.339   5.346   2.212
 4282SOL    HW113745   5.264   5.382   2.156
 4282SOL    HW213746   5.363   5.254   2.182
 4283SOL     OW13747   6.026   1.213   4.790
 4283SOL    HW113748   5.927   1.213   4.787
 4283SOL    HW213749   6.062   1.287   4.733
 4284SOL     OW13750   4.949   6.047   6.668
 4284SOL    HW113751   4.933   5.966   6.611
 4284SOL    HW213752   4.862   6.087   6.694
 4285SOL     OW13753   3.067   1.653   6.423
 4285SOL    HW113754   3.026   1.609   6.343
 4285SOL    HW213755   3.165   1.665   6.407
 4286SOL     OW13756   5.422   6.786   6.922
 4286SOL    HW113757   5.333   6.828   6.936
 4286SOL    HW213758   5.442   6.724   6.999
 4287SOL     OW13759   3.109   0.841   1.378
 4287SOL    HW113760   3.080   0.930   1.410
 4287SOL    HW213761   3.193   0.814   1.425
 4288SOL     OW13762   6.932   5.862   1.846
 4288SOL    HW113763   6.907   5.787   1.907
 4288SOL    HW213764   6.949   5.826   1.754
 4289SOL     OW13765   0.131   4.529   5.096
 4289SOL    HW113766   0.159   4.533   5.000
 4289SOL    HW213767   0.085   4.442   5.113
 4290SOL     OW13768   6.787   1.741   3.507
 4290SOL    HW113769   6.716   1.688   3.554
 4290SOL    HW213770   6.833   1.683   3.439
 4291SOL     OW13771   4.186   4.706   6.720
 4291SOL    HW113772   4.101   4.754   6.742
 4291SOL    HW213773   4.228   4.671   6.804
 4292SOL     OW13774   6.303   0.771   1.792
 4292SOL    HW113775   6.401   0.791   1.786
 4292SOL    HW213776   6.289   0.687   1.845
 4293SOL     OW13777   3.618   2.911   0.087
 4293SOL    HW113778   3.522   2.888   0.068
 4293SOL    HW213779   3.634   3.007   0.063
 4294SOL     OW13780   3.048   1.909   6.526
 4294SOL    HW113781   2.953   1.939   6.541
 4294SOL    HW213782   3.051   1.810   6.518
 4295SOL     OW13783   4.812   6.289   2.926
 4295SOL    HW113784   4.815   6.310   3.023
 4295SOL    HW213785   4.747   6.215   2.909
 4296SOL     OW13786   2.227   6.399   2.189
 4296SOL    HW113787   2.323   6.414   2.165
 4296SOL    HW213788   2.175   6.483   2.170
 4297SOL     OW13789   4.866   5.037   0.136
 4297SOL    HW113790   4.782   5.045   0.082
 4297SOL    HW213791   4.932   4.980   0.087
 4298SOL     OW13792   1.421   0.176   0.740
 4298SOL    HW113793   1.350   0.144   0.802
 4298SOL    HW213794   1.510   0.166   0.784
 4299SOL     OW13795   0.764   3.154   6.379
 4299SOL    HW113796   0.788   3.251   6.375
 4299SOL    HW213797   0.714   3.129   6.296
 4300SOL     OW13798   3.296   0.542   2.149
 4300SOL    HW113799   3.322   0.485   2.227
 4300SOL    HW213800   3.345   0.629   2.154
 4301SOL     OW13801   2.180   5.997   5.567
 4301SOL    HW113802   2.122   5.915   5.562
 4301SOL    HW213803   2.274   5.973   5.542
 4302SOL     OW13804   3.554   5.000   6.354
 4302SOL    HW113805   3.540   5.045   6.442
 4302SOL    HW213806   3.535   5.064   6.280
 4303SOL     OW13807   4.340   5.506   3.692
 4303SOL    HW113808   4.424   5.557   3.679
 4303SOL    HW213809   4.341   5.425   3.634
 4304SOL     OW13810   3.052   3.955   1.827
 4304SOL    HW113811   2.979   3.887   1.835
 4304SOL    HW213812   3.018   4.034   1.776
 4305SOL     OW13813   0.795   6.171   6.015
 4305SOL    HW113814   0.793   6.100   5.945
 4305SOL    HW213815   0.778   6.260   5.973
 4306SOL     OW13816   5.969   3.301   4.994
 4306SOL    HW113817   5.987   3.374   5.059
 4306SOL    HW213818   5.959   3.340   4.902
 4307SOL     OW13819   6.780   1.290   5.396
 4307SOL    HW113820   6.738   1.333   5.476
 4307SOL    HW213821   6.808   1.361   5.331
 4308SOL     OW13822   4.095   5.552   6.401
 4308SOL    HW113823   4.054   5.612   6.332
 4308SOL    HW213824   4.193   5.569   6.404
 4309SOL     OW13825   2.328   1.842   0.756
 4309SOL    HW113826   2.243   1.820   0.708
 4309SOL    HW213827   2.393   1.883   0.692
 4310SOL     OW13828   6.303   1.922   3.391
 4310SOL    HW113829   6.291   1.823   3.388
 4310SOL    HW213830   6.219   1.965   3.423
 4311SOL     OW13831   0.524   7.022   1.344
 4311SOL    HW113832   0.610   0.046   1.358
 4311SOL    HW213833   0.482   0.028   1.259
 4312SOL     OW13834   0.113   3.856   2.205
 4312SOL    HW113835   0.026   3.904   2.213
 4312SOL    HW213836   0.119   3.812   2.115
 4313SOL     OW13837   1.089   3.791   0.172
 4313SOL    HW113838   1.164   3.772   0.235
 4313SOL    HW213839   1.029   3.712   0.167
 4314SOL     OW13840   1.709   1.388   5.344
 4314SOL    HW113841   1.735   1.450   5.270
 4314SOL    HW213842   1.786   1.376   5.406
 4315SOL     OW13843   2.325   2.236   5.391
 4315SOL    HW113844   2.328   2.142   5.424
 4315SOL    HW213845   2.412   2.259   5.347
 4316SOL     OW13846   4.262   5.638   2.015
 4316SOL    HW113847   4.266   5.738   2.021
 4316SOL    HW213848   4.181   5.605   2.064
 4317SOL     OW13849   5.357   0.710   4.972
 4317SOL    HW113850   5.438   0.662   4.939
 4317SOL    HW213851   5.275   0.666   4.936
 4318SOL     OW13852   1.558   6.138   4.246
 4318SOL    HW113853   1.553   6.206   4.173
 4318SOL    HW213854   1.495   6.063   4.226
 4319SOL     OW13855   1.163   4.047   2.629
 4319SOL    HW113856   1.113   4.035   2.544
 4319SOL    HW213857   1.251   3.999   2.624
 4320SOL     OW13858   3.645   6.974   0.986
 4320SOL    HW113859   3.644   0.033   1.040
 4320SOL    HW213860   3.718   6.914   1.019
 4321SOL     OW13861   0.086   5.829   3.278
 4321SOL    HW113862   0.016   5.825   3.206
 4321SOL    HW213863   0.169   5.870   3.241
 4322SOL     OW13864   2.374   2.197   3.873
 4322SOL    HW113865   2.294   2.233   3.920
 4322SOL    HW213866   2.367   2.097   3.868
 4323SOL     OW13867   4.684   4.826   0.776
 4323SOL    HW113868   4.668   4.746   0.833
 4323SOL    HW213869   4.607   4.837   0.713
 4324SOL     OW13870   0.301   4.402   6.071
 4324SOL    HW113871   0.278   4.305   6.078
 4324SOL    HW213872   0.366   4.426   6.143
 4325SOL     OW13873   1.373   0.020   1.295
 4325SOL    HW113874   1.409   0.100   1.343
 4325SOL    HW213875   1.388   6.962   1.350
 4326SOL     OW13876   4.892   2.665   2.476
 4326SOL    HW113877   4.895   2.637   2.572
 4326SOL    HW213878   4.834   2.745   2.466
 4327SOL     OW13879   2.587   6.279   3.771
 4327SOL    HW113880   2.581   6.379   3.771
 4327SOL    HW213881   2.584   6.245   3.677
 4328SOL     OW13882   5.744   0.268   3.287
 4328SOL    HW113883   5.699   0.180   3.299
 4328SOL    HW213884   5.841   0.253   3.267
 4329SOL     OW13885   6.226   3.881   6.957
 4329SOL    HW113886   6.260   3.860   0.024
 4329SOL    HW213887   6.274   3.961   6.921
 4330SOL     OW13888   2.408   4.726   4.342
 4330SOL    HW113889   2.375   4.726   4.437
 4330SOL    HW213890   2.375   4.809   4.297
 4331SOL     OW13891   5.747   1.744   2.327
 4331SOL    HW113892   5.763   1.836   2.292
 4331SOL    HW213893   5.776   1.740   2.423
 4332SOL     OW13894   6.970   5.671   1.289
 4332SOL    HW113895   6.873   5.650   1.281
 4332SOL    HW213896   6.988   5.763   1.256
 4333SOL     OW13897   3.929   2.798   6.221
 4333SOL    HW113898   4.013   2.815   6.169
 4333SOL    HW213899   3.853   2.786   6.157
 4334SOL     OW13900   0.034   2.979   4.018
 4334SOL    HW113901   0.013   3.074   3.995
 4334SOL    HW213902   0.133   2.966   4.020
 4335SOL     OW13903   2.614   4.281   1.740
 4335SOL    HW113904   2.517   4.262   1.758
 4335SOL    HW213905   2.662   4.195   1.721
 4336SOL     OW13906   2.748   5.361   5.504
 4336SOL    HW113907   2.801   5.312   5.574
 4336SOL    HW213908   2.797   5.357   5.417
 4337SOL     OW13909   6.915   4.471   3.638
 4337SOL    HW113910   6.824   4.499   3.667
 4337SOL    HW213911   6.966   4.552   3.607
 4338SOL     OW13912   3.031   2.466   6.420
 4338SOL    HW113913   3.028   2.509   6.330
 4338SOL    HW213914   2.937   2.456   6.455
 4339SOL     OW13915   4.146   4.841   5.110
 4339SOL    HW113916   4.225   4.818   5.166
 4339SOL    HW213917   4.161   4.812   5.016
 4340SOL     OW13918   0.137   4.195   1.460
 4340SOL    HW113919   0.058   4.147   1.423
 4340SOL    HW213920   0.206   4.205   1.389
 4341SOL     OW13921   6.120   5.771   1.465
 4341SOL    HW113922   6.206   5.764   1.414
 4341SOL    HW213923   6.092   5.867   1.472
 4342SOL     OW13924   5.381   3.200   2.463
 4342SOL    HW113925   5.295   3.150   2.468
 4342SOL    HW213926   5.397   3.248   2.550
 4343SOL     OW13927   3.680   0.489   6.303
 4343SOL    HW113928   3.684   0.412   6.366
 4343SOL    HW213929   3.703   0.458   6.211
 4344SOL     OW13930   0.823   3.708   2.812
 4344SOL    HW113931   0.901   3.761   2.847
 4344SOL    HW213932   0.818   3.620   2.859
 4345SOL     OW13933   3.826   3.790   2.801
 4345SOL    HW113934   3.829   3.805   2.703
 4345SOL    HW213935   3.880   3.710   2.825
 4346SOL     OW13936   0.905   2.985   2.670
 4346SOL    HW113937   0.990   3.007   2.624
 4346SOL    HW213938   0.855   2.917   2.617
 4347SOL     OW13939   6.393   5.207   0.602
 4347SOL    HW113940   6.340   5.157   0.534
 4347SOL    HW213941   6.481   5.236   0.562
 4348SOL     OW13942   5.960   4.904   5.692
 4348SOL    HW113943   5.889   4.870   5.753
 4348SOL    HW213944   6.035   4.944   5.745
 4349SOL     OW13945   0.659   3.463   4.195
 4349SOL    HW113946   0.573   3.427   4.158
 4349SOL    HW213947   0.689   3.542   4.142
 4350SOL     OW13948   4.459   1.031   4.175
 4350SOL    HW113949   4.375   0.978   4.167
 4350SOL    HW213950   4.518   1.014   4.096
 4351SOL     OW13951   0.015   5.859   1.082
 4351SOL    HW113952   0.013   5.935   1.017
 4351SOL    HW213953   0.108   5.850   1.119
 4352SOL     OW13954   3.588   5.000   1.843
 4352SOL    HW113955   3.601   4.901   1.836
 4352SOL    HW213956   3.613   5.030   1.934
 4353SOL     OW13957   2.886   3.839   0.486
 4353SOL    HW113958   2.828   3.780   0.543
 4353SOL    HW213959   2.982   3.827   0.513
 4354SOL     OW13960   5.690   5.794   2.380
 4354SOL    HW113961   5.775   5.810   2.329
 4354SOL    HW213962   5.623   5.751   2.319
 4355SOL     OW13963   2.339   4.907   3.086
 4355SOL    HW113964   2.365   5.003   3.094
 4355SOL    HW213965   2.328   4.882   2.990
 4356SOL     OW13966   6.019   2.945   5.281
 4356SOL    HW113967   5.995   3.042   5.278
 4356SOL    HW213968   6.091   2.927   5.214
 4357SOL     OW13969   5.613   6.487   2.393
 4357SOL    HW113970   5.636   6.519   2.485
 4357SOL    HW213971   5.522   6.446   2.394
 4358SOL     OW13972   2.656   1.282   0.360
 4358SOL    HW113973   2.715   1.247   0.287
 4358SOL    HW213974   2.658   1.382   0.358
 4359SOL     OW13975   2.360   2.182   1.534
 4359SOL    HW113976   2.418   2.104   1.511
 4359SOL    HW213977   2.362   2.196   1.633
 4360SOL     OW13978   2.419   5.529   4.017
 4360SOL    HW113979   2.360   5.544   3.937
 4360SOL    HW213980   2.433   5.616   4.065
 4361SOL     OW13981   1.062   1.815   0.402
 4361SOL    HW113982   1.066   1.839   0.499
 4361SOL    HW213983   1.020   1.890   0.351
 4362SOL     OW13984   1.400   5.050   3.163
 4362SOL    HW113985   1.496   5.063   3.140
 4362SOL    HW213986   1.390   4.967   3.219
 4363SOL     OW13987   3.666   0.758   1.925
 4363SOL    HW113988   3.600   0.686   1.903
 4363SOL    HW213989   3.709   0.738   2.013
 4364SOL     OW13990   2.965   3.556   2.688
 4364SOL    HW113991   2.893   3.560   2.618
 4364SOL    HW213992   2.948   3.626   2.757
 4365SOL     OW13993   2.203   1.099   1.097
 4365SOL    HW113994   2.227   1.151   1.015
 4365SOL    HW213995   2.103   1.092   1.103
 4366SOL     OW13996   4.896   6.091   4.581
 4366SOL    HW113997   4.929   6.066   4.489
 4366SOL    HW213998   4.851   6.180   4.576
 4367SOL     OW13999   2.420   6.038   2.326
 4367SOL    HW114000   2.424   6.038   2.226
 4367SOL    HW214001   2.330   6.066   2.356
 4368SOL     OW14002   4.921   3.795   4.203
 4368SOL    HW114003   4.990   3.867   4.205
 4368SOL    HW214004   4.869   3.801   4.118
 4369SOL     OW14005   5.580   4.120   3.375
 4369SOL    HW114006   5.633   4.081   3.451
 4369SOL    HW214007   5.594   4.219   3.372
 4370SOL     OW14008   4.162   5.008   0.703
 4370SOL    HW114009   4.164   4.927   0.761
 4370SOL    HW214010   4.073   5.053   0.712
 4371SOL     OW14011   3.434   1.038   2.832
 4371SOL    HW114012   3.348   0.987   2.820
 4371SOL    HW214013   3.509   0.974   2.842
 4372SOL     OW14014   1.537   4.749   4.385
 4372SOL    HW114015   1.590   4.665   4.377
 4372SOL    HW214016   1.527   4.774   4.481
 4373SOL     OW14017   4.501   0.857   0.430
 4373SOL    HW114018   4.469   0.778   0.483
 4373SOL    HW214019   4.549   0.825   0.348
 4374SOL     OW14020   2.600   6.833   0.454
 4374SOL    HW114021   2.564   6.760   0.512
 4374SOL    HW214022   2.637   6.795   0.370
 4375SOL     OW14023   3.852   1.532   5.658
 4375SOL    HW114024   3.947   1.504   5.664
 4375SOL    HW214025   3.816   1.551   5.750
 4376SOL     OW14026   2.242   5.618   0.228
 4376SOL    HW114027   2.181   5.542   0.207
 4376SOL    HW214028   2.321   5.615   0.167
 4377SOL     OW14029   5.114   5.763   6.869
 4377SOL    HW114030   5.124   5.690   6.937
 4377SOL    HW214031   5.110   5.852   6.916
 4378SOL     OW14032   2.974   4.829   2.609
 4378SOL    HW114033   2.924   4.796   2.689
 4378SOL    HW214034   3.069   4.847   2.635
 4379SOL     OW14035   0.264   6.783   1.457
 4379SOL    HW114036   0.321   6.731   1.393
 4379SOL    HW214037   0.193   6.723   1.494
 4380SOL     OW14038   1.879   5.533   4.197
 4380SOL    HW114039   1.963   5.585   4.181
 4380SOL    HW214040   1.800   5.590   4.177
 4381SOL     OW14041   4.730   5.777   5.418
 4381SOL    HW114042   4.648   5.732   5.381
 4381SOL    HW214043   4.706   5.868   5.451
 4382SOL     OW14044   5.360   3.814   2.952
 4382SOL    HW114045   5.387   3.896   2.901
 4382SOL    HW214046   5.264   3.794   2.933
 4383SOL     OW14047   1.270   1.603   0.571
 4383SOL    HW114048   1.232   1.627   0.481
 4383SOL    HW214049   1.353   1.548   0.559
 4384SOL     OW14050   4.016   6.438   1.533
 4384SOL    HW114051   4.026   6.536   1.549
 4384SOL    HW214052   3.976   6.422   1.443
 4385SOL     OW14053   5.942   2.631   2.456
 4385SOL    HW114054   5.966   2.582   2.540
 4385SOL    HW214055   6.021   2.631   2.394
 4386SOL     OW14056   1.988   3.859   6.642
 4386SOL    HW114057   1.976   3.834   6.738
 4386SOL    HW214058   2.019   3.954   6.635
 4387SOL     OW14059   6.839   2.442   1.752
 4387SOL    HW114060   6.762   2.439   1.688
 4387SOL    HW214061   6.865   2.349   1.777
 4388SOL     OW14062   3.194   2.016   5.832
 4388SOL    HW114063   3.255   2.025   5.910
 4388SOL    HW214064   3.217   2.085   5.763
 4389SOL     OW14065   6.167   2.248   2.526
 4389SOL    HW114066   6.241   2.250   2.458
 4389SOL    HW214067   6.198   2.294   2.610
 4390SOL     OW14068   4.104   2.594   1.326
 4390SOL    HW114069   4.097   2.653   1.246
 4390SOL    HW214070   4.115   2.650   1.408
 4391SOL     OW14071   0.121   6.403   0.288
 4391SOL    HW114072   0.124   6.388   0.387
 4391SOL    HW214073   0.087   6.495   0.269
 4392SOL     OW14074   5.459   4.263   4.932
 4392SOL    HW114075   5.386   4.311   4.980
 4392SOL    HW214076   5.455   4.165   4.954
 4393SOL     OW14077   5.442   6.246   3.298
 4393SOL    HW114078   5.472   6.314   3.365
 4393SOL    HW214079   5.373   6.287   3.238
 4394SOL     OW14080   4.598   1.044   2.495
 4394SOL    HW114081   4.519   1.030   2.436
 4394SOL    HW214082   4.649   0.958   2.504
 4395SOL     OW14083   5.487   1.564   1.335
 4395SOL    HW114084   5.525   1.511   1.259
 4395SOL    HW214085   5.423   1.507   1.387
 4396SOL     OW14086   1.482   1.184   3.815
 4396SOL    HW114087   1.534   1.217   3.736
 4396SOL    HW214088   1.539   1.118   3.866
 4397SOL     OW14089   5.499   0.097   6.034
 4397SOL    HW114090   5.530   0.052   6.118
 4397SOL    HW214091   5.475   0.028   5.966
 4398SOL     OW14092   0.446   5.620   4.347
 4398SOL    HW114093   0.473   5.531   4.310
 4398SOL    HW214094   0.452   5.618   4.447
 4399SOL     OW14095   3.005   1.079   2.327
 4399SOL    HW114096   3.052   1.158   2.286
 4399SOL    HW214097   2.991   1.096   2.425
 4400SOL     OW14098   3.953   6.001   3.353
 4400SOL    HW114099   3.928   6.092   3.318
 4400SOL    HW214100   3.895   5.979   3.432
 4401SOL     OW14101   5.672   5.830   4.737
 4401SOL    HW114102   5.634   5.865   4.823
 4401SOL    HW214103   5.662   5.731   4.734
 4402SOL     OW14104   6.914   6.262   2.652
 4402SOL    HW114105   6.860   6.303   2.726
 4402SOL    HW214106   6.886   6.166   2.640
 4403SOL     OW14107   0.184   1.002   2.828
 4403SOL    HW114108   0.104   0.942   2.838
 4403SOL    HW214109   0.263   0.947   2.801
 4404SOL     OW14110   2.167   4.694   2.743
 4404SOL    HW114111   2.082   4.732   2.780
 4404SOL    HW214112   2.242   4.759   2.759
 4405SOL     OW14113   2.728   3.899   5.778
 4405SOL    HW114114   2.759   3.988   5.746
 4405SOL    HW214115   2.745   3.890   5.876
 4406SOL     OW14116   5.660   3.165   1.764
 4406SOL    HW114117   5.718   3.245   1.750
 4406SOL    HW214118   5.680   3.125   1.853
 4407SOL     OW14119   6.719   0.659   6.836
 4407SOL    HW114120   6.672   0.572   6.850
 4407SOL    HW214121   6.788   0.672   6.907
 4408SOL     OW14122   4.221   6.455   0.878
 4408SOL    HW114123   4.121   6.451   0.879
 4408SOL    HW214124   4.257   6.418   0.964
 4409SOL     OW14125   2.750   1.574   2.925
 4409SOL    HW114126   2.816   1.499   2.928
 4409SOL    HW214127   2.734   1.608   3.018
 4410SOL     OW14128   2.012   5.652   1.409
 4410SOL    HW114129   2.060   5.739   1.417
 4410SOL    HW214130   1.914   5.668   1.397
 4411SOL     OW14131   3.842   3.699   2.524
 4411SOL    HW114132   3.832   3.605   2.557
 4411SOL    HW214133   3.939   3.724   2.523
 4412SOL     OW14134   3.403   1.560   5.922
 4412SOL    HW114135   3.381   1.619   5.844
 4412SOL    HW214136   3.361   1.470   5.908
 4413SOL     OW14137   4.702   5.204   3.656
 4413SOL    HW114138   4.654   5.135   3.601
 4413SOL    HW214139   4.737   5.162   3.739
 4414SOL     OW14140   3.502   5.505   1.520
 4414SOL    HW114141   3.534   5.459   1.437
 4414SOL    HW214142   3.448   5.441   1.575
 4415SOL     OW14143   4.623   1.453   1.059
 4415SOL    HW114144   4.658   1.398   0.984
 4415SOL    HW214145   4.630   1.550   1.036
 4416SOL     OW14146   2.593   1.921   4.857
 4416SOL    HW114147   2.576   2.019   4.845
 4416SOL    HW214148   2.511   1.877   4.893
 4417SOL     OW14149   6.123   0.183   1.211
 4417SOL    HW114150   6.172   0.123   1.274
 4417SOL    HW214151   6.049   0.229   1.260
 4418SOL     OW14152   4.823   1.248   3.807
 4418SOL    HW114153   4.826   1.234   3.906
 4418SOL    HW214154   4.807   1.161   3.761
 4419SOL     OW14155   6.576   5.395   6.430
 4419SOL    HW114156   6.658   5.393   6.488
 4419SOL    HW214157   6.592   5.458   6.354
 4420SOL     OW14158   4.227   0.890   0.264
 4420SOL    HW114159   4.209   0.871   0.167
 4420SOL    HW214160   4.263   0.983   0.274
 4421SOL     OW14161   0.637   1.653   3.607
 4421SOL    HW114162   0.638   1.564   3.561
 4421SOL    HW214163   0.687   1.647   3.693
 4422SOL     OW14164   1.913   4.767   6.048
 4422SOL    HW114165   1.926   4.838   6.118
 4422SOL    HW214166   1.888   4.811   5.962
 4423SOL     OW14167   0.230   1.400   6.435
 4423SOL    HW114168   0.228   1.494   6.470
 4423SOL    HW214169   0.144   1.381   6.387
 4424SOL     OW14170   0.759   5.985   3.548
 4424SOL    HW114171   0.850   6.025   3.535
 4424SOL    HW214172   0.693   6.058   3.565
 4425SOL     OW14173   5.187   4.457   0.589
 4425SOL    HW114174   5.237   4.493   0.510
 4425SOL    HW214175   5.194   4.522   0.665
 4426SOL     OW14176   0.674   0.590   5.944
 4426SOL    HW114177   0.691   0.614   6.040
 4426SOL    HW214178   0.737   0.518   5.915
 4427SOL     OW14179   0.978   6.008   3.770
 4427SOL    HW114180   0.967   6.060   3.685
 4427SOL    HW214181   1.029   6.064   3.836
 4428SOL     OW14182   1.813   6.820   3.357
 4428SOL    HW114183   1.738   6.796   3.419
 4428SOL    HW214184   1.830   6.744   3.295
 4429SOL     OW14185   3.570   0.306   3.084
 4429SOL    HW114186   3.595   0.369   3.157
 4429SOL    HW214187   3.508   0.236   3.120
 4430SOL     OW14188   1.386   0.472   1.855
 4430SOL    HW114189   1.399   0.543   1.924
 4430SOL    HW214190   1.293   0.478   1.819
 4431SOL     OW14191   2.721   2.068   3.211
 4431SOL    HW114192   2.767   2.016   3.139
 4431SOL    HW214193   2.789   2.106   3.273
 4432SOL     OW14194   3.059   3.081   3.669
 4432SOL    HW114195   2.985   3.080   3.601
 4432SOL    HW214196   3.113   3.165   3.659
 4433SOL     OW14197   6.541   0.205   2.966
 4433SOL    HW114198   6.528   0.154   3.051
 4433SOL    HW214199   6.619   0.266   2.976
 4434SOL     OW14200   4.680   1.995   4.733
 4434SOL    HW114201   4.690   2.090   4.701
 4434SOL    HW214202   4.696   1.991   4.831
 4435SOL     OW14203   3.995   3.244   2.134
 4435SOL    HW114204   3.915   3.303   2.125
 4435SOL    HW214205   3.968   3.149   2.118
 4436SOL     OW14206   5.228   0.130   0.759
 4436SOL    HW114207   5.328   0.121   0.762
 4436SOL    HW214208   5.198   0.193   0.830
 4437SOL     OW14209   3.423   0.283   5.091
 4437SOL    HW114210   3.491   0.262   5.162
 4437SOL    HW214211   3.448   0.236   5.006
 4438SOL     OW14212   4.173   3.529   6.550
 4438SOL    HW114213   4.263   3.489   6.534
 4438SOL    HW214214   4.172   3.622   6.514
 4439SOL     OW14215   2.243   4.805   2.318
 4439SOL    HW114216   2.335   4.842   2.326
 4439SOL    HW214217   2.226   4.777   2.224
 4440SOL     OW14218   6.341   1.084   0.261
 4440SOL    HW114219   6.291   1.125   0.184
 4440SOL    HW214220   6.437   1.073   0.236
 4441SOL     OW14221   6.156   1.004   3.324
 4441SOL    HW114222   6.246   0.966   3.340
 4441SOL    HW214223   6.164   1.100   3.298
 4442SOL     OW14224   1.577   5.737   1.764
 4442SOL    HW114225   1.533   5.727   1.853
 4442SOL    HW214226   1.511   5.776   1.698
 4443SOL     OW14227   2.509   1.390   6.739
 4443SOL    HW114228   2.455   1.460   6.693
 4443SOL    HW214229   2.588   1.432   6.783
 4444SOL     OW14230   4.864   1.198   3.094
 4444SOL    HW114231   4.846   1.282   3.043
 4444SOL    HW214232   4.799   1.127   3.066
 4445SOL     OW14233   1.103   0.668   6.433
 4445SOL    HW114234   1.138   0.677   6.339
 4445SOL    HW214235   1.033   0.737   6.449
 4446SOL     OW14236   5.106   4.683   3.666
 4446SOL    HW114237   5.019   4.704   3.710
 4446SOL    HW214238   5.171   4.757   3.682
 4447SOL     OW14239   4.924   2.761   5.054
 4447SOL    HW114240   5.009   2.814   5.048
 4447SOL    HW214241   4.938   2.681   5.112
 4448SOL     OW14242   2.004   3.439   6.699
 4448SOL    HW114243   1.954   3.391   6.627
 4448SOL    HW214244   2.102   3.434   6.680
 4449SOL     OW14245   0.241   1.478   5.367
 4449SOL    HW114246   0.327   1.516   5.332
 4449SOL    HW214247   0.165   1.538   5.342
 4450SOL     OW14248   3.618   3.568   2.384
 4450SOL    HW114249   3.660   3.496   2.439
 4450SOL    HW214250   3.575   3.635   2.445
 4451SOL     OW14251   6.994   4.069   1.215
 4451SOL    HW114252   6.977   3.975   1.244
 4451SOL    HW214253   6.955   4.083   1.124
 4452SOL     OW14254   6.375   3.774   6.234
 4452SOL    HW114255   6.381   3.807   6.140
 4452SOL    HW214256   6.301   3.707   6.242
 4453SOL     OW14257   5.115   1.562   0.828
 4453SOL    HW114258   5.114   1.640   0.766
 4453SOL    HW214259   5.209   1.536   0.849
 4454SOL     OW14260   4.792   2.626   1.366
 4454SOL    HW114261   4.694   2.633   1.385
 4454SOL    HW214262   4.840   2.592   1.446
 4455SOL     OW14263   4.165   2.174   2.053
 4455SOL    HW114264   4.099   2.197   1.982
 4455SOL    HW214265   4.122   2.111   2.119
 4456SOL     OW14266   1.124   5.800   2.533
 4456SOL    HW114267   1.102   5.709   2.566
 4456SOL    HW214268   1.145   5.796   2.436
 4457SOL     OW14269   4.695   1.729   6.752
 4457SOL    HW114270   4.785   1.698   6.722
 4457SOL    HW214271   4.686   1.827   6.734
 4458SOL     OW14272   4.091   1.668   0.649
 4458SOL    HW114273   4.009   1.646   0.703
 4458SOL    HW214274   4.066   1.728   0.573
 4459SOL     OW14275   5.467   6.624   5.171
 4459SOL    HW114276   5.456   6.644   5.268
 4459SOL    HW214277   5.394   6.563   5.141
 4460SOL     OW14278   1.069   1.217   6.450
 4460SOL    HW114279   0.983   1.170   6.468
 4460SOL    HW214280   1.057   1.278   6.372
 4461SOL     OW14281   2.109   6.662   2.207
 4461SOL    HW114282   2.015   6.695   2.201
 4461SOL    HW214283   2.162   6.726   2.263
 4462SOL     OW14284   7.011   4.804   0.788
 4462SOL    HW114285   6.953   4.883   0.811
 4462SOL    HW214286   6.986   4.727   0.848
 4463SOL     OW14287   1.523   4.113   6.065
 4463SOL    HW114288   1.529   4.040   6.132
 4463SOL    HW214289   1.435   4.107   6.017
 4464SOL     OW14290   6.322   2.634   7.016
 4464SOL    HW114291   6.415   2.601   0.002
 4464SOL    HW214292   6.323   2.734   7.005
 4465SOL     OW14293   0.785   6.048   0.476
 4465SOL    HW114294   0.841   5.992   0.537
 4465SOL    HW214295   0.767   5.997   0.392
 4466SOL     OW14296   0.006   2.945   3.138
 4466SOL    HW114297   0.101   2.918   3.151
 4466SOL    HW214298   6.988   2.886   3.069
 4467SOL     OW14299   1.492   0.306   3.267
 4467SOL    HW114300   1.523   0.213   3.286
 4467SOL    HW214301   1.570   0.367   3.262
 4468SOL     OW14302   2.168   2.188   0.714
 4468SOL    HW114303   2.136   2.149   0.800
 4468SOL    HW214304   2.218   2.273   0.732
 4469SOL     OW14305   4.863   0.140   0.281
 4469SOL    HW114306   4.855   0.169   0.185
 4469SOL    HW214307   4.790   0.181   0.335
 4470SOL     OW14308   4.632   4.954   1.250
 4470SOL    HW114309   4.592   4.913   1.169
 4470SOL    HW214310   4.635   4.886   1.324
 4471SOL     OW14311   6.117   2.419   0.555
 4471SOL    HW114312   6.114   2.322   0.579
 4471SOL    HW214313   6.208   2.456   0.573
 4472SOL     OW14314   2.036   4.641   1.289
 4472SOL    HW114315   2.082   4.690   1.215
 4472SOL    HW214316   1.947   4.682   1.307
 4473SOL     OW14317   0.228   0.659   6.301
 4473SOL    HW114318   0.322   0.691   6.284
 4473SOL    HW214319   0.223   0.560   6.283
 4474SOL     OW14320   5.990   0.520   4.293
 4474SOL    HW114321   6.005   0.464   4.212
 4474SOL    HW214322   5.938   0.468   4.361
 4475SOL     OW14323   1.891   4.032   0.716
 4475SOL    HW114324   1.844   4.119   0.703
 4475SOL    HW214325   1.990   4.048   0.719
 4476SOL     OW14326   5.076   6.724   2.112
 4476SOL    HW114327   5.068   6.688   2.205
 4476SOL    HW214328   5.111   6.818   2.116
 4477SOL     OW14329   1.143   1.391   0.861
 4477SOL    HW114330   1.113   1.483   0.837
 4477SOL    HW214331   1.109   1.326   0.793
 4478SOL     OW14332   1.750   4.667   2.147
 4478SOL    HW114333   1.756   4.749   2.204
 4478SOL    HW214334   1.754   4.692   2.051
 4479SOL     OW14335   0.853   0.362   5.979
 4479SOL    HW114336   0.889   0.414   5.902
 4479SOL    HW214337   0.928   0.331   6.037
 4480SOL     OW14338   0.189   4.086   3.734
 4480SOL    HW114339   0.174   4.006   3.676
 4480SOL    HW214340   0.195   4.057   3.830
 4481SOL     OW14341   0.803   0.450   4.194
 4481SOL    HW114342   0.706   0.423   4.193
 4481SOL    HW214343   0.815   0.529   4.254
 4482SOL     OW14344   1.277   3.866   3.628
 4482SOL    HW114345   1.228   3.807   3.564
 4482SOL    HW214346   1.275   3.826   3.719
 4483SOL     OW14347   5.347   2.891   0.856
 4483SOL    HW114348   5.421   2.951   0.827
 4483SOL    HW214349   5.378   2.796   0.854
 4484SOL     OW14350   3.488   3.510   6.085
 4484SOL    HW114351   3.504   3.431   6.026
 4484SOL    HW214352   3.419   3.486   6.154
 4485SOL     OW14353   4.509   0.733   0.038
 4485SOL    HW114354   4.450   0.670   0.088
 4485SOL    HW214355   4.457   0.778   6.990
 4486SOL     OW14356   5.993   2.990   3.848
 4486SOL    HW114357   5.997   2.913   3.912
 4486SOL    HW214358   5.902   2.995   3.807
 4487SOL     OW14359   2.763   3.002   5.889
 4487SOL    HW114360   2.838   3.068   5.898
 4487SOL    HW214361   2.724   3.008   5.797
 4488SOL     OW14362   6.786   1.561   6.253
 4488SOL    HW114363   6.848   1.619   6.200
 4488SOL    HW214364   6.822   1.551   6.346
 4489SOL     OW14365   6.993   1.243   3.136
 4489SOL    HW114366   6.928   1.249   3.212
 4489SOL    HW214367   0.062   1.252   3.172
 4490SOL     OW14368   6.765   2.222   3.760
 4490SOL    HW114369   6.686   2.173   3.796
 4490SOL    HW214370   6.762   2.221   3.660
 4491SOL     OW14371   1.843   3.705   2.752
 4491SOL    HW114372   1.787   3.693   2.670
 4491SOL    HW214373   1.921   3.763   2.731
 4492SOL     OW14374   4.948   5.064   6.039
 4492SOL    HW114375   4.990   5.128   6.104
 4492SOL    HW214376   4.942   5.107   5.949
 4493SOL     OW14377   5.969   4.894   3.597
 4493SOL    HW114378   5.928   4.855   3.680
 4493SOL    HW214379   6.055   4.939   3.621
 4494SOL     OW14380   5.886   2.916   3.112
 4494SOL    HW114381   5.802   2.866   3.094
 4494SOL    HW214382   5.894   2.932   3.211
 4495SOL     OW14383   4.536   6.095   2.014
 4495SOL    HW114384   4.590   6.148   1.949
 4495SOL    HW214385   4.516   6.151   2.094
 4496SOL     OW14386   5.315   4.606   5.935
 4496SOL    HW114387   5.244   4.675   5.945
 4496SOL    HW214388   5.343   4.601   5.839
 4497SOL     OW14389   6.129   5.149   0.981
 4497SOL    HW114390   6.076   5.206   1.044
 4497SOL    HW214391   6.177   5.207   0.916
 4498SOL     OW14392   0.783   4.076   7.014
 4498SOL    HW114393   0.697   4.030   6.991
 4498SOL    HW214394   0.822   4.036   0.072
 4499SOL     OW14395   5.556   3.522   6.195
 4499SOL    HW114396   5.504   3.444   6.230
 4499SOL    HW214397   5.650   3.516   6.228
 4500SOL     OW14398   3.140   3.778   3.323
 4500SOL    HW114399   3.108   3.872   3.321
 4500SOL    HW214400   3.223   3.772   3.379
 4501SOL     OW14401   1.569   5.145   4.954
 4501SOL    HW114402   1.550   5.151   4.856
 4501SOL    HW214403   1.540   5.056   4.988
 4502SOL     OW14404   6.660   2.948   6.760
 4502SOL    HW114405   6.575   2.992   6.733
 4502SOL    HW214406   6.702   2.999   6.835
 4503SOL     OW14407   1.721   3.410   2.499
 4503SOL    HW114408   1.662   3.393   2.578
 4503SOL    HW214409   1.671   3.465   2.432
 4504SOL     OW14410   4.356   2.352   4.169
 4504SOL    HW114411   4.278   2.314   4.118
 4504SOL    HW214412   4.325   2.379   4.260
 4505SOL     OW14413   1.867   5.056   6.776
 4505SOL    HW114414   1.852   5.116   6.855
 4505SOL    HW214415   1.835   5.102   6.693
 4506SOL     OW14416   4.137   6.859   4.702
 4506SOL    HW114417   4.088   6.851   4.789
 4506SOL    HW214418   4.096   6.933   4.648
 4507SOL     OW14419   6.234   3.457   1.729
 4507SOL    HW114420   6.212   3.381   1.668
 4507SOL    HW214421   6.169   3.532   1.713
 4508SOL     OW14422   2.246   3.774   6.832
 4508SOL    HW114423   2.146   3.767   6.838
 4508SOL    HW214424   2.280   3.825   6.911
 4509SOL     OW14425   0.347   2.053   3.475
 4509SOL    HW114426   0.429   2.106   3.498
 4509SOL    HW214427   0.353   1.963   3.519
 4510SOL     OW14428   3.755   6.450   5.390
 4510SOL    HW114429   3.730   6.399   5.473
 4510SOL    HW214430   3.714   6.406   5.311
 4511SOL     OW14431   6.356   2.228   6.115
 4511SOL    HW114432   6.420   2.252   6.189
 4511SOL    HW214433   6.263   2.254   6.142
 4512SOL     OW14434   2.688   4.587   6.788
 4512SOL    HW114435   2.640   4.598   6.701
 4512SOL    HW214436   2.731   4.673   6.813
 4513SOL     OW14437   5.487   1.418   2.062
 4513SOL    HW114438   5.466   1.321   2.045
 4513SOL    HW214439   5.444   1.447   2.147
 4514SOL     OW14440   3.541   0.870   5.888
 4514SOL    HW114441   3.513   0.915   5.972
 4514SOL    HW214442   3.504   0.920   5.809
 4515SOL     OW14443   6.426   4.750   1.004
 4515SOL    HW114444   6.362   4.714   0.936
 4515SOL    HW214445   6.467   4.674   1.054
 4516SOL     OW14446   0.770   0.025   4.006
 4516SOL    HW114447   0.748   6.970   4.062
 4516SOL    HW214448   0.869   0.035   3.999
 4517SOL     OW14449   3.786   0.365   6.095
 4517SOL    HW114450   3.874   0.319   6.107
 4517SOL    HW214451   3.776   0.394   6.000
 4518SOL     OW14452   1.371   0.402   3.540
 4518SOL    HW114453   1.414   0.385   3.451
 4518SOL    HW214454   1.441   0.432   3.605
 4519SOL     OW14455   6.230   2.620   4.980
 4519SOL    HW114456   6.247   2.614   5.079
 4519SOL    HW214457   6.149   2.566   4.957
 4520SOL     OW14458   0.041   4.322   2.423
 4520SOL    HW114459   6.988   4.304   2.361
 4520SOL    HW214460   0.103   4.244   2.420
 4521SOL     OW14461   5.072   1.760   6.235
 4521SOL    HW114462   4.978   1.742   6.206
 4521SOL    HW214463   5.129   1.775   6.154
 4522SOL     OW14464   5.593   0.360   3.097
 4522SOL    HW114465   5.610   0.304   3.016
 4522SOL    HW214466   5.661   0.338   3.168
 4523SOL     OW14467   4.701   3.201   6.272
 4523SOL    HW114468   4.734   3.295   6.261
 4523SOL    HW214469   4.679   3.184   6.368
 4524SOL     OW14470   6.454   0.150   5.050
 4524SOL    HW114471   6.514   0.070   5.044
 4524SOL    HW214472   6.497   0.219   5.110
 4525SOL     OW14473   6.290   2.295   5.286
 4525SOL    HW114474   6.240   2.223   5.238
 4525SOL    HW214475   6.314   2.264   5.378
 4526SOL     OW14476   3.434   0.881   1.275
 4526SOL    HW114477   3.425   0.895   1.374
 4526SOL    HW214478   3.383   0.952   1.227
 4527SOL     OW14479   4.347   6.472   3.726
 4527SOL    HW114480   4.371   6.380   3.694
 4527SOL    HW214481   4.256   6.496   3.693
 4528SOL     OW14482   5.080   6.868   5.866
 4528SOL    HW114483   4.998   6.918   5.895
 4528SOL    HW214484   5.157   6.931   5.857
 4529SOL     OW14485   4.173   0.378   3.573
 4529SOL    HW114486   4.148   0.368   3.477
 4529SOL    HW214487   4.153   0.472   3.603
 4530SOL     OW14488   0.431   2.918   5.030
 4530SOL    HW114489   0.341   2.920   4.986
 4530SOL    HW214490   0.428   2.856   5.108
 4531SOL     OW14491   6.896   3.841   3.568
 4531SOL    HW114492   6.835   3.916   3.546
 4531SOL    HW214493   6.989   3.875   3.581
 4532SOL     OW14494   6.753   1.632   0.404
 4532SOL    HW114495   6.772   1.611   0.500
 4532SOL    HW214496   6.824   1.693   0.369
 4533SOL     OW14497   3.454   6.095   2.243
 4533SOL    HW114498   3.546   6.070   2.273
 4533SOL    HW214499   3.458   6.137   2.153
 4534SOL     OW14500   0.010   4.251   5.554
 4534SOL    HW114501   0.073   4.240   5.631
 4534SOL    HW214502   6.941   4.258   5.590
 4535SOL     OW14503   4.983   2.572   2.986
 4535SOL    HW114504   4.980   2.472   2.991
 4535SOL    HW214505   5.069   2.606   3.024
 4536SOL     OW14506   6.752   0.624   4.354
 4536SOL    HW114507   6.725   0.537   4.394
 4536SOL    HW214508   6.678   0.659   4.297
 4537SOL     OW14509   4.471   3.251   6.141
 4537SOL    HW114510   4.550   3.218   6.192
 4537SOL    HW214511   4.481   3.226   6.044
 4538SOL     OW14512   3.234   1.881   1.834
 4538SOL    HW114513   3.334   1.883   1.830
 4538SOL    HW214514   3.199   1.973   1.850
 4539SOL     OW14515   2.126   2.258   2.471
 4539SOL    HW114516   2.086   2.330   2.527
 4539SOL    HW214517   2.224   2.250   2.491
 4540SOL     OW14518   3.228   3.169   5.011
 4540SOL    HW114519   3.204   3.254   4.965
 4540SOL    HW214520   3.309   3.183   5.067
 4541SOL     OW14521   6.307   1.198   1.562
 4541SOL    HW114522   6.310   1.253   1.646
 4541SOL    HW214523   6.370   1.121   1.571
 4542SOL     OW14524   4.925   6.912   3.179
 4542SOL    HW114525   4.945   6.826   3.132
 4542SOL    HW214526   4.828   6.933   3.172
 4543SOL     OW14527   5.795   2.131   1.450
 4543SOL    HW114528   5.820   2.228   1.459
 4543SOL    HW214529   5.863   2.085   1.393
 4544SOL     OW14530   4.187   5.274   0.083
 4544SOL    HW114531   4.215   5.370   0.081
 4544SOL    HW214532   4.241   5.223   0.016
 4545SOL     OW14533   3.945   3.697   6.066
 4545SOL    HW114534   3.896   3.659   5.988
 4545SOL    HW214535   4.021   3.636   6.091
 4546SOL     OW14536   0.331   6.458   6.678
 4546SOL    HW114537   0.343   6.413   6.767
 4546SOL    HW214538   0.235   6.480   6.664
 4547SOL     OW14539   4.194   1.674   1.703
 4547SOL    HW114540   4.143   1.748   1.659
 4547SOL    HW214541   4.156   1.586   1.675
 4548SOL     OW14542   1.086   3.328   3.886
 4548SOL    HW114543   1.017   3.294   3.950
 4548SOL    HW214544   1.159   3.374   3.937
 4549SOL     OW14545   4.153   1.664   2.056
 4549SOL    HW114546   4.082   1.732   2.072
 4549SOL    HW214547   4.231   1.707   2.010
 4550SOL     OW14548   1.724   6.081   4.444
 4550SOL    HW114549   1.713   5.982   4.443
 4550SOL    HW214550   1.663   6.123   4.377
 4551SOL     OW14551   0.110   2.895   0.280
 4551SOL    HW114552   0.179   2.830   0.247
 4551SOL    HW214553   0.023   2.877   0.233
 4552SOL     OW14554   6.471   2.891   4.153
 4552SOL    HW114555   6.526   2.954   4.098
 4552SOL    HW214556   6.450   2.809   4.099
 4553SOL     OW14557   5.294   4.792   0.258
 4553SOL    HW114558   5.346   4.796   0.173
 4553SOL    HW214559   5.206   4.746   0.241
 4554SOL     OW14560   5.639   0.010   3.307
 4554SOL    HW114561   5.589   6.999   3.228
 4554SOL    HW214562   5.668   6.959   3.365
 4555SOL     OW14563   4.282   1.982   6.540
 4555SOL    HW114564   4.275   1.922   6.460
 4555SOL    HW214565   4.322   2.069   6.512
 4556SOL     OW14566   5.219   0.791   5.195
 4556SOL    HW114567   5.263   0.869   5.240
 4556SOL    HW214568   5.272   0.765   5.114
 4557SOL     OW14569   5.514   0.355   4.998
 4557SOL    HW114570   5.581   0.356   5.072
 4557SOL    HW214571   5.514   0.443   4.951
 4558SOL     OW14572   6.187   3.455   5.832
 4558SOL    HW114573   6.262   3.407   5.878
 4558SOL    HW214574   6.151   3.526   5.893
 4559SOL     OW14575   0.476   6.306   1.538
 4559SOL    HW114576   0.534   6.380   1.573
 4559SOL    HW214577   0.469   6.314   1.439
 4560SOL     OW14578   5.211   2.910   2.546
 4560SOL    HW114579   5.149   2.936   2.620
 4560SOL    HW214580   5.206   2.811   2.532
 4561SOL     OW14581   3.135   0.879   6.323
 4561SOL    HW114582   3.219   0.914   6.364
 4561SOL    HW214583   3.076   0.841   6.394
 4562SOL     OW14584   2.342   4.819   5.540
 4562SOL    HW114585   2.353   4.721   5.528
 4562SOL    HW214586   2.400   4.868   5.475
 4563SOL     OW14587   5.580   2.444   6.319
 4563SOL    HW114588   5.678   2.458   6.313
 4563SOL    HW214589   5.559   2.380   6.392
 4564SOL     OW14590   0.786   5.481   6.965
 4564SOL    HW114591   0.686   5.484   6.971
 4564SOL    HW214592   0.821   5.574   6.960
 4565SOL     OW14593   2.796   0.874   4.158
 4565SOL    HW114594   2.844   0.791   4.129
 4565SOL    HW214595   2.861   0.936   4.202
 4566SOL     OW14596   1.722   1.423   0.353
 4566SOL    HW114597   1.657   1.455   0.422
 4566SOL    HW214598   1.805   1.479   0.357
 4567SOL     OW14599   6.487   1.376   1.148
 4567SOL    HW114600   6.423   1.446   1.179
 4567SOL    HW214601   6.547   1.351   1.223
 4568SOL     OW14602   3.708   4.961   4.170
 4568SOL    HW114603   3.788   4.906   4.193
 4568SOL    HW214604   3.645   4.961   4.248
 4569SOL     OW14605   0.335   1.924   3.186
 4569SOL    HW114606   0.248   1.887   3.153
 4569SOL    HW214607   0.326   1.945   3.284
 4570SOL     OW14608   5.764   5.315   4.349
 4570SOL    HW114609   5.843   5.261   4.320
 4570SOL    HW214610   5.710   5.263   4.415
 4571SOL     OW14611   3.728   2.915   4.415
 4571SOL    HW114612   3.776   2.990   4.460
 4571SOL    HW214613   3.764   2.828   4.449
 4572SOL     OW14614   1.978   5.299   1.755
 4572SOL    HW114615   2.061   5.244   1.765
 4572SOL    HW214616   2.002   5.396   1.752
 4573SOL     OW14617   4.745   6.822   0.727
 4573SOL    HW114618   4.745   6.921   0.713
 4573SOL    HW214619   4.836   6.786   0.706
 4574SOL     OW14620   0.385   4.419   1.499
 4574SOL    HW114621   0.418   4.421   1.404
 4574SOL    HW214622   0.399   4.328   1.537
 4575SOL     OW14623   0.106   6.377   2.545
 4575SOL    HW114624   0.173   6.386   2.618
 4575SOL    HW214625   0.020   6.343   2.583
 4576SOL     OW14626   3.530   6.231   3.634
 4576SOL    HW114627   3.493   6.311   3.681
 4576SOL    HW214628   3.455   6.169   3.609
 4577SOL     OW14629   1.762   2.251   3.958
 4577SOL    HW114630   1.678   2.306   3.961
 4577SOL    HW214631   1.739   2.156   3.937
 4578SOL     OW14632   0.466   4.877   4.028
 4578SOL    HW114633   0.446   4.858   4.124
 4578SOL    HW214634   0.463   4.791   3.976
 4579SOL     OW14635   5.289   1.967   4.697
 4579SOL    HW114636   5.228   2.040   4.730
 4579SOL    HW214637   5.288   1.965   4.597
 4580SOL     OW14638   7.021   5.743   6.900
 4580SOL    HW114639   0.033   5.681   6.970
 4580SOL    HW214640   6.932   5.777   6.930
 4581SOL     OW14641   3.136   6.231   3.809
 4581SOL    HW114642   3.051   6.193   3.843
 4581SOL    HW214643   3.132   6.331   3.813
 4582SOL     OW14644   4.990   6.760   3.417
 4582SOL    HW114645   4.896   6.744   3.447
 4582SOL    HW214646   4.991   6.827   3.343
 4583SOL     OW14647   3.635   1.325   5.636
 4583SOL    HW114648   3.554   1.384   5.628
 4583SOL    HW214649   3.715   1.381   5.657
 4584SOL     OW14650   1.108   5.177   6.284
 4584SOL    HW114651   1.014   5.144   6.276
 4584SOL    HW214652   1.157   5.161   6.198
 4585SOL     OW14653   3.046   6.368   2.343
 4585SOL    HW114654   3.134   6.322   2.349
 4585SOL    HW214655   3.010   6.361   2.250
 4586SOL     OW14656   2.746   6.273   2.260
 4586SOL    HW114657   2.782   6.183   2.235
 4586SOL    HW214658   2.754   6.286   2.359
 4587SOL     OW14659   3.085   5.294   0.809
 4587SOL    HW114660   3.056   5.313   0.715
 4587SOL    HW214661   3.081   5.378   0.863
 4588SOL     OW14662   3.926   4.310   5.271
 4588SOL    HW114663   3.894   4.273   5.184
 4588SOL    HW214664   3.909   4.243   5.343
 4589SOL     OW14665   0.976   1.938   3.154
 4589SOL    HW114666   1.033   1.920   3.074
 4589SOL    HW214667   0.944   1.852   3.192
 4590SOL     OW14668   4.299   6.170   2.934
 4590SOL    HW114669   4.294   6.092   2.873
 4590SOL    HW214670   4.206   6.198   2.960
 4591SOL     OW14671   6.233   6.622   5.489
 4591SOL    HW114672   6.153   6.585   5.443
 4591SOL    HW214673   6.265   6.557   5.557
 4592SOL     OW14674   3.309   1.297   5.925
 4592SOL    HW114675   3.385   1.236   5.944
 4592SOL    HW214676   3.224   1.244   5.924
 4593SOL     OW14677   4.549   6.148   1.527
 4593SOL    HW114678   4.489   6.072   1.500
 4593SOL    HW214679   4.589   6.127   1.616
 4594SOL     OW14680   3.527   1.740   2.628
 4594SOL    HW114681   3.479   1.764   2.543
 4594SOL    HW214682   3.541   1.823   2.683
 4595SOL     OW14683   5.058   3.617   6.247
 4595SOL    HW114684   5.088   3.633   6.341
 4595SOL    HW214685   4.983   3.680   6.225
 4596SOL     OW14686   5.441   0.489   2.515
 4596SOL    HW114687   5.436   0.489   2.615
 4596SOL    HW214688   5.531   0.457   2.486
 4597SOL     OW14689   6.492   4.525   5.957
 4597SOL    HW114690   6.564   4.456   5.959
 4597SOL    HW214691   6.451   4.532   6.048
 4598SOL     OW14692   3.492   3.892   0.788
 4598SOL    HW114693   3.419   3.826   0.808
 4598SOL    HW214694   3.577   3.861   0.830
 4599SOL     OW14695   2.044   5.336   0.457
 4599SOL    HW114696   2.009   5.246   0.484
 4599SOL    HW214697   2.005   5.407   0.516
 4600SOL     OW14698   3.667   4.897   1.397
 4600SOL    HW114699   3.637   4.814   1.350
 4600SOL    HW214700   3.715   4.873   1.481
 4601SOL     OW14701   1.650   5.766   4.543
 4601SOL    HW114702   1.563   5.774   4.495
 4601SOL    HW214703   1.725   5.759   4.476
 4602SOL     OW14704   1.508   0.840   1.204
 4602SOL    HW114705   1.599   0.849   1.163
 4602SOL    HW214706   1.465   0.755   1.174
 4603SOL     OW14707   2.851   1.458   2.091
 4603SOL    HW114708   2.878   1.549   2.059
 4603SOL    HW214709   2.809   1.407   2.016
 4604SOL     OW14710   1.604   0.655   2.198
 4604SOL    HW114711   1.564   0.645   2.289
 4604SOL    HW214712   1.534   0.683   2.133
 4605SOL     OW14713   4.747   6.560   5.961
 4605SOL    HW114714   4.840   6.591   5.983
 4605SOL    HW214715   4.749   6.462   5.941
 4606SOL     OW14716   6.596   6.199   5.220
 4606SOL    HW114717   6.641   6.282   5.187
 4606SOL    HW214718   6.613   6.124   5.157
 4607SOL     OW14719   2.850   2.610   1.297
 4607SOL    HW114720   2.835   2.694   1.349
 4607SOL    HW214721   2.920   2.626   1.227
 4608SOL     OW14722   1.688   3.877   4.903
 4608SOL    HW114723   1.692   3.854   4.806
 4608SOL    HW214724   1.756   3.947   4.924
 4609SOL     OW14725   3.286   6.890   6.881
 4609SOL    HW114726   3.226   6.837   6.942
 4609SOL    HW214727   3.242   6.977   6.858
 4610SOL     OW14728   0.033   3.096   7.011
 4610SOL    HW114729   0.071   3.141   6.930
 4610SOL    HW214730   0.063   3.145   0.068
 4611SOL     OW14731   1.209   3.764   6.579
 4611SOL    HW114732   1.287   3.817   6.612
 4611SOL    HW214733   1.125   3.803   6.616
 4612SOL     OW14734   2.647   0.329   6.446
 4612SOL    HW114735   2.655   0.421   6.410
 4612SOL    HW214736   2.680   0.327   6.541
 4613SOL     OW14737   3.593   5.224   1.692
 4613SOL    HW114738   3.570   5.161   1.766
 4613SOL    HW214739   3.659   5.292   1.727
 4614SOL     OW14740   2.497   5.039   0.163
 4614SOL    HW114741   2.499   4.947   0.125
 4614SOL    HW214742   2.428   5.044   0.235
 4615SOL     OW14743   6.826   3.291   0.466
 4615SOL    HW114744   6.766   3.213   0.452
 4615SOL    HW214745   6.823   3.320   0.562
 4616SOL     OW14746   6.200   0.426   0.551
 4616SOL    HW114747   6.218   0.329   0.567
 4616SOL    HW214748   6.239   0.479   0.626
 4617SOL     OW14749   0.246   4.136   2.447
 4617SOL    HW114750   0.313   4.062   2.444
 4617SOL    HW214751   0.293   4.222   2.466
 4618SOL     OW14752   0.633   2.581   6.259
 4618SOL    HW114753   0.630   2.540   6.350
 4618SOL    HW214754   0.544   2.573   6.215
 4619SOL     OW14755   3.571   0.329   3.610
 4619SOL    HW114756   3.577   0.236   3.645
 4619SOL    HW214757   3.649   0.382   3.640
 4620SOL     OW14758   2.397   5.299   6.537
 4620SOL    HW114759   2.320   5.336   6.486
 4620SOL    HW214760   2.455   5.246   6.474
 4621SOL     OW14761   0.290   0.046   6.376
 4621SOL    HW114762   0.288   6.991   6.436
 4621SOL    HW214763   0.342   0.119   6.420
 4622SOL     OW14764   2.557   3.424   0.981
 4622SOL    HW114765   2.467   3.455   1.013
 4622SOL    HW214766   2.576   3.464   0.891
 4623SOL     OW14767   5.672   5.061   2.534
 4623SOL    HW114768   5.666   5.050   2.435
 4623SOL    HW214769   5.668   5.158   2.557
 4624SOL     OW14770   4.929   0.224   5.731
 4624SOL    HW114771   4.852   0.265   5.780
 4624SOL    HW214772   4.894   0.159   5.663
 4625SOL     OW14773   1.516   3.877   6.240
 4625SOL    HW114774   1.601   3.829   6.262
 4625SOL    HW214775   1.444   3.848   6.304
 4626SOL     OW14776   5.773   5.689   2.101
 4626SOL    HW114777   5.740   5.598   2.127
 4626SOL    HW214778   5.854   5.712   2.154
 4627SOL     OW14779   1.868   6.971   5.780
 4627SOL    HW114780   1.862   7.015   5.690
 4627SOL    HW214781   1.826   0.005   5.849
 4628SOL     OW14782   0.212   3.040   1.894
 4628SOL    HW114783   0.130   2.987   1.874
 4628SOL    HW214784   0.188   3.120   1.948
 4629SOL     OW14785   3.912   4.956   4.464
 4629SOL    HW114786   3.958   4.963   4.552
 4629SOL    HW214787   3.891   5.048   4.430
 4630SOL     OW14788   1.516   6.940   2.569
 4630SOL    HW114789   1.581   6.888   2.626
 4630SOL    HW214790   1.457   6.994   2.628
 4631SOL     OW14791   1.757   0.752   2.851
 4631SOL    HW114792   1.765   0.653   2.845
 4631SOL    HW214793   1.847   0.794   2.839
 4632SOL     OW14794   5.752   5.514   4.124
 4632SOL    HW114795   5.846   5.523   4.159
 4632SOL    HW214796   5.690   5.498   4.200
 4633SOL     OW14797   5.347   2.735   5.528
 4633SOL    HW114798   5.385   2.707   5.439
 4633SOL    HW214799   5.342   2.656   5.588
 4634SOL     OW14800   3.869   4.870   0.698
 4634SOL    HW114801   3.877   4.968   0.715
 4634SOL    HW214802   3.775   4.848   0.672
 4635SOL     OW14803   4.916   3.757   1.477
 4635SOL    HW114804   4.913   3.854   1.453
 4635SOL    HW214805   4.946   3.747   1.572
 4636SOL     OW14806   0.957   5.703   1.261
 4636SOL    HW114807   0.880   5.765   1.246
 4636SOL    HW214808   0.963   5.639   1.185
 4637SOL     OW14809   1.497   0.703   4.828
 4637SOL    HW114810   1.585   0.746   4.809
 4637SOL    HW214811   1.502   0.606   4.804
 4638SOL     OW14812   4.386   4.415   6.283
 4638SOL    HW114813   4.310   4.387   6.223
 4638SOL    HW214814   4.410   4.510   6.263
 4639SOL     OW14815   7.022   2.582   5.133
 4639SOL    HW114816   6.943   2.593   5.193
 4639SOL    HW214817   0.038   2.492   5.148
 4640SOL     OW14818   6.213   4.627   2.389
 4640SOL    HW114819   6.190   4.646   2.484
 4640SOL    HW214820   6.310   4.651   2.374
 4641SOL     OW14821   2.769   4.132   5.657
 4641SOL    HW114822   2.861   4.170   5.667
 4641SOL    HW214823   2.736   4.149   5.564
 4642SOL     OW14824   6.679   5.836   3.884
 4642SOL    HW114825   6.635   5.765   3.829
 4642SOL    HW214826   6.712   5.909   3.824
 4643SOL     OW14827   4.091   2.826   1.154
 4643SOL    HW114828   4.016   2.773   1.114
 4643SOL    HW214829   4.170   2.823   1.094
 4644SOL     OW14830   3.276   4.975   5.198
 4644SOL    HW114831   3.304   4.883   5.224
 4644SOL    HW214832   3.328   5.043   5.249
 4645SOL     OW14833   1.932   6.416   4.762
 4645SOL    HW114834   2.024   6.377   4.759
 4645SOL    HW214835   1.882   6.379   4.841
 4646SOL     OW14836   3.854   0.615   1.473
 4646SOL    HW114837   3.931   0.607   1.537
 4646SOL    HW214838   3.881   0.672   1.395
 4647SOL     OW14839   6.788   0.537   5.053
 4647SOL    HW114840   6.718   0.556   4.984
 4647SOL    HW214841   6.768   0.589   5.136
 4648SOL     OW14842   1.842   4.761   2.571
 4648SOL    HW114843   1.918   4.802   2.521
 4648SOL    HW214844   1.868   4.750   2.667
 4649SOL     OW14845   5.868   6.421   5.914
 4649SOL    HW114846   5.838   6.330   5.942
 4649SOL    HW214847   5.817   6.490   5.965
 4650SOL     OW14848   0.096   4.710   1.775
 4650SOL    HW114849   0.138   4.624   1.748
 4650SOL    HW214850   0.040   4.697   1.857
 4651SOL     OW14851   6.253   1.935   2.289
 4651SOL    HW114852   6.256   1.955   2.387
 4651SOL    HW214853   6.342   1.953   2.248
 4652SOL     OW14854   0.131   5.907   5.578
 4652SOL    HW114855   0.121   5.948   5.668
 4652SOL    HW214856   0.103   5.811   5.582
 4653SOL     OW14857   0.491   5.501   6.939
 4653SOL    HW114858   0.519   5.527   6.847
 4653SOL    HW214859   0.427   5.569   6.975
 4654SOL     OW14860   0.987   1.569   6.205
 4654SOL    HW114861   1.042   1.632   6.150
 4654SOL    HW214862   1.029   1.478   6.202
 4655SOL     OW14863   0.631   5.294   3.400
 4655SOL    HW114864   0.564   5.245   3.344
 4655SOL    HW214865   0.629   5.258   3.493
 4656SOL     OW14866   2.474   0.087   3.119
 4656SOL    HW114867   2.470   0.079   3.219
 4656SOL    HW214868   2.391   0.131   3.085
 4657SOL     OW14869   6.014   0.248   6.514
 4657SOL    HW114870   5.947   0.316   6.480
 4657SOL    HW214871   5.970   0.158   6.518
 4658SOL     OW14872   5.077   0.951   3.962
 4658SOL    HW114873   5.096   0.993   3.873
 4658SOL    HW214874   5.011   0.876   3.950
 4659SOL     OW14875   2.492   2.179   4.873
 4659SOL    HW114876   2.421   2.216   4.933
 4659SOL    HW214877   2.577   2.230   4.886
 4660SOL     OW14878   7.019   1.194   5.877
 4660SOL    HW114879   6.997   1.227   5.785
 4660SOL    HW214880   6.960   1.240   5.944
 4661SOL     OW14881   4.066   3.662   3.536
 4661SOL    HW114882   4.028   3.742   3.583
 4661SOL    HW214883   4.101   3.597   3.603
 4662SOL     OW14884   5.550   0.316   3.615
 4662SOL    HW114885   5.614   0.357   3.550
 4662SOL    HW214886   5.489   0.254   3.565
 4663SOL     OW14887   0.902   1.880   1.875
 4663SOL    HW114888   0.936   1.970   1.846
 4663SOL    HW214889   0.927   1.811   1.807
 4664SOL     OW14890   3.845   3.662   0.278
 4664SOL    HW114891   3.774   3.728   0.303
 4664SOL    HW214892   3.805   3.570   0.273
 4665SOL     OW14893   5.164   0.550   6.548
 4665SOL    HW114894   5.135   0.644   6.529
 4665SOL    HW214895   5.198   0.544   6.642
 4666SOL     OW14896   2.410   1.718   0.115
 4666SOL    HW114897   2.374   1.781   0.184
 4666SOL    HW214898   2.366   1.629   0.124
 4667SOL     OW14899   0.488   5.291   4.568
 4667SOL    HW114900   0.494   5.387   4.540
 4667SOL    HW214901   0.578   5.249   4.563
 4668SOL     OW14902   5.467   1.427   5.397
 4668SOL    HW114903   5.489   1.380   5.311
 4668SOL    HW214904   5.369   1.419   5.414
 4669SOL     OW14905   2.740   0.938   1.251
 4669SOL    HW114906   2.682   0.945   1.332
 4669SOL    HW214907   2.830   0.979   1.271
 4670SOL     OW14908   2.146   1.251   4.900
 4670SOL    HW114909   2.174   1.222   4.991
 4670SOL    HW214910   2.194   1.335   4.875
 4671SOL     OW14911   5.463   2.308   1.281
 4671SOL    HW114912   5.390   2.240   1.276
 4671SOL    HW214913   5.508   2.303   1.370
 4672SOL     OW14914   2.811   2.687   5.472
 4672SOL    HW114915   2.843   2.718   5.561
 4672SOL    HW214916   2.809   2.765   5.409
 4673SOL     OW14917   4.227   0.839   2.612
 4673SOL    HW114918   4.219   0.856   2.514
 4673SOL    HW214919   4.254   0.922   2.659
 4674SOL     OW14920   5.067   6.462   5.248
 4674SOL    HW114921   5.050   6.489   5.153
 4674SOL    HW214922   5.165   6.450   5.263
 4675SOL     OW14923   0.987   4.230   6.098
 4675SOL    HW114924   1.076   4.249   6.141
 4675SOL    HW214925   0.998   4.226   5.999
 4676SOL     OW14926   0.418   4.664   3.845
 4676SOL    HW114927   0.423   4.585   3.905
 4676SOL    HW214928   0.481   4.652   3.768
 4677SOL     OW14929   1.529   3.127   0.760
 4677SOL    HW114930   1.597   3.109   0.689
 4677SOL    HW214931   1.571   3.116   0.850
 4678SOL     OW14932   1.178   4.156   2.253
 4678SOL    HW114933   1.238   4.235   2.246
 4678SOL    HW214934   1.126   4.146   2.168
 4679SOL     OW14935   4.226   7.017   1.535
 4679SOL    HW114936   4.252   6.954   1.608
 4679SOL    HW214937   4.304   0.006   1.473
 4680SOL     OW14938   2.176   0.394   6.793
 4680SOL    HW114939   2.221   0.344   6.719
 4680SOL    HW214940   2.243   0.414   6.865
 4681SOL     OW14941   5.075   5.509   2.251
 4681SOL    HW114942   5.075   5.547   2.344
 4681SOL    HW214943   5.025   5.422   2.251
 4682SOL     OW14944   3.498   4.098   6.358
 4682SOL    HW114945   3.505   4.187   6.402
 4682SOL    HW214946   3.410   4.057   6.379
 4683SOL     OW14947   5.982   4.448   3.689
 4683SOL    HW114948   6.064   4.480   3.736
 4683SOL    HW214949   6.002   4.434   3.592
 4684SOL     OW14950   5.660   6.111   6.749
 4684SOL    HW114951   5.582   6.139   6.805
 4684SOL    HW214952   5.712   6.193   6.722
 4685SOL     OW14953   3.243   4.048   4.023
 4685SOL    HW114954   3.253   4.123   3.957
 4685SOL    HW214955   3.331   4.003   4.035
 4686SOL     OW14956   1.225   6.710   0.155
 4686SOL    HW114957   1.239   6.810   0.156
 4686SOL    HW214958   1.142   6.687   0.204
 4687SOL     OW14959   2.289   0.543   2.778
 4687SOL    HW114960   2.293   0.534   2.877
 4687SOL    HW214961   2.378   0.575   2.744
 4688SOL     OW14962   5.226   2.583   5.993
 4688SOL    HW114963   5.222   2.682   6.005
 4688SOL    HW214964   5.281   2.542   6.065
 4689SOL     OW14965   6.899   1.033   1.668
 4689SOL    HW114966   6.844   1.109   1.702
 4689SOL    HW214967   6.840   0.956   1.645
 4690SOL     OW14968   2.638   2.042   1.086
 4690SOL    HW114969   2.607   1.948   1.071
 4690SOL    HW214970   2.643   2.059   1.185
 4691SOL     OW14971   6.031   3.998   2.443
 4691SOL    HW114972   6.125   4.009   2.410
 4691SOL    HW214973   6.012   3.901   2.459
 4692SOL     OW14974   4.974   3.129   2.512
 4692SOL    HW114975   5.009   3.133   2.606
 4692SOL    HW214976   5.049   3.110   2.449
 4693SOL     OW14977   0.815   0.548   2.642
 4693SOL    HW114978   0.845   0.453   2.655
 4693SOL    HW214979   0.894   0.608   2.635
 4694SOL     OW14980   2.166   0.420   6.313
 4694SOL    HW114981   2.235   0.363   6.357
 4694SOL    HW214982   2.103   0.363   6.260
 4695SOL     OW14983   2.101   5.075   2.625
 4695SOL    HW114984   2.087   5.022   2.542
 4695SOL    HW214985   2.180   5.136   2.613
 4696SOL     OW14986   1.403   6.060   6.124
 4696SOL    HW114987   1.491   6.030   6.160
 4696SOL    HW214988   1.418   6.132   6.055
 4697SOL     OW14989   4.352   5.507   1.558
 4697SOL    HW114990   4.402   5.530   1.475
 4697SOL    HW214991   4.370   5.412   1.583
 4698SOL     OW14992   5.768   1.177   4.999
 4698SOL    HW114993   5.695   1.108   4.994
 4698SOL    HW214994   5.853   1.132   5.027
 4699SOL     OW14995   1.838   0.443   2.855
 4699SOL    HW114996   1.869   0.432   2.761
 4699SOL    HW214997   1.748   0.400   2.865
 4700SOL     OW14998   6.116   1.990   2.636
 4700SOL    HW114999   6.112   2.087   2.612
 4700SOL    HW215000   6.211   1.960   2.641
 4701SOL     OW15001   2.994   2.710   1.715
 4701SOL    HW115002   2.968   2.622   1.754
 4701SOL    HW215003   3.051   2.760   1.780
 4702SOL     OW15004   5.611   5.461   6.754
 4702SOL    HW115005   5.577   5.519   6.828
 4702SOL    HW215006   5.606   5.512   6.668
 4703SOL     OW15007   0.948   4.962   3.449
 4703SOL    HW115008   0.989   5.028   3.386
 4703SOL    HW215009   0.914   4.884   3.397
 4704SOL     OW15010   1.207   4.835   4.266
 4704SOL    HW115011   1.195   4.736   4.275
 4704SOL    HW215012   1.266   4.868   4.341
 4705SOL     OW15013   3.463   2.024   1.659
 4705SOL    HW115014   3.411   1.984   1.584
 4705SOL    HW215015   3.413   2.103   1.695
 4706SOL     OW15016   2.566   0.864   1.474
 4706SOL    HW115017   2.533   0.843   1.382
 4706SOL    HW215018   2.645   0.808   1.495
 4707SOL     OW15019   1.398   5.245   2.174
 4707SOL    HW115020   1.444   5.264   2.261
 4707SOL    HW215021   1.322   5.182   2.190
 4708SOL     OW15022   1.701   2.438   4.887
 4708SOL    HW115023   1.664   2.530   4.900
 4708SOL    HW215024   1.634   2.381   4.840
 4709SOL     OW15025   5.024   4.632   5.702
 4709SOL    HW115026   5.122   4.631   5.684
 4709SOL    HW215027   4.994   4.540   5.727
 4710SOL     OW15028   5.872   6.282   5.246
 4710SOL    HW115029   5.865   6.182   5.241
 4710SOL    HW215030   5.812   6.323   5.177
 4711SOL     OW15031   4.971   4.234   2.324
 4711SOL    HW115032   4.988   4.328   2.354
 4711SOL    HW215033   5.050   4.200   2.273
 4712SOL     OW15034   4.670   4.374   5.736
 4712SOL    HW115035   4.620   4.405   5.655
 4712SOL    HW215036   4.616   4.306   5.785
 4713SOL     OW15037   5.493   4.213   0.877
 4713SOL    HW115038   5.457   4.197   0.785
 4713SOL    HW215039   5.418   4.241   0.938
 4714SOL     OW15040   4.330   2.226   6.464
 4714SOL    HW115041   4.401   2.262   6.403
 4714SOL    HW215042   4.247   2.282   6.455
 4715SOL     OW15043   0.035   1.388   1.728
 4715SOL    HW115044   0.005   1.383   1.633
 4715SOL    HW215045   0.038   1.484   1.757
 4716SOL     OW15046   3.607   4.775   5.809
 4716SOL    HW115047   3.557   4.848   5.764
 4716SOL    HW215048   3.649   4.716   5.740
 4717SOL     OW15049   2.094   4.467   5.492
 4717SOL    HW115050   2.010   4.440   5.445
 4717SOL    HW215051   2.074   4.485   5.588
 4718SOL     OW15052   4.657   4.562   0.999
 4718SOL    HW115053   4.662   4.464   1.019
 4718SOL    HW215054   4.749   4.596   0.982
 4719SOL     OW15055   6.589   4.194   4.067
 4719SOL    HW115056   6.496   4.227   4.053
 4719SOL    HW215057   6.649   4.233   3.998
 4720SOL     OW15058   2.337   3.327   6.805
 4720SOL    HW115059   2.430   3.310   6.837
 4720SOL    HW215060   2.273   3.317   6.881
 4721SOL     OW15061   0.533   2.615   3.196
 4721SOL    HW115062   0.497   2.706   3.175
 4721SOL    HW215063   0.463   2.561   3.242
 4722SOL     OW15064   0.900   5.750   6.966
 4722SOL    HW115065   0.893   5.786   6.873
 4722SOL    HW215066   0.992   5.713   6.980
 4723SOL     OW15067   3.359   4.842   6.616
 4723SOL    HW115068   3.304   4.924   6.633
 4723SOL    HW215069   3.339   4.808   6.523
 4724SOL     OW15070   0.710   0.222   4.615
 4724SOL    HW115071   0.621   0.250   4.578
 4724SOL    HW215072   0.766   0.185   4.540
 4725SOL     OW15073   5.588   5.470   1.416
 4725SOL    HW115074   5.630   5.494   1.328
 4725SOL    HW215075   5.490   5.486   1.410
 4726SOL     OW15076   1.885   2.611   5.568
 4726SOL    HW115077   1.904   2.673   5.492
 4726SOL    HW215078   1.971   2.591   5.616
 4727SOL     OW15079   6.724   4.274   1.455
 4727SOL    HW115080   6.662   4.331   1.402
 4727SOL    HW215081   6.788   4.332   1.506
 4728SOL     OW15082   5.691   1.844   4.429
 4728SOL    HW115083   5.782   1.868   4.397
 4728SOL    HW215084   5.652   1.922   4.478
 4729SOL     OW15085   5.964   1.339   1.841
 4729SOL    HW115086   5.919   1.412   1.790
 4729SOL    HW215087   5.993   1.374   1.930
 4730SOL     OW15088   3.767   0.474   3.705
 4730SOL    HW115089   3.758   0.560   3.756
 4730SOL    HW215090   3.844   0.422   3.742
 4731SOL     OW15091   2.983   6.595   1.030
 4731SOL    HW115092   2.887   6.578   1.006
 4731SOL    HW215093   3.019   6.669   0.972
 4732SOL     OW15094   0.609   5.087   4.853
 4732SOL    HW115095   0.672   5.032   4.908
 4732SOL    HW215096   0.552   5.143   4.913
 4733SOL     OW15097   1.670   4.049   2.606
 4733SOL    HW115098   1.764   4.079   2.588
 4733SOL    HW215099   1.667   3.949   2.605
 4734SOL     OW15100   4.632   4.298   6.769
 4734SOL    HW115101   4.677   4.318   6.681
 4734SOL    HW215102   4.696   4.318   6.843
 4735SOL     OW15103   0.461   0.533   5.062
 4735SOL    HW115104   0.444   0.523   4.964
 4735SOL    HW215105   0.483   0.444   5.102
 4736SOL     OW15106   6.592   1.585   3.680
 4736SOL    HW115107   6.599   1.596   3.779
 4736SOL    HW215108   6.501   1.551   3.657
 4737SOL     OW15109   2.061   4.716   6.967
 4737SOL    HW115110   2.086   4.619   6.974
 4737SOL    HW215111   2.009   4.731   6.883
 4738SOL     OW15112   1.135   5.218   4.189
 4738SOL    HW115113   1.065   5.166   4.140
 4738SOL    HW215114   1.186   5.274   4.124
 4739SOL     OW15115   5.710   3.443   2.940
 4739SOL    HW115116   5.800   3.473   2.910
 4739SOL    HW215117   5.653   3.424   2.860
 4740SOL     OW15118   1.024   0.270   0.646
 4740SOL    HW115119   1.044   0.295   0.741
 4740SOL    HW215120   1.109   0.264   0.594
 4741SOL     OW15121   5.628   4.872   1.137
 4741SOL    HW115122   5.714   4.845   1.180
 4741SOL    HW215123   5.551   4.839   1.192
 4742SOL     OW15124   2.306   5.606   2.529
 4742SOL    HW115125   2.333   5.593   2.624
 4742SOL    HW215126   2.385   5.635   2.475
 4743SOL     OW15127   2.876   3.431   0.372
 4743SOL    HW115128   2.801   3.494   0.392
 4743SOL    HW215129   2.922   3.460   0.288
 4744SOL     OW15130   2.287   1.903   5.443
 4744SOL    HW115131   2.312   1.810   5.416
 4744SOL    HW215132   2.209   1.934   5.388
 4745SOL     OW15133   3.713   5.321   5.075
 4745SOL    HW115134   3.780   5.252   5.102
 4745SOL    HW215135   3.633   5.276   5.036
 4746SOL     OW15136   6.079   1.060   1.404
 4746SOL    HW115137   6.097   1.004   1.323
 4746SOL    HW215138   6.080   1.002   1.485
 4747SOL     OW15139   0.260   2.664   1.838
 4747SOL    HW115140   0.291   2.570   1.853
 4747SOL    HW215141   0.182   2.663   1.776
 4748SOL     OW15142   1.679   0.586   1.061
 4748SOL    HW115143   1.775   0.564   1.044
 4748SOL    HW215144   1.633   0.604   0.974
 4749SOL     OW15145   2.895   0.136   6.514
 4749SOL    HW115146   2.940   0.193   6.446
 4749SOL    HW215147   2.950   0.133   6.597
 4750SOL     OW15148   0.744   1.790   4.596
 4750SOL    HW115149   0.838   1.805   4.625
 4750SOL    HW215150   0.714   1.699   4.624
 4751SOL     OW15151   1.243   3.619   5.346
 4751SOL    HW115152   1.213   3.526   5.323
 4751SOL    HW215153   1.163   3.679   5.354
 4752SOL     OW15154   1.716   6.047   1.465
 4752SOL    HW115155   1.672   6.066   1.553
 4752SOL    HW215156   1.647   6.014   1.400
 4753SOL     OW15157   0.047   6.574   5.619
 4753SOL    HW115158   0.089   6.496   5.573
 4753SOL    HW215159   0.096   6.592   5.705
 4754SOL     OW15160   0.922   0.870   6.883
 4754SOL    HW115161   0.975   0.789   6.860
 4754SOL    HW215162   0.895   0.867   6.979
 4755SOL     OW15163   2.806   0.735   1.477
 4755SOL    HW115164   2.861   0.752   1.395
 4755SOL    HW215165   2.862   0.748   1.559
 4756SOL     OW15166   4.842   2.875   1.475
 4756SOL    HW115167   4.826   2.793   1.420
 4756SOL    HW215168   4.940   2.894   1.479
 4757SOL     OW15169   2.532   1.560   1.626
 4757SOL    HW115170   2.489   1.496   1.563
 4757SOL    HW215171   2.513   1.654   1.596
 4758SOL     OW15172   5.445   4.014   5.522
 4758SOL    HW115173   5.489   4.100   5.497
 4758SOL    HW215174   5.366   4.033   5.580
 4759SOL     OW15175   6.133   4.153   5.995
 4759SOL    HW115176   6.131   4.246   5.957
 4759SOL    HW215177   6.088   4.090   5.932
 4760SOL     OW15178   1.770   2.690   0.800
 4760SOL    HW115179   1.838   2.642   0.745
 4760SOL    HW215180   1.687   2.703   0.745
 4761SOL     OW15181   1.493   5.848   5.727
 4761SOL    HW115182   1.469   5.835   5.823
 4761SOL    HW215183   1.591   5.861   5.718
 4762SOL     OW15184   3.988   6.898   2.233
 4762SOL    HW115185   3.949   6.812   2.203
 4762SOL    HW215186   4.013   6.953   2.154
 4763SOL     OW15187   5.675   5.144   4.538
 4763SOL    HW115188   5.655   5.164   4.634
 4763SOL    HW215189   5.689   5.046   4.526
 4764SOL     OW15190   3.929   4.045   4.624
 4764SOL    HW115191   3.959   4.005   4.710
 4764SOL    HW215192   3.838   4.085   4.634
 4765SOL     OW15193   6.651   4.588   5.534
 4765SOL    HW115194   6.613   4.572   5.625
 4765SOL    HW215195   6.579   4.581   5.466
 4766SOL     OW15196   3.158   0.339   3.256
 4766SOL    HW115197   3.131   0.262   3.199
 4766SOL    HW215198   3.232   0.310   3.318
 4767SOL     OW15199   4.229   6.172   6.608
 4767SOL    HW115200   4.153   6.232   6.582
 4767SOL    HW215201   4.271   6.206   6.692
 4768SOL     OW15202   0.806   1.066   5.277
 4768SOL    HW115203   0.810   1.165   5.286
 4768SOL    HW215204   0.712   1.035   5.287
 4769SOL     OW15205   3.434   1.077   1.485
 4769SOL    HW115206   3.532   1.080   1.468
 4769SOL    HW215207   3.409   1.148   1.551
 4770SOL     OW15208   2.081   0.268   4.172
 4770SOL    HW115209   2.098   0.320   4.255
 4770SOL    HW215210   1.982   0.261   4.156
 4771SOL     OW15211   4.155   4.432   5.324
 4771SOL    HW115212   4.226   4.424   5.255
 4771SOL    HW215213   4.069   4.394   5.289
 4772SOL     OW15214   1.986   3.162   0.104
 4772SOL    HW115215   1.904   3.179   0.049
 4772SOL    HW215216   2.063   3.142   0.043
 4773SOL     OW15217   0.249   5.102   4.279
 4773SOL    HW115218   0.344   5.109   4.248
 4773SOL    HW215219   0.193   5.169   4.231
 4774SOL     OW15220   1.600   4.524   6.653
 4774SOL    HW115221   1.699   4.522   6.638
 4774SOL    HW215222   1.554   4.478   6.577
 4775SOL     OW15223   2.355   1.547   2.484
 4775SOL    HW115224   2.293   1.607   2.432
 4775SOL    HW215225   2.435   1.599   2.513
 4776SOL     OW15226   4.020   4.813   2.185
 4776SOL    HW115227   3.975   4.882   2.241
 4776SOL    HW215228   3.954   4.742   2.160
 4777SOL     OW15229   2.896   3.933   1.374
 4777SOL    HW115230   2.988   3.904   1.400
 4777SOL    HW215231   2.872   4.017   1.423
 4778SOL     OW15232   5.102   3.859   2.867
 4778SOL    HW115233   5.039   3.842   2.943
 4778SOL    HW215234   5.112   3.775   2.813
 4779SOL     OW15235   4.786   0.796   2.815
 4779SOL    HW115236   4.807   0.884   2.773
 4779SOL    HW215237   4.871   0.747   2.836
 4780SOL     OW15238   1.848   7.024   5.506
 4780SOL    HW115239   1.862   0.095   5.484
 4780SOL    HW215240   1.883   6.967   5.432
 4781SOL     OW15241   2.554   5.638   3.015
 4781SOL    HW115242   2.524   5.652   3.109
 4781SOL    HW215243   2.605   5.552   3.008
 4782SOL     OW15244   5.873   6.047   0.214
 4782SOL    HW115245   5.820   6.005   0.288
 4782SOL    HW215246   5.816   6.116   0.169
 4783SOL     OW15247   6.459   3.824   2.435
 4783SOL    HW115248   6.381   3.885   2.426
 4783SOL    HW215249   6.484   3.815   2.531
 4784SOL     OW15250   5.863   4.150   4.888
 4784SOL    HW115251   5.811   4.065   4.875
 4784SOL    HW215252   5.801   4.228   4.883
 4785SOL     OW15253   6.177   6.834   0.874
 4785SOL    HW115254   6.178   6.763   0.804
 4785SOL    HW215255   6.271   6.863   0.894
 4786SOL     OW15256   1.408   2.883   2.100
 4786SOL    HW115257   1.407   2.896   2.001
 4786SOL    HW215258   1.362   2.797   2.123
 4787SOL     OW15259   4.264   2.270   2.940
 4787SOL    HW115260   4.183   2.220   2.910
 4787SOL    HW215261   4.345   2.231   2.897
 4788SOL     OW15262   1.833   6.303   5.593
 4788SOL    HW115263   1.927   6.330   5.573
 4788SOL    HW215264   1.821   6.290   5.691
 4789SOL     OW15265   6.134   6.714   0.621
 4789SOL    HW115266   6.131   6.769   0.538
 4789SOL    HW215267   6.042   6.682   0.644
 4790SOL     OW15268   5.216   0.525   6.837
 4790SOL    HW115269   5.196   0.451   6.902
 4790SOL    HW215270   5.177   0.610   6.870
 4791SOL     OW15271   4.524   1.863   3.225
 4791SOL    HW115272   4.623   1.878   3.231
 4791SOL    HW215273   4.504   1.765   3.234
 4792SOL     OW15274   3.154   2.503   1.384
 4792SOL    HW115275   3.073   2.521   1.327
 4792SOL    HW215276   3.228   2.564   1.356
 4793SOL     OW15277   0.705   0.209   6.814
 4793SOL    HW115278   0.688   0.116   6.783
 4793SOL    HW215279   0.623   0.247   6.856
 4794SOL     OW15280   4.167   1.206   1.839
 4794SOL    HW115281   4.147   1.153   1.921
 4794SOL    HW215282   4.266   1.219   1.831
 4795SOL     OW15283   5.613   2.735   4.132
 4795SOL    HW115284   5.622   2.824   4.175
 4795SOL    HW215285   5.569   2.671   4.196
 4796SOL     OW15286   5.825   3.724   0.582
 4796SOL    HW115287   5.801   3.650   0.646
 4796SOL    HW215288   5.902   3.775   0.618
 4797SOL     OW15289   0.318   4.764   4.866
 4797SOL    HW115290   0.262   4.830   4.817
 4797SOL    HW215291   0.271   4.676   4.869
 4798SOL     OW15292   6.813   4.238   5.747
 4798SOL    HW115293   6.743   4.184   5.796
 4798SOL    HW215294   6.843   4.313   5.805
 4799SOL     OW15295   3.711   1.331   5.112
 4799SOL    HW115296   3.806   1.309   5.135
 4799SOL    HW215297   3.673   1.391   5.182
 4800SOL     OW15298   2.266   1.880   3.842
 4800SOL    HW115299   2.188   1.942   3.844
 4800SOL    HW215300   2.298   1.870   3.748
 4801SOL     OW15301   0.818   3.001   0.819
 4801SOL    HW115302   0.737   3.024   0.766
 4801SOL    HW215303   0.900   3.012   0.763
 4802SOL     OW15304   1.984   0.039   1.976
 4802SOL    HW115305   1.958   0.132   1.950
 4802SOL    HW215306   2.080   0.038   2.001
 4803SOL     OW15307   0.467   0.195   1.151
 4803SOL    HW115308   0.419   0.154   1.074
 4803SOL    HW215309   0.400   0.229   1.217
 4804SOL     OW15310   3.894   5.295   0.084
 4804SOL    HW115311   3.986   5.333   0.085
 4804SOL    HW215312   3.881   5.234   0.162
 4805SOL     OW15313   0.606   0.955   0.937
 4805SOL    HW115314   0.668   0.982   0.864
 4805SOL    HW215315   0.602   1.027   1.006
 4806SOL     OW15316   0.232   2.752   3.292
 4806SOL    HW115317   0.265   2.658   3.279
 4806SOL    HW215318   0.280   2.813   3.229
 4807SOL     OW15319   0.618   6.526   1.901
 4807SOL    HW115320   0.619   6.501   1.804
 4807SOL    HW215321   0.663   6.455   1.955
 4808SOL     OW15322   5.115   3.029   0.827
 4808SOL    HW115323   5.043   2.983   0.878
 4808SOL    HW215324   5.196   2.971   0.824
 4809SOL     OW15325   4.260   6.494   6.647
 4809SOL    HW115326   4.326   6.490   6.571
 4809SOL    HW215327   4.177   6.446   6.621
 4810SOL     OW15328   0.978   0.350   1.273
 4810SOL    HW115329   0.967   0.449   1.265
 4810SOL    HW215330   0.924   0.304   1.203
 4811SOL     OW15331   5.350   5.577   2.799
 4811SOL    HW115332   5.344   5.553   2.703
 4811SOL    HW215333   5.432   5.536   2.839
 4812SOL     OW15334   6.770   5.433   4.239
 4812SOL    HW115335   6.701   5.502   4.260
 4812SOL    HW215336   6.757   5.402   4.144
 4813SOL     OW15337   5.448   3.487   2.822
 4813SOL    HW115338   5.401   3.398   2.826
 4813SOL    HW215339   5.428   3.530   2.734
 4814SOL     OW15340   6.426   3.630   1.782
 4814SOL    HW115341   6.348   3.569   1.766
 4814SOL    HW215342   6.450   3.628   1.879
 4815SOL     OW15343   4.269   0.126   3.032
 4815SOL    HW115344   4.289   0.054   2.966
 4815SOL    HW215345   4.331   0.118   3.110
 4816SOL     OW15346   5.323   4.918   3.101
 4816SOL    HW115347   5.338   5.016   3.112
 4816SOL    HW215348   5.284   4.880   3.185
 4817SOL     OW15349   7.004   1.583   0.096
 4817SOL    HW115350   7.011   1.649   0.171
 4817SOL    HW215351   6.937   1.513   0.120
 4818SOL     OW15352   0.309   5.914   3.589
 4818SOL    HW115353   0.295   5.816   3.603
 4818SOL    HW215354   0.346   5.954   3.673
 4819SOL     OW15355   1.951   3.157   1.092
 4819SOL    HW115356   2.008   3.223   1.141
 4819SOL    HW215357   1.865   3.145   1.142
 4820SOL     OW15358   0.526   3.038   2.746
 4820SOL    HW115359   0.616   3.060   2.785
 4820SOL    HW215360   0.526   3.058   2.648
 4821SOL     OW15361   0.318   5.269   3.605
 4821SOL    HW115362   0.398   5.222   3.641
 4821SOL    HW215363   0.346   5.337   3.537
 4822SOL     OW15364   2.277   4.244   4.256
 4822SOL    HW115365   2.223   4.259   4.338
 4822SOL    HW215366   2.337   4.323   4.240
 4823SOL     OW15367   1.734   2.944   1.156
 4823SOL    HW115368   1.702   3.016   1.094
 4823SOL    HW215369   1.786   2.876   1.104
 4824SOL     OW15370   6.188   1.608   0.005
 4824SOL    HW115371   6.109   1.658   6.994
 4824SOL    HW215372   6.165   1.567   0.093
 4825SOL     OW15373   1.437   0.001   3.630
 4825SOL    HW115374   1.474   0.088   3.662
 4825SOL    HW215375   1.510   6.958   3.625
 4826SOL     OW15376   3.673   6.725   1.127
 4826SOL    HW115377   3.575   6.718   1.105
 4826SOL    HW215378   3.727   6.712   1.044
 4827SOL     OW15379   6.948   1.740   1.176
 4827SOL    HW115380   6.876   1.708   1.115
 4827SOL    HW215381   6.911   1.807   1.240
 4828SOL     OW15382   5.529   1.985   5.351
 4828SOL    HW115383   5.438   1.944   5.363
 4828SOL    HW215384   5.541   2.059   5.416
 4829SOL     OW15385   4.108   6.553   5.140
 4829SOL    HW115386   4.028   6.610   5.157
 4829SOL    HW215387   4.154   6.584   5.057
 4830SOL     OW15388   1.857   6.629   3.668
 4830SOL    HW115389   1.846   6.703   3.734
 4830SOL    HW215390   1.928   6.653   3.602
 4831SOL     OW15391   3.262   4.734   5.310
 4831SOL    HW115392   3.181   4.678   5.295
 4831SOL    HW215393   3.276   4.747   5.408
 4832SOL     OW15394   4.000   3.521   4.306
 4832SOL    HW115395   4.013   3.607   4.354
 4832SOL    HW215396   4.052   3.522   4.220
 4833SOL     OW15397   6.460   2.762   5.252
 4833SOL    HW115398   6.470   2.821   5.332
 4833SOL    HW215399   6.365   2.730   5.245
 4834SOL     OW15400   1.339   5.238   1.528
 4834SOL    HW115401   1.309   5.228   1.433
 4834SOL    HW215402   1.259   5.259   1.585
 4835SOL     OW15403   0.269   3.144   6.365
 4835SOL    HW115404   0.317   3.081   6.303
 4835SOL    HW215405   0.220   3.091   6.434
 4836SOL     OW15406   4.223   2.253   5.701
 4836SOL    HW115407   4.154   2.232   5.771
 4836SOL    HW215408   4.222   2.181   5.631
 4837SOL     OW15409   1.366   3.576   4.409
 4837SOL    HW115410   1.412   3.633   4.341
 4837SOL    HW215411   1.384   3.480   4.390
 4838SOL     OW15412   2.028   3.832   5.978
 4838SOL    HW115413   2.039   3.782   6.064
 4838SOL    HW215414   1.959   3.903   5.990
 4839SOL     OW15415   2.637   1.078   1.019
 4839SOL    HW115416   2.705   1.147   1.042
 4839SOL    HW215417   2.631   1.011   1.094
 4840SOL     OW15418   5.140   3.298   5.121
 4840SOL    HW115419   5.218   3.329   5.174
 4840SOL    HW215420   5.059   3.350   5.148
 4841SOL     OW15421   2.563   6.574   2.888
 4841SOL    HW115422   2.591   6.668   2.870
 4841SOL    HW215423   2.464   6.569   2.898
 4842SOL     OW15424   3.609   5.862   3.326
 4842SOL    HW115425   3.628   5.771   3.290
 4842SOL    HW215426   3.525   5.897   3.286
 4843SOL     OW15427   6.532   1.531   0.581
 4843SOL    HW115428   6.580   1.504   0.497
 4843SOL    HW215429   6.597   1.566   0.647
 4844SOL     OW15430   1.533   5.758   6.413
 4844SOL    HW115431   1.545   5.852   6.381
 4844SOL    HW215432   1.607   5.701   6.376
 4845SOL     OW15433   4.910   3.817   5.224
 4845SOL    HW115434   4.981   3.813   5.153
 4845SOL    HW215435   4.844   3.743   5.210
 4846SOL     OW15436   6.392   3.595   4.769
 4846SOL    HW115437   6.426   3.520   4.712
 4846SOL    HW215438   6.326   3.648   4.717
 4847SOL     OW15439   2.965   6.670   0.025
 4847SOL    HW115440   2.986   6.656   6.953
 4847SOL    HW215441   2.878   6.626   0.047
 4848SOL     OW15442   4.639   1.807   3.624
 4848SOL    HW115443   4.674   1.735   3.565
 4848SOL    HW215444   4.542   1.791   3.643
 4849SOL     OW15445   2.275   6.765   1.530
 4849SOL    HW115446   2.360   6.718   1.554
 4849SOL    HW215447   2.236   6.809   1.611
 4850SOL     OW15448   3.278   6.526   1.561
 4850SOL    HW115449   3.307   6.600   1.500
 4850SOL    HW215450   3.224   6.459   1.509
 4851SOL     OW15451   4.030   4.899   6.893
 4851SOL    HW115452   3.967   4.857   6.958
 4851SOL    HW215453   3.979   4.958   6.830
 4852SOL     OW15454   4.898   5.203   5.814
 4852SOL    HW115455   4.970   5.189   5.745
 4852SOL    HW215456   4.887   5.300   5.831
 4853SOL     OW15457   4.409   0.258   2.841
 4853SOL    HW115458   4.434   0.207   2.759
 4853SOL    HW215459   4.360   0.197   2.904
 4854SOL     OW15460   4.536   6.743   2.345
 4854SOL    HW115461   4.484   6.765   2.263
 4854SOL    HW215462   4.633   6.736   2.323
 4855SOL     OW15463   4.899   5.420   5.283
 4855SOL    HW115464   4.806   5.437   5.316
 4855SOL    HW215465   4.952   5.504   5.291
 4856SOL     OW15466   0.265   3.076   2.870
 4856SOL    HW115467   0.362   3.066   2.849
 4856SOL    HW215468   0.211   3.058   2.788
 4857SOL     OW15469   2.158   2.575   4.868
 4857SOL    HW115470   2.140   2.563   4.966
 4857SOL    HW215471   2.074   2.557   4.817
 4858SOL     OW15472   1.571   6.124   5.085
 4858SOL    HW115473   1.553   6.151   4.990
 4858SOL    HW215474   1.669   6.118   5.101
 4859SOL     OW15475   6.880   5.804   3.093
 4859SOL    HW115476   6.809   5.772   3.156
 4859SOL    HW215477   6.859   5.898   3.065
 4860SOL     OW15478   3.683   5.704   2.173
 4860SOL    HW115479   3.630   5.670   2.095
 4860SOL    HW215480   3.636   5.682   2.258
 4861SOL     OW15481   0.302   4.615   5.627
 4861SOL    HW115482   0.267   4.550   5.695
 4861SOL    HW215483   0.269   4.589   5.536
 4862SOL     OW15484   1.993   6.433   4.469
 4862SOL    HW115485   2.029   6.341   4.460
 4862SOL    HW215486   1.949   6.444   4.558
 4863SOL     OW15487   5.898   1.562   1.737
 4863SOL    HW115488   5.822   1.542   1.675
 4863SOL    HW215489   5.883   1.652   1.780
 4864SOL     OW15490   2.357   2.065   1.141
 4864SOL    HW115491   2.325   2.098   1.052
 4864SOL    HW215492   2.455   2.046   1.136
 4865SOL     OW15493   3.917   6.321   4.726
 4865SOL    HW115494   4.008   6.302   4.764
 4865SOL    HW215495   3.860   6.362   4.797
 4866SOL     OW15496   0.773   5.383   1.634
 4866SOL    HW115497   0.685   5.429   1.626
 4866SOL    HW215498   0.834   5.414   1.561
 4867SOL     OW15499   5.348   4.749   4.584
 4867SOL    HW115500   5.383   4.765   4.677
 4867SOL    HW215501   5.405   4.681   4.538
 4868SOL     OW15502   1.627   5.390   1.804
 4868SOL    HW115503   1.601   5.334   1.883
 4868SOL    HW215504   1.693   5.459   1.832
 4869SOL     OW15505   6.538   1.678   1.877
 4869SOL    HW115506   6.531   1.626   1.962
 4869SOL    HW215507   6.446   1.707   1.848
 4870SOL     OW15508   6.258   0.865   1.233
 4870SOL    HW115509   6.354   0.858   1.205
 4870SOL    HW215510   6.215   0.775   1.230
 4871SOL     OW15511   1.414   3.747   4.651
 4871SOL    HW115512   1.332   3.723   4.703
 4871SOL    HW215513   1.427   3.681   4.576
 4872SOL     OW15514   1.147   1.374   3.951
 4872SOL    HW115515   1.097   1.360   4.037
 4872SOL    HW215516   1.220   1.441   3.966
 4873SOL     OW15517   1.274   6.368   5.300
 4873SOL    HW115518   1.182   6.376   5.338
 4873SOL    HW215519   1.331   6.315   5.363
 4874SOL     OW15520   6.214   2.615   3.076
 4874SOL    HW115521   6.305   2.613   3.034
 4874SOL    HW215522   6.144   2.600   3.006
 4875SOL     OW15523   6.990   2.992   6.247
 4875SOL    HW115524   6.950   3.079   6.273
 4875SOL    HW215525   0.037   2.967   6.313
 4876SOL     OW15526   0.140   1.716   6.967
 4876SOL    HW115527   0.087   1.657   0.002
 4876SOL    HW215528   0.226   1.740   7.011
 4877SOL     OW15529   5.782   0.960   1.655
 4877SOL    HW115530   5.690   0.985   1.623
 4877SOL    HW215531   5.799   1.003   1.743
 4878SOL     OW15532   0.802   2.965   1.586
 4878SOL    HW115533   0.770   3.008   1.671
 4878SOL    HW215534   0.902   2.974   1.581
 4879SOL     OW15535   4.335   5.837   3.223
 4879SOL    HW115536   4.352   5.928   3.262
 4879SOL    HW215537   4.238   5.827   3.204
 4880SOL     OW15538   5.964   2.038   5.414
 4880SOL    HW115539   5.938   2.108   5.346
 4880SOL    HW215540   6.031   1.976   5.374
 4881SOL     OW15541   2.695   5.779   5.866
 4881SOL    HW115542   2.730   5.872   5.881
 4881SOL    HW215543   2.608   5.784   5.816
 4882SOL     OW15544   5.401   6.326   0.181
 4882SOL    HW115545   5.423   6.416   0.144
 4882SOL    HW215546   5.305   6.305   0.163
 4883SOL     OW15547   6.350   5.034   6.434
 4883SOL    HW115548   6.439   5.032   6.388
 4883SOL    HW215549   6.306   5.122   6.416
 4884SOL     OW15550   4.234   6.806   1.726
 4884SOL    HW115551   4.163   6.747   1.689
 4884SOL    HW215552   4.323   6.763   1.714
 4885SOL     OW15553   2.128   6.833   2.563
 4885SOL    HW115554   2.129   6.915   2.621
 4885SOL    HW215555   2.218   6.788   2.567
 4886SOL     OW15556   6.198   1.087   5.933
 4886SOL    HW115557   6.211   1.101   6.031
 4886SOL    HW215558   6.207   1.175   5.886
 4887SOL     OW15559   0.704   1.969   5.445
 4887SOL    HW115560   0.757   1.950   5.362
 4887SOL    HW215561   0.762   1.955   5.525
 4888SOL     OW15562   3.323   6.010   1.834
 4888SOL    HW115563   3.269   6.070   1.775
 4888SOL    HW215564   3.392   5.964   1.778
 4889SOL     OW15565   1.431   3.039   6.445
 4889SOL    HW115566   1.436   3.118   6.506
 4889SOL    HW215567   1.524   3.009   6.422
 4890SOL     OW15568   0.229   0.645   4.071
 4890SOL    HW115569   0.245   0.604   4.160
 4890SOL    HW215570   0.192   0.738   4.082
 4891SOL     OW15571   1.179   4.467   0.779
 4891SOL    HW115572   1.142   4.376   0.798
 4891SOL    HW215573   1.259   4.483   0.836
 4892SOL     OW15574   1.770   5.233   2.428
 4892SOL    HW115575   1.861   5.252   2.392
 4892SOL    HW215576   1.737   5.147   2.388
 4893SOL     OW15577   0.468   3.959   6.914
 4893SOL    HW115578   0.487   3.944   7.011
 4893SOL    HW215579   0.372   3.939   6.894
 4894SOL     OW15580   0.810   0.544   2.963
 4894SOL    HW115581   0.898   0.587   2.945
 4894SOL    HW215582   0.799   0.464   2.904
 4895SOL     OW15583   5.784   4.105   6.921
 4895SOL    HW115584   5.850   4.034   6.897
 4895SOL    HW215585   5.749   4.089   7.013
 4896SOL     OW15586   4.115   6.478   3.528
 4896SOL    HW115587   4.090   6.517   3.440
 4896SOL    HW215588   4.047   6.409   3.554
 4897SOL     OW15589   2.328   5.864   6.593
 4897SOL    HW115590   2.391   5.887   6.519
 4897SOL    HW215591   2.342   5.927   6.669
 4898SOL     OW15592   6.132   1.903   4.557
 4898SOL    HW115593   6.070   1.842   4.508
 4898SOL    HW215594   6.138   1.990   4.507
 4899SOL     OW15595   4.904   4.562   4.340
 4899SOL    HW115596   4.928   4.644   4.288
 4899SOL    HW215597   4.959   4.485   4.309
 4900SOL     OW15598   0.572   6.459   4.673
 4900SOL    HW115599   0.631   6.474   4.594
 4900SOL    HW215600   0.604   6.380   4.724
 4901SOL     OW15601   0.081   6.813   3.191
 4901SOL    HW115602   0.061   6.856   3.103
 4901SOL    HW215603   7.023   6.768   3.225
 4902SOL     OW15604   3.202   4.626   1.247
 4902SOL    HW115605   3.244   4.699   1.301
 4902SOL    HW215606   3.198   4.542   1.301
 4903SOL     OW15607   5.660   5.476   6.006
 4903SOL    HW115608   5.618   5.566   6.019
 4903SOL    HW215609   5.693   5.467   5.912
 4904SOL     OW15610   2.996   0.295   3.556
 4904SOL    HW115611   2.914   0.238   3.559
 4904SOL    HW215612   2.977   0.378   3.502
 4905SOL     OW15613   6.559   2.995   3.292
 4905SOL    HW115614   6.654   2.971   3.312
 4905SOL    HW215615   6.556   3.087   3.254
 4906SOL     OW15616   4.982   0.604   1.072
 4906SOL    HW115617   4.917   0.536   1.038
 4906SOL    HW215618   4.970   0.690   1.021
 4907SOL     OW15619   2.378   1.724   2.014
 4907SOL    HW115620   2.415   1.633   1.996
 4907SOL    HW215621   2.437   1.772   2.079
 4908SOL     OW15622   4.086   6.183   0.731
 4908SOL    HW115623   4.149   6.172   0.808
 4908SOL    HW215624   3.998   6.144   0.755
 4909SOL     OW15625   6.616   6.955   5.126
 4909SOL    HW115626   6.696   6.907   5.090
 4909SOL    HW215627   6.633   6.982   5.221
 4910SOL     OW15628   5.961   6.729   6.136
 4910SOL    HW115629   5.905   6.788   6.078
 4910SOL    HW215630   5.906   6.650   6.166
 4911SOL     OW15631   0.824   4.036   6.594
 4911SOL    HW115632   0.762   4.031   6.516
 4911SOL    HW215633   0.918   4.052   6.562
 4912SOL     OW15634   2.539   2.462   1.619
 4912SOL    HW115635   2.548   2.561   1.614
 4912SOL    HW215636   2.545   2.432   1.715
 4913SOL     OW15637   2.759   3.136   1.765
 4913SOL    HW115638   2.813   3.188   1.830
 4913SOL    HW215639   2.662   3.159   1.777
 4914SOL     OW15640   1.311   6.880   2.346
 4914SOL    HW115641   1.384   6.878   2.414
 4914SOL    HW215642   1.293   6.975   2.319
 4915SOL     OW15643   2.162   6.522   3.150
 4915SOL    HW115644   2.095   6.448   3.153
 4915SOL    HW215645   2.253   6.485   3.171
 4916SOL     OW15646   1.805   2.170   2.226
 4916SOL    HW115647   1.866   2.096   2.252
 4916SOL    HW215648   1.849   2.227   2.157
 4917SOL     OW15649   1.982   4.131   5.837
 4917SOL    HW115650   1.946   4.043   5.804
 4917SOL    HW215651   1.907   4.187   5.872
 4918SOL     OW15652   2.155   0.475   3.920
 4918SOL    HW115653   2.226   0.536   3.955
 4918SOL    HW215654   2.070   0.490   3.972
 4919SOL     OW15655   2.543   3.322   1.743
 4919SOL    HW115656   2.465   3.374   1.777
 4919SOL    HW215657   2.625   3.380   1.745
 4920SOL     OW15658   3.643   0.610   0.377
 4920SOL    HW115659   3.574   0.674   0.344
 4920SOL    HW215660   3.617   0.517   0.352
 4921SOL     OW15661   0.332   4.861   1.762
 4921SOL    HW115662   0.344   4.868   1.663
 4921SOL    HW215663   0.247   4.813   1.782
 4922SOL     OW15664   1.186   2.604   5.901
 4922SOL    HW115665   1.093   2.587   5.934
 4922SOL    HW215666   1.184   2.620   5.802
 4923SOL     OW15667   2.857   2.127   6.950
 4923SOL    HW115668   2.854   2.053   6.882
 4923SOL    HW215669   2.933   2.189   6.928
 4924SOL     OW15670   6.780   3.653   4.249
 4924SOL    HW115671   6.716   3.663   4.325
 4924SOL    HW215672   6.728   3.644   4.163
 4925SOL     OW15673   4.628   5.961   6.205
 4925SOL    HW115674   4.694   5.885   6.205
 4925SOL    HW215675   4.576   5.960   6.291
 4926SOL     OW15676   4.285   3.221   0.539
 4926SOL    HW115677   4.224   3.283   0.589
 4926SOL    HW215678   4.379   3.256   0.545
 4927SOL     OW15679   2.904   3.403   2.141
 4927SOL    HW115680   2.955   3.334   2.191
 4927SOL    HW215681   2.916   3.492   2.185
 4928SOL     OW15682   0.564   0.534   0.528
 4928SOL    HW115683   0.595   0.447   0.565
 4928SOL    HW215684   0.622   0.608   0.562
 4929SOL     OW15685   1.326   4.584   4.558
 4929SOL    HW115686   1.402   4.525   4.531
 4929SOL    HW215687   1.262   4.592   4.481
 4930SOL     OW15688   0.198   3.143   0.385
 4930SOL    HW115689   0.279   3.101   0.427
 4930SOL    HW215690   0.138   3.072   0.348
 4931SOL     OW15691   5.957   6.419   1.515
 4931SOL    HW115692   5.929   6.382   1.604
 4931SOL    HW215693   6.055   6.441   1.517
 4932SOL     OW15694   3.287   1.412   1.112
 4932SOL    HW115695   3.215   1.431   1.178
 4932SOL    HW215696   3.371   1.386   1.161
 4933SOL     OW15697   2.988   0.194   4.781
 4933SOL    HW115698   2.963   0.134   4.857
 4933SOL    HW215699   2.906   0.217   4.728
 4934SOL     OW15700   1.976   5.941   5.296
 4934SOL    HW115701   1.973   5.850   5.253
 4934SOL    HW215702   2.038   5.939   5.375
 4935SOL     OW15703   2.051   1.908   0.679
 4935SOL    HW115704   2.089   1.933   0.768
 4935SOL    HW215705   2.005   1.987   0.638
 4936SOL     OW15706   5.321   5.526   1.419
 4936SOL    HW115707   5.284   5.479   1.339
 4936SOL    HW215708   5.255   5.522   1.494
 4937SOL     OW15709   1.046   3.303   4.770
 4937SOL    HW115710   1.021   3.390   4.813
 4937SOL    HW215711   1.136   3.311   4.729
 4938SOL     OW15712   3.407   4.695   1.632
 4938SOL    HW115713   3.317   4.735   1.645
 4938SOL    HW215714   3.465   4.718   1.711
 4939SOL     OW15715   1.006   1.360   1.108
 4939SOL    HW115716   0.914   1.390   1.081
 4939SOL    HW215717   1.067   1.363   1.028
 4940SOL     OW15718   1.126   2.273   5.861
 4940SOL    HW115719   1.206   2.322   5.826
 4940SOL    HW215720   1.107   2.303   5.954
 4941SOL     OW15721   3.987   2.455   5.440
 4941SOL    HW115722   3.983   2.499   5.351
 4941SOL    HW215723   4.072   2.481   5.486
 4942SOL     OW15724   6.907   1.554   3.346
 4942SOL    HW115725   6.949   1.563   3.256
 4942SOL    HW215726   6.970   1.510   3.409
 4943SOL     OW15727   5.165   2.444   6.809
 4943SOL    HW115728   5.212   2.531   6.797
 4943SOL    HW215729   5.067   2.457   6.797
 4944SOL     OW15730   0.709   4.731   0.529
 4944SOL    HW115731   0.616   4.742   0.566
 4944SOL    HW215732   0.718   4.640   0.489
 4945SOL     OW15733   2.940   0.229   5.841
 4945SOL    HW115734   3.023   0.276   5.872
 4945SOL    HW215735   2.893   0.189   5.920
 4946SOL     OW15736   2.593   5.578   6.854
 4946SOL    HW115737   2.675   5.624   6.819
 4946SOL    HW215738   2.590   5.484   6.819
 4947SOL     OW15739   0.666   0.431   0.896
 4947SOL    HW115740   0.721   0.408   0.816
 4947SOL    HW215741   0.571   0.403   0.880
 4948SOL     OW15742   1.725   2.296   1.872
 4948SOL    HW115743   1.669   2.292   1.955
 4948SOL    HW215744   1.821   2.303   1.898
 4949SOL     OW15745   0.018   4.055   5.983
 4949SOL    HW115746   7.024   3.957   5.973
 4949SOL    HW215747   6.981   4.093   6.052
 4950SOL     OW15748   3.825   4.399   5.655
 4950SOL    HW115749   3.898   4.456   5.617
 4950SOL    HW215750   3.836   4.305   5.623
 4951SOL     OW15751   4.806   5.638   2.812
 4951SOL    HW115752   4.859   5.560   2.846
 4951SOL    HW215753   4.845   5.670   2.726
 4952SOL     OW15754   1.356   0.781   6.794
 4952SOL    HW115755   1.343   0.848   6.722
 4952SOL    HW215756   1.383   0.827   6.879
 4953SOL     OW15757   1.295   2.056   4.784
 4953SOL    HW115758   1.280   2.153   4.802
 4953SOL    HW215759   1.273   2.035   4.689
 4954SOL     OW15760   2.839   3.615   5.209
 4954SOL    HW115761   2.781   3.693   5.184
 4954SOL    HW215762   2.806   3.576   5.296
 4955SOL     OW15763   3.854   5.865   6.270
 4955SOL    HW115764   3.799   5.944   6.299
 4955SOL    HW215765   3.925   5.847   6.338
 4956SOL     OW15766   2.874   0.038   4.988
 4956SOL    HW115767   2.822   6.989   5.032
 4956SOL    HW215768   2.823   0.124   4.996
 4957SOL     OW15769   5.496   4.969   6.833
 4957SOL    HW115770   5.527   4.928   6.747
 4957SOL    HW215771   5.575   5.002   6.885
 4958SOL     OW15772   3.524   5.042   0.955
 4958SOL    HW115773   3.450   4.980   0.932
 4958SOL    HW215774   3.487   5.123   1.001
 4959SOL     OW15775   6.813   2.514   2.780
 4959SOL    HW115776   6.879   2.471   2.718
 4959SOL    HW215777   6.758   2.443   2.823
 4960SOL     OW15778   5.275   4.465   3.598
 4960SOL    HW115779   5.216   4.541   3.625
 4960SOL    HW215780   5.331   4.436   3.676
 4961SOL     OW15781   3.481   2.561   1.754
 4961SOL    HW115782   3.453   2.612   1.836
 4961SOL    HW215783   3.545   2.489   1.780
 4962SOL     OW15784   1.422   2.942   0.446
 4962SOL    HW115785   1.479   2.923   0.526
 4962SOL    HW215786   1.430   2.866   0.381
 4963SOL     OW15787   0.890   3.993   5.861
 4963SOL    HW115788   0.940   3.934   5.925
 4963SOL    HW215789   0.885   3.950   5.771
 4964SOL     OW15790   1.924   5.408   4.741
 4964SOL    HW115791   1.879   5.490   4.705
 4964SOL    HW215792   2.023   5.419   4.735
 4965SOL     OW15793   1.864   6.673   3.137
 4965SOL    HW115794   1.851   6.763   3.096
 4965SOL    HW215795   1.870   6.604   3.065
 4966SOL     OW15796   4.269   0.178   5.058
 4966SOL    HW115797   4.215   0.115   5.114
 4966SOL    HW215798   4.234   0.177   4.964
 4967SOL     OW15799   4.098   4.804   4.316
 4967SOL    HW115800   4.027   4.847   4.372
 4967SOL    HW215801   4.170   4.768   4.375
 4968SOL     OW15802   0.253   2.856   3.702
 4968SOL    HW115803   0.240   2.797   3.622
 4968SOL    HW215804   0.210   2.945   3.685
 4969SOL     OW15805   0.199   6.353   4.147
 4969SOL    HW115806   0.228   6.308   4.063
 4969SOL    HW215807   0.267   6.338   4.219
 4970SOL     OW15808   1.956   1.484   1.499
 4970SOL    HW115809   2.026   1.462   1.430
 4970SOL    HW215810   1.879   1.421   1.489
 4971SOL     OW15811   0.236   6.173   1.852
 4971SOL    HW115812   0.294   6.093   1.845
 4971SOL    HW215813   0.215   6.192   1.948
 4972SOL     OW15814   0.910   4.410   0.399
 4972SOL    HW115815   0.855   4.408   0.316
 4972SOL    HW215816   0.996   4.458   0.382
 4973SOL     OW15817   6.038   1.283   0.423
 4973SOL    HW115818   5.991   1.209   0.377
 4973SOL    HW215819   6.109   1.246   0.483
 4974SOL     OW15820   3.419   0.027   4.754
 4974SOL    HW115821   3.434   7.011   4.663
 4974SOL    HW215822   3.349   0.098   4.748
 4975SOL     OW15823   5.304   4.897   1.155
 4975SOL    HW115824   5.236   4.946   1.209
 4975SOL    HW215825   5.357   4.962   1.101
 4976SOL     OW15826   0.944   0.153   3.412
 4976SOL    HW115827   0.860   0.146   3.466
 4976SOL    HW215828   1.019   0.183   3.471
 4977SOL     OW15829   1.676   4.106   5.811
 4977SOL    HW115830   1.636   4.115   5.902
 4977SOL    HW215831   1.645   4.021   5.769
 4978SOL     OW15832   6.019   4.577   4.375
 4978SOL    HW115833   6.008   4.497   4.434
 4978SOL    HW215834   6.112   4.612   4.384
 4979SOL     OW15835   2.463   6.861   6.791
 4979SOL    HW115836   2.480   6.927   6.864
 4979SOL    HW215837   2.550   6.837   6.747
 4980SOL     OW15838   5.632   2.781   3.864
 4980SOL    HW115839   5.636   2.768   3.963
 4980SOL    HW215840   5.670   2.870   3.840
 4981SOL     OW15841   3.391   5.518   3.207
 4981SOL    HW115842   3.322   5.501   3.136
 4981SOL    HW215843   3.395   5.440   3.269
 4982SOL     OW15844   3.745   2.257   5.235
 4982SOL    HW115845   3.732   2.324   5.308
 4982SOL    HW215846   3.659   2.210   5.216
 4983SOL     OW15847   5.942   4.257   2.547
 4983SOL    HW115848   6.005   4.269   2.624
 4983SOL    HW215849   5.981   4.191   2.482
 4984SOL     OW15850   4.856   3.717   4.703
 4984SOL    HW115851   4.866   3.639   4.640
 4984SOL    HW215852   4.846   3.683   4.796
 4985SOL     OW15853   5.744   0.698   2.079
 4985SOL    HW115854   5.796   0.693   2.164
 4985SOL    HW215855   5.657   0.651   2.091
 4986SOL     OW15856   0.730   5.340   1.267
 4986SOL    HW115857   0.810   5.392   1.296
 4986SOL    HW215858   0.758   5.249   1.235
 4987SOL     OW15859   2.048   1.328   3.023
 4987SOL    HW115860   2.127   1.268   3.040
 4987SOL    HW215861   2.039   1.342   2.924
 4988SOL     OW15862   6.406   5.485   3.926
 4988SOL    HW115863   6.488   5.437   3.957
 4988SOL    HW215864   6.350   5.510   4.004
 4989SOL     OW15865   5.683   6.857   3.496
 4989SOL    HW115866   5.674   6.846   3.595
 4989SOL    HW215867   5.618   6.796   3.450
 4990SOL     OW15868   4.558   1.676   5.968
 4990SOL    HW115869   4.486   1.697   5.902
 4990SOL    HW215870   4.552   1.739   6.045
 4991SOL     OW15871   1.848   5.563   5.985
 4991SOL    HW115872   1.928   5.543   5.929
 4991SOL    HW215873   1.769   5.514   5.948
 4992SOL     OW15874   1.589   3.646   4.219
 4992SOL    HW115875   1.592   3.736   4.176
 4992SOL    HW215876   1.609   3.576   4.151
 4993SOL     OW15877   2.507   6.350   4.110
 4993SOL    HW115878   2.592   6.401   4.120
 4993SOL    HW215879   2.460   6.379   4.027
 4994SOL     OW15880   4.139   5.326   5.614
 4994SOL    HW115881   4.184   5.338   5.702
 4994SOL    HW215882   4.046   5.364   5.619
 4995SOL     OW15883   0.352   0.634   5.930
 4995SOL    HW115884   0.386   0.642   6.023
 4995SOL    HW215885   0.378   0.715   5.878
 4996SOL     OW15886   0.206   1.099   3.949
 4996SOL    HW115887   0.303   1.114   3.967
 4996SOL    HW215888   0.174   1.022   4.004
 4997SOL     OW15889   3.996   1.342   0.938
 4997SOL    HW115890   3.974   1.273   0.870
 4997SOL    HW215891   4.054   1.302   1.009
 4998SOL     OW15892   0.827   3.648   3.447
 4998SOL    HW115893   0.824   3.747   3.431
 4998SOL    HW215894   0.887   3.605   3.379
 4999SOL     OW15895   0.999   2.629   3.463
 4999SOL    HW115896   1.092   2.592   3.455
 4999SOL    HW215897   0.946   2.603   3.383
 5000SOL     OW15898   2.442   6.506   3.209
 5000SOL    HW115899   2.513   6.511   3.278
 5000SOL    HW215900   2.484   6.492   3.119
 5001SOL     OW15901   0.159   6.395   3.201
 5001SOL    HW115902   0.174   6.458   3.125
 5001SOL    HW215903   0.223   6.319   3.195
 5002SOL     OW15904   1.160   4.608   3.982
 5002SOL    HW115905   1.081   4.632   3.926
 5002SOL    HW215906   1.137   4.622   4.079
 5003SOL     OW15907   3.883   0.551   2.711
 5003SOL    HW115908   3.977   0.539   2.677
 5003SOL    HW215909   3.819   0.539   2.636
 5004SOL     OW15910   3.739   5.889   0.236
 5004SOL    HW115911   3.811   5.879   0.167
 5004SOL    HW215912   3.669   5.819   0.221
 5005SOL     OW15913   2.886   2.793   0.570
 5005SOL    HW115914   2.930   2.731   0.504
 5005SOL    HW215915   2.955   2.830   0.632
 5006SOL     OW15916   4.934   1.144   2.357
 5006SOL    HW115917   5.027   1.176   2.338
 5006SOL    HW215918   4.938   1.052   2.396
 5007SOL     OW15919   6.184   5.675   1.850
 5007SOL    HW115920   6.224   5.688   1.941
 5007SOL    HW215921   6.090   5.640   1.860
 5008SOL     OW15922   5.393   0.564   3.358
 5008SOL    HW115923   5.476   0.524   3.399
 5008SOL    HW215924   5.313   0.517   3.394
 5009SOL     OW15925   0.049   2.273   0.741
 5009SOL    HW115926   0.022   2.352   0.796
 5009SOL    HW215927   6.998   2.208   0.737
 5010SOL     OW15928   3.942   3.832   0.887
 5010SOL    HW115929   4.013   3.833   0.958
 5010SOL    HW215930   3.935   3.741   0.848
 5011SOL     OW15931   1.408   2.830   6.611
 5011SOL    HW115932   1.363   2.850   6.698
 5011SOL    HW215933   1.416   2.914   6.557
 5012SOL     OW15934   6.103   1.498   6.365
 5012SOL    HW115935   6.069   1.570   6.305
 5012SOL    HW215936   6.026   1.457   6.414
 5013SOL     OW15937   5.440   6.948   5.837
 5013SOL    HW115938   5.434   6.849   5.822
 5013SOL    HW215939   5.367   6.994   5.786
 5014SOL     OW15940   5.404   3.247   1.212
 5014SOL    HW115941   5.418   3.162   1.262
 5014SOL    HW215942   5.314   3.245   1.168
 5015SOL     OW15943   6.280   5.577   4.154
 5015SOL    HW115944   6.192   5.555   4.197
 5015SOL    HW215945   6.299   5.674   4.165
 5016SOL     OW15946   1.772   3.366   6.037
 5016SOL    HW115947   1.863   3.355   6.076
 5016SOL    HW215948   1.761   3.460   6.003
 5017SOL     OW15949   0.396   3.076   1.692
 5017SOL    HW115950   0.366   3.115   1.605
 5017SOL    HW215951   0.319   3.077   1.756
 5018SOL     OW15952   1.119   0.647   6.862
 5018SOL    HW115953   1.207   0.694   6.869
 5018SOL    HW215954   1.110   0.606   6.771
 5019SOL     OW15955   1.618   4.220   4.232
 5019SOL    HW115956   1.598   4.203   4.329
 5019SOL    HW215957   1.532   4.236   4.183
 5020SOL     OW15958   2.099   0.199   4.585
 5020SOL    HW115959   2.161   0.156   4.520
 5020SOL    HW215960   2.152   0.253   4.651
 5021SOL     OW15961   2.350   0.898   0.994
 5021SOL    HW115962   2.407   0.963   0.943
 5021SOL    HW215963   2.286   0.948   1.052
 5022SOL     OW15964   6.625   2.907   1.078
 5022SOL    HW115965   6.646   3.001   1.048
 5022SOL    HW215966   6.637   2.900   1.177
 5023SOL     OW15967   0.341   4.202   2.787
 5023SOL    HW115968   0.423   4.169   2.833
 5023SOL    HW215969   0.292   4.125   2.747
 5024SOL     OW15970   4.614   3.789   0.984
 5024SOL    HW115971   4.575   3.710   0.936
 5024SOL    HW215972   4.543   3.836   1.036
 5025SOL     OW15973   4.723   1.512   4.625
 5025SOL    HW115974   4.807   1.494   4.675
 5025SOL    HW215975   4.645   1.505   4.687
 5026SOL     OW15976   5.218   6.826   4.397
 5026SOL    HW115977   5.239   6.821   4.495
 5026SOL    HW215978   5.133   6.779   4.378
 5027SOL     OW15979   5.384   6.374   0.753
 5027SOL    HW115980   5.342   6.367   0.844
 5027SOL    HW215981   5.312   6.381   0.684
 5028SOL     OW15982   5.956   2.239   2.151
 5028SOL    HW115983   6.009   2.158   2.125
 5028SOL    HW215984   5.996   2.320   2.108
 5029SOL     OW15985   6.088   1.998   2.098
 5029SOL    HW115986   6.176   1.979   2.142
 5029SOL    HW215987   6.023   1.926   2.122
 5030SOL     OW15988   0.727   3.745   6.475
 5030SOL    HW115989   0.694   3.794   6.556
 5030SOL    HW215990   0.652   3.693   6.434
 5031SOL     OW15991   6.608   0.282   6.028
 5031SOL    HW115992   6.600   0.381   6.043
 5031SOL    HW215993   6.581   0.234   6.112
 5032SOL     OW15994   2.840   3.483   5.987
 5032SOL    HW115995   2.773   3.534   5.933
 5032SOL    HW215996   2.925   3.535   5.993
 5033SOL     OW15997   2.422   6.949   6.350
 5033SOL    HW115998   2.484   6.967   6.426
 5033SOL    HW215999   2.460   6.876   6.293
 5034SOL     OW16000   4.189   6.289   4.544
 5034SOL    HW116001   4.124   6.264   4.615
 5034SOL    HW216002   4.204   6.211   4.483
 5035SOL     OW16003   2.151   3.434   4.002
 5035SOL    HW116004   2.148   3.471   4.094
 5035SOL    HW216005   2.215   3.357   3.998
 5036SOL     OW16006   1.279   2.755   4.791
 5036SOL    HW116007   1.337   2.774   4.712
 5036SOL    HW216008   1.225   2.837   4.813
 5037SOL     OW16009   4.552   4.121   1.099
 5037SOL    HW116010   4.490   4.179   1.152
 5037SOL    HW216011   4.498   4.053   1.049
 5038SOL     OW16012   3.617   3.387   3.263
 5038SOL    HW116013   3.566   3.465   3.297
 5038SOL    HW216014   3.636   3.324   3.338
 5039SOL     OW16015   1.245   3.866   6.983
 5039SOL    HW116016   1.217   3.828   0.047
 5039SOL    HW216017   1.174   3.928   6.950
 5040SOL     OW16018   0.267   1.479   6.027
 5040SOL    HW116019   0.266   1.431   5.939
 5040SOL    HW216020   0.346   1.540   6.031
 5041SOL     OW16021   6.740   2.325   1.205
 5041SOL    HW116022   6.762   2.422   1.211
 5041SOL    HW216023   6.736   2.298   1.108
 5042SOL     OW16024   1.185   2.585   6.336
 5042SOL    HW116025   1.088   2.601   6.353
 5042SOL    HW216026   1.236   2.591   6.422
 5043SOL     OW16027   3.435   6.331   1.678
 5043SOL    HW116028   3.411   6.425   1.655
 5043SOL    HW216029   3.352   6.276   1.684
 5044SOL     OW16030   6.835   5.385   6.963
 5044SOL    HW116031   6.816   5.480   6.986
 5044SOL    HW216032   6.768   5.326   7.007
 5045SOL     OW16033   5.448   2.737   6.629
 5045SOL    HW116034   5.396   2.688   6.559
 5045SOL    HW216035   5.488   2.672   6.693
 5046SOL     OW16036   4.053   3.283   2.434
 5046SOL    HW116037   4.056   3.195   2.481
 5046SOL    HW216038   4.021   3.271   2.340
 5047SOL     OW16039   2.123   3.627   3.784
 5047SOL    HW116040   2.164   3.711   3.750
 5047SOL    HW216041   2.162   3.604   3.873
 5048SOL     OW16042   2.704   0.575   6.364
 5048SOL    HW116043   2.705   0.672   6.389
 5048SOL    HW216044   2.738   0.565   6.271
 5049SOL     OW16045   4.436   1.966   6.787
 5049SOL    HW116046   4.418   1.982   6.690
 5049SOL    HW216047   4.387   1.883   6.817
 5050SOL     OW16048   1.728   0.268   0.823
 5050SOL    HW116049   1.698   0.240   0.915
 5050SOL    HW216050   1.766   0.360   0.827
 5051SOL     OW16051   4.937   5.329   1.179
 5051SOL    HW116052   4.842   5.317   1.208
 5051SOL    HW216053   4.940   5.360   1.084
 5052SOL     OW16054   2.513   1.609   5.012
 5052SOL    HW116055   2.455   1.689   4.995
 5052SOL    HW216056   2.512   1.549   4.932
 5053SOL     OW16057   0.215   1.146   1.663
 5053SOL    HW116058   0.145   1.105   1.722
 5053SOL    HW216059   0.200   1.244   1.657
 5054SOL     OW16060   3.889   5.739   3.799
 5054SOL    HW116061   3.837   5.660   3.766
 5054SOL    HW216062   3.960   5.762   3.731
 5055SOL     OW16063   0.234   3.768   6.174
 5055SOL    HW116064   0.286   3.839   6.127
 5055SOL    HW216065   0.153   3.809   6.217
 5056SOL     OW16066   5.756   3.905   3.769
 5056SOL    HW116067   5.664   3.928   3.735
 5056SOL    HW216068   5.756   3.906   3.869
 5057SOL     OW16069   0.706   5.300   2.410
 5057SOL    HW116070   0.718   5.400   2.413
 5057SOL    HW216071   0.697   5.270   2.315
 5058SOL     OW16072   2.588   5.353   5.835
 5058SOL    HW116073   2.678   5.382   5.803
 5058SOL    HW216074   2.549   5.288   5.769
 5059SOL     OW16075   6.659   0.648   2.023
 5059SOL    HW116076   6.737   0.608   2.072
 5059SOL    HW216077   6.579   0.589   2.036
 5060SOL     OW16078   6.889   2.399   6.149
 5060SOL    HW116079   6.868   2.301   6.157
 5060SOL    HW216080   6.816   2.452   6.193
 5061SOL     OW16081   5.219   4.611   0.815
 5061SOL    HW116082   5.315   4.613   0.840
 5061SOL    HW216083   5.173   4.693   0.851
 5062SOL     OW16084   6.568   0.490   0.967
 5062SOL    HW116085   6.508   0.552   1.018
 5062SOL    HW216086   6.519   0.455   0.887
 5063SOL     OW16087   1.376   5.964   2.063
 5063SOL    HW116088   1.342   5.989   2.154
 5063SOL    HW216089   1.396   6.047   2.012
 5064SOL     OW16090   5.046   3.489   7.024
 5064SOL    HW116091   4.985   3.455   6.953
 5064SOL    HW216092   5.133   3.440   7.020
 5065SOL     OW16093   2.956   6.864   5.991
 5065SOL    HW116094   2.909   6.814   5.918
 5065SOL    HW216095   3.051   6.882   5.962
 5066SOL     OW16096   4.815   5.117   1.361
 5066SOL    HW116097   4.748   5.065   1.309
 5066SOL    HW216098   4.872   5.055   1.414
 5067SOL     OW16099   5.311   1.293   6.700
 5067SOL    HW116100   5.315   1.373   6.640
 5067SOL    HW216101   5.286   1.322   6.793
 5068SOL     OW16102   3.540   5.130   1.447
 5068SOL    HW116103   3.577   5.039   1.428
 5068SOL    HW216104   3.556   5.153   1.543
 5069SOL     OW16105   0.219   5.083   2.882
 5069SOL    HW116106   0.263   5.055   2.967
 5069SOL    HW216107   0.289   5.117   2.818
 5070SOL     OW16108   4.860   3.352   4.302
 5070SOL    HW116109   4.956   3.340   4.277
 5070SOL    HW216110   4.838   3.291   4.379
 5071SOL     OW16111   3.974   1.148   6.872
 5071SOL    HW116112   3.998   1.236   6.914
 5071SOL    HW216113   3.933   1.089   6.942
 5072SOL     OW16114   1.131   4.422   1.432
 5072SOL    HW116115   1.086   4.508   1.454
 5072SOL    HW216116   1.155   4.374   1.516
 5073SOL     OW16117   4.284   1.954   4.410
 5073SOL    HW116118   4.336   1.938   4.326
 5073SOL    HW216119   4.345   1.993   4.480
 5074SOL     OW16120   3.887   5.050   4.947
 5074SOL    HW116121   3.965   5.113   4.947
 5074SOL    HW216122   3.865   5.024   5.041
 5075SOL     OW16123   6.650   6.550   3.864
 5075SOL    HW116124   6.741   6.515   3.841
 5075SOL    HW216125   6.580   6.493   3.822
 5076SOL     OW16126   3.958   0.684   0.904
 5076SOL    HW116127   3.915   0.663   0.817
 5076SOL    HW216128   3.987   0.780   0.905
 5077SOL     OW16129   0.029   2.625   2.484
 5077SOL    HW116130   0.047   2.546   2.543
 5077SOL    HW216131   0.108   2.686   2.486
 5078SOL     OW16132   6.992   1.132   3.813
 5078SOL    HW116133   0.053   1.109   3.860
 5078SOL    HW216134   6.989   1.087   3.724
 5079SOL     OW16135   4.259   4.786   4.871
 5079SOL    HW116136   4.340   4.842   4.853
 5079SOL    HW216137   4.283   4.689   4.865
 5080SOL     OW16138   6.047   0.198   5.773
 5080SOL    HW116139   5.976   0.262   5.803
 5080SOL    HW216140   6.131   0.215   5.825
 5081SOL     OW16141   2.930   3.369   2.880
 5081SOL    HW116142   2.918   3.275   2.850
 5081SOL    HW216143   2.957   3.426   2.802
 5082SOL     OW16144   6.948   0.564   5.993
 5082SOL    HW116145   6.897   0.493   5.945
 5082SOL    HW216146   6.892   0.647   5.999
 5083SOL     OW16147   1.153   5.811   2.011
 5083SOL    HW116148   1.102   5.809   1.925
 5083SOL    HW216149   1.229   5.874   2.004
 5084SOL     OW16150   2.062   5.914   2.391
 5084SOL    HW116151   2.032   6.007   2.370
 5084SOL    HW216152   1.994   5.870   2.450
 5085SOL     OW16153   6.803   2.900   6.503
 5085SOL    HW116154   6.756   2.900   6.591
 5085SOL    HW216155   6.781   2.985   6.454
 5086SOL     OW16156   0.082   4.921   4.366
 5086SOL    HW116157   0.137   5.001   4.340
 5086SOL    HW216158   7.018   4.925   4.320
 5087SOL     OW16159   0.020   5.572   5.263
 5087SOL    HW116160   0.120   5.583   5.262
 5087SOL    HW216161   7.001   5.662   5.273
 5088SOL     OW16162   6.083   0.650   0.021
 5088SOL    HW116163   6.130   0.703   0.091
 5088SOL    HW216164   6.100   0.690   6.956
 5089SOL     OW16165   5.374   2.759   3.901
 5089SOL    HW116166   5.332   2.850   3.897
 5089SOL    HW216167   5.474   2.769   3.902
 5090SOL     OW16168   1.274   5.176   0.763
 5090SOL    HW116169   1.222   5.091   0.754
 5090SOL    HW216170   1.213   5.250   0.789
 5091SOL     OW16171   1.477   6.937   3.339
 5091SOL    HW116172   1.489   6.940   3.438
 5091SOL    HW216173   1.380   6.927   3.318
 5092SOL     OW16174   3.506   2.989   1.319
 5092SOL    HW116175   3.472   3.081   1.299
 5092SOL    HW216176   3.552   2.989   1.408
 5093SOL     OW16177   1.200   1.940   1.077
 5093SOL    HW116178   1.273   1.992   1.120
 5093SOL    HW216179   1.153   1.997   1.009
 5094SOL     OW16180   6.961   0.275   6.793
 5094SOL    HW116181   6.968   0.369   6.826
 5094SOL    HW216182   6.875   0.263   6.743
 5095SOL     OW16183   3.663   0.276   5.307
 5095SOL    HW116184   3.675   0.375   5.300
 5095SOL    HW216185   3.659   0.250   5.403
 5096SOL     OW16186   3.749   5.643   2.923
 5096SOL    HW116187   3.770   5.735   2.958
 5096SOL    HW216188   3.769   5.639   2.826
 5097SOL     OW16189   0.768   1.376   6.372
 5097SOL    HW116190   0.838   1.345   6.307
 5097SOL    HW216191   0.714   1.449   6.330
 5098SOL     OW16192   6.813   2.960   2.768
 5098SOL    HW116193   6.806   2.928   2.673
 5098SOL    HW216194   6.844   2.885   2.826
 5099SOL     OW16195   0.795   0.215   4.353
 5099SOL    HW116196   0.818   0.286   4.286
 5099SOL    HW216197   0.876   0.161   4.374
 5100SOL     OW16198   4.752   5.444   6.076
 5100SOL    HW116199   4.786   5.529   6.035
 5100SOL    HW216200   4.808   5.421   6.156
 5101SOL     OW16201   4.528   6.051   0.656
 5101SOL    HW116202   4.621   6.071   0.624
 5101SOL    HW216203   4.482   6.137   0.678
 5102SOL     OW16204   3.999   5.578   3.989
 5102SOL    HW116205   3.916   5.542   4.033
 5102SOL    HW216206   3.973   5.637   3.912
 5103SOL     OW16207   1.534   1.129   4.302
 5103SOL    HW116208   1.473   1.205   4.325
 5103SOL    HW216209   1.492   1.043   4.330
 5104SOL     OW16210   0.862   0.216   1.022
 5104SOL    HW116211   0.768   0.247   1.038
 5104SOL    HW216212   0.862   0.142   0.955
 5105SOL     OW16213   2.177   2.975   6.580
 5105SOL    HW116214   2.162   3.050   6.645
 5105SOL    HW216215   2.224   3.010   6.499
 5106SOL     OW16216   2.703   0.136   2.362
 5106SOL    HW116217   2.761   0.197   2.418
 5106SOL    HW216218   2.607   0.160   2.376
 5107SOL     OW16219   1.352   0.668   6.246
 5107SOL    HW116220   1.359   0.665   6.146
 5107SOL    HW216221   1.388   0.755   6.279
 5108SOL     OW16222   2.893   3.443   3.605
 5108SOL    HW116223   2.857   3.448   3.698
 5108SOL    HW216224   2.887   3.533   3.562
 5109SOL     OW16225   0.277   1.559   1.713
 5109SOL    HW116226   0.271   1.609   1.626
 5109SOL    HW216227   0.196   1.580   1.769
 5110SOL     OW16228   2.284   5.529   5.053
 5110SOL    HW116229   2.202   5.473   5.046
 5110SOL    HW216230   2.364   5.473   5.029
 5111SOL     OW16231   1.894   1.179   6.836
 5111SOL    HW116232   1.848   1.132   6.911
 5111SOL    HW216233   1.903   1.117   6.758
 5112SOL     OW16234   0.506   0.115   3.349
 5112SOL    HW116235   0.490   0.209   3.321
 5112SOL    HW216236   0.440   0.055   3.304
 5113SOL     OW16237   0.870   0.426   6.343
 5113SOL    HW116238   0.940   0.358   6.322
 5113SOL    HW216239   0.891   0.468   6.431
 5114SOL     OW16240   4.155   5.543   6.749
 5114SOL    HW116241   4.183   5.634   6.716
 5114SOL    HW216242   4.060   5.547   6.779
 5115SOL     OW16243   2.117   3.850   4.830
 5115SOL    HW116244   2.137   3.760   4.870
 5115SOL    HW216245   2.172   3.920   4.875
 5116SOL     OW16246   6.576   3.308   0.852
 5116SOL    HW116247   6.506   3.301   0.781
 5116SOL    HW216248   6.545   3.373   0.922
 5117SOL     OW16249   2.708   5.000   3.492
 5117SOL    HW116250   2.615   4.971   3.467
 5117SOL    HW216251   2.733   4.956   3.578
 5118SOL     OW16252   4.203   6.367   1.750
 5118SOL    HW116253   4.166   6.414   1.670
 5118SOL    HW216254   4.178   6.418   1.832
 5119SOL     OW16255   6.387   0.142   2.431
 5119SOL    HW116256   6.433   0.215   2.482
 5119SOL    HW216257   6.386   0.059   2.485
 5120SOL     OW16258   3.563   1.493   2.354
 5120SOL    HW116259   3.578   1.402   2.392
 5120SOL    HW216260   3.491   1.489   2.285
 5121SOL     OW16261   1.402   3.283   4.249
 5121SOL    HW116262   1.471   3.256   4.315
 5121SOL    HW216263   1.398   3.215   4.175
 5122SOL     OW16264   2.185   5.701   3.316
 5122SOL    HW116265   2.134   5.782   3.345
 5122SOL    HW216266   2.139   5.619   3.351
 5123SOL     OW16267   6.189   3.902   2.056
 5123SOL    HW116268   6.207   3.810   2.090
 5123SOL    HW216269   6.234   3.915   1.967
 5124SOL     OW16270   2.639   6.545   0.887
 5124SOL    HW116271   2.612   6.640   0.879
 5124SOL    HW216272   2.581   6.500   0.955
 5125SOL     OW16273   7.005   1.957   5.822
 5125SOL    HW116274   7.017   2.018   5.900
 5125SOL    HW216275   0.034   1.874   5.837
 5126SOL     OW16276   4.311   2.404   6.688
 5126SOL    HW116277   4.361   2.334   6.638
 5126SOL    HW216278   4.223   2.422   6.642
 5127SOL     OW16279   5.749   3.382   6.515
 5127SOL    HW116280   5.787   3.410   6.427
 5127SOL    HW216281   5.651   3.366   6.506
 5128SOL     OW16282   6.965   6.881   6.743
 5128SOL    HW116283   6.881   6.876   6.797
 5128SOL    HW216284   6.950   6.938   6.662
 5129SOL     OW16285   4.646   2.675   3.363
 5129SOL    HW116286   4.551   2.661   3.334
 5129SOL    HW216287   4.683   2.756   3.316
 5130SOL     OW16288   1.180   6.329   4.937
 5130SOL    HW116289   1.200   6.348   4.841
 5130SOL    HW216290   1.255   6.362   4.994
 5131SOL     OW16291   3.840   5.033   3.746
 5131SOL    HW116292   3.804   4.980   3.669
 5131SOL    HW216293   3.772   5.037   3.819
 5132SOL     OW16294   3.638   1.738   6.597
 5132SOL    HW116295   3.558   1.785   6.634
 5132SOL    HW216296   3.721   1.791   6.617
 5133SOL     OW16297   4.659   4.891   6.913
 5133SOL    HW116298   4.610   4.935   6.988
 5133SOL    HW216299   4.723   4.823   6.950
 5134SOL     OW16300   6.199   5.988   0.329
 5134SOL    HW116301   6.212   6.066   0.389
 5134SOL    HW216302   6.101   5.975   0.311
 5135SOL     OW16303   6.934   2.654   2.216
 5135SOL    HW116304   6.843   2.691   2.235
 5135SOL    HW216305   6.965   2.600   2.294
 5136SOL     OW16306   0.945   1.294   5.312
 5136SOL    HW116307   0.970   1.311   5.407
 5136SOL    HW216308   0.969   1.201   5.286
 5137SOL     OW16309   5.310   0.401   3.099
 5137SOL    HW116310   5.300   0.491   3.142
 5137SOL    HW216311   5.403   0.368   3.113
 5138SOL     OW16312   3.477   2.902   2.552
 5138SOL    HW116313   3.420   2.852   2.617
 5138SOL    HW216314   3.479   2.999   2.578
 5139SOL     OW16315   3.919   0.391   5.065
 5139SOL    HW116316   3.974   0.466   5.102
 5139SOL    HW216317   3.829   0.426   5.038
 5140SOL     OW16318   3.252   3.617   6.669
 5140SOL    HW116319   3.326   3.661   6.620
 5140SOL    HW216320   3.204   3.685   6.725
 5141SOL     OW16321   0.934   2.709   1.536
 5141SOL    HW116322   0.928   2.807   1.522
 5141SOL    HW216323   0.978   2.666   1.457
 5142SOL     OW16324   0.573   0.172   2.519
 5142SOL    HW116325   0.635   0.134   2.451
 5142SOL    HW216326   0.570   0.272   2.511
 5143SOL     OW16327   0.282   5.988   2.568
 5143SOL    HW116328   0.360   5.931   2.543
 5143SOL    HW216329   0.216   5.934   2.620
 5144SOL     OW16330   2.221   3.003   5.282
 5144SOL    HW116331   2.308   3.043   5.251
 5144SOL    HW216332   2.224   2.904   5.270
 5145SOL     OW16333   2.320   5.572   5.793
 5145SOL    HW116334   2.347   5.496   5.734
 5145SOL    HW216335   2.377   5.652   5.772
 5146SOL     OW16336   5.766   5.759   6.727
 5146SOL    HW116337   5.694   5.751   6.797
 5146SOL    HW216338   5.732   5.720   6.641
 5147SOL     OW16339   5.586   1.894   3.715
 5147SOL    HW116340   5.510   1.863   3.772
 5147SOL    HW216341   5.654   1.939   3.773
 5148SOL     OW16342   6.848   1.090   0.105
 5148SOL    HW116343   6.932   1.055   0.065
 5148SOL    HW216344   6.853   1.189   0.113
 5149SOL     OW16345   4.276   5.469   4.050
 5149SOL    HW116346   4.311   5.550   4.003
 5149SOL    HW216347   4.177   5.467   4.043
 5150SOL     OW16348   6.328   0.353   3.872
 5150SOL    HW116349   6.315   0.413   3.793
 5150SOL    HW216350   6.245   0.352   3.928
 5151SOL     OW16351   5.404   5.534   1.820
 5151SOL    HW116352   5.476   5.465   1.824
 5151SOL    HW216353   5.372   5.555   1.913
 5152SOL     OW16354   1.960   1.537   0.269
 5152SOL    HW116355   2.022   1.578   0.336
 5152SOL    HW216356   1.997   1.548   0.177
 5153SOL     OW16357   2.085   1.761   0.444
 5153SOL    HW116358   2.096   1.789   0.540
 5153SOL    HW216359   2.154   1.806   0.388
 5154SOL     OW16360   0.459   2.659   0.710
 5154SOL    HW116361   0.481   2.562   0.693
 5154SOL    HW216362   0.369   2.665   0.752
 5155SOL     OW16363   1.615   1.560   0.121
 5155SOL    HW116364   1.675   1.571   0.200
 5155SOL    HW216365   1.668   1.530   0.042
 5156SOL     OW16366   5.731   5.110   5.393
 5156SOL    HW116367   5.636   5.121   5.422
 5156SOL    HW216368   5.781   5.195   5.410
 5157SOL     OW16369   3.793   0.899   1.693
 5157SOL    HW116370   3.767   0.889   1.789
 5157SOL    HW216371   3.813   0.809   1.654
 5158SOL     OW16372   1.510   2.213   1.718
 5158SOL    HW116373   1.515   2.143   1.646
 5158SOL    HW216374   1.600   2.223   1.761
 5159SOL     OW16375   6.461   3.288   6.193
 5159SOL    HW116376   6.516   3.266   6.274
 5159SOL    HW216377   6.367   3.306   6.221
 5160SOL     OW16378   6.501   6.991   3.599
 5160SOL    HW116379   6.440   7.013   3.523
 5160SOL    HW216380   6.468   0.010   3.682
 5161SOL     OW16381   1.113   1.783   6.460
 5161SOL    HW116382   1.030   1.728   6.476
 5161SOL    HW216383   1.110   1.864   6.518
 5162SOL     OW16384   6.937   7.022   4.789
 5162SOL    HW116385   6.937   6.960   4.868
 5162SOL    HW216386   0.002   7.021   4.745
 5163SOL     OW16387   2.914   0.086   2.158
 5163SOL    HW116388   2.882   0.127   2.244
 5163SOL    HW216389   2.920   0.158   2.088
 5164SOL     OW16390   2.980   3.896   0.224
 5164SOL    HW116391   2.949   3.883   0.319
 5164SOL    HW216392   2.945   3.822   0.167
 5165SOL     OW16393   1.565   4.980   6.530
 5165SOL    HW116394   1.640   5.047   6.533
 5165SOL    HW216395   1.478   5.026   6.547
 5166SOL     OW16396   0.243   4.799   6.782
 5166SOL    HW116397   0.305   4.817   6.705
 5166SOL    HW216398   0.197   4.884   6.809
 5167SOL     OW16399   5.652   3.810   5.547
 5167SOL    HW116400   5.589   3.887   5.541
 5167SOL    HW216401   5.684   3.800   5.641
 5168SOL     OW16402   4.538   2.068   2.909
 5168SOL    HW116403   4.613   2.132   2.930
 5168SOL    HW216404   4.498   2.035   2.995
 5169SOL     OW16405   5.354   5.769   4.375
 5169SOL    HW116406   5.448   5.771   4.408
 5169SOL    HW216407   5.320   5.863   4.366
 5170SOL     OW16408   2.405   4.113   6.082
 5170SOL    HW116409   2.416   4.014   6.087
 5170SOL    HW216410   2.429   4.145   5.990
 5171SOL     OW16411   2.036   6.787   6.148
 5171SOL    HW116412   2.086   6.846   6.211
 5171SOL    HW216413   2.087   6.777   6.063
 5172SOL     OW16414   6.002   5.995   6.140
 5172SOL    HW116415   5.947   6.060   6.088
 5172SOL    HW216416   5.995   5.904   6.098
 5173SOL     OW16417   4.407   5.632   4.689
 5173SOL    HW116418   4.345   5.707   4.667
 5173SOL    HW216419   4.393   5.604   4.784
 5174SOL     OW16420   1.388   6.682   2.654
 5174SOL    HW116421   1.487   6.697   2.655
 5174SOL    HW216422   1.357   6.655   2.745
 5175SOL     OW16423   2.701   2.726   6.632
 5175SOL    HW116424   2.671   2.661   6.563
 5175SOL    HW216425   2.744   2.677   6.709
 5176SOL     OW16426   6.225   5.844   6.258
 5176SOL    HW116427   6.216   5.835   6.357
 5176SOL    HW216428   6.145   5.892   6.222
 5177SOL     OW16429   5.664   6.549   0.551
 5177SOL    HW116430   5.674   6.501   0.638
 5177SOL    HW216431   5.666   6.482   0.476
 5178SOL     OW16432   0.742   4.522   1.534
 5178SOL    HW116433   0.665   4.566   1.580
 5178SOL    HW216434   0.810   4.591   1.509
 5179SOL     OW16435   4.748   5.929   3.377
 5179SOL    HW116436   4.832   5.930   3.431
 5179SOL    HW216437   4.724   5.835   3.354
 5180SOL     OW16438   1.259   4.380   2.559
 5180SOL    HW116439   1.170   4.360   2.518
 5180SOL    HW216440   1.316   4.299   2.554
 5181SOL     OW16441   6.855   1.353   6.048
 5181SOL    HW116442   6.812   1.407   6.120
 5181SOL    HW216443   6.794   1.348   5.969
 5182SOL     OW16444   1.895   6.118   2.331
 5182SOL    HW116445   1.900   6.164   2.419
 5182SOL    HW216446   1.804   6.132   2.291
 5183SOL     OW16447   4.461   2.478   3.314
 5183SOL    HW116448   4.372   2.445   3.283
 5183SOL    HW216449   4.515   2.402   3.350
 5184SOL     OW16450   2.073   1.651   3.371
 5184SOL    HW116451   1.998   1.625   3.311
 5184SOL    HW216452   2.148   1.688   3.316
 5185SOL     OW16453   7.012   0.148   2.252
 5185SOL    HW116454   0.058   0.205   2.209
 5185SOL    HW216455   6.955   0.205   2.311
 5186SOL     OW16456   6.136   2.777   6.694
 5186SOL    HW116457   6.175   2.693   6.730
 5186SOL    HW216458   6.120   2.767   6.596
 5187SOL     OW16459   1.411   4.653   5.475
 5187SOL    HW116460   1.423   4.717   5.399
 5187SOL    HW216461   1.379   4.565   5.439
 5188SOL     OW16462   6.940   0.669   1.879
 5188SOL    HW116463   6.989   0.675   1.966
 5188SOL    HW216464   6.842   0.674   1.895
 5189SOL     OW16465   4.895   6.355   0.047
 5189SOL    HW116466   4.894   6.428   0.116
 5189SOL    HW216467   4.854   6.272   0.085
 5190SOL     OW16468   1.709   4.449   0.534
 5190SOL    HW116469   1.713   4.440   0.435
 5190SOL    HW216470   1.626   4.499   0.560
 5191SOL     OW16471   2.720   4.519   1.658
 5191SOL    HW116472   2.769   4.539   1.743
 5191SOL    HW216473   2.676   4.430   1.665
 5192SOL     OW16474   0.834   4.850   2.766
 5192SOL    HW116475   0.793   4.823   2.679
 5192SOL    HW216476   0.800   4.941   2.792
 5193SOL     OW16477   4.691   1.004   5.546
 5193SOL    HW116478   4.703   0.916   5.501
 5193SOL    HW216479   4.738   1.003   5.634
 5194SOL     OW16480   4.629   1.430   5.164
 5194SOL    HW116481   4.620   1.493   5.241
 5194SOL    HW216482   4.708   1.370   5.179
 5195SOL     OW16483   0.919   0.529   5.456
 5195SOL    HW116484   0.865   0.580   5.523
 5195SOL    HW216485   1.016   0.549   5.469
 5196SOL     OW16486   5.395   6.705   3.041
 5196SOL    HW116487   5.364   6.736   2.951
 5196SOL    HW216488   5.319   6.712   3.106
 5197SOL     OW16489   1.103   2.955   4.863
 5197SOL    HW116490   1.142   3.023   4.926
 5197SOL    HW216491   1.029   2.906   4.909
 5198SOL     OW16492   5.608   4.695   2.926
 5198SOL    HW116493   5.604   4.609   2.977
 5198SOL    HW216494   5.526   4.704   2.869
 5199SOL     OW16495   0.176   4.486   0.729
 5199SOL    HW116496   0.194   4.565   0.788
 5199SOL    HW216497   0.236   4.410   0.755
 5200SOL     OW16498   6.188   3.565   5.109
 5200SOL    HW116499   6.271   3.528   5.150
 5200SOL    HW216500   6.203   3.580   5.011
 5201SOL     OW16501   0.722   6.256   4.411
 5201SOL    HW116502   0.678   6.288   4.328
 5201SOL    HW216503   0.662   6.193   4.459
 5202SOL     OW16504   0.918   4.500   2.241
 5202SOL    HW116505   0.869   4.566   2.298
 5202SOL    HW216506   0.852   4.444   2.190
 5203SOL     OW16507   6.058   3.079   6.659
 5203SOL    HW116508   6.051   3.091   6.758
 5203SOL    HW216509   5.970   3.046   6.623
 5204SOL     OW16510   4.789   5.335   6.616
 5204SOL    HW116511   4.883   5.342   6.648
 5204SOL    HW216512   4.788   5.332   6.516
 5205SOL     OW16513   2.480   0.071   0.011
 5205SOL    HW116514   2.577   0.056   7.018
 5205SOL    HW216515   2.461   0.056   0.108
 5206SOL     OW16516   0.637   3.962   4.819
 5206SOL    HW116517   0.676   4.047   4.855
 5206SOL    HW216518   0.541   3.955   4.846
 5207SOL     OW16519   2.027   4.396   3.614
 5207SOL    HW116520   1.931   4.423   3.607
 5207SOL    HW216521   2.085   4.477   3.610
 5208SOL     OW16522   4.925   0.725   6.777
 5208SOL    HW116523   4.946   0.790   6.704
 5208SOL    HW216524   4.991   0.736   6.851
 5209SOL     OW16525   5.857   5.537   3.148
 5209SOL    HW116526   5.950   5.543   3.112
 5209SOL    HW216527   5.792   5.556   3.074
 5210SOL     OW16528   4.949   4.269   2.776
 5210SOL    HW116529   4.930   4.198   2.844
 5210SOL    HW216530   4.872   4.274   2.711
 5211SOL     OW16531   3.066   3.919   2.133
 5211SOL    HW116532   3.135   3.991   2.133
 5211SOL    HW216533   3.040   3.898   2.039
 5212SOL     OW16534   1.055   0.528   0.068
 5212SOL    HW116535   1.057   0.573   7.004
 5212SOL    HW216536   1.118   0.450   0.067
 5213SOL     OW16537   4.448   2.392   6.077
 5213SOL    HW116538   4.473   2.345   5.992
 5213SOL    HW216539   4.389   2.470   6.056
 5214SOL     OW16540   5.162   1.380   0.119
 5214SOL    HW116541   5.125   1.288   0.111
 5214SOL    HW216542   5.214   1.389   0.204
 5215SOL     OW16543   5.317   5.195   3.068
 5215SOL    HW116544   5.398   5.189   3.009
 5215SOL    HW216545   5.272   5.283   3.055
 5216SOL     OW16546   4.533   5.631   1.980
 5216SOL    HW116547   4.433   5.622   1.977
 5216SOL    HW216548   4.566   5.665   1.892
 5217SOL     OW16549   2.961   4.892   3.397
 5217SOL    HW116550   2.911   4.923   3.478
 5217SOL    HW216551   2.914   4.812   3.359
 5218SOL     OW16552   1.896   0.105   4.425
 5218SOL    HW116553   1.827   0.052   4.475
 5218SOL    HW216554   1.969   0.132   4.487
 5219SOL     OW16555   2.366   6.927   1.054
 5219SOL    HW116556   2.434   6.999   1.037
 5219SOL    HW216557   2.370   6.900   1.150
 5220SOL     OW16558   0.856   6.777   1.760
 5220SOL    HW116559   0.939   6.830   1.774
 5220SOL    HW216560   0.868   6.718   1.680
 5221SOL     OW16561   4.319   1.318   6.314
 5221SOL    HW116562   4.261   1.320   6.395
 5221SOL    HW216563   4.273   1.264   6.243
 5222SOL     OW16564   0.637   0.240   2.836
 5222SOL    HW116565   0.633   0.170   2.908
 5222SOL    HW216566   0.554   0.296   2.840
 5223SOL     OW16567   4.999   6.779   0.855
 5223SOL    HW116568   5.062   6.796   0.931
 5223SOL    HW216569   5.015   6.847   0.783
 5224SOL     OW16570   5.297   1.758   3.297
 5224SOL    HW116571   5.317   1.837   3.239
 5224SOL    HW216572   5.294   1.676   3.240
 5225SOL     OW16573   6.616   6.759   5.498
 5225SOL    HW116574   6.542   6.797   5.442
 5225SOL    HW216575   6.604   6.660   5.507
 5226SOL     OW16576   2.979   6.279   4.042
 5226SOL    HW116577   2.911   6.346   4.011
 5226SOL    HW216578   3.032   6.319   4.117
 5227SOL     OW16579   5.056   3.466   3.627
 5227SOL    HW116580   5.105   3.530   3.687
 5227SOL    HW216581   5.014   3.394   3.683
 5228SOL     OW16582   5.134   1.002   1.535
 5228SOL    HW116583   5.202   0.992   1.462
 5228SOL    HW216584   5.065   0.930   1.526
 5229SOL     OW16585   1.217   3.820   4.054
 5229SOL    HW116586   1.249   3.766   3.977
 5229SOL    HW216587   1.159   3.764   4.113
 5230SOL     OW16588   1.173   6.583   6.180
 5230SOL    HW116589   1.209   6.656   6.122
 5230SOL    HW216590   1.088   6.549   6.141
 5231SOL     OW16591   3.815   3.372   2.790
 5231SOL    HW116592   3.729   3.321   2.787
 5231SOL    HW216593   3.810   3.442   2.862
 5232SOL     OW16594   4.700   2.942   5.087
 5232SOL    HW116595   4.743   2.853   5.073
 5232SOL    HW216596   4.750   3.012   5.035
 5233SOL     OW16597   0.396   0.387   2.886
 5233SOL    HW116598   0.373   0.416   2.979
 5233SOL    HW216599   0.457   0.454   2.844
 5234SOL     OW16600   4.029   5.245   1.574
 5234SOL    HW116601   3.981   5.326   1.541
 5234SOL    HW216602   3.964   5.188   1.626
 5235SOL     OW16603   0.784   3.479   1.115
 5235SOL    HW116604   0.698   3.433   1.138
 5235SOL    HW216605   0.777   3.519   1.024
 5236SOL     OW16606   5.639   3.640   1.260
 5236SOL    HW116607   5.561   3.578   1.273
 5236SOL    HW216608   5.609   3.723   1.215
 5237SOL     OW16609   2.061   1.705   3.966
 5237SOL    HW116610   2.056   1.791   3.914
 5237SOL    HW216611   2.015   1.717   4.053
 5238SOL     OW16612   1.994   3.486   1.106
 5238SOL    HW116613   2.005   3.580   1.137
 5238SOL    HW216614   2.052   3.426   1.160
 5239SOL     OW16615   3.176   3.391   4.853
 5239SOL    HW116616   3.222   3.410   4.767
 5239SOL    HW216617   3.083   3.358   4.834
 5240SOL     OW16618   3.548   1.791   4.722
 5240SOL    HW116619   3.458   1.771   4.761
 5240SOL    HW216620   3.607   1.832   4.792
 5241SOL     OW16621   3.015   5.839   5.377
 5241SOL    HW116622   3.052   5.746   5.389
 5241SOL    HW216623   3.025   5.867   5.282
 5242SOL     OW16624   4.503   0.752   5.291
 5242SOL    HW116625   4.545   0.767   5.202
 5242SOL    HW216626   4.574   0.751   5.362
 5243SOL     OW16627   0.540   4.193   0.291
 5243SOL    HW116628   0.553   4.206   0.193
 5243SOL    HW216629   0.578   4.104   0.318
 5244SOL     OW16630   6.272   3.125   0.047
 5244SOL    HW116631   6.323   3.111   0.132
 5244SOL    HW216632   6.177   3.147   0.067
 5245SOL     OW16633   4.549   4.980   6.677
 5245SOL    HW116634   4.582   4.932   6.759
 5245SOL    HW216635   4.570   5.077   6.685
 5246SOL     OW16636   1.464   2.878   2.838
 5246SOL    HW116637   1.513   2.901   2.922
 5246SOL    HW216638   1.530   2.856   2.766
 5247SOL     OW16639   6.969   4.578   0.917
 5247SOL    HW116640   7.002   4.490   0.883
 5247SOL    HW216641   6.872   4.571   0.939
 5248SOL     OW16642   5.037   0.083   0.476
 5248SOL    HW116643   4.982   0.100   0.394
 5248SOL    HW216644   5.110   0.151   0.481
 5249SOL     OW16645   1.256   5.562   6.187
 5249SOL    HW116646   1.177   5.539   6.244
 5249SOL    HW216647   1.278   5.659   6.199
 5250SOL     OW16648   1.114   1.898   5.706
 5250SOL    HW116649   1.185   1.944   5.760
 5250SOL    HW216650   1.156   1.823   5.654
 5251SOL     OW16651   1.066   3.319   1.252
 5251SOL    HW116652   1.020   3.407   1.259
 5251SOL    HW216653   1.007   3.254   1.204
 5252SOL     OW16654   4.786   6.499   1.014
 5252SOL    HW116655   4.740   6.554   1.083
 5252SOL    HW216656   4.885   6.514   1.020
 5253SOL     OW16657   6.051   2.552   3.298
 5253SOL    HW116658   6.107   2.542   3.380
 5253SOL    HW216659   6.103   2.600   3.227
 5254SOL     OW16660   4.882   0.326   4.236
 5254SOL    HW116661   4.977   0.356   4.232
 5254SOL    HW216662   4.879   0.234   4.277
 5255SOL     OW16663   3.301   6.267   4.614
 5255SOL    HW116664   3.241   6.190   4.632
 5255SOL    HW216665   3.296   6.332   4.690
 5256SOL     OW16666   5.537   6.645   2.156
 5256SOL    HW116667   5.557   6.628   2.252
 5256SOL    HW216668   5.544   6.559   2.105
 5257SOL     OW16669   3.566   0.752   3.194
 5257SOL    HW116670   3.617   0.718   3.114
 5257SOL    HW216671   3.515   0.677   3.235
 5258SOL     OW16672   5.720   1.832   1.745
 5258SOL    HW116673   5.697   1.876   1.832
 5258SOL    HW216674   5.636   1.799   1.701
 5259SOL     OW16675   5.635   4.473   1.659
 5259SOL    HW116676   5.600   4.495   1.750
 5259SOL    HW216677   5.567   4.500   1.590
 5260SOL     OW16678   4.931   3.295   1.936
 5260SOL    HW116679   4.860   3.231   1.967
 5260SOL    HW216680   4.918   3.313   1.839
 5261SOL     OW16681   2.720   2.351   4.868
 5261SOL    HW116682   2.655   2.424   4.887
 5261SOL    HW216683   2.804   2.368   4.920
 5262SOL     OW16684   2.290   7.014   2.079
 5262SOL    HW116685   2.231   0.012   2.156
 5262SOL    HW216686   2.370   6.963   2.112
 5263SOL     OW16687   0.329   6.349   6.953
 5263SOL    HW116688   0.278   6.277   7.000
 5263SOL    HW216689   0.424   6.320   6.942
 5264SOL     OW16690   0.599   1.942   1.041
 5264SOL    HW116691   0.539   1.926   1.120
 5264SOL    HW216692   0.660   2.019   1.060
 5265SOL     OW16693   5.375   5.081   2.764
 5265SOL    HW116694   5.443   5.092   2.836
 5265SOL    HW216695   5.385   4.991   2.722
 5266SOL     OW16696   0.874   6.895   1.243
 5266SOL    HW116697   0.904   6.804   1.269
 5266SOL    HW216698   0.905   6.962   1.311
 5267SOL     OW16699   4.579   3.797   5.321
 5267SOL    HW116700   4.634   3.832   5.397
 5267SOL    HW216701   4.639   3.758   5.251
 5268SOL     OW16702   6.024   5.301   5.214
 5268SOL    HW116703   6.025   5.279   5.117
 5268SOL    HW216704   6.064   5.226   5.267
 5269SOL     OW16705   2.110   4.520   5.764
 5269SOL    HW116706   2.145   4.428   5.746
 5269SOL    HW216707   2.141   4.550   5.854
 5270SOL     OW16708   6.159   2.602   2.633
 5270SOL    HW116709   6.144   2.673   2.563
 5270SOL    HW216710   6.250   2.563   2.622
 5271SOL     OW16711   5.099   4.514   5.422
 5271SOL    HW116712   5.142   4.432   5.461
 5271SOL    HW216713   5.167   4.565   5.370
 5272SOL     OW16714   1.679   1.111   4.086
 5272SOL    HW116715   1.625   1.137   4.166
 5272SOL    HW216716   1.776   1.130   4.104
 5273SOL     OW16717   0.269   0.321   4.692
 5273SOL    HW116718   0.212   0.274   4.760
 5273SOL    HW216719   0.216   0.394   4.649
 5274SOL     OW16720   0.361   5.963   4.407
 5274SOL    HW116721   0.297   5.943   4.481
 5274SOL    HW216722   0.339   5.907   4.327
 5275SOL     OW16723   1.612   6.696   6.893
 5275SOL    HW116724   1.542   6.633   6.928
 5275SOL    HW216725   1.617   6.688   6.793
 5276SOL     OW16726   0.042   0.149   0.511
 5276SOL    HW116727   6.977   0.190   0.526
 5276SOL    HW216728   0.110   0.221   0.498
 5277SOL     OW16729   1.279   1.382   2.101
 5277SOL    HW116730   1.272   1.455   2.033
 5277SOL    HW216731   1.341   1.411   2.174
 5278SOL     OW16732   0.244   3.821   6.527
 5278SOL    HW116733   0.301   3.772   6.462
 5278SOL    HW216734   0.158   3.772   6.539
 5279SOL     OW16735   2.309   6.197   6.397
 5279SOL    HW116736   2.243   6.122   6.405
 5279SOL    HW216737   2.334   6.229   6.488
 5280SOL     OW16738   4.921   6.865   5.164
 5280SOL    HW116739   4.980   6.865   5.083
 5280SOL    HW216740   4.940   6.948   5.218
 5281SOL     OW16741   2.472   7.015   5.299
 5281SOL    HW116742   2.486   7.022   5.397
 5281SOL    HW216743   2.508   0.071   5.254
 5282SOL     OW16744   0.758   7.002   0.825
 5282SOL    HW116745   0.720   6.961   0.909
 5282SOL    HW216746   0.686   7.006   0.755
 5283SOL     OW16747   0.990   0.912   3.553
 5283SOL    HW116748   0.959   0.843   3.619
 5283SOL    HW216749   1.083   0.941   3.576
 5284SOL     OW16750   4.698   3.130   1.653
 5284SOL    HW116751   4.711   3.115   1.751
 5284SOL    HW216752   4.629   3.067   1.618
 5285SOL     OW16753   1.123   1.765   3.968
 5285SOL    HW116754   1.071   1.846   3.994
 5285SOL    HW216755   1.218   1.776   3.995
 5286SOL     OW16756   6.149   3.131   1.567
 5286SOL    HW116757   6.096   3.048   1.550
 5286SOL    HW216758   6.120   3.203   1.503
 5287SOL     OW16759   1.353   5.100   1.051
 5287SOL    HW116760   1.416   5.023   1.037
 5287SOL    HW216761   1.314   5.127   0.963
 5288SOL     OW16762   4.138   0.376   1.228
 5288SOL    HW116763   4.079   0.312   1.277
 5288SOL    HW216764   4.091   0.409   1.146
 5289SOL     OW16765   2.358   4.379   6.071
 5289SOL    HW116766   2.365   4.280   6.083
 5289SOL    HW216767   2.335   4.422   6.158
 5290SOL     OW16768   1.976   3.455   4.733
 5290SOL    HW116769   1.930   3.533   4.691
 5290SOL    HW216770   2.027   3.486   4.814
 5291SOL     OW16771   3.508   4.928   4.351
 5291SOL    HW116772   3.478   5.021   4.330
 5291SOL    HW216773   3.440   4.862   4.318
 5292SOL     OW16774   0.456   3.646   5.271
 5292SOL    HW116775   0.516   3.582   5.320
 5292SOL    HW216776   0.510   3.693   5.200
 5293SOL     OW16777   2.484   7.022   4.622
 5293SOL    HW116778   2.550   6.962   4.667
 5293SOL    HW216779   2.424   6.968   4.564
 5294SOL     OW16780   4.984   0.091   5.248
 5294SOL    HW116781   5.048   0.102   5.172
 5294SOL    HW216782   4.894   0.123   5.221
 5295SOL     OW16783   2.242   0.831   2.700
 5295SOL    HW116784   2.258   0.897   2.627
 5295SOL    HW216785   2.330   0.805   2.741
 5296SOL     OW16786   4.532   4.617   1.663
 5296SOL    HW116787   4.456   4.558   1.689
 5296SOL    HW216788   4.617   4.564   1.665
 5297SOL     OW16789   2.621   5.568   6.061
 5297SOL    HW116790   2.662   5.642   6.007
 5297SOL    HW216791   2.590   5.495   6.001
 5298SOL     OW16792   2.019   1.122   0.671
 5298SOL    HW116793   2.089   1.091   0.607
 5298SOL    HW216794   1.937   1.149   0.620
 5299SOL     OW16795   2.725   1.466   1.798
 5299SOL    HW116796   2.657   1.515   1.743
 5299SOL    HW216797   2.678   1.406   1.863
 5300SOL     OW16798   2.832   4.829   6.749
 5300SOL    HW116799   2.913   4.848   6.805
 5300SOL    HW216800   2.800   4.914   6.707
 5301SOL     OW16801   5.992   0.029   6.050
 5301SOL    HW116802   6.083   0.003   6.016
 5301SOL    HW216803   5.925   6.987   6.020
 5302SOL     OW16804   5.633   6.020   2.582
 5302SOL    HW116805   5.697   6.059   2.648
 5302SOL    HW216806   5.677   5.943   2.535
 5303SOL     OW16807   0.835   5.454   5.894
 5303SOL    HW116808   0.840   5.546   5.931
 5303SOL    HW216809   0.919   5.404   5.914
 5304SOL     OW16810   0.169   0.666   2.775
 5304SOL    HW116811   0.165   0.567   2.789
 5304SOL    HW216812   0.179   0.712   2.864
 5305SOL     OW16813   0.045   5.015   3.667
 5305SOL    HW116814   0.131   5.014   3.617
 5305SOL    HW216815   0.033   5.104   3.711
 5306SOL     OW16816   0.250   2.925   5.992
 5306SOL    HW116817   0.292   2.942   5.903
 5306SOL    HW216818   0.161   2.880   5.979
 5307SOL     OW16819   6.889   1.843   1.598
 5307SOL    HW116820   6.962   1.905   1.627
 5307SOL    HW216821   6.892   1.760   1.654
 5308SOL     OW16822   1.527   4.038   3.370
 5308SOL    HW116823   1.593   4.084   3.311
 5308SOL    HW216824   1.435   4.062   3.342
 5309SOL     OW16825   6.270   5.111   3.255
 5309SOL    HW116826   6.344   5.119   3.321
 5309SOL    HW216827   6.193   5.168   3.283
 5310SOL     OW16828   5.723   2.463   2.596
 5310SOL    HW116829   5.686   2.548   2.557
 5310SOL    HW216830   5.730   2.394   2.525
 5311SOL     OW16831   5.962   0.212   0.531
 5311SOL    HW116832   5.937   0.274   0.605
 5311SOL    HW216833   5.973   0.265   0.446
 5312SOL     OW16834   6.868   6.431   0.258
 5312SOL    HW116835   6.879   6.332   0.272
 5312SOL    HW216836   6.892   6.479   0.342
 5313SOL     OW16837   0.723   6.364   5.816
 5313SOL    HW116838   0.719   6.307   5.734
 5313SOL    HW216839   0.713   6.460   5.789
 5314SOL     OW16840   5.936   0.726   1.862
 5314SOL    HW116841   5.862   0.715   1.928
 5314SOL    HW216842   5.976   0.817   1.871
 5315SOL     OW16843   4.575   1.692   4.099
 5315SOL    HW116844   4.541   1.617   4.043
 5315SOL    HW216845   4.668   1.716   4.070
 5316SOL     OW16846   0.778   2.125   4.871
 5316SOL    HW116847   0.787   2.171   4.783
 5316SOL    HW216848   0.851   2.156   4.933
 5317SOL     OW16849   5.846   2.682   6.790
 5317SOL    HW116850   5.926   2.692   6.848
 5317SOL    HW216851   5.841   2.759   6.726
 5318SOL     OW16852   6.928   4.040   6.920
 5318SOL    HW116853   6.922   4.140   6.916
 5318SOL    HW216854   6.907   4.002   6.830
 5319SOL     OW16855   4.024   6.935   1.953
 5319SOL    HW116856   3.953   6.880   1.909
 5319SOL    HW216857   4.102   6.946   1.891
 5320SOL     OW16858   4.137   5.774   1.116
 5320SOL    HW116859   4.089   5.822   1.043
 5320SOL    HW216860   4.089   5.787   1.203
 5321SOL     OW16861   1.821   4.371   5.274
 5321SOL    HW116862   1.746   4.314   5.307
 5321SOL    HW216863   1.908   4.327   5.294
 5322SOL     OW16864   5.203   6.668   1.815
 5322SOL    HW116865   5.147   6.668   1.897
 5322SOL    HW216866   5.146   6.686   1.735
 5323SOL     OW16867   4.538   0.577   5.977
 5323SOL    HW116868   4.578   0.625   5.899
 5323SOL    HW216869   4.549   0.633   6.059
 5324SOL     OW16870   1.820   1.790   1.016
 5324SOL    HW116871   1.857   1.762   1.104
 5324SOL    HW216872   1.785   1.710   0.968
 5325SOL     OW16873   2.216   1.812   5.128
 5325SOL    HW116874   2.217   1.712   5.130
 5325SOL    HW216875   2.224   1.847   5.221
 5326SOL     OW16876   6.386   6.550   2.369
 5326SOL    HW116877   6.415   6.543   2.464
 5326SOL    HW216878   6.338   6.636   2.354
 5327SOL     OW16879   0.110   3.198   5.763
 5327SOL    HW116880   0.090   3.132   5.690
 5327SOL    HW216881   0.203   3.233   5.751
 5328SOL     OW16882   4.648   5.382   0.438
 5328SOL    HW116883   4.577   5.332   0.388
 5328SOL    HW216884   4.736   5.369   0.394
 5329SOL     OW16885   1.261   6.672   6.422
 5329SOL    HW116886   1.202   6.624   6.356
 5329SOL    HW216887   1.342   6.705   6.375
 5330SOL     OW16888   2.314   4.619   1.321
 5330SOL    HW116889   2.219   4.606   1.346
 5330SOL    HW216890   2.350   4.701   1.365
 5331SOL     OW16891   6.238   0.703   6.579
 5331SOL    HW116892   6.294   0.763   6.637
 5331SOL    HW216893   6.180   0.646   6.636
 5332SOL     OW16894   0.848   4.741   1.787
 5332SOL    HW116895   0.828   4.758   1.884
 5332SOL    HW216896   0.856   4.642   1.772
 5333SOL     OW16897   0.862   6.509   4.382
 5333SOL    HW116898   0.791   6.579   4.392
 5333SOL    HW216899   0.818   6.419   4.370
 5334SOL     OW16900   3.657   0.303   4.564
 5334SOL    HW116901   3.670   0.292   4.662
 5334SOL    HW216902   3.739   0.273   4.515
 5335SOL     OW16903   6.729   5.645   6.980
 5335SOL    HW116904   6.712   5.703   0.034
 5335SOL    HW216905   6.684   5.684   6.899
 5336SOL     OW16906   0.787   3.717   1.969
 5336SOL    HW116907   0.721   3.790   1.958
 5336SOL    HW216908   0.872   3.753   2.008
 5337SOL     OW16909   5.349   4.255   1.477
 5337SOL    HW116910   5.293   4.227   1.555
 5337SOL    HW216911   5.371   4.352   1.485
 5338SOL     OW16912   6.333   1.473   6.786
 5338SOL    HW116913   6.287   1.423   6.713
 5338SOL    HW216914   6.267   1.502   6.855
 5339SOL     OW16915   6.322   0.565   2.613
 5339SOL    HW116916   6.375   0.558   2.698
 5339SOL    HW216917   6.384   0.555   2.535
 5340SOL     OW16918   5.328   2.528   5.737
 5340SOL    HW116919   5.391   2.464   5.780
 5340SOL    HW216920   5.281   2.581   5.808
 5341SOL     OW16921   4.119   0.067   0.286
 5341SOL    HW116922   4.117   7.006   0.234
 5341SOL    HW216923   4.095   0.143   0.225
 5342SOL     OW16924   2.849   1.049   6.269
 5342SOL    HW116925   2.913   1.036   6.345
 5342SOL    HW216926   2.888   1.010   6.185
 5343SOL     OW16927   3.370   3.742   2.073
 5343SOL    HW116928   3.325   3.673   2.130
 5343SOL    HW216929   3.435   3.698   2.012
 5344SOL     OW16930   2.589   2.323   2.971
 5344SOL    HW116931   2.564   2.242   3.025
 5344SOL    HW216932   2.569   2.405   3.023
 5345SOL     OW16933   4.603   6.772   1.915
 5345SOL    HW116934   4.670   6.719   1.967
 5345SOL    HW216935   4.578   6.722   1.832
 5346SOL     OW16936   1.883   6.375   3.195
 5346SOL    HW116937   1.833   6.443   3.248
 5346SOL    HW216938   1.886   6.403   3.099
 5347SOL     OW16939   0.022   1.920   2.403
 5347SOL    HW116940   0.005   1.913   2.305
 5347SOL    HW216941   6.995   1.997   2.440
 5348SOL     OW16942   6.901   0.765   0.498
 5348SOL    HW116943   6.939   0.835   0.436
 5348SOL    HW216944   6.803   0.755   0.481
 5349SOL     OW16945   6.516   0.516   1.588
 5349SOL    HW116946   6.594   0.504   1.527
 5349SOL    HW216947   6.444   0.568   1.541
 5350SOL     OW16948   2.435   0.818   6.840
 5350SOL    HW116949   2.479   0.808   6.751
 5350SOL    HW216950   2.337   0.798   6.831
 5351SOL     OW16951   4.186   0.991   2.023
 5351SOL    HW116952   4.102   0.938   2.029
 5351SOL    HW216953   4.264   0.929   2.015
 5352SOL     OW16954   2.889   6.071   3.546
 5352SOL    HW116955   2.800   6.116   3.536
 5352SOL    HW216956   2.935   6.069   3.458
 5353SOL     OW16957   6.048   0.192   5.487
 5353SOL    HW116958   6.098   0.109   5.461
 5353SOL    HW216959   6.058   0.207   5.586
 5354SOL     OW16960   1.174   3.966   1.052
 5354SOL    HW116961   1.199   4.061   1.071
 5354SOL    HW216962   1.111   3.963   0.974
 5355SOL     OW16963   4.317   1.907   4.978
 5355SOL    HW116964   4.278   1.882   4.889
 5355SOL    HW216965   4.245   1.907   5.047
 5356SOL     OW16966   5.978   3.589   1.184
 5356SOL    HW116967   5.900   3.606   1.244
 5356SOL    HW216968   5.994   3.491   1.176
 5357SOL     OW16969   3.456   0.024   0.448
 5357SOL    HW116970   3.517   7.011   0.517
 5357SOL    HW216971   3.433   0.119   0.471
 5358SOL     OW16972   4.383   3.070   1.417
 5358SOL    HW116973   4.441   3.002   1.462
 5358SOL    HW216974   4.294   3.029   1.397
 5359SOL     OW16975   2.558   0.193   6.740
 5359SOL    HW116976   2.553   0.288   6.771
 5359SOL    HW216977   2.654   0.165   6.736
 5360SOL     OW16978   3.972   6.809   6.882
 5360SOL    HW116979   3.918   6.893   6.888
 5360SOL    HW216980   4.044   6.821   6.813
 5361SOL     OW16981   2.079   0.707   6.130
 5361SOL    HW116982   2.110   0.613   6.115
 5361SOL    HW216983   2.155   0.770   6.117
 5362SOL     OW16984   4.276   5.868   3.921
 5362SOL    HW116985   4.260   5.857   3.823
 5362SOL    HW216986   4.339   5.797   3.952
 5363SOL     OW16987   0.555   5.218   5.717
 5363SOL    HW116988   0.646   5.208   5.757
 5363SOL    HW216989   0.532   5.134   5.667
 5364SOL     OW16990   0.571   6.248   6.943
 5364SOL    HW116991   0.622   6.247   6.858
 5364SOL    HW216992   0.566   6.155   6.980
 5365SOL     OW16993   3.842   2.241   6.475
 5365SOL    HW116994   3.775   2.255   6.548
 5365SOL    HW216995   3.818   2.159   6.424
 5366SOL     OW16996   3.670   4.049   6.858
 5366SOL    HW116997   3.766   4.059   6.831
 5366SOL    HW216998   3.634   3.963   6.824
 5367SOL     OW16999   0.306   4.486   1.018
 5367SOL    HW117000   0.280   4.563   0.959
 5367SOL    HW217001   0.389   4.444   0.983
 5368SOL     OW17002   6.329   0.936   3.915
 5368SOL    HW117003   6.347   0.935   3.816
 5368SOL    HW217004   6.410   0.969   3.963
 5369SOL     OW17005   1.400   3.878   2.534
 5369SOL    HW117006   1.325   3.838   2.586
 5369SOL    HW217007   1.433   3.812   2.467
 5370SOL     OW17008   3.792   2.961   1.487
 5370SOL    HW117009   3.864   2.943   1.554
 5370SOL    HW217010   3.719   2.894   1.497
 5371SOL     OW17011   1.444   4.031   5.416
 5371SOL    HW117012   1.420   3.945   5.462
 5371SOL    HW217013   1.517   4.014   5.351
 5372SOL     OW17014   2.863   4.989   3.173
 5372SOL    HW117015   2.895   4.967   3.265
 5372SOL    HW217016   2.774   4.946   3.158
 5373SOL     OW17017   2.510   4.917   3.850
 5373SOL    HW117018   2.602   4.889   3.823
 5373SOL    HW217019   2.507   4.929   3.949
 5374SOL     OW17020   3.347   2.348   0.487
 5374SOL    HW117021   3.358   2.440   0.449
 5374SOL    HW217022   3.436   2.305   0.498
 5375SOL     OW17023   1.723   4.539   4.293
 5375SOL    HW117024   1.741   4.498   4.204
 5375SOL    HW217025   1.805   4.534   4.349
 5376SOL     OW17026   2.798   4.109   0.162
 5376SOL    HW117027   2.818   4.165   0.242
 5376SOL    HW217028   2.859   4.029   0.162
 5377SOL     OW17029   0.681   1.471   1.317
 5377SOL    HW117030   0.726   1.545   1.267
 5377SOL    HW217031   0.749   1.403   1.343
 5378SOL     OW17032   4.647   6.799   0.140
 5378SOL    HW117033   4.698   6.800   0.226
 5378SOL    HW217034   4.549   6.796   0.160
 5379SOL     OW17035   6.884   6.614   1.649
 5379SOL    HW117036   6.983   6.630   1.648
 5379SOL    HW217037   6.853   6.606   1.744
 5380SOL     OW17038   2.478   0.295   4.410
 5380SOL    HW117039   2.419   0.215   4.399
 5380SOL    HW217040   2.495   0.311   4.508
 5381SOL     OW17041   5.255   3.911   1.461
 5381SOL    HW117042   5.195   3.884   1.387
 5381SOL    HW217043   5.264   3.834   1.526
 5382SOL     OW17044   1.546   0.416   1.638
 5382SOL    HW117045   1.503   0.354   1.572
 5382SOL    HW217046   1.477   0.450   1.702
 5383SOL     OW17047   2.266   1.867   4.846
 5383SOL    HW117048   2.236   1.858   4.940
 5383SOL    HW217049   2.264   1.963   4.819
 5384SOL     OW17050   5.930   7.005   3.943
 5384SOL    HW117051   5.849   6.952   3.968
 5384SOL    HW217052   5.903   0.075   3.925
 5385SOL     OW17053   2.856   3.488   2.437
 5385SOL    HW117054   2.771   3.540   2.451
 5385SOL    HW217055   2.920   3.544   2.385
 5386SOL     OW17056   5.501   0.220   5.583
 5386SOL    HW117057   5.518   0.265   5.671
 5386SOL    HW217058   5.588   0.206   5.536
 5387SOL     OW17059   3.295   5.338   1.590
 5387SOL    HW117060   3.226   5.390   1.540
 5387SOL    HW217061   3.344   5.278   1.526
 5388SOL     OW17062   5.876   6.577   2.519
 5388SOL    HW117063   5.863   6.509   2.448
 5388SOL    HW217064   5.926   6.655   2.482
 5389SOL     OW17065   4.631   2.121   1.150
 5389SOL    HW117066   4.652   2.216   1.171
 5389SOL    HW217067   4.706   2.081   1.098
 5390SOL     OW17068   6.142   4.665   5.990
 5390SOL    HW117069   6.069   4.725   6.021
 5390SOL    HW217070   6.103   4.585   5.944
 5391SOL     OW17071   2.864   3.696   0.041
 5391SOL    HW117072   2.827   3.774   7.016
 5391SOL    HW217073   2.913   3.636   7.003
 5392SOL     OW17074   6.170   2.805   2.420
 5392SOL    HW117075   6.169   2.903   2.440
 5392SOL    HW217076   6.154   2.791   2.322
 5393SOL     OW17077   6.028   6.865   6.436
 5393SOL    HW117078   5.970   6.832   6.361
 5393SOL    HW217079   6.100   6.924   6.399
 5394SOL     OW17080   1.375   4.258   5.767
 5394SOL    HW117081   1.298   4.233   5.708
 5394SOL    HW217082   1.439   4.316   5.715
 5395SOL     OW17083   4.676   0.770   0.251
 5395SOL    HW117084   4.631   0.760   0.162
 5395SOL    HW217085   4.752   0.705   0.257
 5396SOL     OW17086   5.156   3.121   2.318
 5396SOL    HW117087   5.133   3.201   2.263
 5396SOL    HW217088   5.227   3.068   2.272
 5397SOL     OW17089   0.605   3.195   1.376
 5397SOL    HW117090   0.692   3.205   1.425
 5397SOL    HW217091   0.623   3.173   1.280
 5398SOL     OW17092   3.705   3.100   1.766
 5398SOL    HW117093   3.745   3.038   1.698
 5398SOL    HW217094   3.777   3.153   1.810
 5399SOL     OW17095   1.225   6.202   7.015
 5399SOL    HW117096   1.259   6.245   0.074
 5399SOL    HW217097   1.129   6.177   0.002
 5400SOL     OW17098   2.391   4.346   6.782
 5400SOL    HW117099   2.294   4.356   6.803
 5400SOL    HW217100   2.403   4.333   6.684
 5401SOL     OW17101   6.605   2.448   1.611
 5401SOL    HW117102   6.557   2.448   1.523
 5401SOL    HW217103   6.538   2.455   1.685
 5402SOL     OW17104   1.668   6.293   2.507
 5402SOL    HW117105   1.650   6.264   2.601
 5402SOL    HW217106   1.603   6.364   2.481
 5403SOL     OW17107   6.090   3.383   6.806
 5403SOL    HW117108   6.186   3.357   6.817
 5403SOL    HW217109   6.035   3.301   6.790
 5404SOL     OW17110   1.701   3.018   2.933
 5404SOL    HW117111   1.709   3.109   2.890
 5404SOL    HW217112   1.741   3.021   3.024
 5405SOL     OW17113   6.698   3.956   6.122
 5405SOL    HW117114   6.773   3.894   6.143
 5405SOL    HW217115   6.651   3.981   6.207
 5406SOL     OW17116   1.649   6.918   4.884
 5406SOL    HW117117   1.596   6.895   4.965
 5406SOL    HW217118   1.664   6.836   4.829
 5407SOL     OW17119   4.024   3.392   6.739
 5407SOL    HW117120   4.024   3.296   6.765
 5407SOL    HW217121   4.109   3.415   6.692
 5408SOL     OW17122   3.200   1.446   0.141
 5408SOL    HW117123   3.233   1.352   0.136
 5408SOL    HW217124   3.168   1.475   0.051
 5409SOL     OW17125   3.795   0.730   2.471
 5409SOL    HW117126   3.846   0.781   2.540
 5409SOL    HW217127   3.715   0.782   2.443
 5410SOL     OW17128   1.753   2.592   2.368
 5410SOL    HW117129   1.757   2.558   2.462
 5410SOL    HW217130   1.846   2.601   2.331
 5411SOL     OW17131   1.028   5.257   4.589
 5411SOL    HW117132   1.102   5.218   4.643
 5411SOL    HW217133   0.949   5.274   4.648
 5412SOL     OW17134   5.991   2.903   1.518
 5412SOL    HW117135   5.893   2.921   1.515
 5412SOL    HW217136   6.009   2.828   1.582
 5413SOL     OW17137   2.638   0.365   2.027
 5413SOL    HW117138   2.587   0.420   2.092
 5413SOL    HW217139   2.728   0.344   2.065
 5414SOL     OW17140   4.503   0.864   5.791
 5414SOL    HW117141   4.583   0.806   5.773
 5414SOL    HW217142   4.513   0.907   5.881
 5415SOL     OW17143   5.747   4.312   1.921
 5415SOL    HW117144   5.688   4.289   1.843
 5415SOL    HW217145   5.746   4.236   1.986
 5416SOL     OW17146   4.470   5.281   4.053
 5416SOL    HW117147   4.515   5.303   4.140
 5416SOL    HW217148   4.391   5.340   4.040
 5417SOL     OW17149   3.658   6.870   5.278
 5417SOL    HW117150   3.567   6.846   5.313
 5417SOL    HW217151   3.709   6.918   5.350
 5418SOL     OW17152   3.554   0.304   2.799
 5418SOL    HW117153   3.581   0.304   2.896
 5418SOL    HW217154   3.466   0.258   2.789
 5419SOL     OW17155   3.217   4.114   6.695
 5419SOL    HW117156   3.306   4.141   6.733
 5419SOL    HW217157   3.145   4.140   6.759
 5420SOL     OW17158   1.378   1.609   2.554
 5420SOL    HW117159   1.304   1.664   2.516
 5420SOL    HW217160   1.361   1.591   2.650
 5421SOL     OW17161   1.473   3.396   1.481
 5421SOL    HW117162   1.489   3.490   1.451
 5421SOL    HW217163   1.433   3.397   1.573
 5422SOL     OW17164   2.154   4.070   0.781
 5422SOL    HW117165   2.222   4.055   0.853
 5422SOL    HW217166   2.114   4.161   0.791
 5423SOL     OW17167   5.781   3.815   6.311
 5423SOL    HW117168   5.867   3.771   6.288
 5423SOL    HW217169   5.789   3.914   6.296
 5424SOL     OW17170   5.433   3.868   5.260
 5424SOL    HW117171   5.384   3.782   5.243
 5424SOL    HW217172   5.384   3.920   5.330
 5425SOL     OW17173   5.537   0.510   4.779
 5425SOL    HW117174   5.609   0.459   4.732
 5425SOL    HW217175   5.484   0.563   4.712
 5426SOL     OW17176   6.953   6.938   5.256
 5426SOL    HW117177   7.005   6.866   5.303
 5426SOL    HW217178   6.873   6.961   5.311
 5427SOL     OW17179   4.206   5.982   0.023
 5427SOL    HW117180   4.159   5.995   6.961
 5427SOL    HW217181   4.186   5.890   0.059
 5428SOL     OW17182   1.316   0.399   6.255
 5428SOL    HW117183   1.348   0.369   6.345
 5428SOL    HW217184   1.348   0.492   6.238
 5429SOL     OW17185   1.518   2.488   6.772
 5429SOL    HW117186   1.560   2.403   6.804
 5429SOL    HW217187   1.589   2.555   6.753
 5430SOL     OW17188   2.062   2.001   5.301
 5430SOL    HW117189   1.965   1.979   5.291
 5430SOL    HW217190   2.096   2.043   5.217
 5431SOL     OW17191   3.662   5.981   4.542
 5431SOL    HW117192   3.677   6.080   4.541
 5431SOL    HW217193   3.569   5.960   4.511
 5432SOL     OW17194   5.695   6.173   1.358
 5432SOL    HW117195   5.773   6.223   1.321
 5432SOL    HW217196   5.633   6.238   1.403
 5433SOL     OW17197   6.969   2.042   4.471
 5433SOL    HW117198   7.022   2.125   4.451
 5433SOL    HW217199   7.011   1.964   4.424
 5434SOL     OW17200   2.890   6.672   5.787
 5434SOL    HW117201   2.926   6.580   5.802
 5434SOL    HW217202   2.859   6.680   5.693
 5435SOL     OW17203   4.433   1.198   1.793
 5435SOL    HW117204   4.429   1.297   1.809
 5435SOL    HW217205   4.509   1.177   1.732
 5436SOL     OW17206   5.614   3.800   2.381
 5436SOL    HW117207   5.580   3.862   2.451
 5436SOL    HW217208   5.542   3.784   2.313
 5437SOL     OW17209   3.277   3.963   6.443
 5437SOL    HW117210   3.185   3.965   6.403
 5437SOL    HW217211   3.279   4.024   6.522
 5438SOL     OW17212   6.783   1.590   1.779
 5438SOL    HW117213   6.702   1.638   1.813
 5438SOL    HW217214   6.755   1.502   1.741
 5439SOL     OW17215   1.670   2.539   1.202
 5439SOL    HW117216   1.628   2.627   1.221
 5439SOL    HW217217   1.688   2.490   1.288
 5440SOL     OW17218   1.813   2.019   0.850
 5440SOL    HW117219   1.745   2.068   0.905
 5440SOL    HW217220   1.823   1.926   0.885
 5441SOL     OW17221   4.189   1.699   4.078
 5441SOL    HW117222   4.148   1.782   4.039
 5441SOL    HW217223   4.167   1.621   4.020
 5442SOL     OW17224   3.505   0.530   2.663
 5442SOL    HW117225   3.543   0.459   2.721
 5442SOL    HW217226   3.505   0.499   2.568
 5443SOL     OW17227   3.121   6.632   5.464
 5443SOL    HW117228   3.156   6.610   5.373
 5443SOL    HW217229   3.197   6.653   5.525
 5444SOL     OW17230   0.083   6.676   3.589
 5444SOL    HW117231   0.054   6.699   3.682
 5444SOL    HW217232   0.154   6.740   3.559
 5445SOL     OW17233   5.603   3.572   1.595
 5445SOL    HW117234   5.550   3.627   1.531
 5445SOL    HW217235   5.670   3.517   1.545
 5446SOL     OW17236   6.675   5.613   6.127
 5446SOL    HW117237   6.632   5.551   6.062
 5446SOL    HW217238   6.708   5.694   6.080
 5447SOL     OW17239   3.182   2.008   0.681
 5447SOL    HW117240   3.156   2.084   0.621
 5447SOL    HW217241   3.100   1.966   0.718
 5448SOL     OW17242   5.369   2.336   6.139
 5448SOL    HW117243   5.408   2.351   6.048
 5448SOL    HW217244   5.440   2.350   6.208
 5449SOL     OW17245   0.190   3.505   0.056
 5449SOL    HW117246   0.276   3.495   0.106
 5449SOL    HW217247   0.190   3.592   0.007
 5450SOL     OW17248   2.133   6.683   0.741
 5450SOL    HW117249   2.037   6.677   0.716
 5450SOL    HW217250   2.147   6.764   0.799
 5451SOL     OW17251   1.561   0.227   2.422
 5451SOL    HW117252   1.540   0.197   2.515
 5451SOL    HW217253   1.640   0.177   2.388
 5452SOL     OW17254   3.016   4.224   5.703
 5452SOL    HW117255   3.103   4.189   5.736
 5452SOL    HW217256   3.019   4.324   5.698
 5453SOL     OW17257   6.277   4.761   6.426
 5453SOL    HW117258   6.283   4.860   6.439
 5453SOL    HW217259   6.295   4.739   6.330
 5454SOL     OW17260   0.269   4.123   6.094
 5454SOL    HW117261   0.177   4.098   6.063
 5454SOL    HW217262   0.336   4.063   6.051
 5455SOL     OW17263   6.740   3.148   1.020
 5455SOL    HW117264   6.745   3.175   1.116
 5455SOL    HW217265   6.694   3.220   0.968
 5456SOL     OW17266   3.488   6.510   0.965
 5456SOL    HW117267   3.416   6.484   0.901
 5456SOL    HW217268   3.448   6.528   1.054
 5457SOL     OW17269   5.818   3.658   0.333
 5457SOL    HW117270   5.818   3.660   0.433
 5457SOL    HW217271   5.913   3.656   0.301
 5458SOL     OW17272   2.578   4.640   6.548
 5458SOL    HW117273   2.604   4.725   6.500
 5458SOL    HW217274   2.621   4.562   6.502
 5459SOL     OW17275   2.163   4.634   6.000
 5459SOL    HW117276   2.081   4.673   6.043
 5459SOL    HW217277   2.223   4.597   6.070
 5460SOL     OW17278   3.636   0.438   1.674
 5460SOL    HW117279   3.594   0.472   1.591
 5460SOL    HW217280   3.724   0.395   1.652
 5461SOL     OW17281   4.715   6.728   4.964
 5461SOL    HW117282   4.714   6.766   4.871
 5461SOL    HW217283   4.731   6.802   5.030
 5462SOL     OW17284   0.733   0.148   1.649
 5462SOL    HW117285   0.725   0.195   1.561
 5462SOL    HW217286   0.794   0.200   1.709
 5463SOL     OW17287   6.713   3.052   0.639
 5463SOL    HW117288   6.661   2.982   0.688
 5463SOL    HW217289   6.653   3.099   0.574
 5464SOL     OW17290   2.395   6.696   4.343
 5464SOL    HW117291   2.297   6.680   4.335
 5464SOL    HW217292   2.428   6.746   4.263
 5465SOL     OW17293   2.493   6.621   6.401
 5465SOL    HW117294   2.464   6.546   6.341
 5465SOL    HW217295   2.417   6.648   6.460
 5466SOL     OW17296   5.025   4.512   4.595
 5466SOL    HW117297   5.094   4.583   4.607
 5466SOL    HW217298   4.995   4.510   4.499
 5467SOL     OW17299   6.280   1.826   1.891
 5467SOL    HW117300   6.330   1.901   1.848
 5467SOL    HW217301   6.216   1.786   1.825
 5468SOL     OW17302   4.135   1.764   5.501
 5468SOL    HW117303   4.039   1.745   5.482
 5468SOL    HW217304   4.192   1.724   5.429
 5469SOL     OW17305   4.602   4.784   0.282
 5469SOL    HW117306   4.664   4.752   0.210
 5469SOL    HW217307   4.655   4.827   0.355
 5470SOL     OW17308   1.095   5.062   3.229
 5470SOL    HW117309   1.135   4.970   3.236
 5470SOL    HW217310   1.152   5.126   3.280
 5471SOL     OW17311   6.149   4.911   2.212
 5471SOL    HW117312   6.127   4.937   2.118
 5471SOL    HW217313   6.219   4.840   2.211
 5472SOL     OW17314   4.036   5.288   5.917
 5472SOL    HW117315   3.999   5.262   5.827
 5472SOL    HW217316   3.967   5.340   5.968
 5473SOL     OW17317   1.382   3.352   3.563
 5473SOL    HW117318   1.312   3.420   3.587
 5473SOL    HW217319   1.428   3.321   3.646
 5474SOL     OW17320   1.696   6.445   3.772
 5474SOL    HW117321   1.756   6.525   3.765
 5474SOL    HW217322   1.723   6.378   3.703
 5475SOL     OW17323   3.115   2.843   1.406
 5475SOL    HW117324   3.152   2.845   1.499
 5475SOL    HW217325   3.015   2.854   1.410
 5476SOL     OW17326   1.194   3.837   6.268
 5476SOL    HW117327   1.124   3.904   6.241
 5476SOL    HW217328   1.174   3.804   6.360
 5477SOL     OW17329   1.822   2.901   2.354
 5477SOL    HW117330   1.833   3.000   2.354
 5477SOL    HW217331   1.742   2.876   2.299
 5478SOL     OW17332   6.729   6.159   6.438
 5478SOL    HW117333   6.734   6.233   6.371
 5478SOL    HW217334   6.692   6.077   6.394
 5479SOL     OW17335   4.509   0.339   4.761
 5479SOL    HW117336   4.430   0.399   4.777
 5479SOL    HW217337   4.584   0.392   4.722
 5480SOL     OW17338   0.588   2.987   5.416
 5480SOL    HW117339   0.644   2.998   5.334
 5480SOL    HW217340   0.506   3.045   5.409
 5481SOL     OW17341   4.571   6.527   4.097
 5481SOL    HW117342   4.510   6.584   4.042
 5481SOL    HW217343   4.622   6.466   4.037
 5482SOL     OW17344   1.502   4.232   2.125
 5482SOL    HW117345   1.599   4.252   2.141
 5482SOL    HW217346   1.447   4.312   2.149
 5483SOL     OW17347   0.908   2.940   6.097
 5483SOL    HW117348   0.976   2.984   6.155
 5483SOL    HW217349   0.933   2.953   6.001
 5484SOL     OW17350   5.384   0.053   5.247
 5484SOL    HW117351   5.467   0.093   5.287
 5484SOL    HW217352   5.311   0.056   5.315
 5485SOL     OW17353   3.627   0.089   4.928
 5485SOL    HW117354   3.565   0.063   4.855
 5485SOL    HW217355   3.676   0.008   4.961
 5486SOL     OW17356   2.639   5.502   4.664
 5486SOL    HW117357   2.610   5.560   4.740
 5486SOL    HW217358   2.679   5.418   4.701
 5487SOL     OW17359   3.192   5.302   5.512
 5487SOL    HW117360   3.182   5.255   5.425
 5487SOL    HW217361   3.172   5.399   5.500
 5488SOL     OW17362   5.625   2.201   0.769
 5488SOL    HW117363   5.626   2.131   0.840
 5488SOL    HW217364   5.628   2.292   0.810
 5489SOL     OW17365   6.971   3.489   3.830
 5489SOL    HW117366   0.035   3.531   3.813
 5489SOL    HW217367   6.909   3.557   3.871
 5490SOL     OW17368   1.319   5.903   2.697
 5490SOL    HW117369   1.256   5.853   2.637
 5490SOL    HW217370   1.412   5.871   2.682
 5491SOL     OW17371   5.972   4.038   0.515
 5491SOL    HW117372   5.963   4.136   0.529
 5491SOL    HW217373   6.008   3.996   0.598
 5492SOL     OW17374   0.006   1.903   6.371
 5492SOL    HW117375   6.969   1.977   6.396
 5492SOL    HW217376   0.100   1.936   6.372
 5493SOL     OW17377   4.124   3.950   0.471
 5493SOL    HW117378   4.145   4.032   0.418
 5493SOL    HW217379   4.124   3.870   0.412
 5494SOL     OW17380   6.034   3.249   5.362
 5494SOL    HW117381   6.106   3.317   5.357
 5494SOL    HW217382   5.962   3.280   5.424
 5495SOL     OW17383   5.718   6.852   0.222
 5495SOL    HW117384   5.752   6.916   0.291
 5495SOL    HW217385   5.773   6.768   0.225
 5496SOL     OW17386   4.118   6.997   5.169
 5496SOL    HW117387   4.156   6.938   5.241
 5496SOL    HW217388   4.036   0.018   5.204
 5497SOL     OW17389   0.727   0.238   4.880
 5497SOL    HW117390   0.808   0.297   4.886
 5497SOL    HW217391   0.704   0.223   4.783
 5498SOL     OW17392   0.142   5.505   1.208
 5498SOL    HW117393   0.224   5.562   1.200
 5498SOL    HW217394   0.068   5.559   1.248
 5499SOL     OW17395   2.121   7.002   4.780
 5499SOL    HW117396   2.126   6.920   4.723
 5499SOL    HW217397   2.130   0.059   4.723
 5500SOL     OW17398   2.780   0.507   1.336
 5500SOL    HW117399   2.784   0.540   1.242
 5500SOL    HW217400   2.768   0.585   1.398
 5501SOL     OW17401   4.050   3.461   0.030
 5501SOL    HW117402   4.086   3.419   0.113
 5501SOL    HW217403   4.027   3.389   6.988
 5502SOL     OW17404   5.016   3.413   6.549
 5502SOL    HW117405   5.082   3.338   6.557
 5502SOL    HW217406   5.061   3.493   6.510
 5503SOL     OW17407   5.789   3.261   0.872
 5503SOL    HW117408   5.830   3.175   0.903
 5503SOL    HW217409   5.697   3.269   0.910
 5504SOL     OW17410   4.182   2.102   6.935
 5504SOL    HW117411   4.275   2.068   6.920
 5504SOL    HW217412   4.120   2.025   6.951
 5505SOL     OW17413   3.232   4.929   3.354
 5505SOL    HW117414   3.134   4.912   3.351
 5505SOL    HW217415   3.277   4.874   3.284
 5506SOL     OW17416   6.309   2.715   6.132
 5506SOL    HW117417   6.407   2.729   6.146
 5506SOL    HW217418   6.276   2.781   6.064
 5507SOL     OW17419   3.601   6.932   6.730
 5507SOL    HW117420   3.693   6.961   6.703
 5507SOL    HW217421   3.604   6.893   6.822
 5508SOL     OW17422   0.471   0.748   6.178
 5508SOL    HW117423   0.568   0.730   6.163
 5508SOL    HW217424   0.447   0.838   6.140
 5509SOL     OW17425   6.533   5.002   0.223
 5509SOL    HW117426   6.627   4.971   0.208
 5509SOL    HW217427   6.480   4.990   0.139
 5510SOL     OW17428   5.055   5.361   6.774
 5510SOL    HW117429   5.033   5.278   6.825
 5510SOL    HW217430   5.085   5.432   6.837
 5511SOL     OW17431   0.730   2.701   6.064
 5511SOL    HW117432   0.684   2.654   6.140
 5511SOL    HW217433   0.806   2.755   6.099
 5512SOL     OW17434   2.017   0.313   2.231
 5512SOL    HW117435   1.950   0.344   2.298
 5512SOL    HW217436   1.971   0.264   2.157
 5513SOL     OW17437   3.745   4.760   7.014
 5513SOL    HW117438   3.800   4.771   0.072
 5513SOL    HW217439   3.765   4.671   6.973
 5514SOL     OW17440   3.846   1.032   0.054
 5514SOL    HW117441   3.781   1.104   0.080
 5514SOL    HW217442   3.903   1.009   0.133
 5515SOL     OW17443   2.547   5.336   2.413
 5515SOL    HW117444   2.598   5.275   2.352
 5515SOL    HW217445   2.569   5.431   2.390
 5516SOL     OW17446   1.888   2.123   5.475
 5516SOL    HW117447   1.967   2.076   5.436
 5516SOL    HW217448   1.894   2.121   5.575
 5517SOL     OW17449   1.432   2.148   3.047
 5517SOL    HW117450   1.340   2.184   3.030
 5517SOL    HW217451   1.499   2.221   3.036
 5518SOL     OW17452   4.844   5.467   0.102
 5518SOL    HW117453   4.872   5.433   0.192
 5518SOL    HW217454   4.793   5.396   0.054
 5519SOL     OW17455   4.876   2.635   4.805
 5519SOL    HW117456   4.918   2.545   4.790
 5519SOL    HW217457   4.883   2.658   4.902
 5520SOL     OW17458   4.654   0.609   1.517
 5520SOL    HW117459   4.697   0.684   1.566
 5520SOL    HW217460   4.582   0.569   1.574
 5521SOL     OW17461   4.713   6.444   2.335
 5521SOL    HW117462   4.641   6.488   2.388
 5521SOL    HW217463   4.686   6.440   2.239
 5522SOL     OW17464   5.929   6.402   0.664
 5522SOL    HW117465   5.992   6.326   0.649
 5522SOL    HW217466   5.900   6.402   0.760
 5523SOL     OW17467   5.325   1.891   0.785
 5523SOL    HW117468   5.248   1.833   0.761
 5523SOL    HW217469   5.350   1.948   0.706
 5524SOL     OW17470   2.353   1.233   3.852
 5524SOL    HW117471   2.287   1.163   3.880
 5524SOL    HW217472   2.305   1.308   3.808
 5525SOL     OW17473   6.426   1.091   0.849
 5525SOL    HW117474   6.418   1.057   0.943
 5525SOL    HW217475   6.503   1.046   0.804
 5526SOL     OW17476   5.260   4.896   3.712
 5526SOL    HW117477   5.341   4.925   3.662
 5526SOL    HW217478   5.190   4.968   3.709
 5527SOL     OW17479   6.358   0.363   2.831
 5527SOL    HW117480   6.286   0.302   2.796
 5527SOL    HW217481   6.435   0.307   2.864
 5528SOL     OW17482   1.225   2.037   0.020
 5528SOL    HW117483   1.207   2.124   6.998
 5528SOL    HW217484   1.288   2.052   0.095
 5529SOL     OW17485   3.487   0.800   2.495
 5529SOL    HW117486   3.426   0.775   2.420
 5529SOL    HW217487   3.450   0.764   2.581
 5530SOL     OW17488   0.011   1.901   0.966
 5530SOL    HW117489   6.997   1.843   1.038
 5530SOL    HW217490   0.109   1.885   0.959
 5531SOL     OW17491   1.944   4.074   1.757
 5531SOL    HW117492   1.872   4.022   1.712
 5531SOL    HW217493   1.950   4.047   1.853
 5532SOL     OW17494   0.700   2.876   6.839
 5532SOL    HW117495   0.783   2.879   6.894
 5532SOL    HW217496   0.708   2.942   6.764
 5533SOL     OW17497   3.708   1.137   2.675
 5533SOL    HW117498   3.640   1.097   2.736
 5533SOL    HW217499   3.800   1.119   2.712
 5534SOL     OW17500   1.337   0.298   4.632
 5534SOL    HW117501   1.259   0.236   4.643
 5534SOL    HW217502   1.339   0.331   4.537
 5535SOL     OW17503   0.071   1.965   2.987
 5535SOL    HW117504   0.129   2.037   3.024
 5535SOL    HW217505   0.113   1.928   2.904
 5536SOL     OW17506   4.829   6.492   4.553
 5536SOL    HW117507   4.766   6.551   4.502
 5536SOL    HW217508   4.777   6.425   4.606
 5537SOL     OW17509   3.030   2.013   3.638
 5537SOL    HW117510   3.037   1.980   3.732
 5537SOL    HW217511   3.005   2.109   3.638
 5538SOL     OW17512   4.616   4.737   4.231
 5538SOL    HW117513   4.576   4.654   4.269
 5538SOL    HW217514   4.546   4.808   4.225
 5539SOL     OW17515   2.382   4.569   0.010
 5539SOL    HW117516   2.282   4.565   0.014
 5539SOL    HW217517   2.410   4.663   7.014
 5540SOL     OW17518   3.984   5.282   1.976
 5540SOL    HW117519   3.997   5.380   1.964
 5540SOL    HW217520   3.979   5.260   2.073
 5541SOL     OW17521   4.411   1.242   5.857
 5541SOL    HW117522   4.351   1.183   5.803
 5541SOL    HW217523   4.478   1.187   5.906
 5542SOL     OW17524   5.405   4.330   6.673
 5542SOL    HW117525   5.467   4.332   6.751
 5542SOL    HW217526   5.325   4.274   6.695
 5543SOL     OW17527   0.507   2.215   4.922
 5543SOL    HW117528   0.591   2.164   4.903
 5543SOL    HW217529   0.505   2.241   5.019
 5544SOL     OW17530   5.399   0.810   7.012
 5544SOL    HW117531   5.424   0.814   6.915
 5544SOL    HW217532   5.440   0.887   0.036
 5545SOL     OW17533   2.622   2.533   1.875
 5545SOL    HW117534   2.676   2.564   1.797
 5545SOL    HW217535   2.676   2.470   1.931
 5546SOL     OW17536   4.110   4.865   5.916
 5546SOL    HW117537   4.209   4.882   5.909
 5546SOL    HW217538   4.060   4.931   5.861
 5547SOL     OW17539   3.399   5.987   4.401
 5547SOL    HW117540   3.409   5.956   4.306
 5547SOL    HW217541   3.348   6.073   4.402
 5548SOL     OW17542   0.251   2.144   4.599
 5548SOL    HW117543   0.250   2.220   4.663
 5548SOL    HW217544   0.218   2.175   4.510
 5549SOL     OW17545   3.268   5.118   6.779
 5549SOL    HW117546   3.366   5.109   6.797
 5549SOL    HW217547   3.252   5.197   6.720
 5550SOL     OW17548   2.669   5.917   2.397
 5550SOL    HW117549   2.746   5.959   2.350
 5550SOL    HW217550   2.591   5.979   2.396
 5551SOL     OW17551   0.830   1.322   2.876
 5551SOL    HW117552   0.771   1.285   2.804
 5551SOL    HW217553   0.816   1.271   2.961
 5552SOL     OW17554   1.067   2.442   2.063
 5552SOL    HW117555   1.101   2.455   1.970
 5552SOL    HW217556   0.969   2.460   2.066
 5553SOL     OW17557   4.577   6.014   6.487
 5553SOL    HW117558   4.632   6.082   6.536
 5553SOL    HW217559   4.481   6.041   6.489
 5554SOL     OW17560   3.409   1.119   4.448
 5554SOL    HW117561   3.405   1.021   4.431
 5554SOL    HW217562   3.498   1.155   4.420
 5555SOL     OW17563   0.833   6.148   1.387
 5555SOL    HW117564   0.768   6.138   1.462
 5555SOL    HW217565   0.926   6.145   1.423
 5556SOL     OW17566   0.644   0.864   4.452
 5556SOL    HW117567   0.545   0.854   4.461
 5556SOL    HW217568   0.687   0.861   4.542
 5557SOL     OW17569   2.629   0.691   3.019
 5557SOL    HW117570   2.716   0.646   2.999
 5557SOL    HW217571   2.558   0.622   3.034
 5558SOL     OW17572   5.067   2.583   5.393
 5558SOL    HW117573   5.101   2.676   5.380
 5558SOL    HW217574   5.006   2.559   5.317
 5559SOL     OW17575   1.846   0.886   1.233
 5559SOL    HW117576   1.918   0.816   1.238
 5559SOL    HW217577   1.835   0.928   1.322
 5560SOL     OW17578   0.245   1.127   4.284
 5560SOL    HW117579   0.180   1.202   4.299
 5560SOL    HW217580   0.338   1.164   4.286
 5561SOL     OW17581   1.425   3.900   2.056
 5561SOL    HW117582   1.388   3.981   2.010
 5561SOL    HW217583   1.467   3.928   2.143
 5562SOL     OW17584   3.246   2.127   6.908
 5562SOL    HW117585   3.321   2.192   6.908
 5562SOL    HW217586   3.237   2.086   6.817
 5563SOL     OW17587   4.060   4.211   1.573
 5563SOL    HW117588   3.979   4.164   1.538
 5563SOL    HW217589   4.062   4.305   1.540
 5564SOL     OW17590   5.171   2.130   1.352
 5564SOL    HW117591   5.120   2.067   1.294
 5564SOL    HW217592   5.223   2.079   1.419
 5565SOL     OW17593   2.566   2.541   4.981
 5565SOL    HW117594   2.560   2.495   5.069
 5565SOL    HW217595   2.499   2.616   4.978
 5566SOL     OW17596   2.110   4.052   0.466
 5566SOL    HW117597   2.020   4.041   0.425
 5566SOL    HW217598   2.135   3.967   0.514
 5567SOL     OW17599   1.577   5.207   3.016
 5567SOL    HW117600   1.595   5.200   2.918
 5567SOL    HW217601   1.647   5.156   3.067
 5568SOL     OW17602   3.513   2.623   0.126
 5568SOL    HW117603   3.594   2.636   0.068
 5568SOL    HW217604   3.451   2.701   0.113
 5569SOL     OW17605   4.762   1.976   6.628
 5569SOL    HW117606   4.708   2.057   6.607
 5569SOL    HW217607   4.859   2.001   6.631
 5570SOL     OW17608   1.248   3.065   5.057
 5570SOL    HW117609   1.200   3.027   5.136
 5570SOL    HW217610   1.255   3.165   5.067
 5571SOL     OW17611   6.751   4.447   6.597
 5571SOL    HW117612   6.819   4.521   6.593
 5571SOL    HW217613   6.662   4.485   6.621
 5572SOL     OW17614   0.320   3.379   5.252
 5572SOL    HW117615   0.263   3.429   5.317
 5572SOL    HW217616   0.379   3.443   5.203
 5573SOL     OW17617   7.016   4.262   0.266
 5573SOL    HW117618   0.014   4.285   0.171
 5573SOL    HW217619   6.920   4.233   0.271
 5574SOL     OW17620   1.530   0.295   4.244
 5574SOL    HW117621   1.561   0.383   4.208
 5574SOL    HW217622   1.492   0.240   4.169
 5575SOL     OW17623   1.219   1.108   2.442
 5575SOL    HW117624   1.179   1.173   2.378
 5575SOL    HW217625   1.318   1.107   2.432
 5576SOL     OW17626   5.524   6.597   5.696
 5576SOL    HW117627   5.598   6.664   5.700
 5576SOL    HW217628   5.463   6.610   5.774
 5577SOL     OW17629   2.327   4.691   4.591
 5577SOL    HW117630   2.424   4.670   4.604
 5577SOL    HW217631   2.272   4.641   4.657
 5578SOL     OW17632   3.263   2.319   6.488
 5578SOL    HW117633   3.166   2.341   6.496
 5578SOL    HW217634   3.284   2.293   6.394
 5579SOL     OW17635   5.115   5.149   1.956
 5579SOL    HW117636   5.213   5.138   1.942
 5579SOL    HW217637   5.077   5.204   1.882
 5580SOL     OW17638   5.309   1.415   1.467
 5580SOL    HW117639   5.216   1.406   1.432
 5580SOL    HW217640   5.307   1.439   1.564
 5581SOL     OW17641   2.692   2.709   0.750
 5581SOL    HW117642   2.708   2.707   0.848
 5581SOL    HW217643   2.765   2.760   0.705
 5582SOL     OW17644   3.811   3.010   2.983
 5582SOL    HW117645   3.772   2.946   2.917
 5582SOL    HW217646   3.738   3.053   3.035
 5583SOL     OW17647   4.327   0.608   0.225
 5583SOL    HW117648   4.301   0.556   0.307
 5583SOL    HW217649   4.294   0.702   0.234
 5584SOL     OW17650   4.905   3.549   3.400
 5584SOL    HW117651   4.982   3.527   3.460
 5584SOL    HW217652   4.862   3.464   3.369
 5585SOL     OW17653   0.704   0.072   3.527
 5585SOL    HW117654   0.616   0.076   3.479
 5585SOL    HW217655   0.688   0.069   3.626
 5586SOL     OW17656   2.146   1.085   6.625
 5586SOL    HW117657   2.164   1.182   6.607
 5586SOL    HW217658   2.048   1.066   6.617
 5587SOL     OW17659   3.038   6.431   3.567
 5587SOL    HW117660   3.055   6.462   3.660
 5587SOL    HW217661   3.103   6.359   3.543
 5588SOL     OW17662   5.151   6.947   6.415
 5588SOL    HW117663   5.133   0.002   6.473
 5588SOL    HW217664   5.236   6.904   6.442
 5589SOL     OW17665   2.525   3.933   0.767
 5589SOL    HW117666   2.510   3.844   0.810
 5589SOL    HW217667   2.442   3.962   0.720
 5590SOL     OW17668   6.764   0.101   3.520
 5590SOL    HW117669   6.704   0.033   3.478
 5590SOL    HW217670   6.745   0.105   3.618
 5591SOL     OW17671   5.508   0.057   0.700
 5591SOL    HW117672   5.583   0.110   0.739
 5591SOL    HW217673   5.478   7.013   0.766
 5592SOL     OW17674   1.348   2.603   2.187
 5592SOL    HW117675   1.360   2.540   2.264
 5592SOL    HW217676   1.377   2.557   2.102
 5593SOL     OW17677   2.244   4.642   4.868
 5593SOL    HW117678   2.215   4.619   4.961
 5593SOL    HW217679   2.342   4.629   4.858
 5594SOL     OW17680   2.845   1.610   6.712
 5594SOL    HW117681   2.830   1.689   6.771
 5594SOL    HW217682   2.901   1.636   6.634
 5595SOL     OW17683   0.713   3.044   6.617
 5595SOL    HW117684   0.625   3.087   6.635
 5595SOL    HW217685   0.737   3.056   6.521
 5596SOL     OW17686   4.885   3.248   4.551
 5596SOL    HW117687   4.860   3.152   4.545
 5596SOL    HW217688   4.877   3.279   4.646
 5597SOL     OW17689   6.600   1.574   6.717
 5597SOL    HW117690   6.653   1.575   6.802
 5597SOL    HW217691   6.521   1.514   6.729
 5598SOL     OW17692   6.496   1.070   4.064
 5598SOL    HW117693   6.573   1.121   4.025
 5598SOL    HW217694   6.425   1.135   4.093
 5599SOL     OW17695   5.302   2.911   3.049
 5599SOL    HW117696   5.362   2.927   2.971
 5599SOL    HW217697   5.216   2.869   3.018
 5600SOL     OW17698   1.994   2.651   1.931
 5600SOL    HW117699   1.974   2.604   1.845
 5600SOL    HW217700   1.934   2.731   1.940
 5601SOL     OW17701   5.937   2.983   5.777
 5601SOL    HW117702   5.932   3.082   5.789
 5601SOL    HW217703   5.845   2.946   5.765
 5602SOL     OW17704   5.997   1.899   2.923
 5602SOL    HW117705   6.047   1.957   2.987
 5602SOL    HW217706   6.031   1.915   2.830
 5603SOL     OW17707   3.542   2.150   6.561
 5603SOL    HW117708   3.506   2.104   6.479
 5603SOL    HW217709   3.585   2.082   6.620
 5604SOL     OW17710   1.241   5.599   3.249
 5604SOL    HW117711   1.287   5.514   3.224
 5604SOL    HW217712   1.283   5.637   3.332
 5605SOL     OW17713   4.329   0.230   3.999
 5605SOL    HW117714   4.403   0.197   4.057
 5605SOL    HW217715   4.243   0.185   4.026
 5606SOL     OW17716   4.601   3.467   0.877
 5606SOL    HW117717   4.537   3.486   0.803
 5606SOL    HW217718   4.692   3.451   0.839
 5607SOL     OW17719   6.892   2.451   3.172
 5607SOL    HW117720   6.971   2.396   3.145
 5607SOL    HW217721   6.897   2.472   3.270
 5608SOL     OW17722   5.500   0.369   3.890
 5608SOL    HW117723   5.460   0.459   3.903
 5608SOL    HW217724   5.528   0.358   3.794
 5609SOL     OW17725   6.448   0.639   0.339
 5609SOL    HW117726   6.516   0.630   0.266
 5609SOL    HW217727   6.465   0.722   0.391
 5610SOL     OW17728   5.970   5.875   5.670
 5610SOL    HW117729   5.877   5.912   5.677
 5610SOL    HW217730   6.034   5.936   5.716
 5611SOL     OW17731   6.509   3.625   2.063
 5611SOL    HW117732   6.538   3.554   2.128
 5611SOL    HW217733   6.527   3.715   2.102
 5612SOL     OW17734   4.235   1.767   1.255
 5612SOL    HW117735   4.295   1.743   1.332
 5612SOL    HW217736   4.175   1.842   1.281
 5613SOL     OW17737   6.345   4.953   5.697
 5613SOL    HW117738   6.355   4.881   5.766
 5613SOL    HW217739   6.425   5.014   5.701
 5614SOL     OW17740   4.769   1.999   5.030
 5614SOL    HW117741   4.684   1.958   5.063
 5614SOL    HW217742   4.822   1.931   4.979
 5615SOL     OW17743   0.669   2.944   3.146
 5615SOL    HW117744   0.737   2.925   3.217
 5615SOL    HW217745   0.707   3.009   3.080
 5616SOL     OW17746   1.341   3.430   1.714
 5616SOL    HW117747   1.402   3.470   1.782
 5616SOL    HW217748   1.248   3.427   1.750
 5617SOL     OW17749   0.844   5.115   6.352
 5617SOL    HW117750   0.859   5.016   6.348
 5617SOL    HW217751   0.807   5.147   6.265
 5618SOL     OW17752   4.711   0.036   2.956
 5618SOL    HW117753   4.805   0.034   2.922
 5618SOL    HW217754   4.660   6.985   2.917
 5619SOL     OW17755   3.324   3.208   3.429
 5619SOL    HW117756   3.252   3.168   3.372
 5619SOL    HW217757   3.348   3.299   3.393
 5620SOL     OW17758   5.262   4.417   5.039
 5620SOL    HW117759   5.279   4.513   5.063
 5620SOL    HW217760   5.191   4.413   4.968
 5621SOL     OW17761   1.138   2.961   6.718
 5621SOL    HW117762   1.187   2.916   6.793
 5621SOL    HW217763   1.091   2.892   6.663
 5622SOL     OW17764   4.876   5.905   3.843
 5622SOL    HW117765   4.966   5.862   3.847
 5622SOL    HW217766   4.819   5.856   3.777
 5623SOL     OW17767   4.471   4.487   3.785
 5623SOL    HW117768   4.380   4.529   3.791
 5623SOL    HW217769   4.516   4.491   3.874
 5624SOL     OW17770   4.823   3.922   3.969
 5624SOL    HW117771   4.760   3.949   4.042
 5624SOL    HW217772   4.805   3.977   3.887
 5625SOL     OW17773   2.601   6.226   5.907
 5625SOL    HW117774   2.593   6.306   5.966
 5625SOL    HW217775   2.559   6.245   5.818
 5626SOL     OW17776   1.298   5.651   6.490
 5626SOL    HW117777   1.396   5.671   6.480
 5626SOL    HW217778   1.282   5.554   6.475
 5627SOL     OW17779   1.209   5.543   0.575
 5627SOL    HW117780   1.137   5.486   0.535
 5627SOL    HW217781   1.191   5.554   0.673
 5628SOL     OW17782   1.843   2.832   6.971
 5628SOL    HW117783   1.855   2.923   7.011
 5628SOL    HW217784   1.895   2.765   7.024
 5629SOL     OW17785   6.588   3.652   4.430
 5629SOL    HW117786   6.511   3.592   4.450
 5629SOL    HW217787   6.589   3.729   4.494
 5630SOL     OW17788   1.708   4.112   0.480
 5630SOL    HW117789   1.649   4.177   0.527
 5630SOL    HW217790   1.715   4.136   0.384
 5631SOL     OW17791   3.800   0.707   2.205
 5631SOL    HW117792   3.814   0.730   2.301
 5631SOL    HW217793   3.759   0.616   2.197
 5632SOL     OW17794   3.911   5.859   7.014
 5632SOL    HW117795   3.907   5.834   6.917
 5632SOL    HW217796   3.989   5.813   0.032
 5633SOL     OW17797   1.455   5.757   5.193
 5633SOL    HW117798   1.538   5.795   5.153
 5633SOL    HW217799   1.473   5.729   5.287
 5634SOL     OW17800   2.497   0.762   1.882
 5634SOL    HW117801   2.471   0.780   1.977
 5634SOL    HW217802   2.501   0.848   1.832
 5635SOL     OW17803   3.608   0.976   2.167
 5635SOL    HW117804   3.620   0.997   2.264
 5635SOL    HW217805   3.691   1.000   2.117
 5636SOL     OW17806   5.448   0.766   5.451
 5636SOL    HW117807   5.396   0.844   5.415
 5636SOL    HW217808   5.513   0.797   5.519
 5637SOL     OW17809   5.072   6.880   4.939
 5637SOL    HW117810   5.107   6.870   4.845
 5637SOL    HW217811   5.115   6.960   4.981
 5638SOL     OW17812   7.017   5.399   0.252
 5638SOL    HW117813   6.919   5.406   0.270
 5638SOL    HW217814   0.027   5.313   0.288
 5639SOL     OW17815   3.438   0.219   1.978
 5639SOL    HW117816   3.398   0.281   1.911
 5639SOL    HW217817   3.366   0.184   2.037
 5640SOL     OW17818   3.242   6.839   3.513
 5640SOL    HW117819   3.299   6.908   3.559
 5640SOL    HW217820   3.173   6.805   3.577
 5641SOL     OW17821   6.662   4.549   3.737
 5641SOL    HW117822   6.635   4.609   3.662
 5641SOL    HW217823   6.627   4.586   3.823
 5642SOL     OW17824   2.026   3.314   6.414
 5642SOL    HW117825   2.062   3.226   6.386
 5642SOL    HW217826   2.100   3.371   6.450
 5643SOL     OW17827   6.062   2.747   3.973
 5643SOL    HW117828   6.005   2.689   3.915
 5643SOL    HW217829   6.152   2.757   3.930
 5644SOL     OW17830   3.843   0.711   6.089
 5644SOL    HW117831   3.922   0.756   6.049
 5644SOL    HW217832   3.803   0.647   6.023
 5645SOL     OW17833   5.843   6.593   3.029
 5645SOL    HW117834   5.846   6.524   2.957
 5645SOL    HW217835   5.749   6.608   3.058
 5646SOL     OW17836   6.380   0.092   3.818
 5646SOL    HW117837   6.305   0.061   3.760
 5646SOL    HW217838   6.372   0.191   3.832
 5647SOL     OW17839   6.641   3.656   6.649
 5647SOL    HW117840   6.566   3.696   6.597
 5647SOL    HW217841   6.626   3.672   6.747
 5648SOL     OW17842   2.432   1.804   4.028
 5648SOL    HW117843   2.425   1.706   4.041
 5648SOL    HW217844   2.365   1.833   3.959
 5649SOL     OW17845   0.937   0.555   5.797
 5649SOL    HW117846   0.921   0.631   5.733
 5649SOL    HW217847   1.004   0.583   5.865
 5650SOL     OW17848   6.951   5.318   5.211
 5650SOL    HW117849   6.978   5.235   5.261
 5650SOL    HW217850   7.009   5.394   5.240
 5651SOL     OW17851   6.022   1.281   2.347
 5651SOL    HW117852   6.015   1.369   2.395
 5651SOL    HW217853   6.027   1.207   2.415
 5652SOL     OW17854   5.485   4.335   0.119
 5652SOL    HW117855   5.404   4.276   0.123
 5652SOL    HW217856   5.534   4.329   0.206
 5653SOL     OW17857   1.984   5.756   0.231
 5653SOL    HW117858   2.078   5.725   0.222
 5653SOL    HW217859   1.965   5.776   0.327
 5654SOL     OW17860   1.522   6.710   0.268
 5654SOL    HW117861   1.452   6.654   0.222
 5654SOL    HW217862   1.534   6.678   0.362
 5655SOL     OW17863   6.315   5.091   2.984
 5655SOL    HW117864   6.296   5.110   3.081
 5655SOL    HW217865   6.253   5.020   2.952
 5656SOL     OW17866   3.488   5.543   6.833
 5656SOL    HW117867   3.572   5.541   6.889
 5656SOL    HW217868   3.434   5.623   6.858
 5657SOL     OW17869   4.472   5.372   1.824
 5657SOL    HW117870   4.384   5.336   1.792
 5657SOL    HW217871   4.456   5.440   1.895
 5658SOL     OW17872   5.027   6.617   6.021
 5658SOL    HW117873   5.060   6.708   5.993
 5658SOL    HW217874   5.104   6.554   6.024
 5659SOL     OW17875   2.933   3.675   3.455
 5659SOL    HW117876   3.019   3.685   3.407
 5659SOL    HW217877   2.916   3.756   3.512
 5660SOL     OW17878   0.024   6.092   1.583
 5660SOL    HW117879   0.059   6.128   1.669
 5660SOL    HW217880   6.950   6.111   1.576
 5661SOL     OW17881   6.234   5.846   4.254
 5661SOL    HW117882   6.315   5.904   4.261
 5661SOL    HW217883   6.189   5.839   4.343
 5662SOL     OW17884   1.910   5.080   5.172
 5662SOL    HW117885   1.960   5.165   5.157
 5662SOL    HW217886   1.842   5.067   5.100
 5663SOL     OW17887   2.555   4.042   1.408
 5663SOL    HW117888   2.643   4.051   1.454
 5663SOL    HW217889   2.553   4.102   1.328
 5664SOL     OW17890   6.718   6.037   1.917
 5664SOL    HW117891   6.804   5.991   1.941
 5664SOL    HW217892   6.730   6.136   1.926
 5665SOL     OW17893   1.091   1.404   5.901
 5665SOL    HW117894   1.157   1.456   5.847
 5665SOL    HW217895   1.020   1.466   5.936
 5666SOL     OW17896   5.787   5.843   0.040
 5666SOL    HW117897   5.801   5.941   0.046
 5666SOL    HW217898   5.873   5.795   0.057
 5667SOL     OW17899   5.865   4.746   2.555
 5667SOL    HW117900   5.845   4.651   2.528
 5667SOL    HW217901   5.873   4.802   2.473
 5668SOL     OW17902   6.124   2.757   6.398
 5668SOL    HW117903   6.151   2.668   6.363
 5668SOL    HW217904   6.069   2.805   6.328
 5669SOL     OW17905   0.196   3.229   4.739
 5669SOL    HW117906   0.288   3.193   4.722
 5669SOL    HW217907   0.182   3.239   4.838
 5670SOL     OW17908   1.697   3.702   2.527
 5670SOL    HW117909   1.600   3.678   2.524
 5670SOL    HW217910   1.743   3.665   2.446
 5671SOL     OW17911   0.857   0.631   5.218
 5671SOL    HW117912   0.873   0.571   5.297
 5671SOL    HW217913   0.872   0.726   5.245
 5672SOL     OW17914   5.236   3.978   5.977
 5672SOL    HW117915   5.149   4.001   5.933
 5672SOL    HW217916   5.238   4.018   6.069
 5673SOL     OW17917   1.273   6.814   0.846
 5673SOL    HW117918   1.292   6.828   0.749
 5673SOL    HW217919   1.223   6.892   0.882
 5674SOL     OW17920   0.037   3.270   1.338
 5674SOL    HW117921   0.135   3.266   1.359
 5674SOL    HW217922   0.023   3.318   1.252
 5675SOL     OW17923   3.799   1.081   6.001
 5675SOL    HW117924   3.844   1.163   6.039
 5675SOL    HW217925   3.856   1.043   5.929
 5676SOL     OW17926   2.832   6.815   1.752
 5676SOL    HW117927   2.795   6.791   1.842
 5676SOL    HW217928   2.895   6.744   1.721
 5677SOL     OW17929   6.762   7.013   2.740
 5677SOL    HW117930   6.814   6.940   2.786
 5677SOL    HW217931   6.754   0.067   2.802
 5678SOL     OW17932   1.356   5.362   3.123
 5678SOL    HW117933   1.423   5.302   3.080
 5678SOL    HW217934   1.346   5.337   3.219
 5679SOL     OW17935   3.361   5.465   5.747
 5679SOL    HW117936   3.409   5.383   5.777
 5679SOL    HW217937   3.421   5.521   5.690
 5680SOL     OW17938   1.737   6.885   6.687
 5680SOL    HW117939   1.699   6.940   6.761
 5680SOL    HW217940   1.735   6.937   6.601
 5681SOL     OW17941   2.715   4.188   6.652
 5681SOL    HW117942   2.631   4.159   6.606
 5681SOL    HW217943   2.696   4.203   6.749
 5682SOL     OW17944   1.719   3.522   4.472
 5682SOL    HW117945   1.689   3.560   4.384
 5682SOL    HW217946   1.815   3.496   4.466
 5683SOL     OW17947   4.117   3.695   5.051
 5683SOL    HW117948   4.051   3.641   4.998
 5683SOL    HW217949   4.183   3.634   5.094
 5684SOL     OW17950   3.194   3.113   2.983
 5684SOL    HW117951   3.108   3.128   2.935
 5684SOL    HW217952   3.261   3.181   2.954
 5685SOL     OW17953   0.288   5.726   1.974
 5685SOL    HW117954   0.294   5.659   1.899
 5685SOL    HW217955   0.315   5.816   1.941
 5686SOL     OW17956   3.263   4.567   0.022
 5686SOL    HW117957   3.343   4.572   0.081
 5686SOL    HW217958   3.288   4.596   6.954
 5687SOL     OW17959   4.349   5.593   6.360
 5687SOL    HW117960   4.381   5.498   6.359
 5687SOL    HW217961   4.413   5.649   6.412
 5688SOL     OW17962   5.607   1.667   2.093
 5688SOL    HW117963   5.580   1.571   2.100
 5688SOL    HW217964   5.664   1.691   2.171
 5689SOL     OW17965   4.277   3.787   5.945
 5689SOL    HW117966   4.284   3.689   5.961
 5689SOL    HW217967   4.309   3.808   5.852
 5690SOL     OW17968   3.887   6.629   2.520
 5690SOL    HW117969   3.961   6.565   2.503
 5690SOL    HW217970   3.866   6.679   2.436
 5691SOL     OW17971   3.312   0.133   4.069
 5691SOL    HW117972   3.336   0.190   3.990
 5691SOL    HW217973   3.329   0.184   4.154
 5692SOL     OW17974   5.578   2.643   6.131
 5692SOL    HW117975   5.565   2.546   6.152
 5692SOL    HW217976   5.568   2.697   6.214
 5693SOL     OW17977   4.862   2.444   2.316
 5693SOL    HW117978   4.883   2.529   2.365
 5693SOL    HW217979   4.837   2.373   2.381
 5694SOL     OW17980   1.362   1.823   4.093
 5694SOL    HW117981   1.455   1.860   4.088
 5694SOL    HW217982   1.335   1.813   4.189
 5695SOL     OW17983   1.942   3.645   3.541
 5695SOL    HW117984   1.986   3.663   3.629
 5695SOL    HW217985   1.845   3.628   3.555
 5696SOL     OW17986   3.128   0.548   5.779
 5696SOL    HW117987   3.155   0.491   5.857
 5696SOL    HW217988   3.138   0.495   5.695
 5697SOL     OW17989   6.281   3.898   0.288
 5697SOL    HW117990   6.181   3.900   0.285
 5697SOL    HW217991   6.313   3.945   0.370
 5698SOL     OW17992   1.292   4.093   3.235
 5698SOL    HW117993   1.255   4.184   3.214
 5698SOL    HW217994   1.318   4.048   3.150
 5699SOL     OW17995   6.836   2.611   5.328
 5699SOL    HW117996   6.859   2.572   5.417
 5699SOL    HW217997   6.743   2.583   5.302
 5700SOL     OW17998   1.093   5.503   3.590
 5700SOL    HW117999   1.010   5.488   3.536
 5700SOL    HW218000   1.133   5.592   3.566
 5701SOL     OW18001   5.529   4.163   2.285
 5701SOL    HW118002   5.603   4.158   2.352
 5701SOL    HW218003   5.451   4.212   2.325
 5702SOL     OW18004   2.856   0.188   6.802
 5702SOL    HW118005   2.864   0.247   6.882
 5702SOL    HW218006   2.878   0.094   6.826
 5703SOL     OW18007   4.689   4.416   1.782
 5703SOL    HW118008   4.622   4.374   1.843
 5703SOL    HW218009   4.780   4.407   1.821
 5704SOL     OW18010   5.147   4.252   3.454
 5704SOL    HW118011   5.214   4.192   3.410
 5704SOL    HW218012   5.195   4.325   3.503
 5705SOL     OW18013   6.267   1.667   3.184
 5705SOL    HW118014   6.318   1.584   3.206
 5705SOL    HW218015   6.218   1.654   3.098
 5706SOL     OW18016   1.854   1.305   6.468
 5706SOL    HW118017   1.794   1.374   6.508
 5706SOL    HW218018   1.848   1.309   6.369
 5707SOL     OW18019   2.779   1.415   6.912
 5707SOL    HW118020   2.817   1.497   6.869
 5707SOL    HW218021   2.846   1.377   6.977
 5708SOL     OW18022   6.937   0.324   1.306
 5708SOL    HW118023   6.884   0.356   1.228
 5708SOL    HW218024   6.968   0.231   1.290
 5709SOL     OW18025   1.299   2.340   1.429
 5709SOL    HW118026   1.346   2.256   1.402
 5709SOL    HW218027   1.350   2.384   1.503
 5710SOL     OW18028   3.073   4.529   6.716
 5710SOL    HW118029   3.085   4.590   6.638
 5710SOL    HW218030   2.977   4.501   6.722
 5711SOL     OW18031   5.528   1.225   5.198
 5711SOL    HW118032   5.612   1.224   5.144
 5711SOL    HW218033   5.453   1.188   5.142
 5712SOL     OW18034   6.680   6.252   6.914
 5712SOL    HW118035   6.738   6.170   6.912
 5712SOL    HW218036   6.659   6.279   6.820
 5713SOL     OW18037   0.160   2.783   2.913
 5713SOL    HW118038   0.189   2.873   2.879
 5713SOL    HW218039   0.221   2.713   2.877
 5714SOL     OW18040   2.122   0.823   6.371
 5714SOL    HW118041   2.078   0.911   6.357
 5714SOL    HW218042   2.115   0.768   6.288
 5715SOL     OW18043   1.884   0.377   3.662
 5715SOL    HW118044   1.870   0.296   3.604
 5715SOL    HW218045   1.978   0.409   3.654
 5716SOL     OW18046   1.833   2.284   5.101
 5716SOL    HW118047   1.787   2.343   5.035
 5716SOL    HW218048   1.926   2.316   5.116
 5717SOL     OW18049   0.588   3.890   6.667
 5717SOL    HW118050   0.535   3.908   6.750
 5717SOL    HW218051   0.537   3.925   6.588
 5718SOL     OW18052   2.454   5.143   5.649
 5718SOL    HW118053   2.420   5.102   5.564
 5718SOL    HW218054   2.429   5.240   5.651
 5719SOL     OW18055   2.171   0.780   0.851
 5719SOL    HW118056   2.249   0.809   0.906
 5719SOL    HW218057   2.098   0.848   0.859
 5720SOL     OW18058   1.309   5.667   4.136
 5720SOL    HW118059   1.212   5.650   4.116
 5720SOL    HW218060   1.359   5.581   4.135
 5721SOL     OW18061   6.783   4.527   0.589
 5721SOL    HW118062   6.745   4.584   0.662
 5721SOL    HW218063   6.753   4.433   0.602
 5722SOL     OW18064   5.807   1.336   3.961
 5722SOL    HW118065   5.796   1.359   3.864
 5722SOL    HW218066   5.824   1.238   3.970
 5723SOL     OW18067   1.177   4.401   1.174
 5723SOL    HW118068   1.179   4.414   1.273
 5723SOL    HW218069   1.252   4.341   1.146
 5724SOL     OW18070   4.850   2.601   5.620
 5724SOL    HW118071   4.803   2.570   5.537
 5724SOL    HW218072   4.944   2.565   5.620
 5725SOL     OW18073   5.226   6.288   5.644
 5725SOL    HW118074   5.181   6.367   5.685
 5725SOL    HW218075   5.234   6.302   5.545
 5726SOL     OW18076   4.552   4.160   5.541
 5726SOL    HW118077   4.642   4.201   5.526
 5726SOL    HW218078   4.506   4.148   5.453
 5727SOL     OW18079   5.728   2.230   4.110
 5727SOL    HW118080   5.717   2.172   4.029
 5727SOL    HW218081   5.795   2.301   4.091
 5728SOL     OW18082   4.729   0.732   5.441
 5728SOL    HW118083   4.720   0.668   5.517
 5728SOL    HW218084   4.818   0.720   5.397
 5729SOL     OW18085   1.607   2.641   4.414
 5729SOL    HW118086   1.546   2.562   4.417
 5729SOL    HW218087   1.617   2.672   4.319
 5730SOL     OW18088   3.938   4.951   0.237
 5730SOL    HW118089   3.863   5.006   0.274
 5730SOL    HW218090   4.025   4.998   0.255
 5731SOL     OW18091   4.350   1.501   4.769
 5731SOL    HW118092   4.319   1.467   4.680
 5731SOL    HW218093   4.364   1.600   4.764
 5732SOL     OW18094   5.654   4.101   4.048
 5732SOL    HW118095   5.653   4.125   3.951
 5732SOL    HW218096   5.727   4.152   4.094
 5733SOL     OW18097   2.646   0.282   1.674
 5733SOL    HW118098   2.657   0.378   1.700
 5733SOL    HW218099   2.685   0.223   1.745
 5734SOL     OW18100   1.482   6.674   6.297
 5734SOL    HW118101   1.520   6.740   6.232
 5734SOL    HW218102   1.516   6.583   6.276
 5735SOL     OW18103   5.368   1.219   1.788
 5735SOL    HW118104   5.411   1.195   1.875
 5735SOL    HW218105   5.287   1.162   1.774
 5736SOL     OW18106   6.052   3.957   6.400
 5736SOL    HW118107   6.103   3.908   6.471
 5736SOL    HW218108   6.100   3.947   6.312
 5737SOL     OW18109   5.331   5.758   2.328
 5737SOL    HW118110   5.246   5.719   2.365
 5737SOL    HW218111   5.356   5.839   2.381
 5738SOL     OW18112   2.727   0.686   1.130
 5738SOL    HW118113   2.746   0.780   1.158
 5738SOL    HW218114   2.630   0.677   1.107
 5739SOL     OW18115   2.684   0.791   5.937
 5739SOL    HW118116   2.641   0.855   6.000
 5739SOL    HW218117   2.773   0.763   5.974
 5740SOL     OW18118   4.835   3.753   2.642
 5740SOL    HW118119   4.825   3.687   2.568
 5740SOL    HW218120   4.882   3.709   2.719
 5741SOL     OW18121   1.583   3.242   4.458
 5741SOL    HW118122   1.660   3.236   4.395
 5741SOL    HW218123   1.602   3.312   4.527
 5742SOL     OW18124   6.042   6.271   2.938
 5742SOL    HW118125   6.090   6.183   2.934
 5742SOL    HW218126   5.955   6.260   2.985
 5743SOL     OW18127   3.829   5.629   0.404
 5743SOL    HW118128   3.753   5.648   0.342
 5743SOL    HW218129   3.819   5.686   0.486
 5744SOL     OW18130   5.266   5.857   3.492
 5744SOL    HW118131   5.288   5.768   3.452
 5744SOL    HW218132   5.343   5.887   3.549
 5745SOL     OW18133   1.085   2.732   2.205
 5745SOL    HW118134   1.046   2.719   2.296
 5745SOL    HW218135   1.166   2.673   2.195
 5746SOL     OW18136   5.336   0.466   2.839
 5746SOL    HW118137   5.436   0.464   2.839
 5746SOL    HW218138   5.302   0.423   2.922
 5747SOL     OW18139   1.556   6.816   1.256
 5747SOL    HW118140   1.477   6.756   1.245
 5747SOL    HW218141   1.606   6.791   1.339
 5748SOL     OW18142   6.360   6.405   0.237
 5748SOL    HW118143   6.415   6.447   0.165
 5748SOL    HW218144   6.409   6.327   0.275
 5749SOL     OW18145   1.915   6.078   6.230
 5749SOL    HW118146   1.989   6.041   6.286
 5749SOL    HW218147   1.915   6.033   6.141
 5750SOL     OW18148   6.571   2.540   4.163
 5750SOL    HW118149   6.481   2.506   4.138
 5750SOL    HW218150   6.590   2.624   4.111
 5751SOL     OW18151   0.813   3.704   4.459
 5751SOL    HW118152   0.909   3.712   4.482
 5751SOL    HW218153   0.789   3.607   4.450
 5752SOL     OW18154   5.266   0.493   0.286
 5752SOL    HW118155   5.243   0.452   0.198
 5752SOL    HW218156   5.258   0.424   0.358
 5753SOL     OW18157   3.596   4.123   4.990
 5753SOL    HW118158   3.496   4.117   4.986
 5753SOL    HW218159   3.635   4.034   4.967
 5754SOL     OW18160   6.889   6.305   1.033
 5754SOL    HW118161   6.804   6.253   1.030
 5754SOL    HW218162   6.966   6.244   1.013
 5755SOL     OW18163   1.108   3.411   6.613
 5755SOL    HW118164   1.042   3.337   6.628
 5755SOL    HW218165   1.163   3.424   6.695
 5756SOL     OW18166   6.478   6.207   2.129
 5756SOL    HW118167   6.384   6.234   2.151
 5756SOL    HW218168   6.511   6.142   2.197
 5757SOL     OW18169   6.924   1.398   3.717
 5757SOL    HW118170   6.968   1.314   3.747
 5757SOL    HW218171   6.835   1.377   3.676
 5758SOL     OW18172   6.098   6.415   2.721
 5758SOL    HW118173   6.055   6.504   2.734
 5758SOL    HW218174   6.084   6.359   2.803
 5759SOL     OW18175   2.486   0.395   2.519
 5759SOL    HW118176   2.470   0.324   2.587
 5759SOL    HW218177   2.413   0.392   2.451
 5760SOL     OW18178   1.290   2.536   6.939
 5760SOL    HW118179   1.375   2.534   6.887
 5760SOL    HW218180   1.283   2.453   6.994
 5761SOL     OW18181   6.436   6.648   4.618
 5761SOL    HW118182   6.463   6.621   4.525
 5761SOL    HW218183   6.518   6.664   4.673
 5762SOL     OW18184   0.882   5.732   5.910
 5762SOL    HW118185   0.938   5.730   5.993
 5762SOL    HW218186   0.871   5.826   5.879
 5763SOL     OW18187   5.700   0.224   0.806
 5763SOL    HW118188   5.687   0.307   0.860
 5763SOL    HW218189   5.797   0.216   0.781
 5764SOL     OW18190   4.645   6.656   4.423
 5764SOL    HW118191   4.589   6.636   4.503
 5764SOL    HW218192   4.616   6.599   4.346
 5765SOL     OW18193   6.409   5.024   2.286
 5765SOL    HW118194   6.398   4.928   2.312
 5765SOL    HW218195   6.319   5.069   2.285
 5766SOL     OW18196   0.793   1.280   3.985
 5766SOL    HW118197   0.863   1.211   4.002
 5766SOL    HW218198   0.801   1.314   3.891
 5767SOL     OW18199   4.014   6.554   6.942
 5767SOL    HW118200   4.038   6.536   6.846
 5767SOL    HW218201   3.989   6.650   6.952
 5768SOL     OW18202   1.022   0.853   5.297
 5768SOL    HW118203   1.052   0.844   5.202
 5768SOL    HW218204   0.947   0.919   5.302
 5769SOL     OW18205   1.246   3.085   5.842
 5769SOL    HW118206   1.215   3.099   5.936
 5769SOL    HW218207   1.337   3.125   5.830
 5770SOL     OW18208   2.295   4.261   1.777
 5770SOL    HW118209   2.217   4.296   1.726
 5770SOL    HW218210   2.313   4.167   1.750
 5771SOL     OW18211   2.817   4.901   3.722
 5771SOL    HW118212   2.894   4.965   3.728
 5771SOL    HW218213   2.816   4.842   3.802
 5772SOL     OW18214   3.112   7.004   2.936
 5772SOL    HW118215   3.027   6.970   2.977
 5772SOL    HW218216   3.140   6.943   2.862
 5773SOL     OW18217   5.462   1.315   2.513
 5773SOL    HW118218   5.551   1.337   2.473
 5773SOL    HW218219   5.390   1.326   2.444
 5774SOL     OW18220   0.701   6.795   2.824
 5774SOL    HW118221   0.765   6.735   2.776
 5774SOL    HW218222   0.661   6.859   2.758
 5775SOL     OW18223   6.383   4.863   1.831
 5775SOL    HW118224   6.371   4.830   1.737
 5775SOL    HW218225   6.390   4.785   1.893
 5776SOL     OW18226   2.479   1.005   4.408
 5776SOL    HW118227   2.406   1.008   4.477
 5776SOL    HW218228   2.553   1.067   4.434
 5777SOL     OW18229   1.892   6.747   2.007
 5777SOL    HW118230   1.929   6.745   1.914
 5777SOL    HW218231   1.911   6.836   2.048
 5778SOL     OW18232   6.957   0.670   1.128
 5778SOL    HW118233   0.016   0.712   1.090
 5778SOL    HW218234   6.956   0.682   1.227
 5779SOL     OW18235   5.763   1.360   6.695
 5779SOL    HW118236   5.713   1.275   6.712
 5779SOL    HW218237   5.726   1.433   6.752
 5780SOL     OW18238   5.106   4.919   4.147
 5780SOL    HW118239   5.147   5.006   4.120
 5780SOL    HW218240   5.013   4.934   4.180
 5781SOL     OW18241   1.338   5.503   5.921
 5781SOL    HW118242   1.293   5.495   6.010
 5781SOL    HW218243   1.332   5.598   5.890
 5782SOL     OW18244   0.383   0.751   6.958
 5782SOL    HW118245   0.474   0.781   6.986
 5782SOL    HW218246   0.360   0.666   7.004
 5783SOL     OW18247   2.367   2.404   0.410
 5783SOL    HW118248   2.388   2.404   0.312
 5783SOL    HW218249   2.423   2.472   0.457
 5784SOL     OW18250   6.877   6.059   6.893
 5784SOL    HW118251   6.886   5.992   6.967
 5784SOL    HW218252   6.932   6.140   6.915
 5785SOL     OW18253   1.316   1.257   0.521
 5785SOL    HW118254   1.289   1.236   0.615
 5785SOL    HW218255   1.333   1.173   0.471
 5786SOL     OW18256   6.371   5.426   1.338
 5786SOL    HW118257   6.377   5.403   1.241
 5786SOL    HW218258   6.460   5.409   1.382
 5787SOL     OW18259   2.248   3.095   6.342
 5787SOL    HW118260   2.286   3.162   6.277
 5787SOL    HW218261   2.161   3.061   6.307
 5788SOL     OW18262   3.361   0.342   3.780
 5788SOL    HW118263   3.414   0.335   3.695
 5788SOL    HW218264   3.287   0.275   3.779
 5789SOL     OW18265   3.814   4.895   6.396
 5789SOL    HW118266   3.720   4.926   6.380
 5789SOL    HW218267   3.878   4.969   6.372
 5790SOL     OW18268   1.120   3.460   3.645
 5790SOL    HW118269   1.103   3.435   3.740
 5790SOL    HW218270   1.127   3.377   3.590
 5791SOL     OW18271   2.187   0.335   3.302
 5791SOL    HW118272   2.091   0.318   3.327
 5791SOL    HW218273   2.228   0.251   3.268
 5792SOL     OW18274   6.898   2.749   2.906
 5792SOL    HW118275   6.992   2.716   2.899
 5792SOL    HW218276   6.837   2.683   2.862
 5793SOL     OW18277   0.157   0.909   4.149
 5793SOL    HW118278   0.058   0.918   4.158
 5793SOL    HW218279   0.202   0.980   4.203
 5794SOL     OW18280   5.693   4.899   5.954
 5794SOL    HW118281   5.616   4.880   6.015
 5794SOL    HW218282   5.703   4.998   5.943
 5795SOL     OW18283   5.686   4.119   6.407
 5795SOL    HW118284   5.656   4.214   6.405
 5795SOL    HW218285   5.752   4.106   6.480
 5796SOL     OW18286   3.126   2.369   0.641
 5796SOL    HW118287   3.206   2.370   0.581
 5796SOL    HW218288   3.046   2.337   0.590
 5797SOL     OW18289   3.136   2.900   5.946
 5797SOL    HW118290   3.144   2.935   5.853
 5797SOL    HW218291   3.163   2.972   6.011
 5798SOL     OW18292   6.879   5.396   4.510
 5798SOL    HW118293   6.905   5.394   4.414
 5798SOL    HW218294   6.948   5.348   4.564
 5799SOL     OW18295   5.353   0.865   3.533
 5799SOL    HW118296   5.396   0.930   3.596
 5799SOL    HW218297   5.386   0.772   3.554
 5800SOL     OW18298   5.878   5.432   6.978
 5800SOL    HW118299   5.867   5.532   6.975
 5800SOL    HW218300   5.876   5.396   6.885
 5801SOL     OW18301   2.005   0.852   2.823
 5801SOL    HW118302   2.032   0.874   2.917
 5801SOL    HW218303   2.087   0.842   2.766
 5802SOL     OW18304   0.213   2.384   4.730
 5802SOL    HW118305   0.131   2.438   4.713
 5802SOL    HW218306   0.261   2.421   4.810
 5803SOL     OW18307   1.528   4.925   0.673
 5803SOL    HW118308   1.532   5.025   0.672
 5803SOL    HW218309   1.595   4.889   0.608
 5804SOL     OW18310   6.713   3.198   5.839
 5804SOL    HW118311   6.654   3.266   5.795
 5804SOL    HW218312   6.733   3.125   5.773
 5805SOL     OW18313   5.905   3.157   6.919
 5805SOL    HW118314   5.874   3.185   7.010
 5805SOL    HW218315   5.848   3.202   6.850
 5806SOL     OW18316   0.074   6.637   6.777
 5806SOL    HW118317   0.111   6.624   6.869
 5806SOL    HW218318   0.005   6.709   6.779
 5807SOL     OW18319   2.194   3.781   1.971
 5807SOL    HW118320   2.204   3.829   2.058
 5807SOL    HW218321   2.196   3.682   1.986
 5808SOL     OW18322   6.511   2.149   3.369
 5808SOL    HW118323   6.463   2.063   3.386
 5808SOL    HW218324   6.469   2.196   3.290
 5809SOL     OW18325   6.619   3.087   4.002
 5809SOL    HW118326   6.633   3.013   3.936
 5809SOL    HW218327   6.615   3.174   3.953
 5810SOL     OW18328   2.529   2.483   2.657
 5810SOL    HW118329   2.477   2.552   2.606
 5810SOL    HW218330   2.469   2.406   2.679
 5811SOL     OW18331   2.776   1.500   2.523
 5811SOL    HW118332   2.714   1.526   2.597
 5811SOL    HW218333   2.725   1.496   2.437
 5812SOL     OW18334   4.618   0.584   4.659
 5812SOL    HW118335   4.558   0.664   4.653
 5812SOL    HW218336   4.699   0.599   4.603
 5813SOL     OW18337   1.363   1.211   5.287
 5813SOL    HW118338   1.365   1.301   5.244
 5813SOL    HW218339   1.456   1.176   5.296
 5814SOL     OW18340   0.464   5.064   1.071
 5814SOL    HW118341   0.368   5.082   1.050
 5814SOL    HW218342   0.483   5.090   1.166
 5815SOL     OW18343   3.318   1.159   3.479
 5815SOL    HW118344   3.333   1.140   3.382
 5815SOL    HW218345   3.373   1.238   3.506
 5816SOL     OW18346   5.017   6.566   1.163
 5816SOL    HW118347   5.044   6.488   1.219
 5816SOL    HW218348   5.098   6.602   1.116
 5817SOL     OW18349   5.615   2.152   5.549
 5817SOL    HW118350   5.644   2.246   5.533
 5817SOL    HW218351   5.672   2.111   5.621
 5818SOL     OW18352   6.201   6.742   5.733
 5818SOL    HW118353   6.217   6.688   5.651
 5818SOL    HW218354   6.249   6.700   5.810
 5819SOL     OW18355   5.653   0.440   0.954
 5819SOL    HW118356   5.599   0.408   1.031
 5819SOL    HW218357   5.619   0.528   0.922
 5820SOL     OW18358   6.254   5.756   3.014
 5820SOL    HW118359   6.349   5.748   2.983
 5820SOL    HW218360   6.254   5.777   3.112
 5821SOL     OW18361   3.710   0.110   2.003
 5821SOL    HW118362   3.627   0.161   1.979
 5821SOL    HW218363   3.790   0.160   1.969
 5822SOL     OW18364   0.684   0.981   2.496
 5822SOL    HW118365   0.608   1.019   2.443
 5822SOL    HW218366   0.687   0.882   2.483
 5823SOL     OW18367   2.449   2.634   4.410
 5823SOL    HW118368   2.482   2.544   4.381
 5823SOL    HW218369   2.441   2.637   4.509
 5824SOL     OW18370   4.485   0.760   3.697
 5824SOL    HW118371   4.491   0.688   3.628
 5824SOL    HW218372   4.412   0.824   3.672
 5825SOL     OW18373   2.693   1.037   0.737
 5825SOL    HW118374   2.784   1.032   0.696
 5825SOL    HW218375   2.702   1.050   0.836
 5826SOL     OW18376   6.417   0.281   4.387
 5826SOL    HW118377   6.439   0.218   4.461
 5826SOL    HW218378   6.321   0.311   4.396
 5827SOL     OW18379   1.014   5.128   5.202
 5827SOL    HW118380   0.981   5.222   5.197
 5827SOL    HW218381   0.953   5.075   5.261
 5828SOL     OW18382   7.016   3.078   1.632
 5828SOL    HW118383   7.017   3.071   1.532
 5828SOL    HW218384   6.935   3.130   1.661
 5829SOL     OW18385   1.250   1.694   1.953
 5829SOL    HW118386   1.348   1.697   1.931
 5829SOL    HW218387   1.220   1.784   1.985
 5830SOL     OW18388   2.502   0.930   5.800
 5830SOL    HW118389   2.420   0.873   5.791
 5830SOL    HW218390   2.578   0.873   5.831
 5831SOL     OW18391   5.821   6.011   3.065
 5831SOL    HW118392   5.802   6.076   2.992
 5831SOL    HW218393   5.736   5.991   3.115
 5832SOL     OW18394   3.630   3.451   4.741
 5832SOL    HW118395   3.654   3.380   4.674
 5832SOL    HW218396   3.675   3.537   4.716
 5833SOL     OW18397   3.598   3.217   4.954
 5833SOL    HW118398   3.596   3.234   4.855
 5833SOL    HW218399   3.640   3.296   5.000
 5834SOL     OW18400   6.185   0.811   0.231
 5834SOL    HW118401   6.256   0.835   0.296
 5834SOL    HW218402   6.171   0.886   0.167
 5835SOL     OW18403   5.218   2.984   3.826
 5835SOL    HW118404   5.137   2.926   3.818
 5835SOL    HW218405   5.192   3.080   3.822
 5836SOL     OW18406   3.355   6.576   2.405
 5836SOL    HW118407   3.270   6.605   2.448
 5836SOL    HW218408   3.355   6.602   2.308
 5837SOL     OW18409   4.751   4.890   6.173
 5837SOL    HW118410   4.828   4.942   6.136
 5837SOL    HW218411   4.773   4.861   6.266
 5838SOL     OW18412   0.138   2.016   5.348
 5838SOL    HW118413   0.222   2.021   5.402
 5838SOL    HW218414   0.061   2.000   5.409
 5839SOL     OW18415   0.144   2.959   2.670
 5839SOL    HW118416   0.050   2.929   2.684
 5839SOL    HW218417   0.169   2.947   2.573
 5840SOL     OW18418   2.138   5.374   0.135
 5840SOL    HW118419   2.180   5.309   0.199
 5840SOL    HW218420   2.141   5.336   0.042
 5841SOL     OW18421   6.286   2.342   2.752
 5841SOL    HW118422   6.360   2.410   2.750
 5841SOL    HW218423   6.293   2.288   2.836
 5842SOL     OW18424   4.147   2.900   0.515
 5842SOL    HW118425   4.129   2.925   0.610
 5842SOL    HW218426   4.090   2.956   0.454
 5843SOL     OW18427   1.617   2.676   1.537
 5843SOL    HW118428   1.700   2.720   1.571
 5843SOL    HW218429   1.599   2.706   1.444
 5844SOL     OW18430   0.963   6.118   0.008
 5844SOL    HW118431   0.949   6.133   6.934
 5844SOL    HW218432   0.878   6.138   0.057
 5845SOL     OW18433   1.242   2.073   4.503
 5845SOL    HW118434   1.176   1.998   4.496
 5845SOL    HW218435   1.193   2.161   4.504
 5846SOL     OW18436   0.310   3.431   6.443
 5846SOL    HW118437   0.231   3.491   6.455
 5846SOL    HW218438   0.283   3.351   6.390
 5847SOL     OW18439   1.764   2.029   3.548
 5847SOL    HW118440   1.723   2.111   3.509
 5847SOL    HW218441   1.838   1.997   3.489
 5848SOL     OW18442   1.289   4.759   3.726
 5848SOL    HW118443   1.346   4.837   3.752
 5848SOL    HW218444   1.272   4.702   3.806
 5849SOL     OW18445   3.280   6.534   5.238
 5849SOL    HW118446   3.343   6.537   5.315
 5849SOL    HW218447   3.286   6.444   5.193
 5850SOL     OW18448   1.081   3.869   3.197
 5850SOL    HW118449   0.993   3.873   3.244
 5850SOL    HW218450   1.148   3.926   3.246
 5851SOL     OW18451   5.365   2.972   2.189
 5851SOL    HW118452   5.327   2.960   2.097
 5851SOL    HW218453   5.389   2.882   2.227
 5852SOL     OW18454   3.860   5.631   2.569
 5852SOL    HW118455   3.873   5.551   2.628
 5852SOL    HW218456   3.766   5.664   2.578
 5853SOL     OW18457   3.721   4.138   5.381
 5853SOL    HW118458   3.765   4.148   5.470
 5853SOL    HW218459   3.726   4.042   5.352
 5854SOL     OW18460   0.579   1.208   6.723
 5854SOL    HW118461   0.607   1.276   6.790
 5854SOL    HW218462   0.639   1.128   6.729
 5855SOL     OW18463   1.637   0.948   5.116
 5855SOL    HW118464   1.598   0.980   5.030
 5855SOL    HW218465   1.647   1.025   5.179
 5856SOL     OW18466   2.470   5.401   3.654
 5856SOL    HW118467   2.396   5.338   3.676
 5856SOL    HW218468   2.442   5.494   3.677
 5857SOL     OW18469   0.186   2.275   6.178
 5857SOL    HW118470   0.144   2.284   6.268
 5857SOL    HW218471   0.190   2.365   6.134
 5858SOL     OW18472   3.435   6.474   3.245
 5858SOL    HW118473   3.507   6.434   3.187
 5858SOL    HW218474   3.469   6.560   3.284
 5859SOL     OW18475   6.460   5.973   1.601
 5859SOL    HW118476   6.559   5.977   1.595
 5859SOL    HW218477   6.433   5.944   1.692
 5860SOL     OW18478   1.246   3.635   1.244
 5860SOL    HW118479   1.297   3.716   1.219
 5860SOL    HW218480   1.262   3.563   1.176
 5861SOL     OW18481   6.059   1.991   3.873
 5861SOL    HW118482   6.090   1.903   3.838
 5861SOL    HW218483   6.085   2.063   3.808
 5862SOL     OW18484   4.864   4.356   3.280
 5862SOL    HW118485   4.927   4.383   3.353
 5862SOL    HW218486   4.884   4.263   3.251
 5863SOL     OW18487   1.691   1.318   0.985
 5863SOL    HW118488   1.633   1.399   0.982
 5863SOL    HW218489   1.752   1.317   0.905
 5864SOL     OW18490   4.487   5.309   0.665
 5864SOL    HW118491   4.424   5.252   0.612
 5864SOL    HW218492   4.543   5.364   0.603
 5865SOL     OW18493   4.594   1.227   3.475
 5865SOL    HW118494   4.577   1.164   3.398
 5865SOL    HW218495   4.578   1.179   3.561
 5866SOL     OW18496   3.148   0.925   6.668
 5866SOL    HW118497   3.212   0.876   6.609
 5866SOL    HW218498   3.186   0.933   6.760
 5867SOL     OW18499   0.161   2.676   0.801
 5867SOL    HW118500   0.135   2.685   0.705
 5867SOL    HW218501   0.102   2.735   0.857
 5868SOL     OW18502   1.376   6.930   4.745
 5868SOL    HW118503   1.460   6.914   4.796
 5868SOL    HW218504   1.391   6.909   4.649
 5869SOL     OW18505   3.245   4.873   3.626
 5869SOL    HW118506   3.237   4.884   3.527
 5869SOL    HW218507   3.160   4.902   3.670
 5870SOL     OW18508   5.229   4.998   4.610
 5870SOL    HW118509   5.284   5.081   4.601
 5870SOL    HW218510   5.287   4.918   4.598
 5871SOL     OW18511   2.793   3.191   0.267
 5871SOL    HW118512   2.694   3.193   0.261
 5871SOL    HW218513   2.825   3.270   0.319
 5872SOL     OW18514   3.850   5.922   4.325
 5872SOL    HW118515   3.809   5.935   4.235
 5872SOL    HW218516   3.779   5.926   4.395
 5873SOL     OW18517   2.276   3.818   0.091
 5873SOL    HW118518   2.325   3.840   0.176
 5873SOL    HW218519   2.300   3.726   0.062
 5874SOL     OW18520   1.492   4.382   0.034
 5874SOL    HW118521   1.527   4.475   0.044
 5874SOL    HW218522   1.505   4.352   6.964
 5875SOL     OW18523   4.665   2.020   0.178
 5875SOL    HW118524   4.643   2.102   0.231
 5875SOL    HW218525   4.680   2.045   0.082
 5876SOL     OW18526   3.857   4.292   6.307
 5876SOL    HW118527   3.808   4.336   6.232
 5876SOL    HW218528   3.828   4.197   6.315
 5877SOL     OW18529   6.427   0.195   1.911
 5877SOL    HW118530   6.426   0.148   1.999
 5877SOL    HW218531   6.334   0.198   1.874
 5878SOL     OW18532   5.197   4.626   2.250
 5878SOL    HW118533   5.130   4.659   2.183
 5878SOL    HW218534   5.283   4.677   2.239
 5879SOL     OW18535   3.442   3.229   5.610
 5879SOL    HW118536   3.531   3.260   5.643
 5879SOL    HW218537   3.379   3.306   5.605
 5880SOL     OW18538   5.937   2.945   6.205
 5880SOL    HW118539   5.932   2.876   6.132
 5880SOL    HW218540   5.991   3.023   6.173
 5881SOL     OW18541   1.450   6.459   2.471
 5881SOL    HW118542   1.410   6.441   2.382
 5881SOL    HW218543   1.433   6.555   2.496
 5882SOL     OW18544   1.821   4.882   5.826
 5882SOL    HW118545   1.736   4.928   5.799
 5882SOL    HW218546   1.899   4.933   5.790
 5883SOL     OW18547   6.219   4.752   0.207
 5883SOL    HW118548   6.219   4.712   0.299
 5883SOL    HW218549   6.300   4.722   0.158
 5884SOL     OW18550   0.002   1.211   2.701
 5884SOL    HW118551   6.962   1.234   2.774
 5884SOL    HW218552   0.068   1.144   2.735
 5885SOL     OW18553   7.020   5.204   0.839
 5885SOL    HW118554   0.046   5.289   0.846
 5885SOL    HW218555   6.927   5.223   0.808
 5886SOL     OW18556   1.780   4.527   3.635
 5886SOL    HW118557   1.695   4.476   3.639
 5886SOL    HW218558   1.794   4.562   3.542
 5887SOL     OW18559   2.435   3.026   0.748
 5887SOL    HW118560   2.371   2.990   0.679
 5887SOL    HW218561   2.481   2.950   0.793
 5888SOL     OW18562   2.689   6.505   1.696
 5888SOL    HW118563   2.758   6.477   1.764
 5888SOL    HW218564   2.630   6.427   1.675
 5889SOL     OW18565   5.778   1.180   1.944
 5889SOL    HW118566   5.853   1.243   1.925
 5889SOL    HW218567   5.698   1.232   1.973
 5890SOL     OW18568   2.127   5.141   3.456
 5890SOL    HW118569   2.087   5.057   3.492
 5890SOL    HW218570   2.167   5.194   3.531
 5891SOL     OW18571   2.505   3.865   6.403
 5891SOL    HW118572   2.569   3.830   6.335
 5891SOL    HW218573   2.467   3.789   6.456
 5892SOL     OW18574   0.790   2.929   0.400
 5892SOL    HW118575   0.797   2.948   0.302
 5892SOL    HW218576   0.695   2.905   0.422
 5893SOL     OW18577   0.578   6.736   0.849
 5893SOL    HW118578   0.540   6.648   0.879
 5893SOL    HW218579   0.594   6.794   0.929
 5894SOL     OW18580   1.776   6.184   6.920
 5894SOL    HW118581   1.847   6.127   6.962
 5894SOL    HW218582   1.803   6.280   6.924
 5895SOL     OW18583   5.672   4.502   3.172
 5895SOL    HW118584   5.641   4.409   3.152
 5895SOL    HW218585   5.686   4.512   3.271
 5896SOL     OW18586   5.542   2.256   1.930
 5896SOL    HW118587   5.464   2.313   1.952
 5896SOL    HW218588   5.512   2.177   1.876
 5897SOL     OW18589   3.661   2.106   0.671
 5897SOL    HW118590   3.662   2.032   0.738
 5897SOL    HW218591   3.688   2.191   0.715
 5898SOL     OW18592   2.142   1.348   6.537
 5898SOL    HW118593   2.187   1.434   6.562
 5898SOL    HW218594   2.046   1.353   6.562
 5899SOL     OW18595   0.587   6.462   6.557
 5899SOL    HW118596   0.611   6.553   6.523
 5899SOL    HW218597   0.508   6.470   6.618
 5900SOL     OW18598   5.965   6.041   2.568
 5900SOL    HW118599   6.033   5.968   2.570
 5900SOL    HW218600   6.012   6.129   2.551
 5901SOL     OW18601   2.460   0.484   4.839
 5901SOL    HW118602   2.527   0.447   4.774
 5901SOL    HW218603   2.483   0.579   4.861
 5902SOL     OW18604   4.001   3.915   5.568
 5902SOL    HW118605   4.035   3.881   5.656
 5902SOL    HW218606   4.073   3.910   5.500
 5903SOL     OW18607   6.438   1.890   5.469
 5903SOL    HW118608   6.358   1.830   5.464
 5903SOL    HW218609   6.467   1.914   5.376
 5904SOL     OW18610   0.682   4.981   1.436
 5904SOL    HW118611   0.764   5.016   1.482
 5904SOL    HW218612   0.613   4.960   1.505
 5905SOL     OW18613   5.564   2.030   4.592
 5905SOL    HW118614   5.486   1.993   4.641
 5905SOL    HW218615   5.566   2.130   4.600
 5906SOL     OW18616   4.191   1.380   6.002
 5906SOL    HW118617   4.151   1.313   6.064
 5906SOL    HW218618   4.258   1.336   5.942
 5907SOL     OW18619   1.408   3.437   5.971
 5907SOL    HW118620   1.412   3.364   6.040
 5907SOL    HW218621   1.480   3.504   5.989
 5908SOL     OW18622   4.617   3.967   6.198
 5908SOL    HW118623   4.589   3.942   6.105
 5908SOL    HW218624   4.576   4.054   6.223
 5909SOL     OW18625   6.540   4.888   3.829
 5909SOL    HW118626   6.575   4.847   3.913
 5909SOL    HW218627   6.440   4.891   3.832
 5910SOL     OW18628   3.327   4.652   0.651
 5910SOL    HW118629   3.265   4.641   0.573
 5910SOL    HW218630   3.381   4.569   0.663
 5911SOL     OW18631   6.411   6.908   6.931
 5911SOL    HW118632   6.425   6.810   6.919
 5911SOL    HW218633   6.460   6.939   7.013
 5912SOL     OW18634   0.931   3.527   5.259
 5912SOL    HW118635   0.944   3.452   5.194
 5912SOL    HW218636   0.912   3.489   5.350
 5913SOL     OW18637   1.640   2.127   4.598
 5913SOL    HW118638   1.600   2.211   4.634
 5913SOL    HW218639   1.656   2.063   4.673
 5914SOL     OW18640   1.712   6.192   0.711
 5914SOL    HW118641   1.750   6.242   0.789
 5914SOL    HW218642   1.614   6.211   0.703
 5915SOL     OW18643   5.450   3.164   4.351
 5915SOL    HW118644   5.379   3.172   4.282
 5915SOL    HW218645   5.408   3.161   4.442
 5916SOL     OW18646   3.369   0.069   6.000
 5916SOL    HW118647   3.464   0.097   5.993
 5916SOL    HW218648   3.341   0.068   6.096
 5917SOL     OW18649   3.388   4.137   2.474
 5917SOL    HW118650   3.387   4.113   2.377
 5917SOL    HW218651   3.471   4.188   2.495
 5918SOL     OW18652   2.589   2.265   4.078
 5918SOL    HW118653   2.570   2.174   4.113
 5918SOL    HW218654   2.553   2.274   3.985
 5919SOL     OW18655   1.698   2.200   6.888
 5919SOL    HW118656   1.775   2.220   6.828
 5919SOL    HW218657   1.628   2.149   6.838
 5920SOL     OW18658   2.496   5.485   0.092
 5920SOL    HW118659   2.545   5.528   0.016
 5920SOL    HW218660   2.485   5.387   0.073
 5921SOL     OW18661   3.747   5.380   5.834
 5921SOL    HW118662   3.745   5.414   5.928
 5921SOL    HW218663   3.660   5.335   5.814
 5922SOL     OW18664   5.965   4.404   1.450
 5922SOL    HW118665   5.914   4.356   1.522
 5922SOL    HW218666   5.910   4.406   1.367
 5923SOL     OW18667   6.597   0.750   3.668
 5923SOL    HW118668   6.692   0.772   3.690
 5923SOL    HW218669   6.594   0.665   3.615
 5924SOL     OW18670   6.039   1.734   5.111
 5924SOL    HW118671   6.043   1.718   5.012
 5924SOL    HW218672   5.945   1.754   5.137
 5925SOL     OW18673   6.276   5.799   0.524
 5925SOL    HW118674   6.252   5.847   0.441
 5925SOL    HW218675   6.193   5.777   0.576
 5926SOL     OW18676   3.125   5.403   2.589
 5926SOL    HW118677   3.105   5.383   2.685
 5926SOL    HW218678   3.061   5.354   2.531
 5927SOL     OW18679   2.274   5.110   2.399
 5927SOL    HW118680   2.299   5.094   2.304
 5927SOL    HW218681   2.356   5.131   2.452
 5928SOL     OW18682   0.491   6.281   1.240
 5928SOL    HW118683   0.587   6.303   1.226
 5928SOL    HW218684   0.436   6.363   1.226
 5929SOL     OW18685   1.052   7.008   5.402
 5929SOL    HW118686   1.121   6.937   5.392
 5929SOL    HW218687   1.058   0.047   5.325
 5930SOL     OW18688   6.382   1.261   5.196
 5930SOL    HW118689   6.357   1.195   5.125
 5930SOL    HW218690   6.315   1.335   5.197
 5931SOL     OW18691   5.721   5.200   1.471
 5931SOL    HW118692   5.818   5.199   1.448
 5931SOL    HW218693   5.668   5.230   1.392
 5932SOL     OW18694   2.461   0.277   0.268
 5932SOL    HW118695   2.387   0.228   0.313
 5932SOL    HW218696   2.428   0.317   0.182
 5933SOL     OW18697   6.054   3.694   2.446
 5933SOL    HW118698   5.960   3.661   2.449
 5933SOL    HW218699   6.094   3.692   2.538
 5934SOL     OW18700   3.334   3.984   2.221
 5934SOL    HW118701   3.336   3.901   2.166
 5934SOL    HW218702   3.307   3.961   2.315
 5935SOL     OW18703   3.992   3.591   2.864
 5935SOL    HW118704   4.040   3.559   2.946
 5935SOL    HW218705   4.022   3.538   2.785
 5936SOL     OW18706   5.822   6.072   6.333
 5936SOL    HW118707   5.879   6.021   6.269
 5936SOL    HW218708   5.752   6.122   6.283
 5937SOL     OW18709   1.667   4.377   0.274
 5937SOL    HW118710   1.595   4.395   0.208
 5937SOL    HW218711   1.718   4.295   0.246
 5938SOL     OW18712   1.985   4.185   1.369
 5938SOL    HW118713   1.913   4.129   1.329
 5938SOL    HW218714   2.069   4.131   1.376
 5939SOL     OW18715   1.965   1.129   2.663
 5939SOL    HW118716   1.967   1.030   2.674
 5939SOL    HW218717   1.939   1.151   2.568
 5940SOL     OW18718   4.026   5.343   3.585
 5940SOL    HW118719   4.057   5.312   3.675
 5940SOL    HW218720   4.064   5.284   3.514
 5941SOL     OW18721   6.859   3.499   2.754
 5941SOL    HW118722   6.852   3.400   2.762
 5941SOL    HW218723   6.830   3.528   2.663
 5942SOL     OW18724   6.508   1.929   5.214
 5942SOL    HW118725   6.490   1.985   5.133
 5942SOL    HW218726   6.606   1.922   5.229
 5943SOL     OW18727   0.804   5.173   0.826
 5943SOL    HW118728   0.727   5.222   0.867
 5943SOL    HW218729   0.840   5.108   0.892
 5944SOL     OW18730   5.127   2.033   2.886
 5944SOL    HW118731   5.065   1.958   2.864
 5944SOL    HW218732   5.193   2.043   2.811
 5945SOL     OW18733   6.894   5.098   5.961
 5945SOL    HW118734   6.795   5.102   5.974
 5945SOL    HW218735   6.941   5.118   6.047
 5946SOL     OW18736   3.979   2.861   5.229
 5946SOL    HW118737   3.968   2.895   5.136
 5946SOL    HW218738   4.027   2.774   5.228
 5947SOL     OW18739   4.235   3.863   1.364
 5947SOL    HW118740   4.219   3.827   1.456
 5947SOL    HW218741   4.278   3.953   1.371
 5948SOL     OW18742   3.525   5.318   3.553
 5948SOL    HW118743   3.612   5.332   3.600
 5948SOL    HW218744   3.528   5.232   3.503
 5949SOL     OW18745   4.536   4.407   2.720
 5949SOL    HW118746   4.617   4.459   2.694
 5949SOL    HW218747   4.551   4.364   2.809
 5950SOL     OW18748   6.277   2.635   3.808
 5950SOL    HW118749   6.226   2.559   3.849
 5950SOL    HW218750   6.268   2.631   3.709
 5951SOL     OW18751   1.769   6.958   4.026
 5951SOL    HW118752   1.784   0.026   3.994
 5951SOL    HW218753   1.824   6.941   4.107
 5952SOL     OW18754   6.954   6.470   4.774
 5952SOL    HW118755   6.917   6.494   4.684
 5952SOL    HW218756   6.996   6.380   4.770
 5953SOL     OW18757   0.518   3.616   6.322
 5953SOL    HW118758   0.512   3.651   6.229
 5953SOL    HW218759   0.446   3.548   6.337
 5954SOL     OW18760   0.968   5.125   6.807
 5954SOL    HW118761   0.994   5.037   6.847
 5954SOL    HW218762   0.986   5.198   6.874
 5955SOL     OW18763   4.444   5.250   2.855
 5955SOL    HW118764   4.523   5.282   2.803
 5955SOL    HW218765   4.434   5.305   2.938
 5956SOL     OW18766   6.754   1.951   0.212
 5956SOL    HW118767   6.743   1.911   0.122
 5956SOL    HW218768   6.731   2.048   0.209
 5957SOL     OW18769   4.823   0.085   5.532
 5957SOL    HW118770   4.886   0.041   5.468
 5957SOL    HW218771   4.763   0.016   5.572
 5958SOL     OW18772   1.484   5.399   2.663
 5958SOL    HW118773   1.473   5.306   2.698
 5958SOL    HW218774   1.580   5.428   2.674
 5959SOL     OW18775   2.171   0.812   6.680
 5959SOL    HW118776   2.121   0.760   6.611
 5959SOL    HW218777   2.162   0.910   6.660
 5960SOL     OW18778   3.462   6.778   4.946
 5960SOL    HW118779   3.410   6.843   4.889
 5960SOL    HW218780   3.436   6.790   5.042
 5961SOL     OW18781   2.391   1.169   6.140
 5961SOL    HW118782   2.459   1.219   6.086
 5961SOL    HW218783   2.328   1.234   6.183
 5962SOL     OW18784   5.104   5.196   2.782
 5962SOL    HW118785   5.052   5.169   2.701
 5962SOL    HW218786   5.202   5.188   2.762
 5963SOL     OW18787   3.975   3.892   1.905
 5963SOL    HW118788   4.038   3.861   1.976
 5963SOL    HW218789   4.023   3.949   1.839
 5964SOL     OW18790   1.410   3.881   5.806
 5964SOL    HW118791   1.366   3.872   5.717
 5964SOL    HW218792   1.354   3.938   5.867
 5965SOL     OW18793   2.391   1.199   4.207
 5965SOL    HW118794   2.465   1.243   4.157
 5965SOL    HW218795   2.428   1.129   4.268
 5966SOL     OW18796   1.813   6.347   4.241
 5966SOL    HW118797   1.791   6.431   4.192
 5966SOL    HW218798   1.827   6.367   4.338
 5967SOL     OW18799   4.337   6.449   2.205
 5967SOL    HW118800   4.382   6.531   2.171
 5967SOL    HW218801   4.394   6.369   2.183
 5968SOL     OW18802   0.312   2.125   4.201
 5968SOL    HW118803   0.383   2.141   4.270
 5968SOL    HW218804   0.310   2.028   4.176
 5969SOL     OW18805   5.510   2.939   2.796
 5969SOL    HW118806   5.469   2.923   2.706
 5969SOL    HW218807   5.589   3.000   2.786
 5970SOL     OW18808   2.097   3.142   3.827
 5970SOL    HW118809   2.105   3.221   3.767
 5970SOL    HW218810   2.143   3.064   3.786
 5971SOL     OW18811   2.252   6.626   2.906
 5971SOL    HW118812   2.190   6.639   2.829
 5971SOL    HW218813   2.203   6.585   2.983
 5972SOL     OW18814   4.711   6.796   1.489
 5972SOL    HW118815   4.772   6.799   1.409
 5972SOL    HW218816   4.756   6.839   1.567
 5973SOL     OW18817   0.953   4.457   3.275
 5973SOL    HW118818   0.877   4.420   3.221
 5973SOL    HW218819   0.942   4.431   3.371
 5974SOL     OW18820   1.092   4.101   6.520
 5974SOL    HW118821   1.181   4.061   6.502
 5974SOL    HW218822   1.103   4.184   6.576
 5975SOL     OW18823   1.840   3.530   6.915
 5975SOL    HW118824   1.750   3.487   6.905
 5975SOL    HW218825   1.902   3.492   6.847
 5976SOL     OW18826   3.624   3.219   4.408
 5976SOL    HW118827   3.657   3.182   4.321
 5976SOL    HW218828   3.587   3.311   4.394
 5977SOL     OW18829   1.108   3.193   3.514
 5977SOL    HW118830   1.010   3.193   3.533
 5977SOL    HW218831   1.129   3.121   3.447
 5978SOL     OW18832   5.206   5.434   2.984
 5978SOL    HW118833   5.110   5.429   2.958
 5978SOL    HW218834   5.262   5.459   2.905
 5979SOL     OW18835   1.045   0.874   2.311
 5979SOL    HW118836   0.977   0.939   2.279
 5979SOL    HW218837   1.117   0.922   2.361
 5980SOL     OW18838   6.174   3.953   6.151
 5980SOL    HW118839   6.137   4.037   6.111
 5980SOL    HW218840   6.221   3.901   6.080
 5981SOL     OW18841   3.749   1.858   1.305
 5981SOL    HW118842   3.830   1.915   1.305
 5981SOL    HW218843   3.716   1.848   1.399
 5982SOL     OW18844   5.959   2.458   6.636
 5982SOL    HW118845   5.996   2.486   6.547
 5982SOL    HW218846   5.932   2.539   6.688
 5983SOL     OW18847   0.832   1.442   4.971
 5983SOL    HW118848   0.894   1.376   4.928
 5983SOL    HW218849   0.768   1.393   5.030
 5984SOL     OW18850   0.571   6.950   5.569
 5984SOL    HW118851   0.490   6.998   5.533
 5984SOL    HW218852   0.592   6.984   5.660
 5985SOL     OW18853   5.050   3.084   4.246
 5985SOL    HW118854   4.996   3.036   4.315
 5985SOL    HW218855   5.125   3.025   4.216
 5986SOL     OW18856   3.744   3.376   2.108
 5986SOL    HW118857   3.661   3.324   2.129
 5986SOL    HW218858   3.726   3.473   2.123
 5987SOL     OW18859   4.679   6.953   5.712
 5987SOL    HW118860   4.740   6.876   5.690
 5987SOL    HW218861   4.662   6.954   5.810
 5988SOL     OW18862   3.710   0.039   4.372
 5988SOL    HW118863   3.780   6.993   4.357
 5988SOL    HW218864   3.752   0.119   4.416
 5989SOL     OW18865   2.952   1.228   6.738
 5989SOL    HW118866   3.047   1.228   6.709
 5989SOL    HW218867   2.902   1.300   6.688
 5990SOL     OW18868   3.324   5.188   2.061
 5990SOL    HW118869   3.305   5.215   2.155
 5990SOL    HW218870   3.352   5.093   2.058
 5991SOL     OW18871   3.275   5.453   3.921
 5991SOL    HW118872   3.333   5.373   3.904
 5991SOL    HW218873   3.241   5.450   4.016
 5992SOL     OW18874   4.370   1.727   4.620
 5992SOL    HW118875   4.341   1.706   4.526
 5992SOL    HW218876   4.301   1.785   4.664
 5993SOL     OW18877   3.778   5.916   4.031
 5993SOL    HW118878   3.871   5.879   4.038
 5993SOL    HW218879   3.753   5.924   3.935
 5994SOL     OW18880   6.253   2.853   1.435
 5994SOL    HW118881   6.162   2.887   1.409
 5994SOL    HW218882   6.318   2.871   1.361
 5995SOL     OW18883   0.975   4.673   1.465
 5995SOL    HW118884   0.934   4.709   1.381
 5995SOL    HW218885   1.024   4.746   1.512
 5996SOL     OW18886   0.526   5.540   5.894
 5996SOL    HW118887   0.479   5.569   5.811
 5996SOL    HW218888   0.620   5.513   5.871
 5997SOL     OW18889   0.474   0.469   1.483
 5997SOL    HW118890   0.401   0.529   1.448
 5997SOL    HW218891   0.443   0.374   1.478
 5998SOL     OW18892   4.429   2.106   3.232
 5998SOL    HW118893   4.493   2.148   3.296
 5998SOL    HW218894   4.459   2.012   3.213
 5999SOL     OW18895   2.365   2.771   3.318
 5999SOL    HW118896   2.269   2.796   3.308
 5999SOL    HW218897   2.394   2.787   3.412
 6000SOL     OW18898   4.592   6.752   3.145
 6000SOL    HW118899   4.572   6.776   3.050
 6000SOL    HW218900   4.609   6.836   3.197
 6001SOL     OW18901   5.895   1.833   7.018
 6001SOL    HW118902   5.889   1.883   6.932
 6001SOL    HW218903   5.973   1.868   0.046
 6002SOL     OW18904   1.836   0.393   1.703
 6002SOL    HW118905   1.851   0.365   1.798
 6002SOL    HW218906   1.741   0.377   1.678
 6003SOL     OW18907   5.123   3.852   3.850
 6003SOL    HW118908   5.033   3.812   3.838
 6003SOL    HW218909   5.126   3.942   3.807
 6004SOL     OW18910   0.215   3.541   1.394
 6004SOL    HW118911   0.301   3.527   1.443
 6004SOL    HW218912   0.140   3.547   1.460
 6005SOL     OW18913   2.191   5.979   2.646
 6005SOL    HW118914   2.175   5.975   2.548
 6005SOL    HW218915   2.183   6.074   2.677
 6006SOL     OW18916   2.007   6.048   0.025
 6006SOL    HW118917   2.058   6.132   0.006
 6006SOL    HW218918   2.026   6.018   0.118
 6007SOL     OW18919   5.422   2.622   4.298
 6007SOL    HW118920   5.429   2.528   4.266
 6007SOL    HW218921   5.385   2.624   4.391
 6008SOL     OW18922   4.909   4.634   0.912
 6008SOL    HW118923   4.961   4.552   0.886
 6008SOL    HW218924   4.972   4.710   0.924
 6009SOL     OW18925   3.366   1.777   4.279
 6009SOL    HW118926   3.372   1.828   4.365
 6009SOL    HW218927   3.420   1.824   4.210
 6010SOL     OW18928   1.394   3.125   3.401
 6010SOL    HW118929   1.354   3.145   3.312
 6010SOL    HW218930   1.374   3.200   3.464
 6011SOL     OW18931   6.598   2.980   1.780
 6011SOL    HW118932   6.508   3.018   1.757
 6011SOL    HW218933   6.622   2.910   1.713
 6012SOL     OW18934   0.208   3.245   1.041
 6012SOL    HW118935   0.136   3.201   0.988
 6012SOL    HW218936   0.285   3.181   1.052
 6013SOL     OW18937   5.650   0.935   1.976
 6013SOL    HW118938   5.684   0.854   2.023
 6013SOL    HW218939   5.723   1.002   1.967
 6014SOL     OW18940   5.193   0.420   1.118
 6014SOL    HW118941   5.258   0.494   1.135
 6014SOL    HW218942   5.102   0.458   1.104
 6015SOL     OW18943   5.384   1.240   4.753
 6015SOL    HW118944   5.290   1.273   4.750
 6015SOL    HW218945   5.389   1.156   4.807
 6016SOL     OW18946   1.554   6.957   5.614
 6016SOL    HW118947   1.625   7.007   5.564
 6016SOL    HW218948   1.538   6.869   5.570
 6017SOL     OW18949   6.897   3.969   2.235
 6017SOL    HW118950   6.880   4.057   2.189
 6017SOL    HW218951   6.855   3.971   2.326
 6018SOL     OW18952   2.420   5.568   1.178
 6018SOL    HW118953   2.455   5.662   1.179
 6018SOL    HW218954   2.334   5.565   1.125
 6019SOL     OW18955   5.466   6.528   3.393
 6019SOL    HW118956   5.377   6.551   3.354
 6019SOL    HW218957   5.485   6.590   3.470
 6020SOL     OW18958   2.627   0.043   2.876
 6020SOL    HW118959   2.686   0.124   2.879
 6020SOL    HW218960   2.562   0.046   2.951
 6021SOL     OW18961   4.380   0.993   3.542
 6021SOL    HW118962   4.434   0.992   3.458
 6021SOL    HW218963   4.420   1.059   3.607
 6022SOL     OW18964   4.621   1.075   5.963
 6022SOL    HW118965   4.704   1.066   5.907
 6022SOL    HW218966   4.644   1.054   6.058
 6023SOL     OW18967   0.691   1.934   2.655
 6023SOL    HW118968   0.783   1.925   2.618
 6023SOL    HW218969   0.639   1.850   2.636
 6024SOL     OW18970   0.241   5.642   2.542
 6024SOL    HW118971   0.189   5.559   2.521
 6024SOL    HW218972   0.185   5.723   2.526
 6025SOL     OW18973   3.795   2.109   2.191
 6025SOL    HW118974   3.717   2.073   2.242
 6025SOL    HW218975   3.763   2.154   2.108
 6026SOL     OW18976   0.626   4.444   6.146
 6026SOL    HW118977   0.604   4.494   6.062
 6026SOL    HW218978   0.695   4.374   6.127
 6027SOL     OW18979   3.349   3.405   0.340
 6027SOL    HW118980   3.381   3.406   0.435
 6027SOL    HW218981   3.289   3.483   0.324
 6028SOL     OW18982   1.205   4.569   6.936
 6028SOL    HW118983   1.115   4.526   6.939
 6028SOL    HW218984   1.238   4.584   0.005
 6029SOL     OW18985   1.382   4.996   1.649
 6029SOL    HW118986   1.388   5.091   1.619
 6029SOL    HW218987   1.376   4.993   1.749
 6030SOL     OW18988   1.625   0.017   1.576
 6030SOL    HW118989   1.706   7.023   1.522
 6030SOL    HW218990   1.652   0.046   1.668
 6031SOL     OW18991   5.615   0.700   4.438
 6031SOL    HW118992   5.582   0.720   4.346
 6031SOL    HW218993   5.671   0.618   4.437
 6032SOL     OW18994   0.189   3.644   2.733
 6032SOL    HW118995   0.266   3.590   2.699
 6032SOL    HW218996   0.166   3.613   2.826
 6033SOL     OW18997   0.141   0.013   4.632
 6033SOL    HW118998   0.214   0.003   4.700
 6033SOL    HW218999   0.180   7.023   4.540
 6034SOL     OW19000   2.175   4.221   4.898
 6034SOL    HW119001   2.226   4.139   4.922
 6034SOL    HW219002   2.201   4.296   4.960
 6035SOL     OW19003   5.660   0.079   3.726
 6035SOL    HW119004   5.607   0.138   3.665
 6035SOL    HW219005   5.618   7.013   3.729
 6036SOL     OW19006   1.018   1.063   3.992
 6036SOL    HW119007   1.017   1.024   4.084
 6036SOL    HW219008   1.104   1.113   3.978
 6037SOL     OW19009   6.941   5.725   4.896
 6037SOL    HW119010   6.884   5.657   4.942
 6037SOL    HW219011   6.889   5.767   4.822
 6038SOL     OW19012   5.434   4.459   6.158
 6038SOL    HW119013   5.495   4.383   6.135
 6038SOL    HW219014   5.395   4.498   6.075
 6039SOL     OW19015   4.090   3.299   3.974
 6039SOL    HW119016   4.055   3.214   4.014
 6039SOL    HW219017   4.052   3.310   3.882
 6040SOL     OW19018   1.395   1.315   6.940
 6040SOL    HW119019   1.390   1.351   0.009
 6040SOL    HW219020   1.426   1.220   6.943
 6041SOL     OW19021   0.925   2.480   0.586
 6041SOL    HW119022   0.917   2.552   0.517
 6041SOL    HW219023   0.953   2.521   0.673
 6042SOL     OW19024   5.458   5.507   4.497
 6042SOL    HW119025   5.402   5.547   4.570
 6042SOL    HW219026   5.470   5.574   4.424
 6043SOL     OW19027   0.374   4.434   4.012
 6043SOL    HW119028   0.331   4.361   4.064
 6043SOL    HW219029   0.451   4.471   4.063
 6044SOL     OW19030   0.727   0.410   1.522
 6044SOL    HW119031   0.629   0.421   1.506
 6044SOL    HW219032   0.777   0.471   1.462
 6045SOL     OW19033   6.977   4.103   0.759
 6045SOL    HW119034   0.038   4.147   0.732
 6045SOL    HW219035   6.943   4.046   0.684
 6046SOL     OW19036   2.534   3.491   0.694
 6046SOL    HW119037   2.490   3.543   0.621
 6046SOL    HW219038   2.559   3.401   0.661
 6047SOL     OW19039   0.363   6.197   4.743
 6047SOL    HW119040   0.306   6.262   4.692
 6047SOL    HW219041   0.457   6.199   4.708
 6048SOL     OW19042   4.973   5.898   5.005
 6048SOL    HW119043   5.009   5.852   5.086
 6048SOL    HW219044   4.911   5.836   4.957
 6049SOL     OW19045   6.307   5.327   0.841
 6049SOL    HW119046   6.309   5.424   0.816
 6049SOL    HW219047   6.325   5.272   0.760
 6050SOL     OW19048   5.343   4.681   5.390
 6050SOL    HW119049   5.328   4.680   5.291
 6050SOL    HW219050   5.442   4.687   5.408
 6051SOL     OW19051   2.344   1.780   2.879
 6051SOL    HW119052   2.387   1.703   2.832
 6051SOL    HW219053   2.249   1.758   2.899
 6052SOL     OW19054   6.671   1.059   0.330
 6052SOL    HW119055   6.698   1.133   0.392
 6052SOL    HW219056   6.728   1.062   0.248
 6053SOL     OW19057   1.961   0.272   6.031
 6053SOL    HW119058   1.882   0.332   6.022
 6053SOL    HW219059   1.930   0.180   6.057
 6054SOL     OW19060   2.137   4.443   6.711
 6054SOL    HW119061   2.146   4.513   6.641
 6054SOL    HW219062   2.119   4.354   6.668
 6055SOL     OW19063   4.880   0.749   3.945
 6055SOL    HW119064   4.784   0.767   3.925
 6055SOL    HW219065   4.906   0.661   3.903
 6056SOL     OW19066   5.141   3.642   6.495
 6056SOL    HW119067   5.239   3.643   6.512
 6056SOL    HW219068   5.099   3.726   6.530
 6057SOL     OW19069   3.310   0.576   6.484
 6057SOL    HW119070   3.296   0.480   6.459
 6057SOL    HW219071   3.408   0.593   6.498
 6058SOL     OW19072   5.352   1.351   3.915
 6058SOL    HW119073   5.259   1.386   3.913
 6058SOL    HW219074   5.400   1.387   3.996
 6059SOL     OW19075   6.821   6.687   6.010
 6059SOL    HW119076   6.725   6.674   6.038
 6059SOL    HW219077   6.834   6.648   5.919
 6060SOL     OW19078   3.191   6.064   6.740
 6060SOL    HW119079   3.229   6.146   6.781
 6060SOL    HW219080   3.101   6.084   6.700
 6061SOL     OW19081   2.036   1.954   6.507
 6061SOL    HW119082   1.963   1.893   6.476
 6061SOL    HW219083   2.011   1.995   6.595
 6062SOL     OW19084   1.557   0.094   4.557
 6062SOL    HW119085   1.626   0.125   4.490
 6062SOL    HW219086   1.488   0.165   4.568
 6063SOL     OW19087   5.471   6.252   6.863
 6063SOL    HW119088   5.454   6.337   6.813
 6063SOL    HW219089   5.392   6.230   6.919
 6064SOL     OW19090   0.749   5.586   3.602
 6064SOL    HW119091   0.692   5.660   3.568
 6064SOL    HW219092   0.783   5.531   3.526
 6065SOL     OW19093   5.818   6.493   1.276
 6065SOL    HW119094   5.860   6.476   1.186
 6065SOL    HW219095   5.870   6.443   1.346
 6066SOL     OW19096   4.537   2.350   6.334
 6066SOL    HW119097   4.515   2.383   6.242
 6066SOL    HW219098   4.557   2.428   6.394
 6067SOL     OW19099   5.529   2.287   6.527
 6067SOL    HW119100   5.603   2.318   6.587
 6067SOL    HW219101   5.453   2.254   6.582
 6068SOL     OW19102   4.882   1.950   5.352
 6068SOL    HW119103   4.953   1.899   5.305
 6068SOL    HW219104   4.915   2.043   5.372
 6069SOL     OW19105   6.005   3.997   4.198
 6069SOL    HW119106   5.972   3.936   4.125
 6069SOL    HW219107   6.104   3.989   4.206
 6070SOL     OW19108   3.898   2.943   6.987
 6070SOL    HW119109   3.850   2.926   0.049
 6070SOL    HW219110   3.884   2.866   6.925
 6071SOL     OW19111   5.010   6.543   5.001
 6071SOL    HW119112   4.987   6.640   4.987
 6071SOL    HW219113   4.925   6.490   5.004
 6072SOL     OW19114   0.121   1.530   0.907
 6072SOL    HW119115   0.210   1.577   0.906
 6072SOL    HW219116   0.049   1.594   0.881
 6073SOL     OW19117   6.461   1.780   1.258
 6073SOL    HW119118   6.393   1.853   1.260
 6073SOL    HW219119   6.533   1.799   1.325
 6074SOL     OW19120   0.531   0.126   5.046
 6074SOL    HW119121   0.565   0.175   4.966
 6074SOL    HW219122   0.581   0.040   5.056
 6075SOL     OW19123   5.111   4.660   6.405
 6075SOL    HW119124   5.159   4.598   6.467
 6075SOL    HW219125   5.178   4.706   6.347
 6076SOL     OW19126   2.775   6.843   4.270
 6076SOL    HW119127   2.821   6.930   4.287
 6076SOL    HW219128   2.792   6.781   4.346
 6077SOL     OW19129   5.764   5.305   2.830
 6077SOL    HW119130   5.859   5.283   2.850
 6077SOL    HW219131   5.753   5.321   2.732
 6078SOL     OW19132   2.202   4.674   3.542
 6078SOL    HW119133   2.220   4.755   3.598
 6078SOL    HW219134   2.282   4.615   3.543
 6079SOL     OW19135   2.383   1.697   0.986
 6079SOL    HW119136   2.324   1.617   0.988
 6079SOL    HW219137   2.368   1.746   0.899
 6080SOL     OW19138   5.410   2.291   2.663
 6080SOL    HW119139   5.432   2.290   2.760
 6080SOL    HW219140   5.493   2.310   2.610
 6081SOL     OW19141   0.449   3.530   2.867
 6081SOL    HW119142   0.379   3.463   2.842
 6081SOL    HW219143   0.521   3.484   2.919
 6082SOL     OW19144   3.501   1.961   4.101
 6082SOL    HW119145   3.529   2.034   4.162
 6082SOL    HW219146   3.429   1.993   4.040
 6083SOL     OW19147   1.776   6.725   0.858
 6083SOL    HW119148   1.781   6.745   0.760
 6083SOL    HW219149   1.866   6.699   0.891
 6084SOL     OW19150   0.389   4.872   5.847
 6084SOL    HW119151   0.295   4.845   5.867
 6084SOL    HW219152   0.432   4.803   5.788
 6085SOL     OW19153   4.928   4.939   1.574
 6085SOL    HW119154   5.024   4.931   1.602
 6085SOL    HW219155   4.874   4.978   1.649
 6086SOL     OW19156   3.023   1.804   3.184
 6086SOL    HW119157   3.109   1.837   3.147
 6086SOL    HW219158   3.029   1.798   3.283
 6087SOL     OW19159   4.175   7.023   0.757
 6087SOL    HW119160   4.127   6.961   0.695
 6087SOL    HW219161   4.150   7.002   0.851
 6088SOL     OW19162   6.834   6.587   5.756
 6088SOL    HW119163   6.924   6.592   5.711
 6088SOL    HW219164   6.793   6.498   5.737
 6089SOL     OW19165   6.472   3.334   0.213
 6089SOL    HW119166   6.513   3.381   0.291
 6089SOL    HW219167   6.472   3.236   0.229
 6090SOL     OW19168   0.303   5.571   3.854
 6090SOL    HW119169   0.395   5.531   3.851
 6090SOL    HW219170   0.272   5.592   3.762
 6091SOL     OW19171   6.229   1.952   1.463
 6091SOL    HW119172   6.232   2.020   1.536
 6091SOL    HW219173   6.135   1.919   1.452
 6092SOL     OW19174   1.580   2.588   0.958
 6092SOL    HW119175   1.628   2.586   1.046
 6092SOL    HW219176   1.646   2.596   0.884
 6093SOL     OW19177   1.280   3.709   0.359
 6093SOL    HW119178   1.274   3.616   0.396
 6093SOL    HW219179   1.370   3.747   0.378
 6094SOL     OW19180   0.880   0.710   0.915
 6094SOL    HW119181   0.834   0.719   0.826
 6094SOL    HW219182   0.815   0.731   0.988
 6095SOL     OW19183   6.439   3.673   5.457
 6095SOL    HW119184   6.523   3.630   5.424
 6095SOL    HW219185   6.386   3.706   5.378
 6096SOL     OW19186   4.110   1.528   2.758
 6096SOL    HW119187   4.019   1.491   2.779
 6096SOL    HW219188   4.174   1.454   2.742
 6097SOL     OW19189   2.999   1.832   2.105
 6097SOL    HW119190   2.968   1.926   2.087
 6097SOL    HW219191   2.947   1.769   2.048
 6098SOL     OW19192   1.455   0.948   6.238
 6098SOL    HW119193   1.407   0.961   6.152
 6098SOL    HW219194   1.407   0.998   6.311
 6099SOL     OW19195   5.717   4.905   4.775
 6099SOL    HW119196   5.759   4.827   4.729
 6099SOL    HW219197   5.646   4.874   4.837
 6100SOL     OW19198   6.653   2.210   0.220
 6100SOL    HW119199   6.564   2.255   0.227
 6100SOL    HW219200   6.709   2.235   0.299
 6101SOL     OW19201   5.596   0.641   3.666
 6101SOL    HW119202   5.672   0.619   3.605
 6101SOL    HW219203   5.631   0.653   3.759
 6102SOL     OW19204   3.080   0.538   5.338
 6102SOL    HW119205   3.018   0.611   5.369
 6102SOL    HW219206   3.045   0.500   5.252
 6103SOL     OW19207   6.442   1.150   5.450
 6103SOL    HW119208   6.449   1.051   5.434
 6103SOL    HW219209   6.426   1.196   5.363
 6104SOL     OW19210   1.496   3.523   0.955
 6104SOL    HW119211   1.401   3.500   0.978
 6104SOL    HW219212   1.557   3.482   1.023
 6105SOL     OW19213   3.667   5.005   4.540
 6105SOL    HW119214   3.578   4.986   4.497
 6105SOL    HW219215   3.737   4.946   4.500
 6106SOL     OW19216   3.287   5.182   4.187
 6106SOL    HW119217   3.198   5.223   4.168
 6106SOL    HW219218   3.315   5.203   4.280
 6107SOL     OW19219   2.192   4.857   5.760
 6107SOL    HW119220   2.156   4.765   5.775
 6107SOL    HW219221   2.255   4.856   5.683
 6108SOL     OW19222   5.961   1.762   4.385
 6108SOL    HW119223   5.975   1.818   4.304
 6108SOL    HW219224   5.939   1.668   4.358
 6109SOL     OW19225   6.708   4.316   2.032
 6109SOL    HW119226   6.726   4.342   1.937
 6109SOL    HW219227   6.713   4.397   2.090
 6110SOL     OW19228   3.323   2.059   3.924
 6110SOL    HW119229   3.393   2.084   3.857
 6110SOL    HW219230   3.269   1.982   3.889
 6111SOL     OW19231   0.381   4.437   3.062
 6111SOL    HW119232   0.421   4.414   3.151
 6111SOL    HW219233   0.305   4.374   3.043
 6112SOL     OW19234   1.039   2.407   1.425
 6112SOL    HW119235   0.986   2.394   1.509
 6112SOL    HW219236   1.124   2.356   1.431
 6113SOL     OW19237   2.111   5.393   5.447
 6113SOL    HW119238   2.138   5.299   5.424
 6113SOL    HW219239   2.058   5.393   5.531
 6114SOL     OW19240   5.343   5.754   1.160
 6114SOL    HW119241   5.422   5.754   1.100
 6114SOL    HW219242   5.373   5.757   1.256
 6115SOL     OW19243   6.289   4.335   2.360
 6115SOL    HW119244   6.246   4.426   2.364
 6115SOL    HW219245   6.300   4.307   2.265
 6116SOL     OW19246   2.879   2.282   1.204
 6116SOL    HW119247   2.843   2.313   1.292
 6116SOL    HW219248   2.872   2.355   1.137
 6117SOL     OW19249   5.622   6.363   3.899
 6117SOL    HW119250   5.555   6.410   3.956
 6117SOL    HW219251   5.714   6.379   3.934
 6118SOL     OW19252   5.914   0.402   2.805
 6118SOL    HW119253   5.913   0.302   2.806
 6118SOL    HW219254   5.821   0.437   2.807
 6119SOL     OW19255   5.768   5.290   3.965
 6119SOL    HW119256   5.799   5.216   4.025
 6119SOL    HW219257   5.710   5.352   4.017
 6120SOL     OW19258   3.063   1.074   3.514
 6120SOL    HW119259   3.089   1.010   3.442
 6120SOL    HW219260   3.145   1.123   3.546
 6121SOL     OW19261   6.525   2.101   4.598
 6121SOL    HW119262   6.603   2.148   4.557
 6121SOL    HW219263   6.543   2.003   4.602
 6122SOL     OW19264   4.686   5.817   4.191
 6122SOL    HW119265   4.673   5.784   4.285
 6122SOL    HW219266   4.651   5.910   4.183
 6123SOL     OW19267   6.530   1.728   2.393
 6123SOL    HW119268   6.522   1.828   2.390
 6123SOL    HW219269   6.589   1.702   2.469
 6124SOL     OW19270   2.736   0.078   5.428
 6124SOL    HW119271   2.666   0.104   5.362
 6124SOL    HW219272   2.774   0.161   5.470
 6125SOL     OW19273   1.658   4.914   2.224
 6125SOL    HW119274   1.590   4.915   2.151
 6125SOL    HW219275   1.612   4.909   2.313
 6126SOL     OW19276   4.218   5.714   2.360
 6126SOL    HW119277   4.275   5.796   2.353
 6126SOL    HW219278   4.240   5.665   2.444
 6127SOL     OW19279   2.053   4.471   2.087
 6127SOL    HW119280   2.047   4.461   1.987
 6127SOL    HW219281   1.962   4.465   2.127
 6128SOL     OW19282   4.926   2.801   1.134
 6128SOL    HW119283   4.984   2.764   1.206
 6128SOL    HW219284   4.832   2.770   1.147
 6129SOL     OW19285   5.913   4.159   3.205
 6129SOL    HW119286   5.828   4.201   3.175
 6129SOL    HW219287   5.925   4.175   3.303
 6130SOL     OW19288   5.526   4.629   2.557
 6130SOL    HW119289   5.488   4.566   2.626
 6130SOL    HW219290   5.523   4.586   2.467
 6131SOL     OW19291   6.752   1.151   5.144
 6131SOL    HW119292   6.746   1.184   5.238
 6131SOL    HW219293   6.807   1.214   5.090
 6132SOL     OW19294   6.397   2.522   0.586
 6132SOL    HW119295   6.487   2.556   0.612
 6132SOL    HW219296   6.405   2.428   0.553
 6133SOL     OW19297   1.362   4.757   0.530
 6133SOL    HW119298   1.416   4.825   0.580
 6133SOL    HW219299   1.368   4.669   0.576
 6134SOL     OW19300   4.415   3.445   0.372
 6134SOL    HW119301   4.503   3.400   0.352
 6134SOL    HW219302   4.420   3.491   0.460
 6135SOL     OW19303   5.699   0.439   2.387
 6135SOL    HW119304   5.687   0.538   2.374
 6135SOL    HW219305   5.793   0.420   2.416
 6136SOL     OW19306   0.284   1.522   2.613
 6136SOL    HW119307   0.263   1.584   2.688
 6136SOL    HW219308   0.320   1.575   2.536
 6137SOL     OW19309   3.252   6.484   5.982
 6137SOL    HW119310   3.181   6.455   5.918
 6137SOL    HW219311   3.215   6.486   6.075
 6138SOL     OW19312   4.797   0.714   3.142
 6138SOL    HW119313   4.845   0.653   3.206
 6138SOL    HW219314   4.717   0.667   3.106
 6139SOL     OW19315   2.721   5.819   3.700
 6139SOL    HW119316   2.816   5.849   3.706
 6139SOL    HW219317   2.714   5.723   3.726
 6140SOL     OW19318   1.533   5.919   1.292
 6140SOL    HW119319   1.573   5.919   1.200
 6140SOL    HW219320   1.479   5.836   1.304
 6141SOL     OW19321   6.682   5.896   6.017
 6141SOL    HW119322   6.590   5.881   6.053
 6141SOL    HW219323   6.677   5.904   5.917
 6142SOL     OW19324   0.558   3.806   2.836
 6142SOL    HW119325   0.507   3.723   2.859
 6142SOL    HW219326   0.654   3.784   2.822
 6143SOL     OW19327   6.527   3.997   6.657
 6143SOL    HW119328   6.500   3.924   6.594
 6143SOL    HW219329   6.624   3.989   6.678
 6144SOL     OW19330   0.047   4.818   4.610
 6144SOL    HW119331   0.049   4.856   4.517
 6144SOL    HW219332   0.103   4.875   4.670
 6145SOL     OW19333   5.511   5.413   3.529
 6145SOL    HW119334   5.602   5.381   3.557
 6145SOL    HW219335   5.519   5.468   3.446
 6146SOL     OW19336   5.520   1.908   3.465
 6146SOL    HW119337   5.536   1.904   3.563
 6146SOL    HW219338   5.422   1.901   3.447
 6147SOL     OW19339   1.020   3.568   3.236
 6147SOL    HW119340   1.078   3.648   3.252
 6147SOL    HW219341   1.074   3.495   3.195
 6148SOL     OW19342   6.151   5.610   3.403
 6148SOL    HW119343   6.215   5.537   3.428
 6148SOL    HW219344   6.059   5.572   3.392
 6149SOL     OW19345   2.295   6.883   4.510
 6149SOL    HW119346   2.210   6.863   4.558
 6149SOL    HW219347   2.316   6.808   4.447
 6150SOL     OW19348   4.088   5.641   5.875
 6150SOL    HW119349   4.092   5.714   5.806
 6150SOL    HW219350   4.145   5.666   5.953
 6151SOL     OW19351   4.371   0.597   5.640
 6151SOL    HW119352   4.382   0.503   5.608
 6151SOL    HW219353   4.439   0.656   5.597
 6152SOL     OW19354   6.812   4.702   5.329
 6152SOL    HW119355   6.802   4.666   5.421
 6152SOL    HW219356   6.897   4.755   5.322
 6153SOL     OW19357   5.170   4.198   6.708
 6153SOL    HW119358   5.178   4.114   6.761
 6153SOL    HW219359   5.099   4.186   6.639
 6154SOL     OW19360   5.199   2.944   3.427
 6154SOL    HW119361   5.215   2.885   3.506
 6154SOL    HW219362   5.282   2.995   3.406
 6155SOL     OW19363   1.942   3.961   4.007
 6155SOL    HW119364   2.037   3.978   4.032
 6155SOL    HW219365   1.884   3.971   4.088
 6156SOL     OW19366   5.964   0.782   4.349
 6156SOL    HW119367   5.933   0.790   4.444
 6156SOL    HW219368   5.983   0.686   4.328
 6157SOL     OW19369   1.194   1.454   3.575
 6157SOL    HW119370   1.155   1.376   3.625
 6157SOL    HW219371   1.215   1.527   3.639
 6158SOL     OW19372   4.745   0.087   0.742
 6158SOL    HW119373   4.727   0.077   0.840
 6158SOL    HW219374   4.835   0.051   0.720
 6159SOL     OW19375   5.564   3.067   6.769
 6159SOL    HW119376   5.633   3.137   6.752
 6159SOL    HW219377   5.482   3.110   6.808
 6160SOL     OW19378   6.398   4.592   1.310
 6160SOL    HW119379   6.453   4.653   1.366
 6160SOL    HW219380   6.308   4.633   1.295
 6161SOL     OW19381   5.466   0.843   6.638
 6161SOL    HW119382   5.459   0.745   6.657
 6161SOL    HW219383   5.562   0.871   6.644
 6162SOL     OW19384   5.791   5.050   4.075
 6162SOL    HW119385   5.708   5.008   4.110
 6162SOL    HW219386   5.852   4.979   4.039
 6163SOL     OW19387   6.605   3.862   2.199
 6163SOL    HW119388   6.701   3.837   2.206
 6163SOL    HW219389   6.567   3.874   2.291
 6164SOL     OW19390   4.587   2.686   0.710
 6164SOL    HW119391   4.630   2.776   0.721
 6164SOL    HW219392   4.488   2.697   0.707
 6165SOL     OW19393   4.272   6.694   0.763
 6165SOL    HW119394   4.293   6.606   0.807
 6165SOL    HW219395   4.351   6.723   0.709
 6166SOL     OW19396   3.902   1.688   0.260
 6166SOL    HW119397   3.844   1.717   0.337
 6166SOL    HW219398   3.996   1.719   0.277
 6167SOL     OW19399   0.009   5.124   3.236
 6167SOL    HW119400   0.093   5.168   3.205
 6167SOL    HW219401   7.010   5.158   3.327
 6168SOL     OW19402   0.662   2.837   0.981
 6168SOL    HW119403   0.724   2.775   0.931
 6168SOL    HW219404   0.694   2.931   0.971
 6169SOL     OW19405   2.043   4.277   1.603
 6169SOL    HW119406   2.007   4.210   1.668
 6169SOL    HW219407   2.003   4.260   1.513
 6170SOL     OW19408   0.120   1.987   3.868
 6170SOL    HW119409   0.129   1.914   3.936
 6170SOL    HW219410   0.056   2.056   3.901
 6171SOL     OW19411   5.974   1.012   6.514
 6171SOL    HW119412   6.045   1.039   6.578
 6171SOL    HW219413   6.007   0.936   6.458
 6172SOL     OW19414   1.101   4.303   3.835
 6172SOL    HW119415   1.148   4.214   3.832
 6172SOL    HW219416   1.170   4.376   3.838
 6173SOL     OW19417   6.057   6.021   3.172
 6173SOL    HW119418   6.125   6.019   3.099
 6173SOL    HW219419   5.970   5.988   3.138
 6174SOL     OW19420   6.411   2.565   2.223
 6174SOL    HW119421   6.481   2.504   2.260
 6174SOL    HW219422   6.453   2.631   2.161
 6175SOL     OW19423   3.775   1.979   6.921
 6175SOL    HW119424   3.806   1.949   6.831
 6175SOL    HW219425   3.855   1.989   6.981
 6176SOL     OW19426   3.269   3.807   5.788
 6176SOL    HW119427   3.339   3.793   5.718
 6176SOL    HW219428   3.309   3.795   5.879
 6177SOL     OW19429   5.727   5.877   1.738
 6177SOL    HW119430   5.630   5.863   1.756
 6177SOL    HW219431   5.755   5.820   1.661
 6178SOL     OW19432   4.107   4.680   1.809
 6178SOL    HW119433   4.028   4.705   1.866
 6178SOL    HW219434   4.185   4.659   1.868
 6179SOL     OW19435   5.497   4.793   4.891
 6179SOL    HW119436   5.468   4.883   4.923
 6179SOL    HW219437   5.547   4.747   4.964
 6180SOL     OW19438   2.631   4.405   6.424
 6180SOL    HW119439   2.616   4.344   6.346
 6180SOL    HW219440   2.723   4.390   6.461
 6181SOL     OW19441   6.233   6.341   6.850
 6181SOL    HW119442   6.143   6.347   6.893
 6181SOL    HW219443   6.278   6.430   6.855
 6182SOL     OW19444   2.782   2.453   0.089
 6182SOL    HW119445   2.830   2.397   0.021
 6182SOL    HW219446   2.784   2.407   0.178
 6183SOL     OW19447   6.825   0.278   0.512
 6183SOL    HW119448   6.770   0.211   0.562
 6183SOL    HW219449   6.808   0.369   0.548
 6184SOL     OW19450   3.337   6.256   5.147
 6184SOL    HW119451   3.362   6.178   5.206
 6184SOL    HW219452   3.356   6.233   5.052
 6185SOL     OW19453   3.740   3.445   5.094
 6185SOL    HW119454   3.746   3.410   5.187
 6185SOL    HW219455   3.676   3.522   5.091
 6186SOL     OW19456   1.086   1.763   2.912
 6186SOL    HW119457   1.168   1.748   2.857
 6186SOL    HW219458   1.047   1.675   2.938
 6187SOL     OW19459   3.224   1.991   6.295
 6187SOL    HW119460   3.149   1.957   6.351
 6187SOL    HW219461   3.189   2.054   6.226
 6188SOL     OW19462   2.374   1.642   5.368
 6188SOL    HW119463   2.473   1.628   5.357
 6188SOL    HW219464   2.324   1.582   5.306
 6189SOL     OW19465   6.785   4.973   0.791
 6189SOL    HW119466   6.743   4.961   0.881
 6189SOL    HW219467   6.771   5.067   0.759
 6190SOL     OW19468   0.368   3.135   3.903
 6190SOL    HW119469   0.467   3.132   3.912
 6190SOL    HW219470   0.329   3.050   3.940
 6191SOL     OW19471   2.685   4.295   0.622
 6191SOL    HW119472   2.731   4.353   0.690
 6191SOL    HW219473   2.734   4.300   0.535
 6192SOL     OW19474   2.962   1.479   1.554
 6192SOL    HW119475   2.896   1.441   1.618
 6192SOL    HW219476   3.040   1.515   1.604
 6193SOL     OW19477   4.420   5.699   0.336
 6193SOL    HW119478   4.346   5.676   0.398
 6193SOL    HW219479   4.430   5.626   0.268
 6194SOL     OW19480   5.610   6.783   6.452
 6194SOL    HW119481   5.626   6.777   6.551
 6194SOL    HW219482   5.543   6.714   6.425
 6195SOL     OW19483   5.214   6.423   6.016
 6195SOL    HW119484   5.300   6.373   6.029
 6195SOL    HW219485   5.143   6.359   5.986
 6196SOL     OW19486   5.887   3.343   3.181
 6196SOL    HW119487   5.792   3.329   3.210
 6196SOL    HW219488   5.910   3.276   3.111
 6197SOL     OW19489   0.689   5.540   0.986
 6197SOL    HW119490   0.653   5.450   0.962
 6197SOL    HW219491   0.772   5.530   1.041
 6198SOL     OW19492   5.765   1.557   6.360
 6198SOL    HW119493   5.824   1.624   6.315
 6198SOL    HW219494   5.681   1.545   6.306
 6199SOL     OW19495   2.174   6.577   6.311
 6199SOL    HW119496   2.219   6.638   6.377
 6199SOL    HW219497   2.100   6.527   6.357
 6200SOL     OW19498   1.456   0.666   0.845
 6200SOL    HW119499   1.458   0.566   0.844
 6200SOL    HW219500   1.362   0.697   0.833
 6201SOL     OW19501   0.598   4.446   3.392
 6201SOL    HW119502   0.550   4.369   3.352
 6201SOL    HW219503   0.644   4.498   3.320
 6202SOL     OW19504   5.907   0.674   2.350
 6202SOL    HW119505   5.903   0.684   2.450
 6202SOL    HW219506   5.937   0.760   2.310
 6203SOL     OW19507   5.829   0.459   1.944
 6203SOL    HW119508   5.755   0.472   2.010
 6203SOL    HW219509   5.828   0.534   1.878
 6204SOL     OW19510   1.295   5.841   4.931
 6204SOL    HW119511   1.313   5.899   5.011
 6204SOL    HW219512   1.314   5.746   4.955
 6205SOL     OW19513   6.020   4.725   3.382
 6205SOL    HW119514   6.106   4.762   3.347
 6205SOL    HW219515   6.001   4.765   3.472
 6206SOL     OW19516   5.796   1.920   3.375
 6206SOL    HW119517   5.718   1.922   3.437
 6206SOL    HW219518   5.776   1.863   3.296
 6207SOL     OW19519   1.022   5.848   3.480
 6207SOL    HW119520   1.051   5.931   3.432
 6207SOL    HW219521   0.951   5.872   3.547
 6208SOL     OW19522   4.505   4.122   5.826
 6208SOL    HW119523   4.497   4.122   5.727
 6208SOL    HW219524   4.414   4.116   5.867
 6209SOL     OW19525   3.535   1.704   1.218
 6209SOL    HW119526   3.625   1.746   1.224
 6209SOL    HW219527   3.532   1.623   1.277
 6210SOL     OW19528   5.811   1.176   4.324
 6210SOL    HW119529   5.738   1.244   4.313
 6210SOL    HW219530   5.796   1.099   4.262
 6211SOL     OW19531   5.706   3.914   4.801
 6211SOL    HW119532   5.695   3.870   4.713
 6211SOL    HW219533   5.716   3.845   4.872
 6212SOL     OW19534   5.505   4.213   4.617
 6212SOL    HW119535   5.499   4.255   4.708
 6212SOL    HW219536   5.595   4.230   4.578
 6213SOL     OW19537   4.397   5.823   0.662
 6213SOL    HW119538   4.299   5.832   0.642
 6213SOL    HW219539   4.441   5.912   0.654
 6214SOL     OW19540   6.178   0.056   0.030
 6214SOL    HW119541   6.182   0.143   0.080
 6214SOL    HW219542   6.263   0.044   7.003
 6215SOL     OW19543   5.931   2.238   5.166
 6215SOL    HW119544   5.838   2.200   5.172
 6215SOL    HW219545   5.992   2.171   5.124
 6216SOL     OW19546   4.926   1.882   4.628
 6216SOL    HW119547   4.832   1.906   4.604
 6216SOL    HW219548   4.970   1.841   4.548
 6217SOL     OW19549   1.040   4.321   2.420
 6217SOL    HW119550   1.077   4.250   2.360
 6217SOL    HW219551   0.991   4.388   2.364
 6218SOL     OW19552   4.393   6.340   0.645
 6218SOL    HW119553   4.312   6.349   0.703
 6218SOL    HW219554   4.436   6.429   0.633
 6219SOL     OW19555   2.125   0.723   6.942
 6219SOL    HW119556   2.099   0.627   6.953
 6219SOL    HW219557   2.133   0.744   6.845
 6220SOL     OW19558   3.300   6.478   1.196
 6220SOL    HW119559   3.291   6.574   1.170
 6220SOL    HW219560   3.224   6.452   1.256
 6221SOL     OW19561   4.850   5.672   5.913
 6221SOL    HW119562   4.838   5.585   5.865
 6221SOL    HW219563   4.790   5.741   5.872
 6222SOL     OW19564   6.811   1.445   2.448
 6222SOL    HW119565   6.854   1.355   2.437
 6222SOL    HW219566   6.859   1.496   2.520
 6223SOL     OW19567   6.915   4.799   4.900
 6223SOL    HW119568   6.962   4.794   4.812
 6223SOL    HW219569   6.867   4.886   4.907
 6224SOL     OW19570   3.511   6.743   6.947
 6224SOL    HW119571   3.479   6.683   7.021
 6224SOL    HW219572   3.446   6.818   6.934
 6225SOL     OW19573   4.797   6.123   6.061
 6225SOL    HW119574   4.879   6.104   6.115
 6225SOL    HW219575   4.718   6.082   6.106
 6226SOL     OW19576   0.657   0.931   3.762
 6226SOL    HW119577   0.569   0.884   3.767
 6226SOL    HW219578   0.730   0.865   3.742
 6227SOL     OW19579   2.915   4.984   5.596
 6227SOL    HW119580   2.971   4.919   5.647
 6227SOL    HW219581   2.887   4.942   5.509
 6228SOL     OW19582   1.411   2.965   3.700
 6228SOL    HW119583   1.351   2.995   3.626
 6228SOL    HW219584   1.444   3.044   3.751
 6229SOL     OW19585   0.616   3.850   3.910
 6229SOL    HW119586   0.715   3.860   3.909
 6229SOL    HW219587   0.592   3.754   3.930
 6230SOL     OW19588   0.519   0.953   1.407
 6230SOL    HW119589   0.541   1.011   1.329
 6230SOL    HW219590   0.421   0.934   1.409
 6231SOL     OW19591   2.033   5.529   5.805
 6231SOL    HW119592   2.035   5.439   5.760
 6231SOL    HW219593   2.125   5.569   5.804
 6232SOL     OW19594   4.471   0.487   6.581
 6232SOL    HW119595   4.482   0.488   6.482
 6232SOL    HW219596   4.374   0.485   6.604
 6233SOL     OW19597   6.962   3.412   1.086
 6233SOL    HW119598   0.001   3.474   1.040
 6233SOL    HW219599   6.966   3.322   1.042
 6234SOL     OW19600   5.064   5.244   4.289
 6234SOL    HW119601   5.116   5.216   4.208
 6234SOL    HW219602   5.034   5.163   4.338
 6235SOL     OW19603   0.328   0.976   2.181
 6235SOL    HW119604   0.253   0.937   2.129
 6235SOL    HW219605   0.399   1.008   2.118
 6236SOL     OW19606   6.681   5.891   0.892
 6236SOL    HW119607   6.705   5.847   0.978
 6236SOL    HW219608   6.620   5.831   0.839
 6237SOL     OW19609   3.365   1.111   2.028
 6237SOL    HW119610   3.416   1.038   1.983
 6237SOL    HW219611   3.365   1.097   2.127
 6238SOL     OW19612   2.147   1.255   3.594
 6238SOL    HW119613   2.052   1.281   3.574
 6238SOL    HW219614   2.207   1.294   3.525
 6239SOL     OW19615   4.933   1.388   4.191
 6239SOL    HW119616   4.845   1.410   4.233
 6239SOL    HW219617   4.939   1.289   4.178
 6240SOL     OW19618   4.100   3.699   3.850
 6240SOL    HW119619   4.051   3.751   3.780
 6240SOL    HW219620   4.159   3.631   3.807
 6241SOL     OW19621   3.794   0.240   3.477
 6241SOL    HW119622   3.708   0.268   3.521
 6241SOL    HW219623   3.826   0.314   3.417
 6242SOL     OW19624   3.055   2.080   4.389
 6242SOL    HW119625   3.111   2.052   4.311
 6242SOL    HW219626   2.958   2.066   4.368
 6243SOL     OW19627   4.453   1.575   0.084
 6243SOL    HW119628   4.396   1.524   0.148
 6243SOL    HW219629   4.548   1.572   0.114
 6244SOL     OW19630   4.357   2.291   1.690
 6244SOL    HW119631   4.452   2.304   1.660
 6244SOL    HW219632   4.319   2.379   1.720
 6245SOL     OW19633   0.143   5.219   2.283
 6245SOL    HW119634   0.079   5.234   2.208
 6245SOL    HW219635   0.235   5.207   2.246
 6246SOL     OW19636   0.276   6.661   4.985
 6246SOL    HW119637   0.336   6.688   4.910
 6246SOL    HW219638   0.331   6.634   5.064
 6247SOL     OW19639   6.556   5.787   3.134
 6247SOL    HW119640   6.481   5.804   3.197
 6247SOL    HW219641   6.619   5.720   3.174
 6248SOL     OW19642   3.916   3.241   5.469
 6248SOL    HW119643   3.904   3.173   5.541
 6248SOL    HW219644   3.894   3.332   5.505
 6249SOL     OW19645   5.483   3.620   3.097
 6249SOL    HW119646   5.436   3.696   3.052
 6249SOL    HW219647   5.528   3.563   3.028
 6250SOL     OW19648   5.624   6.980   6.244
 6250SOL    HW119649   5.656   6.893   6.281
 6250SOL    HW219650   5.700   0.021   6.243
 6251SOL     OW19651   2.872   0.745   4.713
 6251SOL    HW119652   2.946   0.735   4.779
 6251SOL    HW219653   2.877   0.836   4.671
 6252SOL     OW19654   2.814   5.402   0.293
 6252SOL    HW119655   2.742   5.333   0.291
 6252SOL    HW219656   2.882   5.381   0.224
 6253SOL     OW19657   4.389   6.215   3.968
 6253SOL    HW119658   4.327   6.271   3.913
 6253SOL    HW219659   4.483   6.246   3.955
 6254SOL     OW19660   0.141   0.159   1.654
 6254SOL    HW119661   0.138   0.161   1.754
 6254SOL    HW219662   0.096   0.241   1.618
 6255SOL     OW19663   1.404   1.745   0.766
 6255SOL    HW119664   1.346   1.681   0.716
 6255SOL    HW219665   1.361   1.767   0.854
 6256SOL     OW19666   6.514   5.361   1.934
 6256SOL    HW119667   6.492   5.353   2.031
 6256SOL    HW219668   6.530   5.457   1.911
 6257SOL     OW19669   3.443   4.380   1.023
 6257SOL    HW119670   3.349   4.370   0.989
 6257SOL    HW219671   3.462   4.477   1.041
 6258SOL     OW19672   4.140   5.444   4.900
 6258SOL    HW119673   4.108   5.400   4.984
 6258SOL    HW219674   4.189   5.528   4.924
 6259SOL     OW19675   4.202   0.795   5.300
 6259SOL    HW119676   4.165   0.855   5.230
 6259SOL    HW219677   4.302   0.803   5.301
 6260SOL     OW19678   2.628   1.766   1.061
 6260SOL    HW119679   2.534   1.731   1.062
 6260SOL    HW219680   2.688   1.698   1.018
 6261SOL     OW19681   3.401   6.824   0.950
 6261SOL    HW119682   3.413   6.744   0.890
 6261SOL    HW219683   3.484   6.879   0.948
 6262SOL     OW19684   5.970   0.931   2.269
 6262SOL    HW119685   5.998   0.949   2.174
 6262SOL    HW219686   6.047   0.951   2.330
 6263SOL     OW19687   6.408   6.002   5.915
 6263SOL    HW119688   6.442   6.085   5.959
 6263SOL    HW219689   6.419   5.924   5.978
 6264SOL     OW19690   1.548   5.895   0.334
 6264SOL    HW119691   1.583   5.988   0.331
 6264SOL    HW219692   1.588   5.842   0.259
 6265SOL     OW19693   4.023   6.353   6.572
 6265SOL    HW119694   3.986   6.291   6.502
 6265SOL    HW219695   3.962   6.431   6.584
 6266SOL     OW19696   3.822   5.172   3.071
 6266SOL    HW119697   3.723   5.185   3.066
 6266SOL    HW219698   3.846   5.132   3.159
 6267SOL     OW19699   0.600   6.351   4.170
 6267SOL    HW119700   0.610   6.295   4.087
 6267SOL    HW219701   0.512   6.332   4.213
 6268SOL     OW19702   3.014   1.647   1.204
 6268SOL    HW119703   3.030   1.639   1.106
 6268SOL    HW219704   2.942   1.715   1.221
 6269SOL     OW19705   6.590   5.719   6.763
 6269SOL    HW119706   6.684   5.729   6.730
 6269SOL    HW219707   6.539   5.802   6.746
 6270SOL     OW19708   1.602   6.363   1.021
 6270SOL    HW119709   1.601   6.412   0.934
 6270SOL    HW219710   1.513   6.374   1.066
 6271SOL     OW19711   0.043   2.661   6.194
 6271SOL    HW119712   0.068   2.749   6.235
 6271SOL    HW219713   6.990   2.622   6.244
 6272SOL     OW19714   0.339   1.478   6.892
 6272SOL    HW119715   0.253   1.446   6.852
 6272SOL    HW219716   0.366   1.564   6.847
 6273SOL     OW19717   0.223   6.616   3.040
 6273SOL    HW119718   0.301   6.678   3.028
 6273SOL    HW219719   0.154   6.660   3.098
 6274SOL     OW19720   3.072   5.572   3.800
 6274SOL    HW119721   3.150   5.529   3.846
 6274SOL    HW219722   3.069   5.669   3.824
 6275SOL     OW19723   2.636   5.997   6.892
 6275SOL    HW119724   2.710   6.011   6.826
 6275SOL    HW219725   2.674   5.958   6.976
 6276SOL     OW19726   1.804   5.419   2.636
 6276SOL    HW119727   1.773   5.350   2.571
 6276SOL    HW219728   1.887   5.462   2.601
 6277SOL     OW19729   4.691   2.365   1.294
 6277SOL    HW119730   4.611   2.379   1.353
 6277SOL    HW219731   4.733   2.454   1.275
 6278SOL     OW19732   4.381   2.237   0.435
 6278SOL    HW119733   4.403   2.201   0.525
 6278SOL    HW219734   4.288   2.274   0.436
 6279SOL     OW19735   2.808   6.520   2.129
 6279SOL    HW119736   2.786   6.432   2.171
 6279SOL    HW219737   2.879   6.507   2.060
 6280SOL     OW19738   4.961   2.100   6.447
 6280SOL    HW119739   5.005   2.109   6.537
 6280SOL    HW219740   5.031   2.101   6.376
 6281SOL     OW19741   5.082   4.793   5.970
 6281SOL    HW119742   5.066   4.783   5.872
 6281SOL    HW219743   5.032   4.873   6.003
 6282SOL     OW19744   0.791   3.620   6.084
 6282SOL    HW119745   0.806   3.541   6.144
 6282SOL    HW219746   0.805   3.704   6.136
 6283SOL     OW19747   2.638   6.864   4.751
 6283SOL    HW119748   2.738   6.870   4.752
 6283SOL    HW219749   2.611   6.776   4.712
 6284SOL     OW19750   1.516   2.884   5.655
 6284SOL    HW119751   1.553   2.792   5.672
 6284SOL    HW219752   1.427   2.892   5.699
 6285SOL     OW19753   1.363   3.125   2.898
 6285SOL    HW119754   1.411   3.039   2.879
 6285SOL    HW219755   1.429   3.200   2.895
 6286SOL     OW19756   0.673   2.506   6.518
 6286SOL    HW119757   0.680   2.446   6.597
 6286SOL    HW219758   0.605   2.577   6.535
 6287SOL     OW19759   4.321   4.735   4.457
 6287SOL    HW119760   4.311   4.684   4.543
 6287SOL    HW219761   4.387   4.809   4.470
 6288SOL     OW19762   2.703   3.636   5.790
 6288SOL    HW119763   2.617   3.630   5.739
 6288SOL    HW219764   2.736   3.730   5.786
 6289SOL     OW19765   2.082   4.783   4.289
 6289SOL    HW119766   2.128   4.820   4.369
 6289SOL    HW219767   2.060   4.857   4.226
 6290SOL     OW19768   6.130   0.025   3.654
 6290SOL    HW119769   6.063   0.099   3.654
 6290SOL    HW219770   6.084   6.962   3.669
 6291SOL     OW19771   3.810   3.663   1.959
 6291SOL    HW119772   3.808   3.669   2.059
 6291SOL    HW219773   3.865   3.738   1.922
 6292SOL     OW19774   1.372   4.657   4.986
 6292SOL    HW119775   1.309   4.604   5.043
 6292SOL    HW219776   1.436   4.595   4.941
 6293SOL     OW19777   2.815   1.524   5.796
 6293SOL    HW119778   2.835   1.461   5.721
 6293SOL    HW219779   2.723   1.562   5.784
 6294SOL     OW19780   2.064   1.059   2.249
 6294SOL    HW119781   1.990   1.085   2.187
 6294SOL    HW219782   2.138   1.126   2.240
 6295SOL     OW19783   4.290   3.973   6.178
 6295SOL    HW119784   4.230   4.003   6.252
 6295SOL    HW219785   4.252   3.890   6.135
 6296SOL     OW19786   0.634   2.604   6.950
 6296SOL    HW119787   0.624   2.688   6.897
 6296SOL    HW219788   0.652   2.528   6.888
 6297SOL     OW19789   6.757   1.073   3.956
 6297SOL    HW119790   6.757   1.074   4.056
 6297SOL    HW219791   6.848   1.097   3.922
 6298SOL     OW19792   6.941   6.929   0.490
 6298SOL    HW119793   6.999   7.010   0.495
 6298SOL    HW219794   6.995   6.851   0.458
 6299SOL     OW19795   3.870   1.674   4.258
 6299SOL    HW119796   3.804   1.681   4.333
 6299SOL    HW219797   3.955   1.720   4.284
 6300SOL     OW19798   2.851   1.934   0.783
 6300SOL    HW119799   2.925   1.893   0.836
 6300SOL    HW219800   2.825   2.022   0.824
 6301SOL     OW19801   3.861   6.123   6.836
 6301SOL    HW119802   3.852   6.122   6.936
 6301SOL    HW219803   3.806   6.197   6.799
 6302SOL     OW19804   1.302   3.434   0.165
 6302SOL    HW119805   1.333   3.342   0.190
 6302SOL    HW219806   1.234   3.465   0.231
 6303SOL     OW19807   6.783   4.659   4.351
 6303SOL    HW119808   6.786   4.757   4.331
 6303SOL    HW219809   6.855   4.613   4.299
 6304SOL     OW19810   3.084   1.228   4.143
 6304SOL    HW119811   3.117   1.238   4.237
 6304SOL    HW219812   3.008   1.292   4.127
 6305SOL     OW19813   0.753   5.984   5.809
 6305SOL    HW119814   0.762   6.042   5.728
 6305SOL    HW219815   0.661   5.945   5.812
 6306SOL     OW19816   0.494   4.386   4.685
 6306SOL    HW119817   0.493   4.455   4.613
 6306SOL    HW219818   0.583   4.341   4.688
 6307SOL     OW19819   3.758   2.935   2.485
 6307SOL    HW119820   3.808   2.927   2.399
 6307SOL    HW219821   3.660   2.928   2.468
 6308SOL     OW19822   1.033   2.106   0.858
 6308SOL    HW119823   1.083   2.169   0.799
 6308SOL    HW219824   0.937   2.135   0.864
 6309SOL     OW19825   1.578   6.255   4.843
 6309SOL    HW119826   1.639   6.310   4.900
 6309SOL    HW219827   1.619   6.165   4.826
 6310SOL     OW19828   0.769   6.739   3.564
 6310SOL    HW119829   0.745   6.776   3.474
 6310SOL    HW219830   0.819   6.809   3.616
 6311SOL     OW19831   6.332   1.168   6.533
 6311SOL    HW119832   6.401   1.127   6.472
 6311SOL    HW219833   6.326   1.266   6.516
 6312SOL     OW19834   3.004   5.646   0.526
 6312SOL    HW119835   2.987   5.716   0.596
 6312SOL    HW219836   2.986   5.684   0.436
 6313SOL     OW19837   5.808   4.794   3.788
 6313SOL    HW119838   5.717   4.832   3.806
 6313SOL    HW219839   5.825   4.718   3.850
 6314SOL     OW19840   1.572   6.194   3.016
 6314SOL    HW119841   1.664   6.154   3.008
 6314SOL    HW219842   1.577   6.278   3.069
 6315SOL     OW19843   2.390   1.907   3.613
 6315SOL    HW119844   2.467   1.865   3.661
 6315SOL    HW219845   2.401   1.892   3.514
 6316SOL     OW19846   4.593   0.880   5.039
 6316SOL    HW119847   4.582   0.972   5.076
 6316SOL    HW219848   4.668   0.879   4.974
 6317SOL     OW19849   4.578   4.425   3.051
 6317SOL    HW119850   4.622   4.341   3.017
 6317SOL    HW219851   4.645   4.482   3.097
 6318SOL     OW19852   6.775   6.833   0.277
 6318SOL    HW119853   6.769   6.807   0.374
 6318SOL    HW219854   6.761   6.752   0.220
 6319SOL     OW19855   4.590   1.883   4.496
 6319SOL    HW119856   4.598   1.948   4.571
 6319SOL    HW219857   4.514   1.821   4.514
 6320SOL     OW19858   6.496   1.755   5.874
 6320SOL    HW119859   6.556   1.807   5.814
 6320SOL    HW219860   6.400   1.772   5.850
 6321SOL     OW19861   0.397   3.380   0.335
 6321SOL    HW119862   0.299   3.402   0.337
 6321SOL    HW219863   0.443   3.429   0.409
 6322SOL     OW19864   1.798   1.426   3.118
 6322SOL    HW119865   1.884   1.389   3.084
 6322SOL    HW219866   1.736   1.441   3.041
 6323SOL     OW19867   2.211   5.261   0.977
 6323SOL    HW119868   2.247   5.352   1.000
 6323SOL    HW219869   2.220   5.201   1.057
 6324SOL     OW19870   4.538   3.199   0.947
 6324SOL    HW119871   4.537   3.299   0.947
 6324SOL    HW219872   4.498   3.164   0.863
 6325SOL     OW19873   1.613   2.791   3.736
 6325SOL    HW119874   1.531   2.845   3.758
 6325SOL    HW219875   1.604   2.753   3.644
 6326SOL     OW19876   5.173   4.933   4.873
 6326SOL    HW119877   5.109   4.857   4.860
 6326SOL    HW219878   5.184   4.983   4.787
 6327SOL     OW19879   0.550   1.201   3.702
 6327SOL    HW119880   0.616   1.244   3.640
 6327SOL    HW219881   0.589   1.118   3.740
 6328SOL     OW19882   4.098   3.509   5.382
 6328SOL    HW119883   4.104   3.433   5.317
 6328SOL    HW219884   4.164   3.580   5.356
 6329SOL     OW19885   0.808   2.335   5.778
 6329SOL    HW119886   0.755   2.288   5.848
 6329SOL    HW219887   0.806   2.283   5.693
 6330SOL     OW19888   4.721   2.051   3.540
 6330SOL    HW119889   4.679   1.967   3.575
 6330SOL    HW219890   4.810   2.065   3.583
 6331SOL     OW19891   1.646   3.435   4.024
 6331SOL    HW119892   1.742   3.460   4.011
 6331SOL    HW219893   1.636   3.336   4.014
 6332SOL     OW19894   3.989   1.890   0.008
 6332SOL    HW119895   4.045   1.939   0.076
 6332SOL    HW219896   3.963   1.801   0.045
 6333SOL     OW19897   5.673   0.672   0.725
 6333SOL    HW119898   5.771   0.662   0.705
 6333SOL    HW219899   5.626   0.587   0.701
 6334SOL     OW19900   2.180   1.085   1.872
 6334SOL    HW119901   2.252   1.054   1.809
 6334SOL    HW219902   2.119   1.009   1.893
 6335SOL     OW19903   6.977   3.802   5.937
 6335SOL    HW119904   0.027   3.757   5.888
 6335SOL    HW219905   6.892   3.792   5.885
 6336SOL     OW19906   0.671   4.481   5.868
 6336SOL    HW119907   0.623   4.416   5.808
 6336SOL    HW219908   0.758   4.507   5.826
 6337SOL     OW19909   6.298   0.197   4.849
 6337SOL    HW119910   6.357   0.187   4.769
 6337SOL    HW219911   6.352   0.184   4.932
 6338SOL     OW19912   1.013   1.080   3.173
 6338SOL    HW119913   0.932   1.031   3.143
 6338SOL    HW219914   1.086   1.068   3.106
 6339SOL     OW19915   6.881   3.709   3.188
 6339SOL    HW119916   6.958   3.770   3.204
 6339SOL    HW219917   6.862   3.657   3.272
 6340SOL     OW19918   2.816   5.060   0.088
 6340SOL    HW119919   2.879   5.134   0.112
 6340SOL    HW219920   2.728   5.074   0.134
 6341SOL     OW19921   0.105   5.104   2.596
 6341SOL    HW119922   0.147   5.118   2.686
 6341SOL    HW219923   0.160   5.148   2.526
 6342SOL     OW19924   2.206   1.045   1.574
 6342SOL    HW119925   2.256   1.073   1.492
 6342SOL    HW219926   2.247   0.962   1.612
 6343SOL     OW19927   1.167   5.703   0.013
 6343SOL    HW119928   1.239   5.765   7.005
 6343SOL    HW219929   1.181   5.686   0.111
 6344SOL     OW19930   1.166   1.337   4.730
 6344SOL    HW119931   1.237   1.386   4.781
 6344SOL    HW219932   1.164   1.371   4.636
 6345SOL     OW19933   5.879   2.945   2.647
 6345SOL    HW119934   5.789   2.988   2.659
 6345SOL    HW219935   5.897   2.933   2.550
 6346SOL     OW19936   0.468   4.210   4.979
 6346SOL    HW119937   0.561   4.238   4.958
 6346SOL    HW219938   0.416   4.197   4.895
 6347SOL     OW19939   2.159   2.247   4.036
 6347SOL    HW119940   2.193   2.309   4.107
 6347SOL    HW219941   2.112   2.300   3.966
 6348SOL     OW19942   0.996   2.493   6.756
 6348SOL    HW119943   1.094   2.482   6.772
 6348SOL    HW219944   0.976   2.589   6.737
 6349SOL     OW19945   5.564   0.722   0.977
 6349SOL    HW119946   5.611   0.726   0.889
 6349SOL    HW219947   5.625   0.756   1.049
 6350SOL     OW19948   0.733   6.559   1.296
 6350SOL    HW119949   0.744   6.464   1.265
 6350SOL    HW219950   0.797   6.617   1.246
 6351SOL     OW19951   5.696   3.258   1.266
 6351SOL    HW119952   5.702   3.315   1.348
 6351SOL    HW219953   5.601   3.255   1.236
 6352SOL     OW19954   3.994   0.350   4.186
 6352SOL    HW119955   4.076   0.401   4.215
 6352SOL    HW219956   3.948   0.401   4.114
 6353SOL     OW19957   3.648   6.304   5.134
 6353SOL    HW119958   3.580   6.270   5.068
 6353SOL    HW219959   3.687   6.228   5.185
 6354SOL     OW19960   5.026   4.905   2.358
 6354SOL    HW119961   4.967   4.978   2.392
 6354SOL    HW219962   5.103   4.893   2.419
 6355SOL     OW19963   3.581   5.653   0.825
 6355SOL    HW119964   3.665   5.610   0.859
 6355SOL    HW219965   3.597   5.750   0.809
 6356SOL     OW19966   0.266   6.146   6.272
 6356SOL    HW119967   0.198   6.092   6.322
 6356SOL    HW219968   0.231   6.239   6.261
 6357SOL     OW19969   4.720   1.785   2.992
 6357SOL    HW119970   4.620   1.785   2.990
 6357SOL    HW219971   4.751   1.843   3.068
 6358SOL     OW19972   1.145   1.844   4.419
 6358SOL    HW119973   1.157   1.814   4.513
 6358SOL    HW219974   1.142   1.764   4.358
 6359SOL     OW19975   5.723   5.436   1.622
 6359SOL    HW119976   5.663   5.450   1.543
 6359SOL    HW219977   5.770   5.348   1.614
 6360SOL     OW19978   2.388   2.436   1.122
 6360SOL    HW119979   2.474   2.486   1.111
 6360SOL    HW219980   2.375   2.413   1.218
 6361SOL     OW19981   0.733   1.435   2.043
 6361SOL    HW119982   0.796   1.495   2.092
 6361SOL    HW219983   0.759   1.429   1.947
 6362SOL     OW19984   1.354   5.386   0.294
 6362SOL    HW119985   1.294   5.319   0.337
 6362SOL    HW219986   1.363   5.364   0.197
 6363SOL     OW19987   0.977   3.092   1.843
 6363SOL    HW119988   0.901   3.142   1.885
 6363SOL    HW219989   1.020   3.033   1.911
 6364SOL     OW19990   2.859   1.520   4.115
 6364SOL    HW119991   2.959   1.516   4.105
 6364SOL    HW219992   2.829   1.615   4.108
 6365SOL     OW19993   6.093   6.950   2.672
 6365SOL    HW119994   6.033   6.878   2.705
 6365SOL    HW219995   6.180   6.946   2.720
 6366SOL     OW19996   6.030   1.173   5.301
 6366SOL    HW119997   6.045   1.106   5.229
 6366SOL    HW219998   6.110   1.176   5.361
 6367SOL     OW19999   1.277   2.140   4.067
 6367SOL    HW120000   1.361   2.129   4.121
 6367SOL    HW220001   1.212   2.068   4.090
 6368SOL     OW20002   4.904   3.404   4.811
 6368SOL    HW120003   5.003   3.415   4.815
 6368SOL    HW220004   4.861   3.472   4.870
 6369SOL     OW20005   4.215   4.804   0.476
 6369SOL    HW120006   4.144   4.737   0.455
 6369SOL    HW220007   4.178   4.875   0.536
 6370SOL     OW20008   5.413   4.002   4.497
 6370SOL    HW120009   5.447   4.084   4.543
 6370SOL    HW220010   5.476   3.926   4.513
 6371SOL     OW20011   5.490   4.617   0.830
 6371SOL    HW120012   5.530   4.660   0.750
 6371SOL    HW220013   5.552   4.546   0.864
 6372SOL     OW20014   6.887   1.313   1.478
 6372SOL    HW120015   6.799   1.303   1.432
 6372SOL    HW220016   6.925   1.403   1.458
 6373SOL     OW20017   5.005   2.973   1.838
 6373SOL    HW120018   4.923   2.986   1.893
 6373SOL    HW220019   4.995   3.023   1.752
 6374SOL     OW20020   4.661   3.614   5.944
 6374SOL    HW120021   4.685   3.693   5.888
 6374SOL    HW220022   4.602   3.552   5.892
 6375SOL     OW20023   4.673   1.129   1.636
 6375SOL    HW120024   4.664   1.082   1.548
 6375SOL    HW220025   4.750   1.192   1.632
 6376SOL     OW20026   2.790   0.524   0.452
 6376SOL    HW120027   2.759   0.453   0.516
 6376SOL    HW220028   2.879   0.558   0.481
 6377SOL     OW20029   0.244   0.502   6.701
 6377SOL    HW120030   0.182   0.519   6.777
 6377SOL    HW220031   0.194   0.457   6.627
 6378SOL     OW20032   5.722   4.011   1.988
 6378SOL    HW120033   5.801   4.042   2.041
 6378SOL    HW220034   5.699   3.917   2.012
 6379SOL     OW20035   1.946   5.538   6.394
 6379SOL    HW120036   1.940   5.591   6.478
 6379SOL    HW220037   1.857   5.540   6.346
 6380SOL     OW20038   1.817   2.584   5.117
 6380SOL    HW120039   1.749   2.567   5.188
 6380SOL    HW220040   1.778   2.640   5.045
 6381SOL     OW20041   3.689   3.942   0.284
 6381SOL    HW120042   3.737   3.975   0.366
 6381SOL    HW220043   3.668   4.020   0.224
 6382SOL     OW20044   1.427   1.394   0.870
 6382SOL    HW120045   1.328   1.385   0.879
 6382SOL    HW220046   1.464   1.315   0.821
 6383SOL     OW20047   2.383   2.661   2.265
 6383SOL    HW120048   2.440   2.581   2.247
 6383SOL    HW220049   2.373   2.674   2.363
 6384SOL     OW20050   6.387   2.434   1.810
 6384SOL    HW120051   6.311   2.490   1.779
 6384SOL    HW220052   6.449   2.490   1.865
 6385SOL     OW20053   6.289   3.737   0.650
 6385SOL    HW120054   6.338   3.727   0.737
 6385SOL    HW220055   6.349   3.710   0.575
 6386SOL     OW20056   3.593   3.491   0.242
 6386SOL    HW120057   3.512   3.436   0.264
 6386SOL    HW220058   3.577   3.586   0.266
 6387SOL     OW20059   6.703   0.196   6.661
 6387SOL    HW120060   6.629   0.236   6.606
 6387SOL    HW220061   6.664   0.132   6.727
 6388SOL     OW20062   5.591   5.336   1.840
 6388SOL    HW120063   5.652   5.375   1.770
 6388SOL    HW220064   5.644   5.277   1.901
 6389SOL     OW20065   6.766   6.874   0.689
 6389SOL    HW120066   6.768   6.804   0.761
 6389SOL    HW220067   6.836   6.854   0.621
 6390SOL     OW20068   5.586   0.030   6.497
 6390SOL    HW120069   5.502   7.009   6.526
 6390SOL    HW220070   5.616   7.017   6.410
 6391SOL     OW20071   1.928   1.966   4.659
 6391SOL    HW120072   1.895   1.996   4.570
 6391SOL    HW220073   1.952   2.045   4.714
 6392SOL     OW20074   4.563   6.838   4.098
 6392SOL    HW120075   4.591   6.883   4.013
 6392SOL    HW220076   4.500   6.764   4.077
 6393SOL     OW20077   1.856   4.796   0.638
 6393SOL    HW120078   1.954   4.775   0.637
 6393SOL    HW220079   1.831   4.831   0.729
 6394SOL     OW20080   1.892   5.086   2.185
 6394SOL    HW120081   1.817   5.020   2.178
 6394SOL    HW220082   1.871   5.166   2.129
 6395SOL     OW20083   1.563   4.527   4.855
 6395SOL    HW120084   1.576   4.443   4.801
 6395SOL    HW220085   1.651   4.560   4.888
 6396SOL     OW20086   2.197   2.701   5.244
 6396SOL    HW120087   2.127   2.730   5.309
 6396SOL    HW220088   2.160   2.628   5.186
 6397SOL     OW20089   6.374   3.285   4.986
 6397SOL    HW120090   6.469   3.253   4.996
 6397SOL    HW220091   6.368   3.379   5.018
 6398SOL     OW20092   1.877   0.436   2.455
 6398SOL    HW120093   1.945   0.506   2.478
 6398SOL    HW220094   1.785   0.473   2.468
 6399SOL     OW20095   2.853   0.365   0.007
 6399SOL    HW120096   2.910   0.342   0.086
 6399SOL    HW220097   2.878   0.456   6.998
 6400SOL     OW20098   0.291   6.724   2.604
 6400SOL    HW120099   0.357   6.700   2.533
 6400SOL    HW220100   0.266   6.821   2.596
 6401SOL     OW20101   3.694   5.154   2.286
 6401SOL    HW120102   3.624   5.083   2.279
 6401SOL    HW220103   3.716   5.189   2.195
 6402SOL     OW20104   3.639   4.356   6.149
 6402SOL    HW120105   3.570   4.321   6.212
 6402SOL    HW220106   3.610   4.339   6.054
 6403SOL     OW20107   4.928   5.593   5.552
 6403SOL    HW120108   4.859   5.653   5.513
 6403SOL    HW220109   4.981   5.643   5.620
 6404SOL     OW20110   4.511   5.791   0.095
 6404SOL    HW120111   4.550   5.712   0.048
 6404SOL    HW220112   4.461   5.760   0.176
 6405SOL     OW20113   4.872   1.007   2.680
 6405SOL    HW120114   4.950   0.988   2.621
 6405SOL    HW220115   4.835   1.098   2.659
 6406SOL     OW20116   0.446   3.058   2.478
 6406SOL    HW120117   0.402   3.141   2.512
 6406SOL    HW220118   0.376   2.995   2.444
 6407SOL     OW20119   0.199   6.986   2.586
 6407SOL    HW120120   0.262   0.038   2.575
 6407SOL    HW220121   0.106   7.014   2.563
 6408SOL     OW20122   0.423   1.386   1.900
 6408SOL    HW120123   0.354   1.318   1.925
 6408SOL    HW220124   0.382   1.457   1.844
 6409SOL     OW20125   5.999   4.435   3.392
 6409SOL    HW120126   6.009   4.535   3.399
 6409SOL    HW220127   6.038   4.403   3.306
 6410SOL     OW20128   2.115   1.176   0.276
 6410SOL    HW120129   2.025   1.171   0.320
 6410SOL    HW220130   2.103   1.194   0.178
 6411SOL     OW20131   0.874   2.668   2.883
 6411SOL    HW120132   0.919   2.750   2.919
 6411SOL    HW220133   0.809   2.633   2.950
 6412SOL     OW20134   3.464   0.374   6.834
 6412SOL    HW120135   3.544   0.383   6.893
 6412SOL    HW220136   3.418   0.462   6.826
 6413SOL     OW20137   4.898   6.397   3.187
 6413SOL    HW120138   4.917   6.299   3.195
 6413SOL    HW220139   4.840   6.425   3.263
 6414SOL     OW20140   2.637   0.610   0.234
 6414SOL    HW120141   2.696   0.582   0.310
 6414SOL    HW220142   2.611   0.705   0.246
 6415SOL     OW20143   0.820   1.406   3.730
 6415SOL    HW120144   0.788   1.421   3.636
 6415SOL    HW220145   0.863   1.489   3.764
 6416SOL     OW20146   3.082   5.051   0.261
 6416SOL    HW120147   3.093   5.010   0.170
 6416SOL    HW220148   3.064   4.979   0.328
 6417SOL     OW20149   4.474   3.192   6.709
 6417SOL    HW120150   4.455   3.248   6.628
 6417SOL    HW220151   4.408   3.117   6.713
 6418SOL     OW20152   5.093   5.302   0.450
 6418SOL    HW120153   5.094   5.302   0.550
 6418SOL    HW220154   5.133   5.217   0.416
 6419SOL     OW20155   0.660   6.926   6.940
 6419SOL    HW120156   0.748   6.963   6.971
 6419SOL    HW220157   0.652   6.830   6.968
 6420SOL     OW20158   2.540   4.514   3.800
 6420SOL    HW120159   2.491   4.440   3.847
 6420SOL    HW220160   2.598   4.562   3.866
 6421SOL     OW20161   4.986   0.013   1.877
 6421SOL    HW120162   5.055   0.061   1.822
 6421SOL    HW220163   4.967   0.067   1.960
 6422SOL     OW20164   0.142   2.710   4.927
 6422SOL    HW120165   0.139   2.687   4.830
 6422SOL    HW220166   0.082   2.648   4.977
 6423SOL     OW20167   1.087   4.138   5.073
 6423SOL    HW120168   1.162   4.082   5.039
 6423SOL    HW220169   1.005   4.082   5.085
 6424SOL     OW20170   6.614   4.297   6.054
 6424SOL    HW120171   6.705   4.319   6.087
 6424SOL    HW220172   6.618   4.215   5.996
 6425SOL     OW20173   0.300   6.410   4.559
 6425SOL    HW120174   0.273   6.482   4.496
 6425SOL    HW220175   0.394   6.426   4.590
 6426SOL     OW20176   4.622   5.460   4.225
 6426SOL    HW120177   4.694   5.517   4.186
 6426SOL    HW220178   4.541   5.516   4.243
 6427SOL     OW20179   4.147   3.448   3.691
 6427SOL    HW120180   4.195   3.376   3.641
 6427SOL    HW220181   4.054   3.416   3.713
 6428SOL     OW20182   5.620   2.988   0.111
 6428SOL    HW120183   5.555   3.023   0.178
 6428SOL    HW220184   5.577   2.987   0.020
 6429SOL     OW20185   2.420   1.362   5.747
 6429SOL    HW120186   2.395   1.289   5.684
 6429SOL    HW220187   2.338   1.415   5.772
 6430SOL     OW20188   5.390   1.756   5.000
 6430SOL    HW120189   5.346   1.751   4.910
 6430SOL    HW220190   5.476   1.807   4.991
 6431SOL     OW20191   3.381   5.293   2.628
 6431SOL    HW120192   3.406   5.285   2.724
 6431SOL    HW220193   3.296   5.345   2.619
 6432SOL     OW20194   4.774   3.022   5.840
 6432SOL    HW120195   4.758   2.995   5.935
 6432SOL    HW220196   4.774   2.941   5.782
 6433SOL     OW20197   3.567   5.299   6.156
 6433SOL    HW120198   3.509   5.378   6.171
 6433SOL    HW220199   3.663   5.328   6.154
 6434SOL     OW20200   5.718   5.438   5.738
 6434SOL    HW120201   5.708   5.500   5.660
 6434SOL    HW220202   5.749   5.349   5.705
 6435SOL     OW20203   4.572   1.111   0.911
 6435SOL    HW120204   4.608   1.049   0.841
 6435SOL    HW220205   4.509   1.176   0.869
 6436SOL     OW20206   0.186   3.581   3.714
 6436SOL    HW120207   0.267   3.560   3.659
 6436SOL    HW220208   0.215   3.625   3.799
 6437SOL     OW20209   1.601   2.815   5.987
 6437SOL    HW120210   1.565   2.835   6.078
 6437SOL    HW220211   1.526   2.802   5.923
 6438SOL     OW20212   0.381   5.326   0.710
 6438SOL    HW120213   0.393   5.243   0.655
 6438SOL    HW220214   0.291   5.365   0.692
 6439SOL     OW20215   5.373   6.856   2.268
 6439SOL    HW120216   5.422   6.790   2.210
 6439SOL    HW220217   5.380   6.947   2.228
 6440SOL     OW20218   2.397   1.986   6.223
 6440SOL    HW120219   2.480   2.041   6.232
 6440SOL    HW220220   2.422   1.893   6.196
 6441SOL     OW20221   0.255   2.410   1.856
 6441SOL    HW120222   0.312   2.330   1.841
 6441SOL    HW220223   0.162   2.391   1.825
 6442SOL     OW20224   2.390   1.672   4.687
 6442SOL    HW120225   2.358   1.758   4.728
 6442SOL    HW220226   2.366   1.671   4.590
 6443SOL     OW20227   3.593   3.305   6.322
 6443SOL    HW120228   3.651   3.226   6.303
 6443SOL    HW220229   3.501   3.289   6.286
 6444SOL     OW20230   6.904   4.034   4.906
 6444SOL    HW120231   6.887   3.974   4.985
 6444SOL    HW220232   7.001   4.054   4.901
 6445SOL     OW20233   3.930   3.023   3.673
 6445SOL    HW120234   3.840   2.980   3.664
 6445SOL    HW220235   3.993   2.959   3.716
 6446SOL     OW20236   1.368   0.970   0.493
 6446SOL    HW120237   1.446   0.913   0.518
 6446SOL    HW220238   1.283   0.916   0.500
 6447SOL     OW20239   6.064   3.661   1.687
 6447SOL    HW120240   6.005   3.673   1.607
 6447SOL    HW220241   6.008   3.663   1.770
 6448SOL     OW20242   4.312   4.676   1.155
 6448SOL    HW120243   4.255   4.651   1.076
 6448SOL    HW220244   4.388   4.733   1.124
 6449SOL     OW20245   3.823   5.182   0.331
 6449SOL    HW120246   3.730   5.146   0.344
 6449SOL    HW220247   3.847   5.240   0.409
 6450SOL     OW20248   5.979   3.719   0.046
 6450SOL    HW120249   6.015   3.626   0.032
 6450SOL    HW220250   6.033   3.783   7.016
 6451SOL     OW20251   4.316   2.575   1.683
 6451SOL    HW120252   4.313   2.644   1.611
 6451SOL    HW220253   4.385   2.600   1.751
 6452SOL     OW20254   4.057   1.925   5.075
 6452SOL    HW120255   4.019   1.978   5.151
 6452SOL    HW220256   3.989   1.858   5.044
 6453SOL     OW20257   2.325   0.596   3.055
 6453SOL    HW120258   2.349   0.575   3.150
 6453SOL    HW220259   2.237   0.552   3.033
 6454SOL     OW20260   5.156   2.880   4.501
 6454SOL    HW120261   5.122   2.909   4.591
 6454SOL    HW220262   5.082   2.835   4.451
 6455SOL     OW20263   0.298   2.922   4.027
 6455SOL    HW120264   0.364   2.952   4.096
 6455SOL    HW220265   0.320   2.829   3.998
 6456SOL     OW20266   6.706   2.036   2.664
 6456SOL    HW120267   6.737   1.946   2.634
 6456SOL    HW220268   6.655   2.027   2.749
 6457SOL     OW20269   2.475   6.308   2.517
 6457SOL    HW120270   2.443   6.253   2.439
 6457SOL    HW220271   2.569   6.283   2.538
 6458SOL     OW20272   0.061   0.292   4.187
 6458SOL    HW120273   7.019   0.218   4.183
 6458SOL    HW220274   0.051   0.341   4.274
 6459SOL     OW20275   0.296   3.273   3.132
 6459SOL    HW120276   0.278   3.183   3.091
 6459SOL    HW220277   0.211   3.309   3.171
 6460SOL     OW20278   1.265   5.366   6.477
 6460SOL    HW120279   1.218   5.336   6.394
 6460SOL    HW220280   1.206   5.350   6.556
 6461SOL     OW20281   0.342   6.458   0.815
 6461SOL    HW120282   0.305   6.381   0.866
 6461SOL    HW220283   0.442   6.448   0.807
 6462SOL     OW20284   1.827   3.816   5.285
 6462SOL    HW120285   1.863   3.877   5.357
 6462SOL    HW220286   1.893   3.811   5.210
 6463SOL     OW20287   4.502   2.738   1.241
 6463SOL    HW120288   4.577   2.729   1.175
 6463SOL    HW220289   4.490   2.834   1.266
 6464SOL     OW20290   0.416   3.591   3.561
 6464SOL    HW120291   0.411   3.495   3.535
 6464SOL    HW220292   0.502   3.608   3.611
 6465SOL     OW20293   3.067   0.624   3.938
 6465SOL    HW120294   3.021   0.602   3.852
 6465SOL    HW220295   3.087   0.722   3.941
 6466SOL     OW20296   6.635   5.024   6.290
 6466SOL    HW120297   6.637   5.078   6.206
 6466SOL    HW220298   6.632   4.927   6.268
 6467SOL     OW20299   2.303   2.839   6.188
 6467SOL    HW120300   2.369   2.901   6.232
 6467SOL    HW220301   2.312   2.847   6.089
 6468SOL     OW20302   1.217   0.536   1.480
 6468SOL    HW120303   1.254   0.449   1.446
 6468SOL    HW220304   1.257   0.612   1.427
 6469SOL     OW20305   1.974   1.161   1.537
 6469SOL    HW120306   2.060   1.112   1.551
 6469SOL    HW220307   1.984   1.256   1.565
 6470SOL     OW20308   6.175   1.810   6.757
 6470SOL    HW120309   6.215   1.893   6.796
 6470SOL    HW220310   6.243   1.762   6.703
 6471SOL     OW20311   0.075   6.294   5.905
 6471SOL    HW120312   0.094   6.214   5.961
 6471SOL    HW220313   0.159   6.325   5.861
 6472SOL     OW20314   0.037   5.969   2.088
 6472SOL    HW120315   0.137   5.967   2.078
 6472SOL    HW220316   7.019   5.946   2.001
 6473SOL     OW20317   3.092   0.820   3.287
 6473SOL    HW120318   3.010   0.779   3.326
 6473SOL    HW220319   3.173   0.784   3.333
 6474SOL     OW20320   3.588   6.732   3.792
 6474SOL    HW120321   3.615   6.788   3.713
 6474SOL    HW220322   3.657   6.742   3.864
 6475SOL     OW20323   5.605   5.496   2.900
 6475SOL    HW120324   5.676   5.428   2.884
 6475SOL    HW220325   5.637   5.585   2.867
 6476SOL     OW20326   4.781   3.454   6.258
 6476SOL    HW120327   4.831   3.528   6.212
 6476SOL    HW220328   4.757   3.483   6.350
 6477SOL     OW20329   0.670   6.717   0.586
 6477SOL    HW120330   0.648   6.702   0.682
 6477SOL    HW220331   0.737   6.791   0.578
 6478SOL     OW20332   1.343   6.343   1.086
 6478SOL    HW120333   1.294   6.351   0.999
 6478SOL    HW220334   1.299   6.272   1.142
 6479SOL     OW20335   4.494   6.023   3.413
 6479SOL    HW120336   4.488   6.122   3.398
 6479SOL    HW220337   4.587   5.992   3.394
 6480SOL     OW20338   3.577   1.522   5.256
 6480SOL    HW120339   3.570   1.524   5.157
 6480SOL    HW220340   3.496   1.564   5.296
 6481SOL     OW20341   4.126   3.247   1.892
 6481SOL    HW120342   4.124   3.251   1.992
 6481SOL    HW220343   4.214   3.211   1.862
 6482SOL     OW20344   4.627   3.449   5.338
 6482SOL    HW120345   4.709   3.410   5.379
 6482SOL    HW220346   4.654   3.512   5.265
 6483SOL     OW20347   2.077   5.728   5.452
 6483SOL    HW120348   2.176   5.718   5.441
 6483SOL    HW220349   2.031   5.696   5.368
 6484SOL     OW20350   4.409   1.635   3.609
 6484SOL    HW120351   4.370   1.681   3.529
 6484SOL    HW220352   4.335   1.611   3.672
 6485SOL     OW20353   2.283   5.190   5.195
 6485SOL    HW120354   2.313   5.130   5.121
 6485SOL    HW220355   2.211   5.251   5.160
 6486SOL     OW20356   6.773   4.814   2.421
 6486SOL    HW120357   6.795   4.881   2.492
 6486SOL    HW220358   6.836   4.737   2.427
 6487SOL     OW20359   6.158   5.150   4.042
 6487SOL    HW120360   6.146   5.106   4.131
 6487SOL    HW220361   6.136   5.247   4.050
 6488SOL     OW20362   3.850   5.235   4.050
 6488SOL    HW120363   3.829   5.331   4.067
 6488SOL    HW220364   3.782   5.198   3.986
 6489SOL     OW20365   6.304   3.188   5.343
 6489SOL    HW120366   6.324   3.126   5.267
 6489SOL    HW220367   6.209   3.178   5.371
 6490SOL     OW20368   2.191   2.607   0.402
 6490SOL    HW120369   2.238   2.524   0.432
 6490SOL    HW220370   2.245   2.652   0.331
 6491SOL     OW20371   1.386   6.950   1.637
 6491SOL    HW120372   1.468   7.007   1.640
 6491SOL    HW220373   1.349   6.939   1.729
 6492SOL     OW20374   3.964   3.927   4.213
 6492SOL    HW120375   4.056   3.901   4.241
 6492SOL    HW220376   3.933   3.866   4.140
 6493SOL     OW20377   1.130   4.636   3.570
 6493SOL    HW120378   1.179   4.568   3.516
 6493SOL    HW220379   1.195   4.687   3.626
 6494SOL     OW20380   6.449   0.653   1.168
 6494SOL    HW120381   6.412   0.581   1.226
 6494SOL    HW220382   6.389   0.668   1.090
 6495SOL     OW20383   6.941   0.251   3.415
 6495SOL    HW120384   6.997   0.294   3.485
 6495SOL    HW220385   6.882   0.182   3.457
 6496SOL     OW20386   3.147   2.143   1.815
 6496SOL    HW120387   3.083   2.195   1.758
 6496SOL    HW220388   3.233   2.193   1.823
 6497SOL     OW20389   0.526   1.794   0.695
 6497SOL    HW120390   0.618   1.833   0.698
 6497SOL    HW220391   0.460   1.862   0.728
 6498SOL     OW20392   1.808   4.787   4.610
 6498SOL    HW120393   1.879   4.792   4.680
 6498SOL    HW220394   1.723   4.755   4.650
 6499SOL     OW20395   4.742   2.380   3.228
 6499SOL    HW120396   4.674   2.340   3.290
 6499SOL    HW220397   4.775   2.466   3.267
 6500SOL     OW20398   1.239   3.431   3.180
 6500SOL    HW120399   1.295   3.480   3.247
 6500SOL    HW220400   1.282   3.343   3.159
 6501SOL     OW20401   6.259   0.940   2.709
 6501SOL    HW120402   6.358   0.923   2.709
 6501SOL    HW220403   6.211   0.860   2.746
 6502SOL     OW20404   1.085   3.007   1.616
 6502SOL    HW120405   1.138   3.081   1.574
 6502SOL    HW220406   1.051   3.037   1.705
 6503SOL     OW20407   0.008   2.749   5.596
 6503SOL    HW120408   0.046   2.657   5.599
 6503SOL    HW220409   6.964   2.754   5.524
 6504SOL     OW20410   3.513   6.685   6.122
 6504SOL    HW120411   3.504   6.599   6.171
 6504SOL    HW220412   3.471   6.677   6.031
 6505SOL     OW20413   0.065   6.991   0.983
 6505SOL    HW120414   0.052   6.895   1.009
 6505SOL    HW220415   0.096   6.995   0.888
 6506SOL     OW20416   0.043   3.730   1.980
 6506SOL    HW120417   7.001   3.753   1.909
 6506SOL    HW220418   0.134   3.720   1.939
 6507SOL     OW20419   3.761   5.879   1.037
 6507SOL    HW120420   3.695   5.893   1.111
 6507SOL    HW220421   3.768   5.782   1.016
 6508SOL     OW20422   6.685   0.388   3.817
 6508SOL    HW120423   6.647   0.408   3.907
 6508SOL    HW220424   6.731   0.300   3.819
 6509SOL     OW20425   2.248   1.682   6.881
 6509SOL    HW120426   2.321   1.691   6.949
 6509SOL    HW220427   2.257   1.756   6.813
 6510SOL     OW20428   3.284   5.303   4.667
 6510SOL    HW120429   3.355   5.301   4.738
 6510SOL    HW220430   3.304   5.377   4.603
 6511SOL     OW20431   3.533   2.138   0.148
 6511SOL    HW120432   3.545   2.129   0.247
 6511SOL    HW220433   3.598   2.206   0.113
 6512SOL     OW20434   4.972   0.428   0.471
 6512SOL    HW120435   5.055   0.378   0.494
 6512SOL    HW220436   4.893   0.382   0.514
 6513SOL     OW20437   2.836   4.774   2.880
 6513SOL    HW120438   2.784   4.800   2.961
 6513SOL    HW220439   2.817   4.678   2.858
 6514SOL     OW20440   5.296   6.246   5.374
 6514SOL    HW120441   5.297   6.149   5.351
 6514SOL    HW220442   5.368   6.293   5.323
 6515SOL     OW20443   0.507   4.757   2.371
 6515SOL    HW120444   0.559   4.699   2.433
 6515SOL    HW220445   0.503   4.850   2.408
 6516SOL     OW20446   6.134   2.048   3.099
 6516SOL    HW120447   6.132   2.142   3.067
 6516SOL    HW220448   6.129   2.047   3.199
 6517SOL     OW20449   6.380   3.601   0.363
 6517SOL    HW120450   6.413   3.650   0.282
 6517SOL    HW220451   6.456   3.549   0.404
 6518SOL     OW20452   0.899   1.115   2.260
 6518SOL    HW120453   0.807   1.154   2.256
 6518SOL    HW220454   0.964   1.186   2.287
 6519SOL     OW20455   1.289   0.905   3.687
 6519SOL    HW120456   1.379   0.864   3.673
 6519SOL    HW220457   1.287   0.997   3.648
 6520SOL     OW20458   6.519   5.275   0.050
 6520SOL    HW120459   6.500   5.340   7.001
 6520SOL    HW220460   6.584   5.206   0.017
 6521SOL     OW20461   1.552   4.748   4.669
 6521SOL    HW120462   1.499   4.667   4.644
 6521SOL    HW220463   1.538   4.769   4.765
 6522SOL     OW20464   2.535   2.815   5.291
 6522SOL    HW120465   2.486   2.748   5.236
 6522SOL    HW220466   2.503   2.907   5.268
 6523SOL     OW20467   6.010   6.801   1.066
 6523SOL    HW120468   6.074   6.796   0.988
 6523SOL    HW220469   6.038   6.736   1.136
 6524SOL     OW20470   3.079   2.690   1.179
 6524SOL    HW120471   3.153   2.666   1.116
 6524SOL    HW220472   3.118   2.727   1.264
 6525SOL     OW20473   1.662   4.942   3.799
 6525SOL    HW120474   1.737   4.985   3.749
 6525SOL    HW220475   1.690   4.925   3.893
 6526SOL     OW20476   6.522   6.629   0.800
 6526SOL    HW120477   6.620   6.631   0.819
 6526SOL    HW220478   6.492   6.721   0.775
 6527SOL     OW20479   5.729   1.501   0.798
 6527SOL    HW120480   5.653   1.564   0.780
 6527SOL    HW220481   5.700   1.407   0.780
 6528SOL     OW20482   4.175   6.864   0.146
 6528SOL    HW120483   4.103   6.801   0.175
 6528SOL    HW220484   4.264   6.829   0.177
 6529SOL     OW20485   4.630   0.271   1.745
 6529SOL    HW120486   4.623   0.172   1.756
 6529SOL    HW220487   4.549   0.305   1.697
 6530SOL     OW20488   0.214   2.618   3.571
 6530SOL    HW120489   0.137   2.570   3.613
 6530SOL    HW220490   0.239   2.573   3.486
 6531SOL     OW20491   3.674   3.814   3.832
 6531SOL    HW120492   3.729   3.801   3.914
 6531SOL    HW220493   3.584   3.849   3.858
 6532SOL     OW20494   0.558   6.200   0.491
 6532SOL    HW120495   0.643   6.154   0.466
 6532SOL    HW220496   0.537   6.181   0.587
 6533SOL     OW20497   4.886   4.715   1.373
 6533SOL    HW120498   4.802   4.677   1.412
 6533SOL    HW220499   4.904   4.805   1.412
 6534SOL     OW20500   6.897   4.012   4.095
 6534SOL    HW120501   6.817   4.018   4.155
 6534SOL    HW220502   6.916   4.101   4.054
 6535SOL     OW20503   5.468   4.377   5.656
 6535SOL    HW120504   5.382   4.344   5.694
 6535SOL    HW220505   5.494   4.321   5.577
 6536SOL     OW20506   0.544   4.988   5.546
 6536SOL    HW120507   0.522   5.006   5.450
 6536SOL    HW220508   0.516   4.895   5.569
 6537SOL     OW20509   0.047   5.325   4.258
 6537SOL    HW120510   0.051   5.424   4.272
 6537SOL    HW220511   6.980   5.300   4.226
 6538SOL     OW20512   1.188   2.873   3.950
 6538SOL    HW120513   1.144   2.867   3.861
 6538SOL    HW220514   1.174   2.788   4.000
 6539SOL     OW20515   4.639   6.650   6.942
 6539SOL    HW120516   4.660   6.704   7.024
 6539SOL    HW220517   4.709   6.667   6.872
 6540SOL     OW20518   0.279   2.720   5.401
 6540SOL    HW120519   0.212   2.767   5.344
 6540SOL    HW220520   0.264   2.744   5.497
 6541SOL     OW20521   4.255   1.651   5.281
 6541SOL    HW120522   4.304   1.670   5.196
 6541SOL    HW220523   4.275   1.558   5.311
 6542SOL     OW20524   1.522   3.996   2.334
 6542SOL    HW120525   1.498   4.009   2.430
 6542SOL    HW220526   1.488   4.073   2.280
 6543SOL     OW20527   4.358   1.230   4.526
 6543SOL    HW120528   4.353   1.242   4.625
 6543SOL    HW220529   4.425   1.158   4.505
 6544SOL     OW20530   0.222   0.337   0.454
 6544SOL    HW120531   0.310   0.325   0.499
 6544SOL    HW220532   0.177   0.419   0.492
 6545SOL     OW20533   5.131   6.066   1.083
 6545SOL    HW120534   5.161   5.983   1.037
 6545SOL    HW220535   5.056   6.045   1.145
 6546SOL     OW20536   4.590   5.367   5.630
 6546SOL    HW120537   4.502   5.320   5.635
 6546SOL    HW220538   4.613   5.382   5.534
 6547SOL     OW20539   0.757   6.335   5.508
 6547SOL    HW120540   0.817   6.413   5.519
 6547SOL    HW220541   0.671   6.364   5.466
 6548SOL     OW20542   1.319   1.697   6.183
 6548SOL    HW120543   1.254   1.719   6.110
 6548SOL    HW220544   1.296   1.748   6.266
 6549SOL     OW20545   3.670   1.524   2.761
 6549SOL    HW120546   3.616   1.578   2.697
 6549SOL    HW220547   3.746   1.480   2.713
 6550SOL     OW20548   6.072   6.415   2.093
 6550SOL    HW120549   6.000   6.449   2.153
 6550SOL    HW220550   6.048   6.323   2.060
 6551SOL     OW20551   2.914   4.859   0.699
 6551SOL    HW120552   2.830   4.884   0.748
 6551SOL    HW220553   2.893   4.846   0.602
 6552SOL     OW20554   2.514   4.367   0.198
 6552SOL    HW120555   2.501   4.276   0.237
 6552SOL    HW220556   2.444   4.429   0.234
 6553SOL     OW20557   0.641   2.005   3.924
 6553SOL    HW120558   0.557   1.976   3.880
 6553SOL    HW220559   0.638   2.104   3.939
 6554SOL     OW20560   1.533   2.069   4.199
 6554SOL    HW120561   1.528   2.015   4.283
 6554SOL    HW220562   1.563   2.162   4.221
 6555SOL     OW20563   1.802   3.280   4.284
 6555SOL    HW120564   1.818   3.211   4.215
 6555SOL    HW220565   1.846   3.366   4.257
 6556SOL     OW20566   5.091   3.328   3.016
 6556SOL    HW120567   5.040   3.395   3.071
 6556SOL    HW220568   5.185   3.323   3.049
 6557SOL     OW20569   2.335   0.728   2.340
 6557SOL    HW120570   2.351   0.677   2.424
 6557SOL    HW220571   2.380   0.818   2.347
 6558SOL     OW20572   5.533   6.071   1.031
 6558SOL    HW120573   5.550   6.043   1.125
 6558SOL    HW220574   5.525   5.990   0.973
 6559SOL     OW20575   6.844   2.190   6.386
 6559SOL    HW120576   6.917   2.255   6.362
 6559SOL    HW220577   6.827   2.194   6.484
 6560SOL     OW20578   6.498   4.505   6.680
 6560SOL    HW120579   6.448   4.541   6.758
 6560SOL    HW220580   6.451   4.424   6.644
 6561SOL     OW20581   2.209   4.990   0.628
 6561SOL    HW120582   2.277   5.059   0.655
 6561SOL    HW220583   2.217   4.910   0.687
 6562SOL     OW20584   4.691   2.473   1.693
 6562SOL    HW120585   4.751   2.552   1.705
 6562SOL    HW220586   4.639   2.457   1.777
 6563SOL     OW20587   6.614   4.881   5.521
 6563SOL    HW120588   6.537   4.906   5.462
 6563SOL    HW220589   6.638   4.785   5.507
 6564SOL     OW20590   5.574   3.217   2.199
 6564SOL    HW120591   5.501   3.148   2.203
 6564SOL    HW220592   5.547   3.291   2.137
 6565SOL     OW20593   5.168   6.553   2.567
 6565SOL    HW120594   5.158   6.486   2.640
 6565SOL    HW220595   5.163   6.645   2.605
 6566SOL     OW20596   5.326   5.390   3.816
 6566SOL    HW120597   5.228   5.399   3.800
 6566SOL    HW220598   5.371   5.363   3.731
 6567SOL     OW20599   3.314   0.696   2.692
 6567SOL    HW120600   3.395   0.639   2.681
 6567SOL    HW220601   3.282   0.691   2.787
 6568SOL     OW20602   4.904   0.962   0.720
 6568SOL    HW120603   4.947   1.047   0.750
 6568SOL    HW220604   4.971   0.906   0.671
 6569SOL     OW20605   0.938   4.642   3.782
 6569SOL    HW120606   0.870   4.696   3.733
 6569SOL    HW220607   1.003   4.603   3.717
 6570SOL     OW20608   4.354   0.451   2.208
 6570SOL    HW120609   4.421   0.442   2.134
 6570SOL    HW220610   4.265   0.478   2.169
 6571SOL     OW20611   2.578   6.784   3.096
 6571SOL    HW120612   2.663   6.733   3.082
 6571SOL    HW220613   2.551   6.780   3.192
 6572SOL     OW20614   1.945   6.079   4.236
 6572SOL    HW120615   1.870   6.143   4.247
 6572SOL    HW220616   1.997   6.103   4.154
 6573SOL     OW20617   0.091   2.315   3.115
 6573SOL    HW120618   0.083   2.243   3.184
 6573SOL    HW220619   0.162   2.289   3.049
 6574SOL     OW20620   1.141   4.609   2.144
 6574SOL    HW120621   1.111   4.688   2.196
 6574SOL    HW220622   1.072   4.537   2.149
 6575SOL     OW20623   6.936   1.838   3.716
 6575SOL    HW120624   6.983   1.924   3.735
 6575SOL    HW220625   6.886   1.845   3.630
 6576SOL     OW20626   3.818   6.878   1.647
 6576SOL    HW120627   3.808   6.861   1.745
 6576SOL    HW220628   3.732   6.915   1.611
 6577SOL     OW20629   3.373   0.996   4.812
 6577SOL    HW120630   3.462   1.035   4.835
 6577SOL    HW220631   3.304   1.069   4.810
 6578SOL     OW20632   1.186   4.908   0.778
 6578SOL    HW120633   1.210   4.874   0.869
 6578SOL    HW220634   1.151   4.832   0.723
 6579SOL     OW20635   1.582   1.497   3.800
 6579SOL    HW120636   1.528   1.414   3.817
 6579SOL    HW220637   1.560   1.564   3.871
 6580SOL     OW20638   3.166   2.173   0.401
 6580SOL    HW120639   3.242   2.215   0.451
 6580SOL    HW220640   3.201   2.101   0.342
 6581SOL     OW20641   0.512   1.975   1.666
 6581SOL    HW120642   0.558   1.946   1.582
 6581SOL    HW220643   0.543   1.918   1.742
 6582SOL     OW20644   5.006   0.711   2.972
 6582SOL    HW120645   4.929   0.713   3.036
 6582SOL    HW220646   5.091   0.719   3.023
 6583SOL     OW20647   2.816   4.445   0.846
 6583SOL    HW120648   2.827   4.409   0.938
 6583SOL    HW220649   2.900   4.492   0.818
 6584SOL     OW20650   4.105   2.542   6.286
 6584SOL    HW120651   4.076   2.634   6.260
 6584SOL    HW220652   4.051   2.475   6.234
 6585SOL     OW20653   5.285   0.001   1.711
 6585SOL    HW120654   5.295   7.006   1.809
 6585SOL    HW220655   5.352   6.972   1.660
 6586SOL     OW20656   6.807   0.978   6.486
 6586SOL    HW120657   6.875   0.972   6.558
 6586SOL    HW220658   6.736   0.909   6.500
 6587SOL     OW20659   3.246   5.054   4.943
 6587SOL    HW120660   3.251   5.010   5.033
 6587SOL    HW220661   3.154   5.044   4.906
 6588SOL     OW20662   1.164   1.611   0.262
 6588SOL    HW120663   1.146   1.688   0.324
 6588SOL    HW220664   1.155   1.642   0.167
 6589SOL     OW20665   6.488   6.347   1.880
 6589SOL    HW120666   6.468   6.302   1.967
 6589SOL    HW220667   6.576   6.315   1.845
 6590SOL     OW20668   1.356   6.234   4.478
 6590SOL    HW120669   1.417   6.251   4.400
 6590SOL    HW220670   1.324   6.139   4.474
 6591SOL     OW20671   6.327   3.321   3.812
 6591SOL    HW120672   6.234   3.296   3.840
 6591SOL    HW220673   6.357   3.261   3.738
 6592SOL     OW20674   6.500   0.524   4.026
 6592SOL    HW120675   6.443   0.479   3.958
 6592SOL    HW220676   6.459   0.513   4.117
 6593SOL     OW20677   2.265   1.007   2.486
 6593SOL    HW120678   2.206   0.988   2.407
 6593SOL    HW220679   2.314   1.092   2.472
 6594SOL     OW20680   5.323   0.153   0.225
 6594SOL    HW120681   5.400   0.103   0.186
 6594SOL    HW220682   5.321   0.141   0.324
 6595SOL     OW20683   0.749   1.828   5.201
 6595SOL    HW120684   0.655   1.802   5.179
 6595SOL    HW220685   0.788   1.880   5.125
 6596SOL     OW20686   5.205   1.210   2.353
 6596SOL    HW120687   5.220   1.181   2.448
 6596SOL    HW220688   5.272   1.165   2.293
 6597SOL     OW20689   1.044   4.628   1.072
 6597SOL    HW120690   1.090   4.547   1.109
 6597SOL    HW220691   0.987   4.601   0.995
 6598SOL     OW20692   1.244   5.040   2.925
 6598SOL    HW120693   1.301   5.040   3.007
 6598SOL    HW220694   1.158   5.087   2.944
 6599SOL     OW20695   0.511   5.767   6.512
 6599SOL    HW120696   0.576   5.779   6.437
 6599SOL    HW220697   0.423   5.808   6.486
 6600SOL     OW20698   4.711   6.301   4.723
 6600SOL    HW120699   4.749   6.333   4.810
 6600SOL    HW220700   4.690   6.204   4.730
 6601SOL     OW20701   1.413   2.875   1.597
 6601SOL    HW120702   1.365   2.866   1.509
 6601SOL    HW220703   1.472   2.797   1.611
 6602SOL     OW20704   6.858   5.119   1.299
 6602SOL    HW120705   6.796   5.152   1.369
 6602SOL    HW220706   6.813   5.046   1.247
 6603SOL     OW20707   0.366   4.357   2.544
 6603SOL    HW120708   0.374   4.336   2.641
 6603SOL    HW220709   0.315   4.443   2.533
 6604SOL     OW20710   1.408   5.697   3.039
 6604SOL    HW120711   1.330   5.669   3.094
 6604SOL    HW220712   1.380   5.770   2.977
 6605SOL     OW20713   0.087   5.212   1.265
 6605SOL    HW120714   0.064   5.308   1.281
 6605SOL    HW220715   0.003   5.159   1.257
 6606SOL     OW20716   1.655   4.123   2.949
 6606SOL    HW120717   1.696   4.052   3.006
 6606SOL    HW220718   1.681   4.107   2.854
 6607SOL     OW20719   5.969   3.375   4.063
 6607SOL    HW120720   6.038   3.306   4.038
 6607SOL    HW220721   5.878   3.338   4.043
 6608SOL     OW20722   1.110   0.347   5.708
 6608SOL    HW120723   1.077   0.283   5.638
 6608SOL    HW220724   1.049   0.426   5.712
 6609SOL     OW20725   3.345   2.390   0.131
 6609SOL    HW120726   3.398   2.305   0.140
 6609SOL    HW220727   3.407   2.466   0.117
 6610SOL     OW20728   2.977   6.335   1.144
 6610SOL    HW120729   2.941   6.272   1.075
 6610SOL    HW220730   2.979   6.428   1.105
 6611SOL     OW20731   3.264   1.218   4.638
 6611SOL    HW120732   3.246   1.316   4.626
 6611SOL    HW220733   3.306   1.182   4.555
 6612SOL     OW20734   0.591   0.183   0.236
 6612SOL    HW120735   0.555   0.158   0.146
 6612SOL    HW220736   0.582   0.282   0.249
 6613SOL     OW20737   4.572   6.608   0.687
 6613SOL    HW120738   4.588   6.532   0.749
 6613SOL    HW220739   4.606   6.693   0.728
 6614SOL     OW20740   3.912   4.882   0.972
 6614SOL    HW120741   3.824   4.854   1.011
 6614SOL    HW220742   3.924   4.838   0.883
 6615SOL     OW20743   3.360   5.487   6.155
 6615SOL    HW120744   3.345   5.530   6.244
 6615SOL    HW220745   3.367   5.557   6.084
 6616SOL     OW20746   4.294   1.233   0.157
 6616SOL    HW120747   4.285   1.327   0.187
 6616SOL    HW220748   4.346   1.181   0.225
 6617SOL     OW20749   3.520   0.998   3.687
 6617SOL    HW120750   3.514   1.094   3.661
 6617SOL    HW220751   3.430   0.964   3.711
 6618SOL     OW20752   5.863   2.559   4.229
 6618SOL    HW120753   5.794   2.561   4.156
 6618SOL    HW220754   5.860   2.645   4.279
 6619SOL     OW20755   4.882   5.074   3.880
 6619SOL    HW120756   4.839   4.991   3.916
 6619SOL    HW220757   4.864   5.150   3.942
 6620SOL     OW20758   1.122   2.316   3.427
 6620SOL    HW120759   1.127   2.287   3.331
 6620SOL    HW220760   1.026   2.319   3.456
 6621SOL     OW20761   2.938   3.507   3.887
 6621SOL    HW120762   3.025   3.550   3.864
 6621SOL    HW220763   2.909   3.535   3.978
 6622SOL     OW20764   0.314   5.122   1.355
 6622SOL    HW120765   0.288   5.039   1.405
 6622SOL    HW220766   0.235   5.159   1.308
 6623SOL     OW20767   3.007   3.827   3.672
 6623SOL    HW120768   3.068   3.757   3.710
 6623SOL    HW220769   2.965   3.878   3.747
 6624SOL     OW20770   2.782   2.316   2.775
 6624SOL    HW120771   2.735   2.253   2.836
 6624SOL    HW220772   2.721   2.391   2.751
 6625SOL     OW20773   6.792   3.864   5.348
 6625SOL    HW120774   6.802   3.893   5.252
 6625SOL    HW220775   6.731   3.928   5.395
 6626SOL     OW20776   3.327   5.598   5.235
 6626SOL    HW120777   3.324   5.689   5.195
 6626SOL    HW220778   3.359   5.532   5.167
 6627SOL     OW20779   2.444   5.995   4.157
 6627SOL    HW120780   2.432   6.091   4.184
 6627SOL    HW220781   2.499   5.991   4.073
 6628SOL     OW20782   3.796   0.136   3.053
 6628SOL    HW120783   3.722   0.200   3.034
 6628SOL    HW220784   3.884   0.181   3.038
 6629SOL     OW20785   4.610   5.341   4.867
 6629SOL    HW120786   4.610   5.368   4.771
 6629SOL    HW220787   4.703   5.349   4.904
 6630SOL     OW20788   1.843   0.534   0.023
 6630SOL    HW120789   1.929   0.505   0.065
 6630SOL    HW220790   1.849   0.522   6.948
 6631SOL     OW20791   2.100   2.901   5.775
 6631SOL    HW120792   2.007   2.879   5.803
 6631SOL    HW220793   2.098   2.963   5.697
 6632SOL     OW20794   1.427   0.514   6.764
 6632SOL    HW120795   1.397   0.552   6.676
 6632SOL    HW220796   1.421   0.585   6.834
 6633SOL     OW20797   4.214   5.719   6.146
 6633SOL    HW120798   4.202   5.803   6.199
 6633SOL    HW220799   4.248   5.647   6.207
 6634SOL     OW20800   3.047   2.200   3.961
 6634SOL    HW120801   3.043   2.155   4.050
 6634SOL    HW220802   3.138   2.187   3.921
 6635SOL     OW20803   5.296   5.634   5.323
 6635SOL    HW120804   5.394   5.646   5.338
 6635SOL    HW220805   5.245   5.696   5.382
 6636SOL     OW20806   4.233   1.122   0.633
 6636SOL    HW120807   4.255   1.121   0.535
 6636SOL    HW220808   4.302   1.174   0.682
 6637SOL     OW20809   6.968   1.775   0.303
 6637SOL    HW120810   6.977   1.808   0.397
 6637SOL    HW220811   6.899   1.830   0.255
 6638SOL     OW20812   3.425   3.501   3.857
 6638SOL    HW120813   3.506   3.495   3.798
 6638SOL    HW220814   3.430   3.431   3.928
 6639SOL     OW20815   4.881   2.180   1.410
 6639SOL    HW120816   4.966   2.228   1.385
 6639SOL    HW220817   4.803   2.226   1.367
 6640SOL     OW20818   1.569   4.182   5.032
 6640SOL    HW120819   1.652   4.198   4.978
 6640SOL    HW220820   1.592   4.129   5.114
 6641SOL     OW20821   6.068   2.334   0.258
 6641SOL    HW120822   6.146   2.397   0.253
 6641SOL    HW220823   5.992   2.379   0.305
 6642SOL     OW20824   1.001   5.476   6.589
 6642SOL    HW120825   0.909   5.443   6.609
 6642SOL    HW220826   1.056   5.474   6.672
 6643SOL     OW20827   3.663   5.693   6.048
 6643SOL    HW120828   3.653   5.767   6.115
 6643SOL    HW220829   3.747   5.641   6.068
 6644SOL     OW20830   2.568   0.210   3.955
 6644SOL    HW120831   2.616   0.251   3.877
 6644SOL    HW220832   2.501   0.144   3.921
 6645SOL     OW20833   4.853   2.774   6.222
 6645SOL    HW120834   4.825   2.687   6.183
 6645SOL    HW220835   4.797   2.847   6.183
 6646SOL     OW20836   4.636   0.284   5.437
 6646SOL    HW120837   4.652   0.274   5.339
 6646SOL    HW220838   4.695   0.221   5.487
 6647SOL     OW20839   4.280   4.399   0.429
 6647SOL    HW120840   4.244   4.465   0.362
 6647SOL    HW220841   4.371   4.427   0.458
 6648SOL     OW20842   3.091   5.573   5.410
 6648SOL    HW120843   3.173   5.560   5.353
 6648SOL    HW220844   3.014   5.597   5.352
 6649SOL     OW20845   4.384   2.928   6.036
 6649SOL    HW120846   4.416   2.868   5.963
 6649SOL    HW220847   4.372   3.021   6.000
 6650SOL     OW20848   2.603   1.081   5.562
 6650SOL    HW120849   2.533   1.138   5.604
 6650SOL    HW220850   2.622   1.003   5.621
 6651SOL     OW20851   0.205   1.806   5.687
 6651SOL    HW120852   0.236   1.901   5.691
 6651SOL    HW220853   0.258   1.757   5.617
 6652SOL     OW20854   0.073   4.353   0.017
 6652SOL    HW120855   0.011   4.318   6.970
 6652SOL    HW220856   0.115   4.438   7.011
 6653SOL     OW20857   5.984   4.256   6.766
 6653SOL    HW120858   5.926   4.192   6.716
 6653SOL    HW220859   5.928   4.309   6.830
 6654SOL     OW20860   6.517   2.597   3.048
 6654SOL    HW120861   6.571   2.524   3.091
 6654SOL    HW220862   6.558   2.686   3.068
 6655SOL     OW20863   0.146   5.938   1.423
 6655SOL    HW120864   0.108   6.002   1.490
 6655SOL    HW220865   0.207   5.987   1.361
 6656SOL     OW20866   4.203   0.978   3.046
 6656SOL    HW120867   4.115   0.936   3.024
 6656SOL    HW220868   4.240   1.023   2.965
 6657SOL     OW20869   5.128   1.342   4.677
 6657SOL    HW120870   5.094   1.436   4.677
 6657SOL    HW220871   5.160   1.318   4.585
 6658SOL     OW20872   6.822   5.879   5.104
 6658SOL    HW120873   6.722   5.881   5.094
 6658SOL    HW220874   6.862   5.834   5.024
 6659SOL     OW20875   0.476   5.583   1.195
 6659SOL    HW120876   0.471   5.494   1.241
 6659SOL    HW220877   0.549   5.582   1.127
 6660SOL     OW20878   0.495   0.448   4.779
 6660SOL    HW120879   0.415   0.403   4.738
 6660SOL    HW220880   0.578   0.397   4.755
 6661SOL     OW20881   4.092   5.947   4.101
 6661SOL    HW120882   4.156   5.887   4.053
 6661SOL    HW220883   4.038   6.000   4.035
 6662SOL     OW20884   3.266   6.659   1.997
 6662SOL    HW120885   3.294   6.744   2.042
 6662SOL    HW220886   3.330   6.637   1.924
 6663SOL     OW20887   1.501   4.482   5.652
 6663SOL    HW120888   1.589   4.514   5.686
 6663SOL    HW220889   1.464   4.548   5.587
 6664SOL     OW20890   3.386   0.197   1.515
 6664SOL    HW120891   3.465   0.196   1.454
 6664SOL    HW220892   3.375   0.108   1.559
 6665SOL     OW20893   2.554   0.537   7.001
 6665SOL    HW120894   2.475   0.597   7.011
 6665SOL    HW220895   2.619   0.555   0.050
 6666SOL     OW20896   3.389   6.079   5.614
 6666SOL    HW120897   3.355   5.986   5.619
 6666SOL    HW220898   3.335   6.138   5.674
 6667SOL     OW20899   1.806   6.077   6.679
 6667SOL    HW120900   1.803   6.140   6.601
 6667SOL    HW220901   1.790   6.128   6.764
 6668SOL     OW20902   6.781   4.162   0.288
 6668SOL    HW120903   6.778   4.082   0.227
 6668SOL    HW220904   6.697   4.166   0.341
 6669SOL     OW20905   1.591   2.681   3.470
 6669SOL    HW120906   1.591   2.761   3.411
 6669SOL    HW220907   1.578   2.599   3.414
 6670SOL     OW20908   3.379   3.655   0.629
 6670SOL    HW120909   3.426   3.742   0.611
 6670SOL    HW220910   3.281   3.667   0.613
 6671SOL     OW20911   4.342   4.832   0.235
 6671SOL    HW120912   4.288   4.846   0.318
 6671SOL    HW220913   4.436   4.809   0.260
 6672SOL     OW20914   1.190   2.528   1.022
 6672SOL    HW120915   1.219   2.435   1.047
 6672SOL    HW220916   1.091   2.535   1.028
 6673SOL     OW20917   6.052   2.938   4.189
 6673SOL    HW120918   6.128   2.911   4.248
 6673SOL    HW220919   6.048   2.876   4.110
 6674SOL     OW20920   6.790   0.532   0.632
 6674SOL    HW120921   6.805   0.629   0.614
 6674SOL    HW220922   6.692   0.515   0.646
 6675SOL     OW20923   4.939   0.397   0.046
 6675SOL    HW120924   5.034   0.368   0.060
 6675SOL    HW220925   4.879   0.317   0.050
 6676SOL     OW20926   0.610   3.776   5.082
 6676SOL    HW120927   0.546   3.837   5.033
 6676SOL    HW220928   0.674   3.736   5.016
 6677SOL     OW20929   0.470   1.833   6.387
 6677SOL    HW120930   0.561   1.856   6.352
 6677SOL    HW220931   0.471   1.741   6.425
 6678SOL     OW20932   2.925   3.837   6.606
 6678SOL    HW120933   2.965   3.910   6.551
 6678SOL    HW220934   2.922   3.865   6.702
 6679SOL     OW20935   1.369   0.856   4.025
 6679SOL    HW120936   1.322   0.779   3.981
 6679SOL    HW220937   1.466   0.852   4.001
 6680SOL     OW20938   6.633   5.378   1.415
 6680SOL    HW120939   6.604   5.289   1.450
 6680SOL    HW220940   6.718   5.405   1.461
 6681SOL     OW20941   2.551   5.988   1.355
 6681SOL    HW120942   2.564   5.944   1.444
 6681SOL    HW220943   2.547   5.918   1.284
 6682SOL     OW20944   2.787   5.444   6.272
 6682SOL    HW120945   2.714   5.482   6.215
 6682SOL    HW220946   2.828   5.365   6.226
 6683SOL     OW20947   6.863   5.152   5.698
 6683SOL    HW120948   6.936   5.203   5.652
 6683SOL    HW220949   6.888   5.137   5.794
 6684SOL     OW20950   2.991   5.428   6.701
 6684SOL    HW120951   2.905   5.434   6.650
 6684SOL    HW220952   3.003   5.334   6.735
 6685SOL     OW20953   4.719   2.655   1.041
 6685SOL    HW120954   4.691   2.718   0.968
 6685SOL    HW220955   4.742   2.567   1.002
 6686SOL     OW20956   4.979   4.745   5.227
 6686SOL    HW120957   4.943   4.796   5.306
 6686SOL    HW220958   4.903   4.720   5.167
 6687SOL     OW20959   0.528   1.548   1.529
 6687SOL    HW120960   0.449   1.607   1.513
 6687SOL    HW220961   0.579   1.536   1.444
 6688SOL     OW20962   4.660   5.807   0.430
 6688SOL    HW120963   4.576   5.765   0.395
 6688SOL    HW220964   4.661   5.904   0.406
 6689SOL     OW20965   3.329   4.712   5.573
 6689SOL    HW120966   3.305   4.618   5.596
 6689SOL    HW220967   3.345   4.764   5.656
 6690SOL     OW20968   0.619   0.897   0.055
 6690SOL    HW120969   0.656   0.828   0.118
 6690SOL    HW220970   0.673   0.981   0.064
 6691SOL     OW20971   2.646   1.225   2.353
 6691SOL    HW120972   2.690   1.303   2.307
 6691SOL    HW220973   2.552   1.249   2.377
 6692SOL     OW20974   4.377   6.178   2.564
 6692SOL    HW120975   4.467   6.145   2.591
 6692SOL    HW220976   4.307   6.130   2.616
 6693SOL     OW20977   3.276   0.895   5.505
 6693SOL    HW120978   3.251   0.859   5.595
 6693SOL    HW220979   3.277   0.821   5.438
 6694SOL     OW20980   4.311   4.120   1.464
 6694SOL    HW120981   4.390   4.110   1.525
 6694SOL    HW220982   4.230   4.144   1.517
 6695SOL     OW20983   2.585   2.608   0.492
 6695SOL    HW120984   2.609   2.660   0.409
 6695SOL    HW220985   2.633   2.647   0.570
 6696SOL     OW20986   4.042   3.267   4.704
 6696SOL    HW120987   3.987   3.333   4.652
 6696SOL    HW220988   4.100   3.317   4.768
 6697SOL     OW20989   4.346   2.089   1.862
 6697SOL    HW120990   4.359   2.168   1.802
 6697SOL    HW220991   4.286   2.114   1.938
 6698SOL     OW20992   3.567   4.076   1.258
 6698SOL    HW120993   3.631   4.002   1.276
 6698SOL    HW220994   3.538   4.073   1.163
 6699SOL     OW20995   1.151   3.313   5.562
 6699SOL    HW120996   1.220   3.377   5.593
 6699SOL    HW220997   1.174   3.221   5.593
 6700SOL     OW20998   5.572   0.029   1.407
 6700SOL    HW120999   5.611   0.059   1.319
 6700SOL    HW221000   5.474   0.014   1.397
 6701SOL     OW21001   5.751   6.670   1.732
 6701SOL    HW121002   5.824   6.633   1.790
 6701SOL    HW221003   5.665   6.627   1.755
 6702SOL     OW21004   3.451   3.156   0.952
 6702SOL    HW121005   3.438   3.057   0.963
 6702SOL    HW221006   3.386   3.204   1.010
 6703SOL     OW21007   0.345   1.354   0.428
 6703SOL    HW121008   0.385   1.412   0.499
 6703SOL    HW221009   0.418   1.300   0.385
 6704SOL     OW21010   3.230   7.001   5.315
 6704SOL    HW121011   3.217   0.068   5.278
 6704SOL    HW221012   3.144   6.951   5.312
 6705SOL     OW21013   0.015   4.637   2.382
 6705SOL    HW121014   0.044   4.542   2.389
 6705SOL    HW221015   0.095   4.697   2.383
 6706SOL     OW21016   0.152   0.000   0.727
 6706SOL    HW121017   0.128   0.052   0.644
 6706SOL    HW221018   0.147   6.927   0.708
 6707SOL     OW21019   4.489   1.065   2.753
 6707SOL    HW121020   4.551   1.088   2.828
 6707SOL    HW221021   4.540   1.057   2.668
 6708SOL     OW21022   0.430   3.192   0.132
 6708SOL    HW121023   0.337   3.206   0.099
 6708SOL    HW221024   0.437   3.223   0.227
 6709SOL     OW21025   2.371   4.364   2.010
 6709SOL    HW121026   2.355   4.320   1.922
 6709SOL    HW221027   2.378   4.295   2.082
 6710SOL     OW21028   4.565   1.678   0.661
 6710SOL    HW121029   4.499   1.618   0.707
 6710SOL    HW221030   4.519   1.761   0.631
 6711SOL     OW21031   3.688   6.074   5.995
 6711SOL    HW121032   3.599   6.029   5.997
 6711SOL    HW221033   3.755   6.014   5.952
 6712SOL     OW21034   5.303   4.604   1.130
 6712SOL    HW121035   5.319   4.701   1.115
 6712SOL    HW221036   5.213   4.590   1.170
 6713SOL     OW21037   1.262   4.847   4.697
 6713SOL    HW121038   1.284   4.867   4.601
 6713SOL    HW221039   1.305   4.761   4.724
 6714SOL     OW21040   5.433   1.477   1.736
 6714SOL    HW121041   5.514   1.499   1.682
 6714SOL    HW221042   5.421   1.378   1.740
 6715SOL     OW21043   1.565   0.206   6.292
 6715SOL    HW121044   1.626   0.127   6.286
 6715SOL    HW221045   1.546   0.227   6.388
 6716SOL     OW21046   0.801   5.839   1.876
 6716SOL    HW121047   0.890   5.848   1.833
 6716SOL    HW221048   0.807   5.775   1.953
 6717SOL     OW21049   6.074   2.217   5.639
 6717SOL    HW121050   6.001   2.156   5.609
 6717SOL    HW221051   6.160   2.190   5.597
 6718SOL     OW21052   4.914   1.434   0.936
 6718SOL    HW121053   4.961   1.374   1.001
 6718SOL    HW221054   4.981   1.493   0.891
 6719SOL     OW21055   1.834   1.474   6.958
 6719SOL    HW121056   1.920   1.485   7.009
 6719SOL    HW221057   1.832   1.384   6.915
 6720SOL     OW21058   1.935   0.892   5.866
 6720SOL    HW121059   1.904   0.947   5.944
 6720SOL    HW221060   1.856   0.868   5.809
 6721SOL     OW21061   6.132   6.661   1.257
 6721SOL    HW121062   6.197   6.727   1.294
 6721SOL    HW221063   6.095   6.606   1.332
 6722SOL     OW21064   5.311   3.813   0.553
 6722SOL    HW121065   5.240   3.866   0.508
 6722SOL    HW221066   5.388   3.802   0.491
 6723SOL     OW21067   1.571   3.179   5.184
 6723SOL    HW121068   1.643   3.196   5.251
 6723SOL    HW221069   1.574   3.250   5.113
 6724SOL     OW21070   2.173   3.883   4.374
 6724SOL    HW121071   2.124   3.907   4.458
 6724SOL    HW221072   2.227   3.801   4.390
 6725SOL     OW21073   4.976   3.229   3.764
 6725SOL    HW121074   4.923   3.159   3.717
 6725SOL    HW221075   4.928   3.256   3.847
 6726SOL     OW21076   0.606   1.090   6.257
 6726SOL    HW121077   0.656   1.065   6.174
 6726SOL    HW221078   0.564   1.180   6.245
 6727SOL     OW21079   1.277   5.052   5.787
 6727SOL    HW121080   1.182   5.026   5.769
 6727SOL    HW221081   1.289   5.149   5.769
 6728SOL     OW21082   3.784   1.444   3.634
 6728SOL    HW121083   3.818   1.382   3.563
 6728SOL    HW221084   3.735   1.520   3.592
 6729SOL     OW21085   3.949   0.832   2.000
 6729SOL    HW121086   3.908   0.922   1.985
 6729SOL    HW221087   3.889   0.777   2.058
 6730SOL     OW21088   6.948   1.905   0.561
 6730SOL    HW121089   6.868   1.928   0.617
 6730SOL    HW221090   7.007   1.843   0.613
 6731SOL     OW21091   4.428   0.543   6.291
 6731SOL    HW121092   4.502   0.608   6.273
 6731SOL    HW221093   4.422   0.477   6.217
 6732SOL     OW21094   7.023   4.785   5.520
 6732SOL    HW121095   6.997   4.813   5.612
 6732SOL    HW221096   0.079   4.838   5.491
 6733SOL     OW21097   4.816   4.982   5.150
 6733SOL    HW121098   4.871   5.051   5.195
 6733SOL    HW221099   4.829   4.988   5.051
 6734SOL     OW21100   5.819   2.066   4.866
 6734SOL    HW121101   5.892   2.070   4.933
 6734SOL    HW221102   5.806   2.155   4.823
 6735SOL     OW21103   5.959   2.463   3.615
 6735SOL    HW121104   6.035   2.402   3.638
 6735SOL    HW221105   5.880   2.409   3.585
 6736SOL     OW21106   3.672   3.724   0.558
 6736SOL    HW121107   3.704   3.817   0.578
 6736SOL    HW221108   3.606   3.727   0.484
 6737SOL     OW21109   6.137   3.502   0.740
 6737SOL    HW121110   6.183   3.586   0.711
 6737SOL    HW221111   6.097   3.457   0.660
 6738SOL     OW21112   2.397   6.262   4.337
 6738SOL    HW121113   2.455   6.293   4.261
 6738SOL    HW221114   2.302   6.286   4.318
 6739SOL     OW21115   7.020   0.214   5.606
 6739SOL    HW121116   6.975   0.230   5.519
 6739SOL    HW221117   0.042   0.125   5.604
 6740SOL     OW21118   6.990   0.021   2.486
 6740SOL    HW121119   7.008   0.049   2.392
 6740SOL    HW221120   6.909   0.069   2.521
 6741SOL     OW21121   3.519   1.755   0.152
 6741SOL    HW121122   3.429   1.712   0.155
 6741SOL    HW221123   3.515   1.836   0.093
 6742SOL     OW21124   6.143   4.423   3.135
 6742SOL    HW121125   6.072   4.431   3.065
 6742SOL    HW221126   6.197   4.340   3.118
 6743SOL     OW21127   3.900   3.676   6.948
 6743SOL    HW121128   3.964   3.617   6.998
 6743SOL    HW221129   3.807   3.642   6.961
 6744SOL     OW21130   6.388   0.059   5.637
 6744SOL    HW121131   6.441   0.117   5.699
 6744SOL    HW221132   6.346   7.009   5.689
 6745SOL     OW21133   7.007   4.140   5.306
 6745SOL    HW121134   7.014   4.041   5.319
 6745SOL    HW221135   0.001   4.186   5.393
 6746SOL     OW21136   1.218   2.245   2.869
 6746SOL    HW121137   1.309   2.215   2.841
 6746SOL    HW221138   1.153   2.170   2.858
 6747SOL     OW21139   0.666   6.103   5.572
 6747SOL    HW121140   0.648   6.052   5.488
 6747SOL    HW221141   0.709   6.190   5.549
 6748SOL     OW21142   2.015   0.672   5.194
 6748SOL    HW121143   2.058   0.586   5.224
 6748SOL    HW221144   2.024   0.680   5.094
 6749SOL     OW21145   4.319   5.027   2.288
 6749SOL    HW121146   4.352   5.016   2.194
 6749SOL    HW221147   4.305   4.937   2.329
 6750SOL     OW21148   3.449   0.595   5.547
 6750SOL    HW121149   3.429   0.514   5.601
 6750SOL    HW221150   3.489   0.666   5.606
 6751SOL     OW21151   4.488   0.638   4.930
 6751SOL    HW121152   4.522   0.723   4.969
 6751SOL    HW221153   4.513   0.633   4.833
 6752SOL     OW21154   2.135   4.604   2.490
 6752SOL    HW121155   2.154   4.612   2.588
 6752SOL    HW221156   2.172   4.684   2.443
 6753SOL     OW21157   3.838   3.170   6.584
 6753SOL    HW121158   3.884   3.168   6.495
 6753SOL    HW221159   3.850   3.259   6.626
 6754SOL     OW21160   6.177   1.499   0.258
 6754SOL    HW121161   6.125   1.421   0.294
 6754SOL    HW221162   6.232   1.539   0.331
 6755SOL     OW21163   3.084   6.027   5.875
 6755SOL    HW121164   3.111   5.965   5.949
 6755SOL    HW221165   2.988   6.010   5.852
 6756SOL     OW21166   3.852   3.161   6.266
 6756SOL    HW121167   3.929   3.122   6.317
 6756SOL    HW221168   3.860   3.260   6.264
 6757SOL     OW21169   3.957   0.038   1.428
 6757SOL    HW121170   4.030   7.020   1.482
 6757SOL    HW221171   3.900   0.094   1.489
 6758SOL     OW21172   5.066   2.766   3.226
 6758SOL    HW121173   5.110   2.846   3.266
 6758SOL    HW221174   5.086   2.686   3.282
 6759SOL     OW21175   0.997   1.528   2.502
 6759SOL    HW121176   1.010   1.451   2.564
 6759SOL    HW221177   0.901   1.554   2.500
 6760SOL     OW21178   5.137   2.198   4.769
 6760SOL    HW121179   5.169   2.272   4.710
 6760SOL    HW221180   5.134   2.229   4.864
 6761SOL     OW21181   3.832   1.785   5.017
 6761SOL    HW121182   3.792   1.861   4.965
 6761SOL    HW221183   3.865   1.716   4.953
 6762SOL     OW21184   6.577   5.189   4.681
 6762SOL    HW121185   6.499   5.179   4.742
 6762SOL    HW221186   6.569   5.126   4.604
 6763SOL     OW21187   5.680   6.371   4.261
 6763SOL    HW121188   5.675   6.392   4.359
 6763SOL    HW221189   5.765   6.322   4.242
 6764SOL     OW21190   0.817   5.107   1.658
 6764SOL    HW121191   0.764   5.060   1.729
 6764SOL    HW221192   0.798   5.204   1.660
 6765SOL     OW21193   0.288   3.496   2.147
 6765SOL    HW121194   0.245   3.461   2.231
 6765SOL    HW221195   0.352   3.569   2.170
 6766SOL     OW21196   5.729   0.276   1.675
 6766SOL    HW121197   5.716   0.369   1.639
 6766SOL    HW221198   5.644   0.246   1.718
 6767SOL     OW21199   3.411   0.414   1.180
 6767SOL    HW121200   3.314   0.413   1.157
 6767SOL    HW221201   3.454   0.497   1.144
 6768SOL     OW21202   1.992   0.212   6.846
 6768SOL    HW121203   2.059   0.276   6.810
 6768SOL    HW221204   1.978   0.229   6.944
 6769SOL     OW21205   4.567   2.885   1.557
 6769SOL    HW121206   4.661   2.883   1.524
 6769SOL    HW221207   4.564   2.849   1.650
 6770SOL     OW21208   0.243   0.932   1.442
 6770SOL    HW121209   0.150   0.926   1.408
 6770SOL    HW221210   0.249   1.004   1.511
 6771SOL     OW21211   4.710   2.265   2.949
 6771SOL    HW121212   4.729   2.326   3.025
 6771SOL    HW221213   4.782   2.273   2.880
 6772SOL     OW21214   3.731   1.579   4.055
 6772SOL    HW121215   3.736   1.619   3.964
 6772SOL    HW221216   3.788   1.632   4.118
 6773SOL     OW21217   0.681   3.835   1.066
 6773SOL    HW121218   0.669   3.793   1.155
 6773SOL    HW221219   0.606   3.900   1.049
 6774SOL     OW21220   0.921   2.598   6.389
 6774SOL    HW121221   0.902   2.696   6.390
 6774SOL    HW221222   0.857   2.551   6.450
 6775SOL     OW21223   1.767   4.765   0.195
 6775SOL    HW121224   1.818   4.818   0.127
 6775SOL    HW221225   1.828   4.698   0.238
 6776SOL     OW21226   5.845   5.303   6.708
 6776SOL    HW121227   5.851   5.248   6.625
 6776SOL    HW221228   5.769   5.367   6.700
 6777SOL     OW21229   4.828   5.790   6.825
 6777SOL    HW121230   4.784   5.880   6.827
 6777SOL    HW221231   4.924   5.799   6.851
 6778SOL     OW21232   0.095   5.391   3.382
 6778SOL    HW121233   0.112   5.482   3.420
 6778SOL    HW221234   0.178   5.358   3.336
 6779SOL     OW21235   6.807   4.002   6.666
 6779SOL    HW121236   6.784   4.065   6.592
 6779SOL    HW221237   6.837   3.915   6.628
 6780SOL     OW21238   0.807   2.509   2.020
 6780SOL    HW121239   0.846   2.566   1.948
 6780SOL    HW221240   0.710   2.531   2.031
 6781SOL     OW21241   6.018   4.787   5.457
 6781SOL    HW121242   5.993   4.842   5.536
 6781SOL    HW221243   5.955   4.805   5.381
 6782SOL     OW21244   5.851   1.482   2.545
 6782SOL    HW121245   5.790   1.449   2.473
 6782SOL    HW221246   5.801   1.543   2.606
 6783SOL     OW21247   0.486   6.133   6.454
 6783SOL    HW121248   0.412   6.154   6.389
 6783SOL    HW221249   0.572   6.123   6.405
 6784SOL     OW21250   3.853   2.939   0.450
 6784SOL    HW121251   3.772   2.995   0.432
 6784SOL    HW221252   3.833   2.844   0.429
 6785SOL     OW21253   5.913   5.629   1.853
 6785SOL    HW121254   5.856   5.670   1.924
 6785SOL    HW221255   5.878   5.655   1.763
 6786SOL     OW21256   1.656   3.511   6.311
 6786SOL    HW121257   1.670   3.432   6.252
 6786SOL    HW221258   1.707   3.590   6.276
 6787SOL     OW21259   0.877   3.373   1.932
 6787SOL    HW121260   0.899   3.375   2.029
 6787SOL    HW221261   0.795   3.428   1.915
 6788SOL     OW21262   2.883   5.155   0.929
 6788SOL    HW121263   2.788   5.182   0.913
 6788SOL    HW221264   2.939   5.181   0.849
 6789SOL     OW21265   0.446   6.012   3.365
 6789SOL    HW121266   0.373   6.004   3.433
 6789SOL    HW221267   0.516   6.076   3.398
 6790SOL     OW21268   1.209   3.096   0.385
 6790SOL    HW121269   1.263   3.026   0.431
 6790SOL    HW221270   1.192   3.172   0.448
 6791SOL     OW21271   3.423   3.736   6.482
 6791SOL    HW121272   3.523   3.726   6.483
 6791SOL    HW221273   3.399   3.824   6.439
 6792SOL     OW21274   0.430   4.761   0.560
 6792SOL    HW121275   0.417   4.676   0.509
 6792SOL    HW221276   0.380   4.835   0.515
 6793SOL     OW21277   6.003   1.746   1.422
 6793SOL    HW121278   5.926   1.694   1.385
 6793SOL    HW221279   6.079   1.684   1.441
 6794SOL     OW21280   4.363   1.195   4.821
 6794SOL    HW121281   4.320   1.268   4.875
 6794SOL    HW221282   4.455   1.178   4.856
 6795SOL     OW21283   2.828   5.857   0.057
 6795SOL    HW121284   2.886   5.939   0.053
 6795SOL    HW221285   2.872   5.783   0.008
 6796SOL     OW21286   3.981   2.137   2.936
 6796SOL    HW121287   3.925   2.150   3.018
 6796SOL    HW221288   3.922   2.134   2.856
 6797SOL     OW21289   7.016   2.887   1.807
 6797SOL    HW121290   0.009   2.792   1.782
 6797SOL    HW221291   7.009   2.943   1.724
 6798SOL     OW21292   6.203   0.155   1.778
 6798SOL    HW121293   6.187   0.070   1.728
 6798SOL    HW221294   6.144   0.226   1.742
 6799SOL     OW21295   5.469   5.847   1.885
 6799SOL    HW121296   5.463   5.769   1.947
 6799SOL    HW221297   5.439   5.930   1.932
 6800SOL     OW21298   3.268   3.853   0.220
 6800SOL    HW121299   3.304   3.946   0.207
 6800SOL    HW221300   3.168   3.857   0.227
 6801SOL     OW21301   1.407   1.632   3.065
 6801SOL    HW121302   1.431   1.714   3.117
 6801SOL    HW221303   1.391   1.556   3.129
 6802SOL     OW21304   2.348   4.905   2.808
 6802SOL    HW121305   2.356   5.004   2.795
 6802SOL    HW221306   2.410   4.858   2.746
 6803SOL     OW21307   5.113   2.027   0.155
 6803SOL    HW121308   5.118   2.106   0.094
 6803SOL    HW221309   5.194   2.026   0.214
 6804SOL     OW21310   1.369   0.134   4.101
 6804SOL    HW121311   1.361   0.046   4.055
 6804SOL    HW221312   1.281   0.181   4.100
 6805SOL     OW21313   5.348   0.650   4.616
 6805SOL    HW121314   5.327   0.747   4.614
 6805SOL    HW221315   5.370   0.619   4.523
 6806SOL     OW21316   5.186   0.112   5.440
 6806SOL    HW121317   5.104   0.118   5.382
 6806SOL    HW221318   5.210   0.204   5.472
 6807SOL     OW21319   3.646   3.186   0.108
 6807SOL    HW121320   3.697   3.271   0.102
 6807SOL    HW221321   3.565   3.192   0.049
 6808SOL     OW21322   1.857   2.612   4.520
 6808SOL    HW121323   1.892   2.698   4.557
 6808SOL    HW221324   1.768   2.627   4.477
 6809SOL     OW21325   2.470   4.056   6.603
 6809SOL    HW121326   2.434   4.145   6.573
 6809SOL    HW221327   2.463   3.990   6.529
 6810SOL     OW21328   5.328   2.027   2.669
 6810SOL    HW121329   5.273   1.997   2.591
 6810SOL    HW221330   5.355   2.122   2.656
 6811SOL     OW21331   4.993   5.385   1.803
 6811SOL    HW121332   4.901   5.363   1.770
 6811SOL    HW221333   4.986   5.446   1.883
 6812SOL     OW21334   3.689   2.895   2.770
 6812SOL    HW121335   3.600   2.864   2.803
 6812SOL    HW221336   3.703   2.865   2.676
 6813SOL     OW21337   4.710   3.581   1.400
 6813SOL    HW121338   4.705   3.536   1.311
 6813SOL    HW221339   4.787   3.645   1.401
 6814SOL     OW21340   2.244   3.517   0.325
 6814SOL    HW121341   2.146   3.533   0.312
 6814SOL    HW221342   2.257   3.428   0.369
 6815SOL     OW21343   2.556   7.006   1.723
 6815SOL    HW121344   2.469   0.029   1.732
 6815SOL    HW221345   2.614   0.003   1.801
 6816SOL     OW21346   6.299   4.095   1.514
 6816SOL    HW121347   6.282   4.182   1.469
 6816SOL    HW221348   6.344   4.032   1.451
 6817SOL     OW21349   0.323   2.202   5.940
 6817SOL    HW121350   0.402   2.198   6.001
 6817SOL    HW221351   0.241   2.226   5.992
 6818SOL     OW21352   3.151   6.021   2.286
 6818SOL    HW121353   3.179   6.100   2.341
 6818SOL    HW221354   3.130   5.944   2.346
 6819SOL     OW21355   3.078   0.899   3.792
 6819SOL    HW121356   3.174   0.878   3.811
 6819SOL    HW221357   3.055   0.868   3.700
 6820SOL     OW21358   1.537   4.704   3.547
 6820SOL    HW121359   1.531   4.708   3.647
 6820SOL    HW221360   1.589   4.783   3.513
 6821SOL     OW21361   2.517   2.352   4.309
 6821SOL    HW121362   2.545   2.319   4.218
 6821SOL    HW221363   2.591   2.336   4.374
 6822SOL     OW21364   5.045   2.296   5.669
 6822SOL    HW121365   5.065   2.338   5.758
 6822SOL    HW221366   5.099   2.213   5.658
 6823SOL     OW21367   3.151   3.293   2.234
 6823SOL    HW121368   3.220   3.276   2.305
 6823SOL    HW221369   3.108   3.206   2.209
 6824SOL     OW21370   1.169   4.763   6.428
 6824SOL    HW121371   1.171   4.741   6.331
 6824SOL    HW221372   1.125   4.852   6.441
 6825SOL     OW21373   5.152   0.337   4.209
 6825SOL    HW121374   5.246   0.341   4.243
 6825SOL    HW221375   5.153   0.306   4.114
 6826SOL     OW21376   1.071   2.398   2.686
 6826SOL    HW121377   1.127   2.339   2.744
 6826SOL    HW221378   1.101   2.493   2.695
 6827SOL     OW21379   5.741   6.507   5.510
 6827SOL    HW121380   5.678   6.434   5.537
 6827SOL    HW221381   5.834   6.483   5.538
 6828SOL     OW21382   1.822   2.229   1.581
 6828SOL    HW121383   1.917   2.223   1.551
 6828SOL    HW221384   1.819   2.247   1.680
 6829SOL     OW21385   5.092   5.093   3.683
 6829SOL    HW121386   5.104   5.192   3.670
 6829SOL    HW221387   5.023   5.077   3.753
 6830SOL     OW21388   5.475   2.308   3.959
 6830SOL    HW121389   5.444   2.231   4.016
 6830SOL    HW221390   5.414   2.386   3.972
 6831SOL     OW21391   0.460   1.175   5.914
 6831SOL    HW121392   0.383   1.226   5.876
 6831SOL    HW221393   0.497   1.113   5.845
 6832SOL     OW21394   3.056   4.926   2.065
 6832SOL    HW121395   3.029   4.937   2.161
 6832SOL    HW221396   3.155   4.911   2.059
 6833SOL     OW21397   4.248   5.494   0.598
 6833SOL    HW121398   4.214   5.465   0.687
 6833SOL    HW221399   4.341   5.530   0.608
 6834SOL     OW21400   3.829   5.169   2.574
 6834SOL    HW121401   3.825   5.231   2.652
 6834SOL    HW221402   3.827   5.222   2.489
 6835SOL     OW21403   3.924   6.570   4.532
 6835SOL    HW121404   3.910   6.534   4.624
 6835SOL    HW221405   3.930   6.494   4.467
 6836SOL     OW21406   3.117   5.914   6.485
 6836SOL    HW121407   3.205   5.947   6.519
 6836SOL    HW221408   3.097   5.959   6.398
 6837SOL     OW21409   0.587   2.549   2.401
 6837SOL    HW121410   0.663   2.577   2.460
 6837SOL    HW221411   0.556   2.628   2.348
 6838SOL     OW21412   2.955   1.427   0.275
 6838SOL    HW121413   3.041   1.407   0.227
 6838SOL    HW221414   2.917   1.513   0.239
 6839SOL     OW21415   4.429   0.820   1.403
 6839SOL    HW121416   4.387   0.744   1.353
 6839SOL    HW221417   4.371   0.901   1.395
 6840SOL     OW21418   0.996   1.289   6.194
 6840SOL    HW121419   1.023   1.193   6.186
 6840SOL    HW221420   0.937   1.314   6.118
 6841SOL     OW21421   6.787   3.448   6.191
 6841SOL    HW121422   6.780   3.362   6.241
 6841SOL    HW221423   6.830   3.432   6.102
 6842SOL     OW21424   2.259   4.338   3.105
 6842SOL    HW121425   2.339   4.368   3.157
 6842SOL    HW221426   2.245   4.398   3.027
 6843SOL     OW21427   3.919   6.485   0.341
 6843SOL    HW121428   3.966   6.447   0.420
 6843SOL    HW221429   3.856   6.416   0.304
 6844SOL     OW21430   5.259   0.763   5.975
 6844SOL    HW121431   5.297   0.830   5.911
 6844SOL    HW221432   5.284   0.671   5.944
 6845SOL     OW21433   4.696   2.221   2.470
 6845SOL    HW121434   4.665   2.181   2.384
 6845SOL    HW221435   4.720   2.149   2.534
 6846SOL     OW21436   2.555   3.732   0.153
 6846SOL    HW121437   2.506   3.680   0.083
 6846SOL    HW221438   2.624   3.790   0.110
 6847SOL     OW21439   0.141   2.806   4.330
 6847SOL    HW121440   0.161   2.800   4.233
 6847SOL    HW221441   0.181   2.727   4.378
 6848SOL     OW21442   6.862   4.643   3.283
 6848SOL    HW121443   6.899   4.706   3.215
 6848SOL    HW221444   6.937   4.593   3.327
 6849SOL     OW21445   3.054   3.650   5.897
 6849SOL    HW121446   3.100   3.622   5.982
 6849SOL    HW221447   3.116   3.708   5.844
 6850SOL     OW21448   4.312   0.731   4.320
 6850SOL    HW121449   4.407   0.724   4.287
 6850SOL    HW221450   4.255   0.767   4.247
 6851SOL     OW21451   2.109   3.356   3.695
 6851SOL    HW121452   2.062   3.364   3.607
 6851SOL    HW221453   2.128   3.448   3.731
 6852SOL     OW21454   3.547   4.416   0.037
 6852SOL    HW121455   3.608   4.338   0.033
 6852SOL    HW221456   3.559   4.464   0.124
 6853SOL     OW21457   4.960   4.022   6.335
 6853SOL    HW121458   4.862   4.039   6.348
 6853SOL    HW221459   4.978   4.003   6.239
 6854SOL     OW21460   5.607   6.225   6.217
 6854SOL    HW121461   5.549   6.162   6.165
 6854SOL    HW221462   5.568   6.238   6.308
 6855SOL     OW21463   4.158   5.192   3.392
 6855SOL    HW121464   4.241   5.248   3.397
 6855SOL    HW221465   4.166   5.115   3.455
 6856SOL     OW21466   0.391   2.214   6.583
 6856SOL    HW121467   0.354   2.294   6.537
 6856SOL    HW221468   0.437   2.242   6.667
 6857SOL     OW21469   0.769   3.869   5.640
 6857SOL    HW121470   0.765   3.851   5.542
 6857SOL    HW221471   0.776   3.782   5.689
 6858SOL     OW21472   1.772   3.909   2.261
 6858SOL    HW121473   1.801   3.814   2.266
 6858SOL    HW221474   1.681   3.918   2.301
 6859SOL     OW21475   1.657   1.701   2.309
 6859SOL    HW121476   1.578   1.757   2.285
 6859SOL    HW221477   1.718   1.752   2.370
 6860SOL     OW21478   0.374   6.819   1.101
 6860SOL    HW121479   0.305   6.881   1.139
 6860SOL    HW221480   0.351   6.796   1.006
 6861SOL     OW21481   6.537   3.002   6.403
 6861SOL    HW121482   6.487   2.917   6.422
 6861SOL    HW221483   6.515   3.069   6.474
 6862SOL     OW21484   0.802   4.088   4.187
 6862SOL    HW121485   0.848   4.176   4.185
 6862SOL    HW221486   0.799   4.054   4.282
 6863SOL     OW21487   5.738   1.342   5.464
 6863SOL    HW121488   5.781   1.353   5.374
 6863SOL    HW221489   5.639   1.332   5.452
 6864SOL     OW21490   1.034   3.804   6.041
 6864SOL    HW121491   1.088   3.720   6.044
 6864SOL    HW221492   0.971   3.805   6.118
 6865SOL     OW21493   2.815   0.321   3.812
 6865SOL    HW121494   2.910   0.332   3.842
 6865SOL    HW221495   2.771   0.411   3.809
 6866SOL     OW21496   1.144   4.813   0.392
 6866SOL    HW121497   1.105   4.902   0.416
 6866SOL    HW221498   1.229   4.799   0.442
 6867SOL     OW21499   1.778   3.767   6.288
 6867SOL    HW121500   1.754   3.753   6.384
 6867SOL    HW221501   1.878   3.765   6.278
 6868SOL     OW21502   3.035   5.091   3.696
 6868SOL    HW121503   3.070   5.139   3.615
 6868SOL    HW221504   3.013   5.157   3.768
 6869SOL     OW21505   3.197   0.919   6.048
 6869SOL    HW121506   3.188   0.904   6.146
 6869SOL    HW221507   3.173   1.013   6.026
 6870SOL     OW21508   5.968   2.095   0.346
 6870SOL    HW121509   5.962   2.115   0.444
 6870SOL    HW221510   6.021   2.167   0.301
 6871SOL     OW21511   6.840   3.511   2.433
 6871SOL    HW121512   6.785   3.573   2.377
 6871SOL    HW221513   6.807   3.417   2.421
 6872SOL     OW21514   1.821   4.456   1.154
 6872SOL    HW121515   1.798   4.390   1.226
 6872SOL    HW221516   1.915   4.441   1.123
 6873SOL     OW21517   0.780   4.353   3.058
 6873SOL    HW121518   0.744   4.348   2.965
 6873SOL    HW221519   0.742   4.278   3.112
 6874SOL     OW21520   5.234   6.411   3.165
 6874SOL    HW121521   5.263   6.387   3.073
 6874SOL    HW221522   5.148   6.463   3.161
 6875SOL     OW21523   2.545   1.069   0.494
 6875SOL    HW121524   2.587   1.148   0.447
 6875SOL    HW221525   2.596   1.049   0.578
 6876SOL     OW21526   5.165   5.342   3.587
 6876SOL    HW121527   5.246   5.293   3.557
 6876SOL    HW221528   5.095   5.337   3.516
 6877SOL     OW21529   0.691   3.368   1.636
 6877SOL    HW121530   0.673   3.287   1.691
 6877SOL    HW221531   0.784   3.363   1.599
 6878SOL     OW21532   1.860   0.372   4.841
 6878SOL    HW121533   1.951   0.355   4.878
 6878SOL    HW221534   1.797   0.304   4.876
 6879SOL     OW21535   1.390   1.069   1.261
 6879SOL    HW121536   1.370   1.102   1.169
 6879SOL    HW221537   1.418   0.973   1.257
 6880SOL     OW21538   1.439   5.638   0.464
 6880SOL    HW121539   1.407   5.732   0.470
 6880SOL    HW221540   1.365   5.576   0.494
 6881SOL     OW21541   0.251   2.673   0.167
 6881SOL    HW121542   0.324   2.681   0.099
 6881SOL    HW221543   0.168   2.640   0.123
 6882SOL     OW21544   2.453   6.344   6.850
 6882SOL    HW121545   2.354   6.349   6.832
 6882SOL    HW221546   2.470   6.270   6.916
 6883SOL     OW21547   4.855   0.384   1.355
 6883SOL    HW121548   4.942   0.433   1.359
 6883SOL    HW221549   4.782   0.445   1.387
 6884SOL     OW21550   1.768   4.206   3.252
 6884SOL    HW121551   1.823   4.173   3.328
 6884SOL    HW221552   1.816   4.189   3.166
 6885SOL     OW21553   6.139   4.963   4.642
 6885SOL    HW121554   6.063   4.935   4.583
 6885SOL    HW221555   6.224   4.923   4.608
 6886SOL     OW21556   4.980   2.557   0.501
 6886SOL    HW121557   4.989   2.634   0.439
 6886SOL    HW221558   4.885   2.524   0.499
 6887SOL     OW21559   5.726   6.014   5.661
 6887SOL    HW121560   5.662   5.939   5.649
 6887SOL    HW221561   5.676   6.095   5.693
 6888SOL     OW21562   6.432   4.262   6.586
 6888SOL    HW121563   6.389   4.240   6.498
 6888SOL    HW221564   6.472   4.179   6.625
 6889SOL     OW21565   0.029   2.051   6.074
 6889SOL    HW121566   6.965   2.056   6.119
 6889SOL    HW221567   0.091   2.117   6.116
 6890SOL     OW21568   4.650   4.303   3.630
 6890SOL    HW121569   4.619   4.293   3.535
 6890SOL    HW221570   4.578   4.344   3.685
 6891SOL     OW21571   1.672   1.213   1.233
 6891SOL    HW121572   1.670   1.270   1.150
 6891SOL    HW221573   1.610   1.136   1.222
 6892SOL     OW21574   3.523   1.338   4.759
 6892SOL    HW121575   3.543   1.421   4.706
 6892SOL    HW221576   3.446   1.290   4.717
 6893SOL     OW21577   6.015   3.418   0.506
 6893SOL    HW121578   5.934   3.359   0.502
 6893SOL    HW221579   6.023   3.470   0.420
 6894SOL     OW21580   6.278   5.063   0.407
 6894SOL    HW121581   6.211   4.998   0.444
 6894SOL    HW221582   6.335   5.016   0.340
 6895SOL     OW21583   0.847   6.462   2.544
 6895SOL    HW121584   0.812   6.373   2.570
 6895SOL    HW221585   0.810   6.488   2.455
 6896SOL     OW21586   4.978   1.074   5.047
 6896SOL    HW121587   4.911   1.014   5.090
 6896SOL    HW221588   5.067   1.027   5.044
 6897SOL     OW21589   4.587   2.651   5.120
 6897SOL    HW121590   4.560   2.722   5.055
 6897SOL    HW221591   4.525   2.573   5.111
 6898SOL     OW21592   1.427   6.535   1.294
 6898SOL    HW121593   1.380   6.468   1.236
 6898SOL    HW221594   1.493   6.487   1.353
 6899SOL     OW21595   6.211   5.942   2.367
 6899SOL    HW121596   6.233   5.942   2.270
 6899SOL    HW221597   6.284   5.991   2.417
 6900SOL     OW21598   6.544   3.779   4.985
 6900SOL    HW121599   6.478   3.853   4.970
 6900SOL    HW221600   6.525   3.705   4.920
 6901SOL     OW21601   5.595   5.001   6.462
 6901SOL    HW121602   5.574   4.929   6.529
 6901SOL    HW221603   5.675   5.052   6.492
 6902SOL     OW21604   0.120   5.761   6.067
 6902SOL    HW121605   0.054   5.748   6.141
 6902SOL    HW221606   0.197   5.699   6.080
 6903SOL     OW21607   1.248   6.001   4.466
 6903SOL    HW121608   1.155   6.016   4.499
 6903SOL    HW221609   1.308   5.977   4.543
 6904SOL     OW21610   0.175   0.426   5.952
 6904SOL    HW121611   0.242   0.500   5.940
 6904SOL    HW221612   0.084   0.464   5.964
 6905SOL     OW21613   5.009   6.240   5.916
 6905SOL    HW121614   4.961   6.198   5.992
 6905SOL    HW221615   4.943   6.284   5.855
 6906SOL     OW21616   3.328   0.819   3.849
 6906SOL    HW121617   3.375   0.731   3.840
 6906SOL    HW221618   3.338   0.852   3.943
 6907SOL     OW21619   5.947   1.864   0.821
 6907SOL    HW121620   5.856   1.822   0.821
 6907SOL    HW221621   5.998   1.831   0.741
 6908SOL     OW21622   2.973   5.353   0.558
 6908SOL    HW121623   3.004   5.446   0.537
 6908SOL    HW221624   2.884   5.337   0.515
 6909SOL     OW21625   5.776   4.956   2.177
 6909SOL    HW121626   5.849   4.947   2.244
 6909SOL    HW221627   5.691   4.981   2.224
 6910SOL     OW21628   1.209   2.172   2.449
 6910SOL    HW121629   1.121   2.218   2.443
 6910SOL    HW221630   1.235   2.140   2.358
 6911SOL     OW21631   2.122   6.350   5.843
 6911SOL    HW121632   2.173   6.264   5.849
 6911SOL    HW221633   2.024   6.330   5.853
 6912SOL     OW21634   2.685   3.902   6.969
 6912SOL    HW121635   2.601   3.955   6.959
 6912SOL    HW221636   2.762   3.955   6.932
 6913SOL     OW21637   4.464   6.130   5.737
 6913SOL    HW121638   4.371   6.159   5.717
 6913SOL    HW221639   4.474   6.114   5.835
 6914SOL     OW21640   5.890   2.606   1.869
 6914SOL    HW121641   5.917   2.573   1.959
 6914SOL    HW221642   5.825   2.542   1.828
 6915SOL     OW21643   6.744   3.413   3.668
 6915SOL    HW121644   6.835   3.417   3.710
 6915SOL    HW221645   6.736   3.484   3.598
 6916SOL     OW21646   4.718   6.273   6.320
 6916SOL    HW121647   4.677   6.249   6.232
 6916SOL    HW221648   4.646   6.300   6.384
 6917SOL     OW21649   3.854   6.737   1.890
 6917SOL    HW121650   3.837   6.651   1.841
 6917SOL    HW221651   3.850   6.720   1.988
 6918SOL     OW21652   2.272   3.885   0.640
 6918SOL    HW121653   2.245   3.806   0.696
 6918SOL    HW221654   2.238   3.968   0.683
 6919SOL     OW21655   5.870   6.030   3.727
 6919SOL    HW121656   5.865   5.985   3.638
 6919SOL    HW221657   5.807   6.107   3.729
 6920SOL     OW21658   6.134   1.520   6.033
 6920SOL    HW121659   6.085   1.606   6.016
 6920SOL    HW221660   6.084   1.466   6.101
 6921SOL     OW21661   4.604   0.384   4.454
 6921SOL    HW121662   4.596   0.448   4.530
 6921SOL    HW221663   4.665   0.423   4.384
 6922SOL     OW21664   1.760   5.229   6.532
 6922SOL    HW121665   1.842   5.287   6.527
 6922SOL    HW221666   1.689   5.267   6.473
 6923SOL     OW21667   5.428   0.114   2.214
 6923SOL    HW121668   5.381   0.189   2.167
 6923SOL    HW221669   5.514   0.147   2.252
 6924SOL     OW21670   3.306   5.740   1.840
 6924SOL    HW121671   3.301   5.839   1.824
 6924SOL    HW221672   3.276   5.692   1.757
 6925SOL     OW21673   5.726   6.582   5.213
 6925SOL    HW121674   5.636   6.614   5.183
 6925SOL    HW221675   5.721   6.547   5.306
 6926SOL     OW21676   3.097   2.394   0.242
 6926SOL    HW121677   3.089   2.309   0.293
 6926SOL    HW221678   3.177   2.391   0.183
 6927SOL     OW21679   4.290   0.213   0.491
 6927SOL    HW121680   4.239   0.154   0.429
 6927SOL    HW221681   4.328   0.158   0.566
 6928SOL     OW21682   3.777   5.366   6.629
 6928SOL    HW121683   3.768   5.291   6.694
 6928SOL    HW221684   3.832   5.439   6.669
 6929SOL     OW21685   4.852   5.141   2.533
 6929SOL    HW121686   4.828   5.068   2.598
 6929SOL    HW221687   4.770   5.169   2.483
 6930SOL     OW21688   0.517   6.816   1.815
 6930SOL    HW121689   0.552   6.823   1.722
 6930SOL    HW221690   0.547   6.729   1.855
 6931SOL     OW21691   3.025   3.284   0.986
 6931SOL    HW121692   2.985   3.375   0.994
 6931SOL    HW221693   2.953   3.216   0.976
 6932SOL     OW21694   3.819   6.971   6.506
 6932SOL    HW121695   3.843   6.931   6.418
 6932SOL    HW221696   3.784   0.039   6.493
 6933SOL     OW21697   3.352   5.655   6.367
 6933SOL    HW121698   3.403   5.635   6.450
 6933SOL    HW221699   3.256   5.668   6.389
 6934SOL     OW21700   4.917   5.106   6.878
 6934SOL    HW121701   4.856   5.069   6.808
 6934SOL    HW221702   4.866   5.172   6.933
 6935SOL     OW21703   3.870   6.172   1.852
 6935SOL    HW121704   3.950   6.111   1.848
 6935SOL    HW221705   3.826   6.163   1.941
 6936SOL     OW21706   0.610   1.974   5.770
 6936SOL    HW121707   0.606   2.051   5.707
 6936SOL    HW221708   0.680   1.909   5.739
 6937SOL     OW21709   5.777   5.192   0.162
 6937SOL    HW121710   5.818   5.283   0.168
 6937SOL    HW221711   5.848   5.122   0.174
 6938SOL     OW21712   2.858   1.269   4.953
 6938SOL    HW121713   2.944   1.231   4.918
 6938SOL    HW221714   2.811   1.201   5.008
 6939SOL     OW21715   5.829   3.350   3.606
 6939SOL    HW121716   5.769   3.386   3.678
 6939SOL    HW221717   5.817   3.405   3.523
 6940SOL     OW21718   2.475   6.205   0.801
 6940SOL    HW121719   2.469   6.255   0.887
 6940SOL    HW221720   2.446   6.265   0.726
 6941SOL     OW21721   3.127   3.657   2.475
 6941SOL    HW121722   3.088   3.748   2.463
 6941SOL    HW221723   3.101   3.620   2.564
 6942SOL     OW21724   6.193   5.497   2.357
 6942SOL    HW121725   6.184   5.463   2.451
 6942SOL    HW221726   6.159   5.428   2.293
 6943SOL     OW21727   4.559   4.762   6.474
 6943SOL    HW121728   4.560   4.847   6.527
 6943SOL    HW221729   4.467   4.725   6.471
 6944SOL     OW21730   1.291   4.453   5.345
 6944SOL    HW121731   1.194   4.439   5.322
 6944SOL    HW221732   1.348   4.423   5.268
 6945SOL     OW21733   5.869   1.342   1.289
 6945SOL    HW121734   5.865   1.299   1.379
 6945SOL    HW221735   5.897   1.274   1.221
 6946SOL     OW21736   5.369   6.477   2.895
 6946SOL    HW121737   5.390   6.540   2.970
 6946SOL    HW221738   5.274   6.490   2.866
 6947SOL     OW21739   6.314   3.880   5.275
 6947SOL    HW121740   6.236   3.939   5.296
 6947SOL    HW221741   6.396   3.935   5.264
 6948SOL     OW21742   6.911   4.315   6.854
 6948SOL    HW121743   6.819   4.289   6.824
 6948SOL    HW221744   6.939   4.399   6.809
 6949SOL     OW21745   2.421   1.458   3.060
 6949SOL    HW121746   2.350   1.520   3.025
 6949SOL    HW221747   2.506   1.510   3.073
 6950SOL     OW21748   0.895   1.247   4.410
 6950SOL    HW121749   0.908   1.203   4.499
 6950SOL    HW221750   0.828   1.195   4.357
 6951SOL     OW21751   0.831   4.228   6.776
 6951SOL    HW121752   0.853   4.182   6.862
 6951SOL    HW221753   0.823   4.161   6.703
 6952SOL     OW21754   5.375   5.595   4.155
 6952SOL    HW121755   5.397   5.502   4.185
 6952SOL    HW221756   5.352   5.651   4.234
 6953SOL     OW21757   6.290   1.577   1.171
 6953SOL    HW121758   6.221   1.618   1.112
 6953SOL    HW221759   6.359   1.646   1.194
 6954SOL     OW21760   6.992   4.588   6.746
 6954SOL    HW121761   6.958   4.679   6.722
 6954SOL    HW221762   0.041   4.598   6.813
 6955SOL     OW21763   4.692   6.002   2.851
 6955SOL    HW121764   4.775   5.950   2.875
 6955SOL    HW221765   4.640   6.022   2.934
 6956SOL     OW21766   5.336   5.088   2.449
 6956SOL    HW121767   5.367   5.120   2.539
 6956SOL    HW221768   5.254   5.139   2.423
 6957SOL     OW21769   6.511   5.326   5.118
 6957SOL    HW121770   6.433   5.266   5.098
 6957SOL    HW221771   6.574   5.279   5.180
 6958SOL     OW21772   3.800   3.425   2.522
 6958SOL    HW121773   3.882   3.385   2.481
 6958SOL    HW221774   3.794   3.397   2.618
 6959SOL     OW21775   1.535   3.672   2.849
 6959SOL    HW121776   1.609   3.730   2.814
 6959SOL    HW221777   1.448   3.701   2.809
 6960SOL     OW21778   3.827   4.533   6.855
 6960SOL    HW121779   3.918   4.501   6.881
 6960SOL    HW221780   3.835   4.595   6.777
 6961SOL     OW21781   4.529   2.684   5.410
 6961SOL    HW121782   4.546   2.716   5.317
 6961SOL    HW221783   4.518   2.585   5.411
 6962SOL     OW21784   2.504   6.165   0.069
 6962SOL    HW121785   2.577   6.201   0.127
 6962SOL    HW221786   2.541   6.095   0.008
 6963SOL     OW21787   6.423   5.941   0.181
 6963SOL    HW121788   6.405   5.985   0.093
 6963SOL    HW221789   6.340   5.944   0.237
 6964SOL     OW21790   2.341   1.182   5.589
 6964SOL    HW121791   2.329   1.083   5.583
 6964SOL    HW221792   2.278   1.227   5.525
 6965SOL     OW21793   1.338   1.027   6.655
 6965SOL    HW121794   1.241   1.033   6.677
 6965SOL    HW221795   1.379   1.118   6.660
 6966SOL     OW21796   0.980   6.654   1.243
 6966SOL    HW121797   1.055   6.606   1.288
 6966SOL    HW221798   0.990   6.648   1.144
 6967SOL     OW21799   4.052   1.449   6.901
 6967SOL    HW121800   3.985   1.431   6.829
 6967SOL    HW221801   4.111   1.525   6.872
 6968SOL     OW21802   4.025   0.214   2.696
 6968SOL    HW121803   4.024   0.239   2.793
 6968SOL    HW221804   3.935   0.182   2.669
 6969SOL     OW21805   2.189   2.485   2.066
 6969SOL    HW121806   2.279   2.508   2.028
 6969SOL    HW221807   2.117   2.529   2.013
 6970SOL     OW21808   3.773   5.225   5.339
 6970SOL    HW121809   3.717   5.298   5.299
 6970SOL    HW221810   3.715   5.165   5.395
 6971SOL     OW21811   6.185   4.198   0.306
 6971SOL    HW121812   6.158   4.136   0.232
 6971SOL    HW221813   6.149   4.164   0.393
 6972SOL     OW21814   5.508   3.994   1.420
 6972SOL    HW121815   5.413   3.967   1.439
 6972SOL    HW221816   5.511   4.092   1.402
 6973SOL     OW21817   1.676   1.796   2.800
 6973SOL    HW121818   1.669   1.886   2.843
 6973SOL    HW221819   1.715   1.731   2.865
 6974SOL     OW21820   4.000   3.857   3.271
 6974SOL    HW121821   4.071   3.858   3.342
 6974SOL    HW221822   3.989   3.764   3.237
 6975SOL     OW21823   3.077   5.751   4.327
 6975SOL    HW121824   3.084   5.831   4.267
 6975SOL    HW221825   3.104   5.777   4.420
 6976SOL     OW21826   4.536   4.632   5.866
 6976SOL    HW121827   4.598   4.710   5.872
 6976SOL    HW221828   4.579   4.559   5.814
 6977SOL     OW21829   4.724   4.889   2.313
 6977SOL    HW121830   4.694   4.841   2.231
 6977SOL    HW221831   4.818   4.863   2.335
 6978SOL     OW21832   0.149   3.583   0.625
 6978SOL    HW121833   0.196   3.499   0.651
 6978SOL    HW221834   0.086   3.610   0.698
 6979SOL     OW21835   0.861   3.370   2.817
 6979SOL    HW121836   0.941   3.309   2.821
 6979SOL    HW221837   0.831   3.391   2.910
 6980SOL     OW21838   2.148   5.330   3.227
 6980SOL    HW121839   2.129   5.253   3.288
 6980SOL    HW221840   2.089   5.325   3.147
 6981SOL     OW21841   4.448   2.725   6.961
 6981SOL    HW121842   4.465   2.667   0.016
 6981SOL    HW221843   4.534   2.766   6.931
 6982SOL     OW21844   0.590   1.027   2.073
 6982SOL    HW121845   0.615   1.107   2.127
 6982SOL    HW221846   0.624   1.037   1.980
 6983SOL     OW21847   6.314   0.651   4.544
 6983SOL    HW121848   6.233   0.677   4.597
 6983SOL    HW221849   6.390   0.632   4.605
 6984SOL     OW21850   1.620   2.960   3.335
 6984SOL    HW121851   1.546   3.025   3.355
 6984SOL    HW221852   1.693   3.008   3.286
 6985SOL     OW21853   5.362   3.328   6.256
 6985SOL    HW121854   5.384   3.269   6.178
 6985SOL    HW221855   5.265   3.350   6.254
 6986SOL     OW21856   4.681   4.672   5.239
 6986SOL    HW121857   4.759   4.647   5.298
 6986SOL    HW221858   4.651   4.592   5.188
 6987SOL     OW21859   0.140   1.134   6.829
 6987SOL    HW121860   0.163   1.225   6.794
 6987SOL    HW221861   0.223   1.090   6.863
 6988SOL     OW21862   2.537   1.713   6.470
 6988SOL    HW121863   2.616   1.747   6.419
 6988SOL    HW221864   2.481   1.657   6.410
 6989SOL     OW21865   0.857   3.466   2.552
 6989SOL    HW121866   0.840   3.564   2.562
 6989SOL    HW221867   0.843   3.420   2.639
 6990SOL     OW21868   4.023   3.917   6.997
 6990SOL    HW121869   3.954   3.847   6.980
 6990SOL    HW221870   4.106   3.875   0.007
 6991SOL     OW21871   5.671   3.351   2.567
 6991SOL    HW121872   5.700   3.268   2.520
 6991SOL    HW221873   5.598   3.395   2.516
 6992SOL     OW21874   0.628   5.298   0.394
 6992SOL    HW121875   0.553   5.233   0.408
 6992SOL    HW221876   0.710   5.264   0.440
 6993SOL     OW21877   3.637   2.292   1.418
 6993SOL    HW121878   3.666   2.276   1.512
 6993SOL    HW221879   3.557   2.235   1.397
 6994SOL     OW21880   2.875   1.320   2.906
 6994SOL    HW121881   2.937   1.279   2.973
 6994SOL    HW221882   2.921   1.326   2.817
 6995SOL     OW21883   0.161   4.125   1.030
 6995SOL    HW121884   0.110   4.102   1.112
 6995SOL    HW221885   0.159   4.224   1.016
 6996SOL     OW21886   1.098   1.114   6.747
 6996SOL    HW121887   1.023   1.077   6.800
 6996SOL    HW221888   1.063   1.155   6.663
 6997SOL     OW21889   6.559   6.198   6.010
 6997SOL    HW121890   6.506   6.280   6.029
 6997SOL    HW221891   6.656   6.221   6.004
 6998SOL     OW21892   6.975   0.540   0.315
 6998SOL    HW121893   6.970   0.608   0.389
 6998SOL    HW221894   6.966   0.449   0.354
 6999SOL     OW21895   0.010   2.844   6.846
 6999SOL    HW121896   0.019   2.932   6.893
 6999SOL    HW221897   6.956   2.795   6.883
 7000SOL     OW21898   0.035   5.298   3.668
 7000SOL    HW121899   0.016   5.331   3.575
 7000SOL    HW221900   0.134   5.299   3.683
 7001SOL     OW21901   6.643   1.715   4.815
 7001SOL    HW121902   6.548   1.688   4.831
 7001SOL    HW221903   6.648   1.771   4.733
 7002SOL     OW21904   1.208   5.427   2.683
 7002SOL    HW121905   1.172   5.368   2.610
 7002SOL    HW221906   1.307   5.436   2.673
 7003SOL     OW21907   0.477   4.354   0.510
 7003SOL    HW121908   0.388   4.328   0.546
 7003SOL    HW221909   0.497   4.299   0.428
 7004SOL     OW21910   1.797   0.185   0.333
 7004SOL    HW121911   1.755   0.098   0.358
 7004SOL    HW221912   1.815   0.239   0.415
 7005SOL     OW21913   1.219   5.641   0.265
 7005SOL    HW121914   1.152   5.681   0.328
 7005SOL    HW221915   1.273   5.573   0.314
 7006SOL     OW21916   0.623   0.101   3.793
 7006SOL    HW121917   0.668   0.073   3.878
 7006SOL    HW221918   0.626   0.200   3.784
 7007SOL     OW21919   2.219   0.305   5.935
 7007SOL    HW121920   2.133   0.276   5.976
 7007SOL    HW221921   2.247   0.392   5.977
 7008SOL     OW21922   5.787   3.509   3.389
 7008SOL    HW121923   5.768   3.509   3.291
 7008SOL    HW221924   5.759   3.597   3.429
 7009SOL     OW21925   5.037   6.186   2.684
 7009SOL    HW121926   5.014   6.256   2.617
 7009SOL    HW221927   5.113   6.131   2.650
 7010SOL     OW21928   4.865   3.435   2.687
 7010SOL    HW121929   4.871   3.489   2.771
 7010SOL    HW221930   4.901   3.343   2.704
 7011SOL     OW21931   2.881   6.515   6.050
 7011SOL    HW121932   2.785   6.485   6.055
 7011SOL    HW221933   2.884   6.610   6.019
 7012SOL     OW21934   6.767   2.795   0.456
 7012SOL    HW121935   6.772   2.877   0.398
 7012SOL    HW221936   6.771   2.822   0.552
 7013SOL     OW21937   3.372   2.957   0.691
 7013SOL    HW121938   3.362   2.860   0.711
 7013SOL    HW221939   3.320   3.011   0.757
 7014SOL     OW21940   5.138   3.210   0.593
 7014SOL    HW121941   5.125   3.185   0.689
 7014SOL    HW221942   5.197   3.143   0.549
 7015SOL     OW21943   5.813   6.143   1.687
 7015SOL    HW121944   5.733   6.183   1.641
 7015SOL    HW221945   5.800   6.044   1.695
 7016SOL     OW21946   3.606   4.853   0.653
 7016SOL    HW121947   3.537   4.859   0.582
 7016SOL    HW221948   3.573   4.898   0.736
 7017SOL     OW21949   6.020   4.516   5.681
 7017SOL    HW121950   5.951   4.589   5.675
 7017SOL    HW221951   6.033   4.476   5.591
 7018SOL     OW21952   5.085   3.695   5.019
 7018SOL    HW121953   4.990   3.676   4.995
 7018SOL    HW221954   5.139   3.705   4.936
 7019SOL     OW21955   4.047   5.202   2.262
 7019SOL    HW121956   4.024   5.277   2.324
 7019SOL    HW221957   4.134   5.221   2.217
 7020SOL     OW21958   0.857   2.369   6.179
 7020SOL    HW121959   0.872   2.425   6.260
 7020SOL    HW221960   0.925   2.391   6.110
 7021SOL     OW21961   0.764   1.856   4.929
 7021SOL    HW121962   0.777   1.936   4.870
 7021SOL    HW221963   0.685   1.804   4.899
 7022SOL     OW21964   2.848   3.174   0.723
 7022SOL    HW121965   2.814   3.101   0.665
 7022SOL    HW221966   2.940   3.200   0.693
 7023SOL     OW21967   0.783   1.755   0.989
 7023SOL    HW121968   0.703   1.814   0.999
 7023SOL    HW221969   0.838   1.786   0.911
 7024SOL     OW21970   3.135   3.938   4.828
 7024SOL    HW121971   3.142   3.840   4.843
 7024SOL    HW221972   3.092   3.956   4.740
 7025SOL     OW21973   3.084   0.728   1.124
 7025SOL    HW121974   3.057   0.793   1.053
 7025SOL    HW221975   3.083   0.773   1.213
 7026SOL     OW21976   3.052   2.534   0.865
 7026SOL    HW121977   3.074   2.485   0.780
 7026SOL    HW221978   3.116   2.506   0.937
 7027SOL     OW21979   3.311   4.846   1.922
 7027SOL    HW121980   3.385   4.788   1.888
 7027SOL    HW221981   3.268   4.893   1.845
 7028SOL     OW21982   3.124   7.022   3.321
 7028SOL    HW121983   3.163   6.961   3.251
 7028SOL    HW221984   3.141   6.984   3.412
 7029SOL     OW21985   3.349   3.668   3.494
 7029SOL    HW121986   3.340   3.620   3.407
 7029SOL    HW221987   3.443   3.662   3.527
 7030SOL     OW21988   6.484   0.180   4.655
 7030SOL    HW121989   6.571   0.208   4.695
 7030SOL    HW221990   6.478   0.080   4.656
 7031SOL     OW21991   4.975   6.067   0.453
 7031SOL    HW121992   4.912   6.113   0.516
 7031SOL    HW221993   4.976   6.116   0.365
 7032SOL     OW21994   4.730   4.850   3.930
 7032SOL    HW121995   4.725   4.831   4.029
 7032SOL    HW221996   4.638   4.845   3.891
 7033SOL     OW21997   1.508   1.593   5.370
 7033SOL    HW121998   1.497   1.641   5.457
 7033SOL    HW221999   1.586   1.531   5.375
 7034SOL     OW22000   6.109   0.704   2.118
 7034SOL    HW122001   6.205   0.704   2.147
 7034SOL    HW222002   6.053   0.657   2.187
 7035SOL     OW22003   2.824   1.138   1.496
 7035SOL    HW122004   2.818   1.057   1.556
 7035SOL    HW222005   2.873   1.113   1.412
 7036SOL     OW22006   6.617   1.561   1.503
 7036SOL    HW122007   6.601   1.523   1.594
 7036SOL    HW222008   6.601   1.660   1.505
 7037SOL     OW22009   1.400   0.580   5.982
 7037SOL    HW122010   1.417   0.495   6.032
 7037SOL    HW222011   1.474   0.644   6.000
 7038SOL     OW22012   1.560   3.917   0.140
 7038SOL    HW122013   1.488   3.986   0.129
 7038SOL    HW222014   1.551   3.873   0.229
 7039SOL     OW22015   0.176   6.556   1.926
 7039SOL    HW122016   0.203   6.486   1.860
 7039SOL    HW222017   0.155   6.641   1.878
 7040SOL     OW22018   5.554   2.311   4.655
 7040SOL    HW122019   5.580   2.333   4.749
 7040SOL    HW222020   5.483   2.375   4.625
 7041SOL     OW22021   1.091   0.232   4.258
 7041SOL    HW122022   1.108   0.165   4.330
 7041SOL    HW222023   1.062   0.184   4.175
 7042SOL     OW22024   5.712   6.056   5.386
 7042SOL    HW122025   5.667   5.969   5.364
 7042SOL    HW222026   5.748   6.053   5.479
 7043SOL     OW22027   1.579   6.076   0.983
 7043SOL    HW122028   1.672   6.043   0.999
 7043SOL    HW222029   1.578   6.176   0.985
 7044SOL     OW22030   5.265   6.149   5.004
 7044SOL    HW122031   5.338   6.106   4.952
 7044SOL    HW222032   5.204   6.199   4.943
 7045SOL     OW22033   6.059   5.904   1.810
 7045SOL    HW122034   6.094   5.811   1.798
 7045SOL    HW222035   6.081   5.959   1.730
 7046SOL     OW22036   2.142   1.345   4.125
 7046SOL    HW122037   2.163   1.418   4.060
 7046SOL    HW222038   2.222   1.286   4.136
 7047SOL     OW22039   1.245   6.477   0.580
 7047SOL    HW122040   1.204   6.395   0.619
 7047SOL    HW222041   1.183   6.554   0.592
 7048SOL     OW22042   0.794   6.300   3.395
 7048SOL    HW122043   0.737   6.366   3.444
 7048SOL    HW222044   0.797   6.324   3.298
 7049SOL     OW22045   3.849   1.325   4.067
 7049SOL    HW122046   3.893   1.308   4.155
 7049SOL    HW222047   3.799   1.412   4.071
 7050SOL     OW22048   3.908   4.310   0.404
 7050SOL    HW122049   3.844   4.385   0.420
 7050SOL    HW222050   3.889   4.236   0.468
 7051SOL     OW22051   1.109   2.064   1.469
 7051SOL    HW122052   1.154   1.980   1.498
 7051SOL    HW222053   1.119   2.075   1.370
 7052SOL     OW22054   4.442   1.928   2.696
 7052SOL    HW122055   4.355   1.968   2.668
 7052SOL    HW222056   4.489   1.992   2.757
 7053SOL     OW22057   1.409   3.573   3.362
 7053SOL    HW122058   1.466   3.649   3.330
 7053SOL    HW222059   1.452   3.531   3.441
 7054SOL     OW22060   5.242   0.320   0.021
 7054SOL    HW122061   5.259   0.250   0.090
 7054SOL    HW222062   5.300   0.302   6.966
 7055SOL     OW22063   2.255   0.517   0.462
 7055SOL    HW122064   2.293   0.544   0.374
 7055SOL    HW222065   2.262   0.592   0.527
 7056SOL     OW22066   0.055   4.894   1.166
 7056SOL    HW122067   0.062   4.795   1.182
 7056SOL    HW222068   0.104   4.917   1.082
 7057SOL     OW22069   3.314   5.608   4.761
 7057SOL    HW122070   3.386   5.674   4.744
 7057SOL    HW222071   3.283   5.568   4.674
 7058SOL     OW22072   6.333   2.495   6.462
 7058SOL    HW122073   6.393   2.574   6.457
 7058SOL    HW222074   6.383   2.417   6.501
 7059SOL     OW22075   1.829   6.896   5.216
 7059SOL    HW122076   1.891   6.821   5.243
 7059SOL    HW222077   1.869   6.945   5.139
 7060SOL     OW22078   3.297   2.276   1.480
 7060SOL    HW122079   3.245   2.355   1.448
 7060SOL    HW222080   3.262   2.193   1.435
 7061SOL     OW22081   1.122   1.153   1.391
 7061SOL    HW122082   1.068   1.106   1.321
 7061SOL    HW222083   1.218   1.153   1.364
 7062SOL     OW22084   3.490   0.351   4.202
 7062SOL    HW122085   3.425   0.354   4.278
 7062SOL    HW222086   3.454   0.404   4.125
 7063SOL     OW22087   0.167   1.562   1.284
 7063SOL    HW122088   0.096   1.615   1.239
 7063SOL    HW222089   0.192   1.484   1.226
 7064SOL     OW22090   3.170   1.630   5.396
 7064SOL    HW122091   3.176   1.544   5.346
 7064SOL    HW222092   3.260   1.674   5.398
 7065SOL     OW22093   4.050   5.475   5.364
 7065SOL    HW122094   4.020   5.445   5.455
 7065SOL    HW222095   4.004   5.561   5.341
 7066SOL     OW22096   3.466   0.076   1.271
 7066SOL    HW122097   3.374   0.106   1.297
 7066SOL    HW222098   3.499   0.134   1.196
 7067SOL     OW22099   2.254   3.892   6.263
 7067SOL    HW122100   2.259   3.947   6.180
 7067SOL    HW222101   2.346   3.873   6.297
 7068SOL     OW22102   5.010   4.331   4.259
 7068SOL    HW122103   5.014   4.243   4.307
 7068SOL    HW222104   4.987   4.315   4.163
 7069SOL     OW22105   5.019   0.896   5.987
 7069SOL    HW122106   5.097   0.840   5.958
 7069SOL    HW222107   4.990   0.867   6.078
 7070SOL     OW22108   0.592   0.637   5.667
 7070SOL    HW122109   0.592   0.542   5.634
 7070SOL    HW222110   0.591   0.637   5.767
 7071SOL     OW22111   4.545   6.432   6.797
 7071SOL    HW122112   4.613   6.490   6.843
 7071SOL    HW222113   4.521   6.472   6.708
 7072SOL     OW22114   0.835   3.888   6.240
 7072SOL    HW122115   0.799   3.855   6.328
 7072SOL    HW222116   0.796   3.978   6.220
 7073SOL     OW22117   4.849   1.746   4.023
 7073SOL    HW122118   4.923   1.697   4.069
 7073SOL    HW222119   4.876   1.766   3.929
 7074SOL     OW22120   5.460   4.047   2.861
 7074SOL    HW122121   5.404   4.122   2.897
 7074SOL    HW222122   5.557   4.072   2.867
 7075SOL     OW22123   2.549   5.400   3.398
 7075SOL    HW122124   2.507   5.396   3.488
 7075SOL    HW222125   2.586   5.310   3.374
 7076SOL     OW22126   5.624   2.009   0.990
 7076SOL    HW122127   5.534   2.044   1.015
 7076SOL    HW222128   5.657   1.948   1.063
 7077SOL     OW22129   3.648   6.199   1.577
 7077SOL    HW122130   3.591   6.241   1.648
 7077SOL    HW222131   3.693   6.271   1.524
 7078SOL     OW22132   6.655   1.089   6.729
 7078SOL    HW122133   6.636   0.998   6.693
 7078SOL    HW222134   6.751   1.094   6.760
 7079SOL     OW22135   1.977   5.681   4.944
 7079SOL    HW122136   1.919   5.670   4.863
 7079SOL    HW222137   2.065   5.721   4.917
 7080SOL     OW22138   3.911   2.136   6.148
 7080SOL    HW122139   3.995   2.189   6.159
 7080SOL    HW222140   3.928   2.041   6.175
 7081SOL     OW22141   2.465   6.994   0.662
 7081SOL    HW122142   2.368   7.017   0.671
 7081SOL    HW222143   2.479   6.942   0.577
 7082SOL     OW22144   0.434   3.563   2.484
 7082SOL    HW122145   0.443   3.587   2.387
 7082SOL    HW222146   0.522   3.575   2.530
 7083SOL     OW22147   4.846   2.518   3.494
 7083SOL    HW122148   4.885   2.587   3.554
 7083SOL    HW222149   4.768   2.557   3.444
 7084SOL     OW22150   0.903   4.916   0.554
 7084SOL    HW122151   0.815   4.881   0.520
 7084SOL    HW222152   0.955   4.841   0.594
 7085SOL     OW22153   0.794   4.000   2.509
 7085SOL    HW122154   0.779   4.068   2.581
 7085SOL    HW222155   0.887   4.008   2.475
 7086SOL     OW22156   5.321   0.608   3.655
 7086SOL    HW122157   5.419   0.619   3.673
 7086SOL    HW222158   5.302   0.513   3.630
 7087SOL     OW22159   4.592   2.636   3.644
 7087SOL    HW122160   4.601   2.660   3.547
 7087SOL    HW222161   4.682   2.641   3.687
 7088SOL     OW22162   6.643   2.210   5.360
 7088SOL    HW122163   6.605   2.299   5.386
 7088SOL    HW222164   6.571   2.153   5.320
 7089SOL     OW22165   2.497   5.825   1.109
 7089SOL    HW122166   2.425   5.875   1.061
 7089SOL    HW222167   2.578   5.821   1.051
 7090SOL     OW22168   4.195   3.123   0.929
 7090SOL    HW122169   4.190   3.222   0.914
 7090SOL    HW222170   4.104   3.087   0.948
 7091SOL     OW22171   0.101   6.685   0.200
 7091SOL    HW122172   0.156   6.680   0.117
 7091SOL    HW222173   0.038   6.762   0.193
 7092SOL     OW22174   4.462   6.963   6.829
 7092SOL    HW122175   4.411   7.007   6.904
 7092SOL    HW222176   4.421   6.875   6.808
 7093SOL     OW22177   3.406   3.370   0.611
 7093SOL    HW122178   3.423   3.465   0.636
 7093SOL    HW222179   3.485   3.314   0.639
 7094SOL     OW22180   4.068   0.837   5.550
 7094SOL    HW122181   4.136   0.823   5.478
 7094SOL    HW222182   4.055   0.751   5.600
 7095SOL     OW22183   2.730   4.952   4.642
 7095SOL    HW122184   2.770   5.027   4.589
 7095SOL    HW222185   2.802   4.886   4.665
 7096SOL     OW22186   6.298   6.550   1.028
 7096SOL    HW122187   6.278   6.602   1.111
 7096SOL    HW222188   6.391   6.570   0.998
 7097SOL     OW22189   4.650   1.547   2.811
 7097SOL    HW122190   4.595   1.625   2.841
 7097SOL    HW222191   4.674   1.557   2.715
 7098SOL     OW22192   0.917   1.265   3.360
 7098SOL    HW122193   0.876   1.215   3.436
 7098SOL    HW222194   0.970   1.202   3.303
 7099SOL     OW22195   3.566   2.108   4.341
 7099SOL    HW122196   3.514   2.047   4.400
 7099SOL    HW222197   3.636   2.155   4.394
 7100SOL     OW22198   7.018   3.792   1.312
 7100SOL    HW122199   0.082   3.747   1.302
 7100SOL    HW222200   7.005   3.817   1.408
 7101SOL     OW22201   2.600   5.697   4.467
 7101SOL    HW122202   2.609   5.627   4.538
 7101SOL    HW222203   2.667   5.769   4.483
 7102SOL     OW22204   5.576   1.661   3.325
 7102SOL    HW122205   5.562   1.735   3.391
 7102SOL    HW222206   5.602   1.699   3.237
 7103SOL     OW22207   4.874   3.740   3.783
 7103SOL    HW122208   4.840   3.800   3.856
 7103SOL    HW222209   4.924   3.663   3.824
 7104SOL     OW22210   5.118   2.914   4.772
 7104SOL    HW122211   5.184   2.949   4.838
 7104SOL    HW222212   5.113   2.814   4.781
 7105SOL     OW22213   2.911   3.736   2.886
 7105SOL    HW122214   2.966   3.794   2.946
 7105SOL    HW222215   2.836   3.695   2.939
 7106SOL     OW22216   3.009   1.771   2.508
 7106SOL    HW122217   3.007   1.675   2.480
 7106SOL    HW222218   3.033   1.828   2.429
 7107SOL     OW22219   3.654   0.969   6.723
 7107SOL    HW122220   3.649   0.966   6.623
 7107SOL    HW222221   3.715   1.043   6.751
 7108SOL     OW22222   4.189   0.254   2.043
 7108SOL    HW122223   4.245   0.183   2.000
 7108SOL    HW222224   4.224   0.344   2.017
 7109SOL     OW22225   2.951   5.704   5.858
 7109SOL    HW122226   2.985   5.650   5.781
 7109SOL    HW222227   2.852   5.715   5.849
 7110SOL     OW22228   2.452   6.353   5.144
 7110SOL    HW122229   2.541   6.308   5.129
 7110SOL    HW222230   2.415   6.325   5.232
 7111SOL     OW22231   6.581   0.931   5.091
 7111SOL    HW122232   6.553   0.920   5.187
 7111SOL    HW222233   6.648   1.005   5.084
 7112SOL     OW22234   0.744   4.531   4.979
 7112SOL    HW122235   0.833   4.486   4.982
 7112SOL    HW222236   0.749   4.609   4.917
 7113SOL     OW22237   3.246   6.495   4.784
 7113SOL    HW122238   3.335   6.491   4.829
 7113SOL    HW222239   3.248   6.567   4.714
 7114SOL     OW22240   6.007   4.013   1.368
 7114SOL    HW122241   5.939   3.986   1.435
 7114SOL    HW222242   6.069   4.081   1.409
 7115SOL     OW22243   5.548   3.230   5.592
 7115SOL    HW122244   5.526   3.154   5.654
 7115SOL    HW222245   5.500   3.313   5.624
 7116SOL     OW22246   0.139   4.074   4.914
 7116SOL    HW122247   0.113   4.134   4.990
 7116SOL    HW222248   0.219   4.111   4.867
 7117SOL     OW22249   5.049   6.785   2.660
 7117SOL    HW122250   4.956   6.820   2.664
 7117SOL    HW222251   5.096   6.806   2.745
 7118SOL     OW22252   4.528   4.644   6.160
 7118SOL    HW122253   4.546   4.738   6.189
 7118SOL    HW222254   4.495   4.645   6.065
 7119SOL     OW22255   2.973   6.907   5.336
 7119SOL    HW122256   2.968   6.822   5.388
 7119SOL    HW222257   2.905   6.972   5.371
 7120SOL     OW22258   4.201   1.286   1.127
 7120SOL    HW122259   4.284   1.337   1.105
 7120SOL    HW222260   4.224   1.206   1.181
 7121SOL     OW22261   1.102   6.213   2.350
 7121SOL    HW122262   1.029   6.155   2.386
 7121SOL    HW222263   1.121   6.287   2.414
 7122SOL     OW22264   3.852   2.290   6.790
 7122SOL    HW122265   3.934   2.234   6.780
 7122SOL    HW222266   3.874   2.385   6.769
 7123SOL     OW22267   5.789   5.135   5.764
 7123SOL    HW122268   5.727   5.075   5.712
 7123SOL    HW222269   5.883   5.109   5.746
 7124SOL     OW22270   2.063   3.050   0.870
 7124SOL    HW122271   2.036   3.092   0.957
 7124SOL    HW222272   2.132   2.979   0.887
 7125SOL     OW22273   0.731   6.550   2.319
 7125SOL    HW122274   0.695   6.630   2.368
 7125SOL    HW222275   0.767   6.578   2.231
 7126SOL     OW22276   3.863   5.169   1.247
 7126SOL    HW122277   3.953   5.131   1.268
 7126SOL    HW222278   3.792   5.121   1.299
 7127SOL     OW22279   3.209   6.245   6.430
 7127SOL    HW122280   3.193   6.201   6.518
 7127SOL    HW222281   3.145   6.209   6.362
 7128SOL     OW22282   3.194   4.053   0.006
 7128SOL    HW122283   3.125   3.983   0.021
 7128SOL    HW222284   3.238   4.038   6.942
 7129SOL     OW22285   0.210   6.993   0.045
 7129SOL    HW122286   0.253   0.053   0.078
 7129SOL    HW222287   0.133   6.969   0.105
 7130SOL     OW22288   3.061   7.014   3.989
 7130SOL    HW122289   3.123   0.024   4.060
 7130SOL    HW222290   2.970   0.028   4.004
 7131SOL     OW22291   2.410   1.478   1.902
 7131SOL    HW122292   2.414   1.502   1.805
 7131SOL    HW222293   2.318   1.443   1.924
 7132SOL     OW22294   4.955   4.304   1.159
 7132SOL    HW122295   4.867   4.304   1.207
 7132SOL    HW222296   5.020   4.361   1.207
 7133SOL     OW22297   4.642   6.107   2.613
 7133SOL    HW122298   4.661   6.062   2.700
 7133SOL    HW222299   4.698   6.066   2.541
 7134SOL     OW22300   5.209   5.103   0.279
 7134SOL    HW122301   5.205   5.102   0.180
 7134SOL    HW222302   5.217   5.009   0.314
 7135SOL     OW22303   1.578   3.618   1.387
 7135SOL    HW122304   1.589   3.685   1.460
 7135SOL    HW222305   1.513   3.652   1.319
 7136SOL     OW22306   1.190   2.469   1.788
 7136SOL    HW122307   1.242   2.538   1.738
 7136SOL    HW222308   1.148   2.406   1.723
 7137SOL     OW22309   3.005   0.675   2.354
 7137SOL    HW122310   3.068   0.736   2.305
 7137SOL    HW222311   2.929   0.729   2.391
 7138SOL     OW22312   0.149   3.524   0.358
 7138SOL    HW122313   0.185   3.603   0.307
 7138SOL    HW222314   0.140   3.548   0.454
 7139SOL     OW22315   5.746   6.198   0.914
 7139SOL    HW122316   5.676   6.138   0.954
 7139SOL    HW222317   5.836   6.169   0.946
 7140SOL     OW22318   6.668   4.593   0.208
 7140SOL    HW122319   6.761   4.564   0.184
 7140SOL    HW222320   6.672   4.655   0.286
 7141SOL     OW22321   3.110   0.933   0.921
 7141SOL    HW122322   3.109   0.984   0.835
 7141SOL    HW222323   3.124   0.996   0.997
 7142SOL     OW22324   4.728   0.442   4.969
 7142SOL    HW122325   4.635   0.479   4.972
 7142SOL    HW222326   4.788   0.508   4.925
 7143SOL     OW22327   2.861   2.954   6.607
 7143SOL    HW122328   2.823   3.042   6.635
 7143SOL    HW222329   2.804   2.880   6.643
 7144SOL     OW22330   0.236   0.924   6.304
 7144SOL    HW122331   0.244   0.922   6.205
 7144SOL    HW222332   0.217   0.831   6.338
 7145SOL     OW22333   5.755   1.804   5.952
 7145SOL    HW122334   5.721   1.710   5.951
 7145SOL    HW222335   5.688   1.863   5.996
 7146SOL     OW22336   0.684   2.486   5.233
 7146SOL    HW122337   0.721   2.395   5.216
 7146SOL    HW222338   0.715   2.518   5.323
 7147SOL     OW22339   6.731   6.625   1.960
 7147SOL    HW122340   6.783   6.686   2.020
 7147SOL    HW222341   6.658   6.582   2.013
 7148SOL     OW22342   6.306   6.822   1.356
 7148SOL    HW122343   6.250   6.905   1.358
 7148SOL    HW222344   6.355   6.812   1.442
 7149SOL     OW22345   5.304   4.630   5.645
 7149SOL    HW122346   5.289   4.658   5.551
 7149SOL    HW222347   5.370   4.555   5.647
 7150SOL     OW22348   3.019   2.337   6.946
 7150SOL    HW122349   3.114   2.308   6.929
 7150SOL    HW222350   3.019   2.427   6.988
 7151SOL     OW22351   5.413   1.369   7.020
 7151SOL    HW122352   5.488   1.393   0.056
 7151SOL    HW222353   5.326   1.395   0.037
 7152SOL     OW22354   4.726   0.526   5.622
 7152SOL    HW122355   4.734   0.503   5.719
 7152SOL    HW222356   4.684   0.449   5.573
 7153SOL     OW22357   3.411   5.490   0.620
 7153SOL    HW122358   3.482   5.465   0.686
 7153SOL    HW222359   3.361   5.409   0.591
 7154SOL     OW22360   4.468   0.810   2.039
 7154SOL    HW122361   4.515   0.863   1.968
 7154SOL    HW222362   4.397   0.754   1.996
 7155SOL     OW22363   1.531   0.028   2.130
 7155SOL    HW122364   1.509   0.089   2.054
 7155SOL    HW222365   1.456   0.029   2.197
 7156SOL     OW22366   6.579   3.940   5.519
 7156SOL    HW122367   6.546   4.034   5.518
 7156SOL    HW222368   6.503   3.879   5.495
 7157SOL     OW22369   0.201   4.457   5.820
 7157SOL    HW122370   0.251   4.466   5.906
 7157SOL    HW222371   0.153   4.369   5.818
 7158SOL     OW22372   5.226   0.272   3.920
 7158SOL    HW122373   5.325   0.272   3.935
 7158SOL    HW222374   5.196   0.363   3.892
 7159SOL     OW22375   0.837   6.425   3.092
 7159SOL    HW122376   0.861   6.393   3.001
 7159SOL    HW222377   0.739   6.413   3.107
 7160SOL     OW22378   5.942   6.799   2.841
 7160SOL    HW122379   5.921   6.852   2.923
 7160SOL    HW222380   5.938   6.701   2.862
 7161SOL     OW22381   3.692   3.954   2.510
 7161SOL    HW122382   3.681   3.995   2.419
 7161SOL    HW222383   3.743   3.869   2.502
 7162SOL     OW22384   0.241   6.233   1.002
 7162SOL    HW122385   0.173   6.164   0.977
 7162SOL    HW222386   0.279   6.212   1.092
 7163SOL     OW22387   6.685   0.703   1.314
 7163SOL    HW122388   6.778   0.718   1.280
 7163SOL    HW222389   6.625   0.680   1.237
 7164SOL     OW22390   1.633   1.094   6.946
 7164SOL    HW122391   1.620   1.005   6.902
 7164SOL    HW222392   1.645   1.080   0.020
 7165SOL     OW22393   5.511   2.197   0.062
 7165SOL    HW122394   5.419   2.172   0.093
 7165SOL    HW222395   5.571   2.210   0.141
 7166SOL     OW22396   0.230   5.586   5.714
 7166SOL    HW122397   0.139   5.603   5.677
 7166SOL    HW222398   0.258   5.492   5.693
 7167SOL     OW22399   0.109   3.004   5.482
 7167SOL    HW122400   0.067   2.982   5.394
 7167SOL    HW222401   0.087   2.932   5.548
 7168SOL     OW22402   1.941   1.936   2.266
 7168SOL    HW122403   1.863   1.875   2.249
 7168SOL    HW222404   2.012   1.919   2.199
 7169SOL     OW22405   1.757   4.635   5.676
 7169SOL    HW122406   1.755   4.653   5.578
 7169SOL    HW222407   1.790   4.717   5.724
 7170SOL     OW22408   3.522   1.290   1.214
 7170SOL    HW122409   3.514   1.201   1.169
 7170SOL    HW222410   3.618   1.319   1.215
 7171SOL     OW22411   6.429   3.722   0.883
 7171SOL    HW122412   6.453   3.805   0.933
 7171SOL    HW222413   6.468   3.642   0.930
 7172SOL     OW22414   0.587   2.094   3.594
 7172SOL    HW122415   0.614   2.137   3.681
 7172SOL    HW222416   0.655   2.025   3.569
 7173SOL     OW22417   4.461   5.752   5.982
 7173SOL    HW122418   4.388   5.767   5.916
 7173SOL    HW222419   4.423   5.750   6.075
 7174SOL     OW22420   6.270   4.023   2.315
 7174SOL    HW122421   6.281   3.992   2.220
 7174SOL    HW222422   6.308   4.115   2.325
 7175SOL     OW22423   6.384   3.972   5.777
 7175SOL    HW122424   6.347   3.911   5.706
 7175SOL    HW222425   6.348   4.064   5.765
 7176SOL     OW22426   0.318   1.212   6.219
 7176SOL    HW122427   0.326   1.131   6.162
 7176SOL    HW222428   0.292   1.290   6.162
 7177SOL     OW22429   1.570   6.257   3.985
 7177SOL    HW122430   1.641   6.326   3.967
 7177SOL    HW222431   1.502   6.260   3.911
 7178SOL     OW22432   1.448   6.924   5.078
 7178SOL    HW122433   1.386   6.962   5.009
 7178SOL    HW222434   1.488   6.999   5.130
 7179SOL     OW22435   4.688   4.863   5.904
 7179SOL    HW122436   4.698   4.873   6.003
 7179SOL    HW222437   4.683   4.954   5.861
 7180SOL     OW22438   1.834   3.170   1.917
 7180SOL    HW122439   1.915   3.206   1.964
 7180SOL    HW222440   1.818   3.223   1.834
 7181SOL     OW22441   2.106   1.250   6.982
 7181SOL    HW122442   2.181   1.196   6.945
 7181SOL    HW222443   2.026   1.240   6.923
 7182SOL     OW22444   1.778   1.042   3.625
 7182SOL    HW122445   1.813   1.101   3.698
 7182SOL    HW222446   1.809   1.078   3.537
 7183SOL     OW22447   1.855   6.841   1.734
 7183SOL    HW122448   1.856   6.879   1.641
 7183SOL    HW222449   1.769   6.865   1.779
 7184SOL     OW22450   6.842   0.831   3.863
 7184SOL    HW122451   6.829   0.929   3.880
 7184SOL    HW222452   6.789   0.778   3.929
 7185SOL     OW22453   4.360   0.513   4.059
 7185SOL    HW122454   4.352   0.417   4.032
 7185SOL    HW222455   4.318   0.526   4.149
 7186SOL     OW22456   6.370   0.876   6.745
 7186SOL    HW122457   6.314   0.957   6.729
 7186SOL    HW222458   6.383   0.863   6.843
 7187SOL     OW22459   3.877   3.741   4.037
 7187SOL    HW122460   3.845   3.647   4.043
 7187SOL    HW222461   3.975   3.742   4.013
 7188SOL     OW22462   4.289   4.562   0.145
 7188SOL    HW122463   4.339   4.549   0.059
 7188SOL    HW222464   4.307   4.654   0.181
 7189SOL     OW22465   6.918   2.419   5.889
 7189SOL    HW122466   6.923   2.420   5.989
 7189SOL    HW222467   6.891   2.328   5.858
 7190SOL     OW22468   6.154   5.178   6.664
 7190SOL    HW122469   6.115   5.112   6.728
 7190SOL    HW222470   6.175   5.263   6.712
 7191SOL     OW22471   6.503   4.728   2.378
 7191SOL    HW122472   6.502   4.743   2.477
 7191SOL    HW222473   6.596   4.709   2.348
 7192SOL     OW22474   2.432   4.142   5.367
 7192SOL    HW122475   2.528   4.147   5.392
 7192SOL    HW222476   2.421   4.082   5.289
 7193SOL     OW22477   3.524   1.769   3.291
 7193SOL    HW122478   3.488   1.838   3.229
 7193SOL    HW222479   3.591   1.712   3.244
 7194SOL     OW22480   2.745   2.586   6.294
 7194SOL    HW122481   2.680   2.593   6.218
 7194SOL    HW222482   2.710   2.519   6.360
 7195SOL     OW22483   1.096   4.222   5.847
 7195SOL    HW122484   1.040   4.232   5.765
 7195SOL    HW222485   1.168   4.292   5.847
 7196SOL     OW22486   3.236   4.205   1.615
 7196SOL    HW122487   3.327   4.181   1.650
 7196SOL    HW222488   3.211   4.296   1.647
 7197SOL     OW22489   3.371   4.651   6.808
 7197SOL    HW122490   3.418   4.569   6.773
 7197SOL    HW222491   3.360   4.717   6.734
 7198SOL     OW22492   0.735   0.276   1.982
 7198SOL    HW122493   0.657   0.214   1.993
 7198SOL    HW222494   0.702   0.368   1.960
 7199SOL     OW22495   6.117   1.437   2.664
 7199SOL    HW122496   6.140   1.340   2.657
 7199SOL    HW222497   6.017   1.448   2.658
 7200SOL     OW22498   0.947   2.837   6.969
 7200SOL    HW122499   1.022   2.882   6.919
 7200SOL    HW222500   0.974   2.743   6.991
 7201SOL     OW22501   5.990   5.826   4.106
 7201SOL    HW122502   6.085   5.832   4.138
 7201SOL    HW222503   5.989   5.830   4.006
 7202SOL     OW22504   4.489   6.540   5.808
 7202SOL    HW122505   4.433   6.593   5.872
 7202SOL    HW222506   4.585   6.546   5.835
 7203SOL     OW22507   0.294   1.886   0.999
 7203SOL    HW122508   0.346   1.945   0.938
 7203SOL    HW222509   0.320   1.791   0.983
 7204SOL     OW22510   6.530   1.124   2.230
 7204SOL    HW122511   6.513   1.052   2.163
 7204SOL    HW222512   6.443   1.160   2.263
 7205SOL     OW22513   3.144   1.835   4.532
 7205SOL    HW122514   3.113   1.794   4.618
 7205SOL    HW222515   3.068   1.883   4.488
 7206SOL     OW22516   2.061   3.639   6.505
 7206SOL    HW122517   2.044   3.728   6.548
 7206SOL    HW222518   2.032   3.566   6.568
 7207SOL     OW22519   1.898   1.346   3.541
 7207SOL    HW122520   1.812   1.319   3.586
 7207SOL    HW222521   1.884   1.351   3.442
 7208SOL     OW22522   4.204   0.878   4.122
 7208SOL    HW122523   4.148   0.839   4.048
 7208SOL    HW222524   4.162   0.963   4.153
 7209SOL     OW22525   3.505   0.963   1.843
 7209SOL    HW122526   3.558   0.879   1.854
 7209SOL    HW222527   3.567   1.039   1.823
 7210SOL     OW22528   3.902   1.099   3.900
 7210SOL    HW122529   3.893   1.169   3.971
 7210SOL    HW222530   3.837   1.118   3.827
 7211SOL     OW22531   4.267   6.383   5.712
 7211SOL    HW122532   4.246   6.434   5.629
 7211SOL    HW222533   4.334   6.433   5.766
 7212SOL     OW22534   0.692   5.335   5.240
 7212SOL    HW122535   0.724   5.282   5.319
 7212SOL    HW222536   0.607   5.295   5.205
 7213SOL     OW22537   4.200   2.385   6.976
 7213SOL    HW122538   4.225   2.411   6.882
 7213SOL    HW222539   4.187   2.286   6.980
 7214SOL     OW22540   6.124   0.081   6.329
 7214SOL    HW122541   6.103   0.160   6.387
 7214SOL    HW222542   6.057   0.075   6.255
 7215SOL     OW22543   6.600   1.419   2.659
 7215SOL    HW122544   6.511   1.449   2.624
 7215SOL    HW222545   6.673   1.467   2.609
 7216SOL     OW22546   4.915   0.215   3.394
 7216SOL    HW122547   4.821   0.184   3.403
 7216SOL    HW222548   4.951   0.191   3.304
 7217SOL     OW22549   1.272   2.659   3.166
 7217SOL    HW122550   1.265   2.636   3.262
 7217SOL    HW222551   1.212   2.600   3.112
 7218SOL     OW22552   6.426   2.596   4.792
 7218SOL    HW122553   6.348   2.619   4.851
 7218SOL    HW222554   6.406   2.622   4.698
 7219SOL     OW22555   3.010   6.023   2.742
 7219SOL    HW122556   2.925   5.978   2.716
 7219SOL    HW222557   2.997   6.077   2.825
 7220SOL     OW22558   6.206   4.240   3.545
 7220SOL    HW122559   6.128   4.179   3.557
 7220SOL    HW222560   6.245   4.226   3.454
 7221SOL     OW22561   3.974   5.626   3.503
 7221SOL    HW122562   4.031   5.686   3.558
 7221SOL    HW222563   3.984   5.532   3.534
 7222SOL     OW22564   6.658   6.036   4.205
 7222SOL    HW122565   6.748   5.996   4.188
 7222SOL    HW222566   6.669   6.133   4.227
 7223SOL     OW22567   0.222   4.476   1.708
 7223SOL    HW122568   0.260   4.429   1.629
 7223SOL    HW222569   0.188   4.410   1.775
 7224SOL     OW22570   4.254   2.230   2.396
 7224SOL    HW122571   4.283   2.321   2.369
 7224SOL    HW222572   4.162   2.212   2.360
 7225SOL     OW22573   1.163   6.190   0.774
 7225SOL    HW122574   1.078   6.205   0.824
 7225SOL    HW222575   1.153   6.112   0.712
 7226SOL     OW22576   6.727   6.186   0.158
 7226SOL    HW122577   6.717   6.230   0.068
 7226SOL    HW222578   6.823   6.188   0.186
 7227SOL     OW22579   1.942   1.356   2.779
 7227SOL    HW122580   1.866   1.406   2.736
 7227SOL    HW222581   1.966   1.277   2.722
 7228SOL     OW22582   6.053   3.135   2.109
 7228SOL    HW122583   6.024   3.201   2.178
 7228SOL    HW222584   6.046   3.176   2.018
 7229SOL     OW22585   5.977   0.985   5.075
 7229SOL    HW122586   5.934   0.899   5.102
 7229SOL    HW222587   6.021   0.973   4.986
 7230SOL     OW22588   2.507   5.083   4.552
 7230SOL    HW122589   2.585   5.027   4.582
 7230SOL    HW222590   2.427   5.025   4.540
 7231SOL     OW22591   4.212   3.267   5.792
 7231SOL    HW122592   4.277   3.223   5.730
 7231SOL    HW222593   4.129   3.212   5.799
 7232SOL     OW22594   4.558   6.308   3.328
 7232SOL    HW122595   4.505   6.304   3.413
 7232SOL    HW222596   4.648   6.346   3.347
 7233SOL     OW22597   0.166   1.272   5.553
 7233SOL    HW122598   0.172   1.340   5.479
 7233SOL    HW222599   0.163   1.181   5.513
 7234SOL     OW22600   5.583   4.422   3.470
 7234SOL    HW122601   5.502   4.477   3.451
 7234SOL    HW222602   5.616   4.442   3.562
 7235SOL     OW22603   6.265   6.501   1.913
 7235SOL    HW122604   6.337   6.435   1.890
 7235SOL    HW222605   6.203   6.460   1.979
 7236SOL     OW22606   2.008   3.517   2.879
 7236SOL    HW122607   2.045   3.548   2.967
 7236SOL    HW222608   1.943   3.585   2.845
 7237SOL     OW22609   5.688   1.254   0.379
 7237SOL    HW122610   5.740   1.185   0.328
 7237SOL    HW222611   5.734   1.274   0.465
 7238SOL     OW22612   4.284   3.778   7.002
 7238SOL    HW122613   4.330   3.693   6.977
 7238SOL    HW222614   4.351   3.852   7.007
 7239SOL     OW22615   5.803   2.571   2.144
 7239SOL    HW122616   5.810   2.671   2.138
 7239SOL    HW222617   5.823   2.542   2.237
 7240SOL     OW22618   6.947   1.670   0.819
 7240SOL    HW122619   6.930   1.758   0.863
 7240SOL    HW222620   6.860   1.631   0.788
 7241SOL     OW22621   1.822   0.810   2.320
 7241SOL    HW122622   1.875   0.851   2.246
 7241SOL    HW222623   1.746   0.758   2.281
 7242SOL     OW22624   6.754   4.375   4.934
 7242SOL    HW122625   6.809   4.402   4.855
 7242SOL    HW222626   6.751   4.451   4.999
 7243SOL     OW22627   5.569   4.880   6.224
 7243SOL    HW122628   5.641   4.812   6.239
 7243SOL    HW222629   5.555   4.932   6.308
 7244SOL     OW22630   6.879   5.896   0.095
 7244SOL    HW122631   6.801   5.847   0.136
 7244SOL    HW222632   6.964   5.865   0.137
 7245SOL     OW22633   1.098   3.278   0.554
 7245SOL    HW122634   1.097   3.305   0.650
 7245SOL    HW222635   1.039   3.339   0.501
 7246SOL     OW22636   4.324   6.968   2.835
 7246SOL    HW122637   4.276   6.974   2.748
 7246SOL    HW222638   4.268   6.916   2.900
 7247SOL     OW22639   3.001   3.962   4.602
 7247SOL    HW122640   2.926   4.028   4.618
 7247SOL    HW222641   3.060   3.997   4.530
 7248SOL     OW22642   2.908   1.643   5.513
 7248SOL    HW122643   2.990   1.635   5.456
 7248SOL    HW222644   2.931   1.687   5.600
 7249SOL     OW22645   4.112   5.093   2.599
 7249SOL    HW122646   4.030   5.145   2.574
 7249SOL    HW222647   4.103   4.999   2.567
 7250SOL     OW22648   5.744   5.086   5.112
 7250SOL    HW122649   5.730   5.102   5.210
 7250SOL    HW222650   5.841   5.092   5.090
 7251SOL     OW22651   0.629   5.750   5.186
 7251SOL    HW122652   0.586   5.675   5.236
 7251SOL    HW222653   0.562   5.794   5.126
 7252SOL     OW22654   3.632   4.102   2.731
 7252SOL    HW122655   3.717   4.103   2.783
 7252SOL    HW222656   3.646   4.054   2.644
 7253SOL     OW22657   2.666   5.545   5.105
 7253SOL    HW122658   2.685   5.518   5.010
 7253SOL    HW222659   2.632   5.466   5.156
 7254SOL     OW22660   5.644   2.964   4.288
 7254SOL    HW122661   5.570   3.025   4.317
 7254SOL    HW222662   5.732   3.006   4.309
 7255SOL     OW22663   4.987   3.649   6.762
 7255SOL    HW122664   4.994   3.561   6.715
 7255SOL    HW222665   4.984   3.723   6.695
 7256SOL     OW22666   3.119   6.777   4.847
 7256SOL    HW122667   3.039   6.769   4.788
 7256SOL    HW222668   3.115   6.863   4.896
 7257SOL     OW22669   0.982   1.661   4.644
 7257SOL    HW122670   0.907   1.596   4.634
 7257SOL    HW222671   1.066   1.623   4.606
 7258SOL     OW22672   5.752   3.128   2.426
 7258SOL    HW122673   5.697   3.164   2.351
 7258SOL    HW222674   5.789   3.038   2.401
 7259SOL     OW22675   1.511   4.274   2.631
 7259SOL    HW122676   1.550   4.341   2.568
 7259SOL    HW222677   1.550   4.184   2.612
 7260SOL     OW22678   5.491   3.090   0.736
 7260SOL    HW122679   5.579   3.123   0.702
 7260SOL    HW222680   5.457   3.150   0.808
 7261SOL     OW22681   6.458   4.370   0.146
 7261SOL    HW122682   6.531   4.438   0.147
 7261SOL    HW222683   6.381   4.403   0.199
 7262SOL     OW22684   5.688   1.610   5.067
 7262SOL    HW122685   5.726   1.671   5.136
 7262SOL    HW222686   5.703   1.515   5.095
 7263SOL     OW22687   6.843   5.745   6.598
 7263SOL    HW122688   6.927   5.693   6.587
 7263SOL    HW222689   6.860   5.841   6.578
 7264SOL     OW22690   5.868   0.978   1.012
 7264SOL    HW122691   5.923   1.050   1.055
 7264SOL    HW222692   5.920   0.893   1.009
 7265SOL     OW22693   3.842   0.074   5.846
 7265SOL    HW122694   3.843   0.147   5.777
 7265SOL    HW222695   3.923   0.018   5.837
 7266SOL     OW22696   0.437   0.764   3.810
 7266SOL    HW122697   0.473   0.698   3.876
 7266SOL    HW222698   0.343   0.739   3.785
 7267SOL     OW22699   6.438   4.600   4.675
 7267SOL    HW122700   6.439   4.557   4.765
 7267SOL    HW222701   6.498   4.680   4.675
 7268SOL     OW22702   6.003   6.897   4.218
 7268SOL    HW122703   5.941   6.837   4.268
 7268SOL    HW222704   5.951   6.974   4.180
 7269SOL     OW22705   2.578   4.580   4.667
 7269SOL    HW122706   2.555   4.591   4.764
 7269SOL    HW222707   2.673   4.549   4.659
 7270SOL     OW22708   0.991   1.234   4.923
 7270SOL    HW122709   1.049   1.285   4.859
 7270SOL    HW222710   1.050   1.181   4.985
 7271SOL     OW22711   0.984   4.629   3.037
 7271SOL    HW122712   1.024   4.556   2.981
 7271SOL    HW222713   1.006   4.613   3.133
 7272SOL     OW22714   6.287   4.457   1.668
 7272SOL    HW122715   6.278   4.447   1.569
 7272SOL    HW222716   6.207   4.419   1.713
 7273SOL     OW22717   0.810   2.567   5.490
 7273SOL    HW122718   0.746   2.627   5.538
 7273SOL    HW222719   0.885   2.542   5.551
 7274SOL     OW22720   0.757   4.697   6.918
 7274SOL    HW122721   0.727   4.792   6.921
 7274SOL    HW222722   0.694   4.644   6.861
 7275SOL     OW22723   0.584   6.176   3.591
 7275SOL    HW122724   0.551   6.188   3.685
 7275SOL    HW222725   0.619   6.263   3.556
 7276SOL     OW22726   5.301   6.307   4.164
 7276SOL    HW122727   5.350   6.392   4.149
 7276SOL    HW222728   5.365   6.230   4.157
 7277SOL     OW22729   4.687   0.513   6.969
 7277SOL    HW122730   4.751   0.487   0.017
 7277SOL    HW222731   4.626   0.585   7.002
 7278SOL     OW22732   3.498   2.819   2.242
 7278SOL    HW122733   3.493   2.810   2.341
 7278SOL    HW222734   3.481   2.730   2.199
 7279SOL     OW22735   3.321   6.185   6.037
 7279SOL    HW122736   3.326   6.251   5.963
 7279SOL    HW222737   3.361   6.098   6.007
 7280SOL     OW22738   4.770   1.490   5.772
 7280SOL    HW122739   4.778   1.588   5.752
 7280SOL    HW222740   4.745   1.477   5.868
 7281SOL     OW22741   5.119   1.371   6.187
 7281SOL    HW122742   5.097   1.416   6.274
 7281SOL    HW222743   5.200   1.413   6.147
 7282SOL     OW22744   5.706   5.453   2.212
 7282SOL    HW122745   5.798   5.421   2.237
 7282SOL    HW222746   5.640   5.380   2.229
 7283SOL     OW22747   1.999   0.924   3.989
 7283SOL    HW122748   1.978   0.830   3.964
 7283SOL    HW222749   2.032   0.974   3.909
 7284SOL     OW22750   0.502   2.727   5.243
 7284SOL    HW122751   0.538   2.633   5.243
 7284SOL    HW222752   0.429   2.734   5.311
 7285SOL     OW22753   5.415   5.175   1.999
 7285SOL    HW122754   5.477   5.100   1.975
 7285SOL    HW222755   5.439   5.257   1.948
 7286SOL     OW22756   2.226   3.959   1.270
 7286SOL    HW122757   2.153   3.893   1.290
 7286SOL    HW222758   2.263   3.995   1.356
 7287SOL     OW22759   5.975   1.720   6.253
 7287SOL    HW122760   5.987   1.793   6.186
 7287SOL    HW222761   6.004   1.752   6.343
 7288SOL     OW22762   3.423   6.572   6.429
 7288SOL    HW122763   3.377   6.569   6.518
 7288SOL    HW222764   3.500   6.635   6.434
 7289SOL     OW22765   5.286   1.972   3.881
 7289SOL    HW122766   5.231   1.908   3.935
 7289SOL    HW222767   5.353   2.016   3.941
 7290SOL     OW22768   2.955   4.796   3.982
 7290SOL    HW122769   2.914   4.798   4.073
 7290SOL    HW222770   3.042   4.845   3.983
 7291SOL     OW22771   2.811   5.079   2.085
 7291SOL    HW122772   2.899   5.042   2.054
 7291SOL    HW222773   2.789   5.162   2.033
 7292SOL     OW22774   2.913   6.922   4.679
 7292SOL    HW122775   2.950   6.905   4.588
 7292SOL    HW222776   2.920   7.019   4.701
 7293SOL     OW22777   1.473   2.511   5.943
 7293SOL    HW122778   1.508   2.534   5.852
 7293SOL    HW222779   1.378   2.540   5.950
 7294SOL     OW22780   3.829   5.352   0.547
 7294SOL    HW122781   3.756   5.345   0.616
 7294SOL    HW222782   3.831   5.445   0.511
 7295SOL     OW22783   5.512   0.168   1.814
 7295SOL    HW122784   5.423   0.124   1.806
 7295SOL    HW222785   5.573   0.111   1.871
 7296SOL     OW22786   4.173   4.923   1.974
 7296SOL    HW122787   4.271   4.941   1.984
 7296SOL    HW222788   4.138   4.885   2.060
 7297SOL     OW22789   5.300   7.015   1.999
 7297SOL    HW122790   5.363   0.029   2.066
 7297SOL    HW222791   5.206   0.002   2.031
 7298SOL     OW22792   6.098   3.611   4.058
 7298SOL    HW122793   6.181   3.596   4.005
 7298SOL    HW222794   6.053   3.524   4.075
 7299SOL     OW22795   6.045   3.614   6.614
 7299SOL    HW122796   6.067   3.559   6.694
 7299SOL    HW222797   6.100   3.582   6.536
 7300SOL     OW22798   4.538   4.799   1.068
 7300SOL    HW122799   4.603   4.723   1.068
 7300SOL    HW222800   4.524   4.831   0.974
 7301SOL     OW22801   6.976   0.703   6.422
 7301SOL    HW122802   6.908   0.720   6.350
 7301SOL    HW222803   0.028   0.651   6.384
 7302SOL     OW22804   4.948   0.782   6.224
 7302SOL    HW122805   4.915   0.718   6.293
 7302SOL    HW222806   5.023   0.836   6.262
 7303SOL     OW22807   3.569   1.095   0.656
 7303SOL    HW122808   3.495   1.074   0.592
 7303SOL    HW222809   3.654   1.110   0.606
 7304SOL     OW22810   3.394   4.460   5.292
 7304SOL    HW122811   3.459   4.525   5.330
 7304SOL    HW222812   3.441   4.376   5.265
 7305SOL     OW22813   5.551   0.937   0.238
 7305SOL    HW122814   5.587   1.022   0.199
 7305SOL    HW222815   5.451   0.939   0.236
 7306SOL     OW22816   4.787   5.003   1.795
 7306SOL    HW122817   4.781   4.905   1.815
 7306SOL    HW222818   4.734   5.054   1.862
 7307SOL     OW22819   4.277   6.780   2.490
 7307SOL    HW122820   4.242   6.867   2.525
 7307SOL    HW222821   4.368   6.793   2.452
 7308SOL     OW22822   6.301   1.701   4.500
 7308SOL    HW122823   6.261   1.791   4.517
 7308SOL    HW222824   6.257   1.658   4.421
 7309SOL     OW22825   4.754   5.968   1.800
 7309SOL    HW122826   4.781   5.961   1.704
 7309SOL    HW222827   4.676   5.908   1.817
 7310SOL     OW22828   2.488   5.012   1.354
 7310SOL    HW122829   2.583   4.983   1.340
 7310SOL    HW222830   2.471   5.025   1.451
 7311SOL     OW22831   2.757   2.275   2.218
 7311SOL    HW122832   2.823   2.319   2.158
 7311SOL    HW222833   2.756   2.321   2.307
 7312SOL     OW22834   6.953   1.727   6.141
 7312SOL    HW122835   7.018   1.739   6.066
 7312SOL    HW222836   6.996   1.756   6.227
 7313SOL     OW22837   4.226   2.753   6.766
 7313SOL    HW122838   4.257   2.842   6.732
 7313SOL    HW222839   4.300   2.710   6.818
 7314SOL     OW22840   0.314   2.880   4.575
 7314SOL    HW122841   0.295   2.889   4.477
 7314SOL    HW222842   0.349   2.966   4.610
 7315SOL     OW22843   0.110   0.739   5.284
 7315SOL    HW122844   0.079   0.834   5.275
 7315SOL    HW222845   0.069   0.698   5.365
 7316SOL     OW22846   3.419   4.066   5.449
 7316SOL    HW122847   3.344   4.125   5.477
 7316SOL    HW222848   3.464   4.104   5.368
 7317SOL     OW22849   3.144   1.202   3.827
 7317SOL    HW122850   3.180   1.184   3.918
 7317SOL    HW222851   3.092   1.122   3.795
 7318SOL     OW22852   1.466   1.677   1.387
 7318SOL    HW122853   1.452   1.583   1.417
 7318SOL    HW222854   1.512   1.678   1.299
 7319SOL     OW22855   6.778   4.188   6.480
 7319SOL    HW122856   6.693   4.167   6.432
 7319SOL    HW222857   6.773   4.280   6.518
 7320SOL     OW22858   6.806   2.677   1.856
 7320SOL    HW122859   6.867   2.681   1.935
 7320SOL    HW222860   6.821   2.591   1.807
 7321SOL     OW22861   3.068   1.121   4.814
 7321SOL    HW122862   3.115   1.164   4.737
 7321SOL    HW222863   2.989   1.070   4.781
 7322SOL     OW22864   0.351   3.308   2.554
 7322SOL    HW122865   0.380   3.392   2.507
 7322SOL    HW222866   0.274   3.329   2.614
 7323SOL     OW22867   2.073   3.564   3.151
 7323SOL    HW122868   2.047   3.502   3.225
 7323SOL    HW222869   2.118   3.645   3.189
 7324SOL     OW22870   5.303   6.222   2.923
 7324SOL    HW122871   5.359   6.141   2.907
 7324SOL    HW222872   5.350   6.303   2.888
 7325SOL     OW22873   3.015   6.327   0.010
 7325SOL    HW122874   2.962   6.375   0.080
 7325SOL    HW222875   3.107   6.366   0.006
 7326SOL     OW22876   2.734   6.658   5.317
 7326SOL    HW122877   2.640   6.625   5.312
 7326SOL    HW222878   2.752   6.718   5.240
 7327SOL     OW22879   1.660   2.498   5.488
 7327SOL    HW122880   1.690   2.416   5.439
 7327SOL    HW222881   1.740   2.550   5.518
 7328SOL     OW22882   2.710   0.191   0.210
 7328SOL    HW122883   2.624   0.229   0.244
 7328SOL    HW222884   2.746   0.250   0.137
 7329SOL     OW22885   4.348   3.384   1.367
 7329SOL    HW122886   4.328   3.424   1.457
 7329SOL    HW222887   4.325   3.287   1.368
 7330SOL     OW22888   4.182   1.779   0.235
 7330SOL    HW122889   4.255   1.807   0.172
 7330SOL    HW222890   4.161   1.855   0.297
 7331SOL     OW22891   5.279   0.913   1.330
 7331SOL    HW122892   5.228   0.884   1.248
 7331SOL    HW222893   5.353   0.849   1.348
 7332SOL     OW22894   4.059   5.505   1.078
 7332SOL    HW122895   4.075   5.597   1.112
 7332SOL    HW222896   4.065   5.440   1.154
 7333SOL     OW22897   0.920   5.109   2.574
 7333SOL    HW122898   0.979   5.096   2.654
 7333SOL    HW222899   0.871   5.195   2.582
 7334SOL     OW22900   3.990   6.668   4.163
 7334SOL    HW122901   4.072   6.620   4.194
 7334SOL    HW222902   3.978   6.752   4.216
 7335SOL     OW22903   1.750   2.479   2.644
 7335SOL    HW122904   1.780   2.536   2.721
 7335SOL    HW222905   1.711   2.394   2.680
 7336SOL     OW22906   1.874   6.867   3.786
 7336SOL    HW122907   1.970   6.891   3.797
 7336SOL    HW222908   1.823   6.895   3.868
 7337SOL     OW22909   5.861   2.872   2.373
 7337SOL    HW122910   5.903   2.796   2.423
 7337SOL    HW222911   5.864   2.853   2.274
 7338SOL     OW22912   6.352   2.890   6.955
 7338SOL    HW122913   6.367   2.903   6.856
 7338SOL    HW222914   6.324   2.977   6.995
 7339SOL     OW22915   0.816   5.337   4.757
 7339SOL    HW122916   0.808   5.413   4.693
 7339SOL    HW222917   0.725   5.301   4.778
 7340SOL     OW22918   1.952   0.142   6.360
 7340SOL    HW122919   1.938   0.215   6.293
 7340SOL    HW222920   1.908   0.168   6.446
 7341SOL     OW22921   6.562   2.576   0.076
 7341SOL    HW122922   6.565   2.598   0.174
 7341SOL    HW222923   6.606   2.487   0.060
 7342SOL     OW22924   6.649   0.060   2.512
 7342SOL    HW122925   6.591   0.137   2.538
 7342SOL    HW222926   6.683   0.015   2.595
 7343SOL     OW22927   5.215   2.713   0.573
 7343SOL    HW122928   5.210   2.706   0.473
 7343SOL    HW222929   5.130   2.679   0.613
 7344SOL     OW22930   1.320   6.721   5.997
 7344SOL    HW122931   1.280   6.784   5.930
 7344SOL    HW222932   1.389   6.665   5.952
 7345SOL     OW22933   3.089   5.067   6.252
 7345SOL    HW122934   3.103   5.094   6.347
 7345SOL    HW222935   3.067   4.969   6.248
 7346SOL     OW22936   4.651   4.692   2.514
 7346SOL    HW122937   4.622   4.718   2.421
 7346SOL    HW222938   4.750   4.700   2.522
 7347SOL     OW22939   6.089   2.260   6.190
 7347SOL    HW122940   5.999   2.262   6.147
 7347SOL    HW222941   6.091   2.188   6.259
 7348SOL     OW22942   6.894   4.443   1.576
 7348SOL    HW122943   6.903   4.462   1.674
 7348SOL    HW222944   6.982   4.460   1.531
 7349SOL     OW22945   3.659   1.781   2.078
 7349SOL    HW122946   3.600   1.861   2.070
 7349SOL    HW222947   3.750   1.803   2.043
 7350SOL     OW22948   3.732   1.007   4.227
 7350SOL    HW122949   3.759   0.966   4.140
 7350SOL    HW222950   3.689   0.937   4.285
 7351SOL     OW22951   3.193   4.940   4.010
 7351SOL    HW122952   3.220   5.033   4.033
 7351SOL    HW222953   3.256   4.903   3.941
 7352SOL     OW22954   6.505   2.715   3.924
 7352SOL    HW122955   6.421   2.691   3.875
 7352SOL    HW222956   6.583   2.671   3.879
 7353SOL     OW22957   6.283   0.263   6.637
 7353SOL    HW122958   6.193   0.276   6.596
 7353SOL    HW222959   6.345   0.334   6.603
 7354SOL     OW22960   0.254   1.702   3.398
 7354SOL    HW122961   0.183   1.640   3.431
 7354SOL    HW222962   0.284   1.672   3.307
 7355SOL     OW22963   2.588   1.831   6.954
 7355SOL    HW122964   2.520   1.785   7.011
 7355SOL    HW222965   2.592   1.928   6.979
 7356SOL     OW22966   4.285   4.095   5.948
 7356SOL    HW122967   4.292   4.035   6.028
 7356SOL    HW222968   4.188   4.108   5.925
 7357SOL     OW22969   4.913   5.757   2.322
 7357SOL    HW122970   4.998   5.779   2.275
 7357SOL    HW222971   4.837   5.762   2.257
 7358SOL     OW22972   5.551   1.079   2.968
 7358SOL    HW122973   5.542   1.044   2.875
 7358SOL    HW222974   5.579   1.175   2.965
 7359SOL     OW22975   4.891   0.240   1.600
 7359SOL    HW122976   4.881   0.265   1.503
 7359SOL    HW222977   4.803   0.251   1.646
 7360SOL     OW22978   3.293   3.487   5.098
 7360SOL    HW122979   3.242   3.452   5.019
 7360SOL    HW222980   3.348   3.414   5.137
 7361SOL     OW22981   6.221   0.445   3.079
 7361SOL    HW122982   6.267   0.402   3.001
 7361SOL    HW222983   6.281   0.446   3.158
 7362SOL     OW22984   3.091   4.918   6.847
 7362SOL    HW122985   3.139   4.833   6.868
 7362SOL    HW222986   3.157   4.988   6.819
 7363SOL     OW22987   3.890   0.748   0.280
 7363SOL    HW122988   3.972   0.760   0.336
 7363SOL    HW222989   3.822   0.697   0.332
 7364SOL     OW22990   5.646   6.619   1.455
 7364SOL    HW122991   5.708   6.654   1.526
 7364SOL    HW222992   5.700   6.580   1.380
 7365SOL     OW22993   5.214   4.812   2.556
 7365SOL    HW122994   5.211   4.776   2.650
 7365SOL    HW222995   5.286   4.881   2.550
 7366SOL     OW22996   1.599   0.547   4.153
 7366SOL    HW122997   1.675   0.600   4.115
 7366SOL    HW222998   1.558   0.598   4.229
 7367SOL     OW22999   4.041   0.270   0.091
 7367SOL    HW123000   3.980   0.277   0.013
 7367SOL    HW223001   4.000   0.313   0.171
 7368SOL     OW23002   3.607   3.657   3.631
 7368SOL    HW123003   3.614   3.712   3.715
 7368SOL    HW223004   3.649   3.707   3.555
 7369SOL     OW23005   5.275   1.879   0.432
 7369SOL    HW123006   5.344   1.943   0.465
 7369SOL    HW223007   5.315   1.819   0.362
 7370SOL     OW23008   1.669   1.006   4.549
 7370SOL    HW123009   1.689   0.962   4.461
 7370SOL    HW223010   1.639   1.100   4.532
 7371SOL     OW23011   4.199   1.119   3.891
 7371SOL    HW123012   4.207   1.200   3.949
 7371SOL    HW223013   4.103   1.094   3.882
 7372SOL     OW23014   6.016   0.994   5.544
 7372SOL    HW123015   5.953   1.000   5.622
 7372SOL    HW223016   6.098   1.048   5.563
 7373SOL     OW23017   6.015   3.486   4.493
 7373SOL    HW123018   6.034   3.412   4.428
 7373SOL    HW223019   5.921   3.519   4.480
 7374SOL     OW23020   6.558   2.658   5.666
 7374SOL    HW123021   6.557   2.758   5.659
 7374SOL    HW223022   6.466   2.625   5.687
 7375SOL     OW23023   1.197   3.281   1.999
 7375SOL    HW123024   1.153   3.192   2.011
 7375SOL    HW223025   1.297   3.269   2.000
 7376SOL     OW23026   6.599   3.728   0.647
 7376SOL    HW123027   6.652   3.643   0.636
 7376SOL    HW223028   6.556   3.729   0.737
 7377SOL     OW23029   2.243   6.655   1.156
 7377SOL    HW123030   2.212   6.603   1.236
 7377SOL    HW223031   2.301   6.731   1.187
 7378SOL     OW23032   1.332   5.498   4.534
 7378SOL    HW123033   1.313   5.419   4.475
 7378SOL    HW223034   1.285   5.486   4.621
 7379SOL     OW23035   3.938   1.115   1.658
 7379SOL    HW123036   4.006   1.118   1.732
 7379SOL    HW223037   3.869   1.047   1.679
 7380SOL     OW23038   5.157   4.170   1.656
 7380SOL    HW123039   5.108   4.114   1.724
 7380SOL    HW223040   5.111   4.258   1.646
 7381SOL     OW23041   3.846   0.305   1.117
 7381SOL    HW123042   3.829   0.356   1.202
 7381SOL    HW223043   3.910   0.357   1.060
 7382SOL     OW23044   6.238   1.080   6.223
 7382SOL    HW123045   6.211   0.993   6.264
 7382SOL    HW223046   6.337   1.091   6.229
 7383SOL     OW23047   2.096   0.512   0.867
 7383SOL    HW123048   2.179   0.482   0.915
 7383SOL    HW223049   2.098   0.611   0.857
 7384SOL     OW23050   6.726   6.822   1.062
 7384SOL    HW123051   6.689   6.793   1.150
 7384SOL    HW223052   6.738   6.922   1.062
 7385SOL     OW23053   6.304   4.205   3.109
 7385SOL    HW123054   6.286   4.124   3.166
 7385SOL    HW223055   6.398   4.202   3.076
 7386SOL     OW23056   5.330   3.172   6.869
 7386SOL    HW123057   5.319   3.255   6.924
 7386SOL    HW223058   5.278   3.098   6.911
 7387SOL     OW23059   6.567   5.965   5.040
 7387SOL    HW123060   6.504   5.954   5.116
 7387SOL    HW223061   6.535   5.911   4.962
 7388SOL     OW23062   2.237   4.709   3.260
 7388SOL    HW123063   2.222   4.732   3.356
 7388SOL    HW223064   2.273   4.789   3.211
 7389SOL     OW23065   6.031   2.720   6.989
 7389SOL    HW123066   6.130   2.709   6.982
 7389SOL    HW223067   6.010   2.805   0.013
 7390SOL     OW23068   2.313   2.504   3.605
 7390SOL    HW123069   2.266   2.592   3.614
 7390SOL    HW223070   2.246   2.431   3.604
 7391SOL     OW23071   3.281   3.483   3.248
 7391SOL    HW123072   3.182   3.494   3.239
 7391SOL    HW223073   3.324   3.497   3.159
 7392SOL     OW23074   3.361   6.861   6.593
 7392SOL    HW123075   3.411   6.892   6.674
 7392SOL    HW223076   3.420   6.869   6.512
 7393SOL     OW23077   5.519   4.957   4.113
 7393SOL    HW123078   5.471   4.894   4.051
 7393SOL    HW223079   5.502   5.051   4.084
 7394SOL     OW23080   2.778   1.878   5.771
 7394SOL    HW123081   2.734   1.965   5.795
 7394SOL    HW223082   2.709   1.805   5.771
 7395SOL     OW23083   2.673   6.171   1.165
 7395SOL    HW123084   2.608   6.243   1.139
 7395SOL    HW223085   2.628   6.108   1.229
 7396SOL     OW23086   1.995   4.934   2.419
 7396SOL    HW123087   2.084   4.901   2.388
 7396SOL    HW223088   1.961   5.004   2.356
 7397SOL     OW23089   6.118   4.218   3.890
 7397SOL    HW123090   6.076   4.177   3.809
 7397SOL    HW223091   6.138   4.314   3.872
 7398SOL     OW23092   2.721   4.800   2.461
 7398SOL    HW123093   2.812   4.808   2.503
 7398SOL    HW223094   2.688   4.891   2.438
 7399SOL     OW23095   4.952   2.016   6.083
 7399SOL    HW123096   4.922   1.923   6.060
 7399SOL    HW223097   4.999   2.056   6.004
 7400SOL     OW23098   5.400   3.413   5.732
 7400SOL    HW123099   5.420   3.495   5.677
 7400SOL    HW223100   5.339   3.438   5.807
 7401SOL     OW23101   1.573   2.344   4.311
 7401SOL    HW123102   1.559   2.362   4.214
 7401SOL    HW223103   1.671   2.338   4.331
 7402SOL     OW23104   3.926   5.678   4.440
 7402SOL    HW123105   3.914   5.769   4.402
 7402SOL    HW223106   3.933   5.611   4.366
 7403SOL     OW23107   1.638   3.916   4.376
 7403SOL    HW123108   1.565   3.879   4.318
 7403SOL    HW223109   1.727   3.899   4.334
 7404SOL     OW23110   3.440   3.470   0.988
 7404SOL    HW123111   3.387   3.414   1.052
 7404SOL    HW223112   3.380   3.538   0.946
 7405SOL     OW23113   3.932   6.654   3.790
 7405SOL    HW123114   3.950   6.555   3.793
 7405SOL    HW223115   3.866   6.673   3.717
 7406SOL     OW23116   1.136   1.919   4.964
 7406SOL    HW123117   1.134   1.825   4.930
 7406SOL    HW223118   1.196   1.974   4.907
 7407SOL     OW23119   1.099   5.749   5.382
 7407SOL    HW123120   1.197   5.732   5.374
 7407SOL    HW223121   1.068   5.725   5.473
 7408SOL     OW23122   4.267   5.270   5.352
 7408SOL    HW123123   4.229   5.348   5.403
 7408SOL    HW223124   4.194   5.206   5.329
 7409SOL     OW23125   6.681   3.780   1.404
 7409SOL    HW123126   6.733   3.756   1.486
 7409SOL    HW223127   6.711   3.722   1.328
 7410SOL     OW23128   0.183   0.757   1.021
 7410SOL    HW123129   0.214   0.745   0.927
 7410SOL    HW223130   0.248   0.715   1.084
 7411SOL     OW23131   2.775   1.956   5.036
 7411SOL    HW123132   2.708   1.941   4.962
 7411SOL    HW223133   2.739   1.918   5.121
 7412SOL     OW23134   3.730   6.828   0.118
 7412SOL    HW123135   3.769   6.886   0.046
 7412SOL    HW223136   3.661   6.768   0.079
 7413SOL     OW23137   4.586   0.696   2.982
 7413SOL    HW123138   4.579   0.610   2.931
 7413SOL    HW223139   4.658   0.753   2.943
 7414SOL     OW23140   2.842   1.151   3.672
 7414SOL    HW123141   2.909   1.116   3.607
 7414SOL    HW223142   2.867   1.245   3.698
 7415SOL     OW23143   4.153   6.686   6.227
 7415SOL    HW123144   4.058   6.658   6.244
 7415SOL    HW223145   4.173   6.769   6.279
 7416SOL     OW23146   1.659   0.740   1.782
 7416SOL    HW123147   1.656   0.833   1.820
 7416SOL    HW223148   1.702   0.743   1.692
 7417SOL     OW23149   0.414   0.904   2.731
 7417SOL    HW123150   0.419   0.948   2.642
 7417SOL    HW223151   0.503   0.908   2.776
 7418SOL     OW23152   1.809   4.259   6.076
 7418SOL    HW123153   1.825   4.345   6.027
 7418SOL    HW223154   1.732   4.210   6.033
 7419SOL     OW23155   6.906   3.756   3.960
 7419SOL    HW123156   6.918   3.853   3.981
 7419SOL    HW223157   6.813   3.728   3.986
 7420SOL     OW23158   0.521   6.842   1.541
 7420SOL    HW123159   0.511   6.918   1.477
 7420SOL    HW223160   0.433   6.796   1.553
 7421SOL     OW23161   6.105   3.827   1.198
 7421SOL    HW123162   6.048   3.746   1.207
 7421SOL    HW223163   6.070   3.899   1.257
 7422SOL     OW23164   5.639   2.675   2.458
 7422SOL    HW123165   5.734   2.702   2.472
 7422SOL    HW223166   5.579   2.751   2.482
 7423SOL     OW23167   4.752   2.244   5.682
 7423SOL    HW123168   4.848   2.223   5.662
 7423SOL    HW223169   4.735   2.229   5.780
 7424SOL     OW23170   7.022   2.496   3.740
 7424SOL    HW123171   6.983   2.584   3.768
 7424SOL    HW223172   0.018   2.441   3.820
 7425SOL     OW23173   5.627   1.105   0.971
 7425SOL    HW123174   5.578   1.052   0.902
 7425SOL    HW223175   5.712   1.058   0.995
 7426SOL     OW23176   3.533   2.964   5.685
 7426SOL    HW123177   3.479   3.044   5.658
 7426SOL    HW223178   3.534   2.957   5.785
 7427SOL     OW23179   3.324   0.720   3.383
 7427SOL    HW123180   3.379   0.788   3.334
 7427SOL    HW223181   3.368   0.697   3.469
 7428SOL     OW23182   4.136   6.202   4.850
 7428SOL    HW123183   4.226   6.188   4.892
 7428SOL    HW223184   4.123   6.136   4.777
 7429SOL     OW23185   0.584   6.986   2.674
 7429SOL    HW123186   0.559   0.033   2.609
 7429SOL    HW223187   0.626   0.004   2.755
 7430SOL     OW23188   6.630   5.466   2.802
 7430SOL    HW123189   6.633   5.378   2.851
 7430SOL    HW223190   6.723   5.492   2.775
 7431SOL     OW23191   1.217   1.366   3.315
 7431SOL    HW123192   1.182   1.289   3.368
 7431SOL    HW223193   1.211   1.449   3.370
 7432SOL     OW23194   2.414   0.891   3.027
 7432SOL    HW123195   2.485   0.949   3.066
 7432SOL    HW223196   2.451   0.801   3.008
 7433SOL     OW23197   2.715   6.757   6.722
 7433SOL    HW123198   2.672   6.692   6.785
 7433SOL    HW223199   2.796   6.715   6.682
 7434SOL     OW23200   3.817   6.852   3.945
 7434SOL    HW123201   3.887   6.829   3.877
 7434SOL    HW223202   3.839   6.806   4.031
 7435SOL     OW23203   5.066   3.944   2.607
 7435SOL    HW123204   5.070   3.946   2.707
 7435SOL    HW223205   4.985   3.893   2.578
 7436SOL     OW23206   5.499   2.803   5.898
 7436SOL    HW123207   5.493   2.753   5.984
 7436SOL    HW223208   5.459   2.894   5.909
 7437SOL     OW23209   3.181   0.168   1.116
 7437SOL    HW123210   3.161   0.079   1.156
 7437SOL    HW223211   3.125   0.238   1.161
 7438SOL     OW23212   2.109   0.436   0.092
 7438SOL    HW123213   2.149   0.486   0.168
 7438SOL    HW223214   2.177   0.372   0.055
 7439SOL     OW23215   1.170   4.570   6.616
 7439SOL    HW123216   1.190   4.659   6.573
 7439SOL    HW223217   1.146   4.584   6.712
 7440SOL     OW23218   5.500   3.927   3.634
 7440SOL    HW123219   5.514   4.016   3.678
 7440SOL    HW223220   5.443   3.869   3.692
 7441SOL     OW23221   5.586   5.793   0.622
 7441SOL    HW123222   5.516   5.807   0.692
 7441SOL    HW223223   5.622   5.700   0.629
 7442SOL     OW23224   5.402   0.800   6.225
 7442SOL    HW123225   5.358   0.807   6.136
 7442SOL    HW223226   5.405   0.704   6.254
 7443SOL     OW23227   0.170   1.265   2.023
 7443SOL    HW123228   0.082   1.286   2.065
 7443SOL    HW223229   0.162   1.180   1.970
 7444SOL     OW23230   1.672   6.859   0.074
 7444SOL    HW123231   1.609   6.829   0.146
 7444SOL    HW223232   1.641   6.824   7.011
 7445SOL     OW23233   3.754   6.011   1.364
 7445SOL    HW123234   3.713   6.023   1.273
 7445SOL    HW223235   3.691   6.044   1.434
 7446SOL     OW23236   5.266   4.569   6.649
 7446SOL    HW123237   5.211   4.556   6.731
 7446SOL    HW223238   5.328   4.492   6.637
 7447SOL     OW23239   0.229   4.606   0.368
 7447SOL    HW123240   0.153   4.558   0.412
 7447SOL    HW223241   0.268   4.547   0.298
 7448SOL     OW23242   4.716   6.138   6.753
 7448SOL    HW123243   4.639   6.075   6.763
 7448SOL    HW223244   4.684   6.232   6.756
 7449SOL     OW23245   0.019   4.901   5.816
 7449SOL    HW123246   0.094   4.911   5.881
 7449SOL    HW223247   6.957   4.921   5.861
 7450SOL     OW23248   5.700   2.405   5.511
 7450SOL    HW123249   5.751   2.402   5.598
 7450SOL    HW223250   5.764   2.419   5.436
 7451SOL     OW23251   4.599   4.356   3.342
 7451SOL    HW123252   4.698   4.363   3.331
 7451SOL    HW223253   4.555   4.370   3.254
 7452SOL     OW23254   6.544   5.463   5.973
 7452SOL    HW123255   6.467   5.400   5.983
 7452SOL    HW223256   6.548   5.495   5.878
 7453SOL     OW23257   3.933   5.627   6.143
 7453SOL    HW123258   4.011   5.650   6.085
 7453SOL    HW223259   3.900   5.710   6.189
 7454SOL     OW23260   3.892   2.176   1.028
 7454SOL    HW123261   3.953   2.097   1.024
 7454SOL    HW223262   3.946   2.260   1.027
 7455SOL     OW23263   6.661   1.550   3.215
 7455SOL    HW123264   6.651   1.646   3.241
 7455SOL    HW223265   6.752   1.518   3.241
 7456SOL     OW23266   2.518   2.124   6.685
 7456SOL    HW123267   2.479   2.054   6.626
 7456SOL    HW223268   2.481   2.213   6.660
 7457SOL     OW23269   1.463   1.236   2.372
 7457SOL    HW123270   1.457   1.335   2.358
 7457SOL    HW223271   1.470   1.190   2.284
 7458SOL     OW23272   1.365   5.386   5.465
 7458SOL    HW123273   1.326   5.379   5.373
 7458SOL    HW223274   1.464   5.369   5.460
 7459SOL     OW23275   5.965   0.364   2.437
 7459SOL    HW123276   6.022   0.332   2.360
 7459SOL    HW223277   6.012   0.438   2.484
 7460SOL     OW23278   1.656   6.699   1.467
 7460SOL    HW123279   1.671   6.770   1.536
 7460SOL    HW223280   1.721   6.625   1.480
 7461SOL     OW23281   2.400   4.543   5.519
 7461SOL    HW123282   2.425   4.525   5.614
 7461SOL    HW223283   2.303   4.522   5.504
 7462SOL     OW23284   1.307   4.024   0.779
 7462SOL    HW123285   1.378   4.088   0.749
 7462SOL    HW223286   1.345   3.963   0.848
 7463SOL     OW23287   4.173   4.840   0.953
 7463SOL    HW123288   4.074   4.835   0.963
 7463SOL    HW223289   4.208   4.919   1.003
 7464SOL     OW23290   5.890   6.758   5.473
 7464SOL    HW123291   5.819   6.690   5.492
 7464SOL    HW223292   5.955   6.721   5.406
 7465SOL     OW23293   1.910   4.940   0.023
 7465SOL    HW123294   1.958   4.856   0.000
 7465SOL    HW223295   1.890   4.991   6.964
 7466SOL     OW23296   0.522   0.314   5.243
 7466SOL    HW123297   0.558   0.248   5.177
 7466SOL    HW223298   0.429   0.288   5.269
 7467SOL     OW23299   1.258   3.673   4.867
 7467SOL    HW123300   1.193   3.726   4.812
 7467SOL    HW223301   1.292   3.730   4.942
 7468SOL     OW23302   5.852   3.291   5.557
 7468SOL    HW123303   5.889   3.269   5.648
 7468SOL    HW223304   5.753   3.276   5.556
 7469SOL     OW23305   0.547   1.747   0.411
 7469SOL    HW123306   0.640   1.772   0.385
 7469SOL    HW223307   0.540   1.744   0.511
 7470SOL     OW23308   5.780   2.596   3.415
 7470SOL    HW123309   5.784   2.507   3.460
 7470SOL    HW223310   5.861   2.608   3.358
 7471SOL     OW23311   3.883   6.584   6.572
 7471SOL    HW123312   3.869   6.640   6.491
 7471SOL    HW223313   3.801   6.589   6.630
 7472SOL     OW23314   6.602   6.924   6.101
 7472SOL    HW123315   6.532   6.994   6.114
 7472SOL    HW223316   6.648   6.907   6.188
 7473SOL     OW23317   3.397   5.865   3.846
 7473SOL    HW123318   3.404   5.783   3.903
 7473SOL    HW223319   3.489   5.900   3.828
 7474SOL     OW23320   5.915   2.096   6.882
 7474SOL    HW123321   6.014   2.101   6.895
 7474SOL    HW223322   5.870   2.164   6.940
 7475SOL     OW23323   4.867   1.997   1.023
 7475SOL    HW123324   4.824   1.950   0.945
 7475SOL    HW223325   4.919   2.075   0.990
 7476SOL     OW23326   2.392   0.500   3.335
 7476SOL    HW123327   2.308   0.449   3.317
 7476SOL    HW223328   2.370   0.587   3.378
 7477SOL     OW23329   1.437   3.083   5.421
 7477SOL    HW123330   1.399   2.995   5.394
 7477SOL    HW223331   1.462   3.135   5.339
 7478SOL     OW23332   0.304   1.353   5.770
 7478SOL    HW123333   0.364   1.417   5.723
 7478SOL    HW223334   0.251   1.301   5.703
 7479SOL     OW23335   5.172   2.550   1.026
 7479SOL    HW123336   5.161   2.483   1.100
 7479SOL    HW223337   5.264   2.590   1.031
 7480SOL     OW23338   3.405   5.041   2.445
 7480SOL    HW123339   3.346   5.120   2.434
 7480SOL    HW223340   3.421   4.998   2.356
 7481SOL     OW23341   0.229   3.724   6.907
 7481SOL    HW123342   0.226   3.818   6.872
 7481SOL    HW223343   0.254   3.662   6.833
 7482SOL     OW23344   5.326   1.957   3.114
 7482SOL    HW123345   5.252   1.965   3.047
 7482SOL    HW223346   5.365   2.048   3.130
 7483SOL     OW23347   4.384   1.775   5.780
 7483SOL    HW123348   4.380   1.721   5.696
 7483SOL    HW223349   4.293   1.809   5.803
 7484SOL     OW23350   3.135   0.153   3.776
 7484SOL    HW123351   3.092   0.082   3.831
 7484SOL    HW223352   3.074   0.180   3.702
 7485SOL     OW23353   3.693   6.480   6.282
 7485SOL    HW123354   3.707   6.464   6.184
 7485SOL    HW223355   3.666   6.394   6.326
 7486SOL     OW23356   3.098   6.826   0.563
 7486SOL    HW123357   3.000   6.845   0.575
 7486SOL    HW223358   3.151   6.893   0.615
 7487SOL     OW23359   3.536   6.421   4.429
 7487SOL    HW123360   3.595   6.354   4.474
 7487SOL    HW223361   3.441   6.392   4.436
 7488SOL     OW23362   1.146   5.802   3.846
 7488SOL    HW123363   1.119   5.832   3.937
 7488SOL    HW223364   1.105   5.863   3.777
 7489SOL     OW23365   5.481   3.325   6.503
 7489SOL    HW123366   5.448   3.246   6.556
 7489SOL    HW223367   5.437   3.325   6.413
 7490SOL     OW23368   1.413   2.640   2.633
 7490SOL    HW123369   1.490   2.625   2.695
 7490SOL    HW223370   1.421   2.579   2.555
 7491SOL     OW23371   4.261   4.045   6.830
 7491SOL    HW123372   4.184   3.982   6.830
 7491SOL    HW223373   4.330   4.013   6.894
 7492SOL     OW23374   1.127   0.501   4.209
 7492SOL    HW123375   1.104   0.403   4.202
 7492SOL    HW223376   1.047   0.555   4.183
 7493SOL     OW23377   6.221   4.409   5.029
 7493SOL    HW123378   6.268   4.396   5.116
 7493SOL    HW223379   6.267   4.480   4.976
 7494SOL     OW23380   6.578   1.391   1.748
 7494SOL    HW123381   6.482   1.404   1.774
 7494SOL    HW223382   6.615   1.312   1.796
 7495SOL     OW23383   1.608   3.049   4.671
 7495SOL    HW123384   1.545   3.065   4.748
 7495SOL    HW223385   1.601   3.125   4.606
 7496SOL     OW23386   5.761   4.021   2.816
 7496SOL    HW123387   5.854   4.020   2.853
 7496SOL    HW223388   5.719   3.931   2.828
 7497SOL     OW23389   6.454   6.493   1.625
 7497SOL    HW123390   6.470   6.468   1.720
 7497SOL    HW223391   6.539   6.523   1.582
 7498SOL     OW23392   2.901   6.322   3.170
 7498SOL    HW123393   2.850   6.331   3.255
 7498SOL    HW223394   2.891   6.405   3.115
 7499SOL     OW23395   2.773   1.431   3.851
 7499SOL    HW123396   2.784   1.434   3.950
 7499SOL    HW223397   2.681   1.465   3.827
 7500SOL     OW23398   4.170   1.039   3.355
 7500SOL    HW123399   4.196   1.062   3.449
 7500SOL    HW223400   4.245   1.062   3.293
 7501SOL     OW23401   6.654   2.408   5.589
 7501SOL    HW123402   6.619   2.500   5.605
 7501SOL    HW223403   6.754   2.411   5.582
 7502SOL     OW23404   4.625   0.711   4.246
 7502SOL    HW123405   4.605   0.724   4.149
 7502SOL    HW223406   4.721   0.684   4.257
 7503SOL     OW23407   1.752   5.570   2.018
 7503SOL    HW123408   1.824   5.602   2.079
 7503SOL    HW223409   1.672   5.629   2.028
 7504SOL     OW23410   5.897   6.305   4.825
 7504SOL    HW123411   5.827   6.334   4.891
 7504SOL    HW223412   5.979   6.360   4.839
 7505SOL     OW23413   6.863   6.575   4.514
 7505SOL    HW123414   6.912   6.659   4.533
 7505SOL    HW223415   6.924   6.508   4.471
 7506SOL     OW23416   3.504   1.704   3.737
 7506SOL    HW123417   3.593   1.749   3.746
 7506SOL    HW223418   3.434   1.772   3.715
 7507SOL     OW23419   5.849   4.224   5.615
 7507SOL    HW123420   5.770   4.235   5.555
 7507SOL    HW223421   5.881   4.314   5.645
 7508SOL     OW23422   2.575   5.703   0.399
 7508SOL    HW123423   2.610   5.734   0.311
 7508SOL    HW223424   2.476   5.719   0.403
 7509SOL     OW23425   5.962   4.974   2.388
 7509SOL    HW123426   6.042   4.953   2.331
 7509SOL    HW223427   5.991   4.985   2.483
 7510SOL     OW23428   2.998   3.891   2.456
 7510SOL    HW123429   2.989   3.870   2.359
 7510SOL    HW223430   3.005   3.990   2.469
 7511SOL     OW23431   4.994   6.651   4.422
 7511SOL    HW123432   4.934   6.584   4.464
 7511SOL    HW223433   4.943   6.703   4.354
 7512SOL     OW23434   3.675   0.945   0.895
 7512SOL    HW123435   3.624   0.865   0.864
 7512SOL    HW223436   3.673   1.016   0.825
 7513SOL     OW23437   1.493   1.796   1.962
 7513SOL    HW123438   1.443   1.795   2.050
 7513SOL    HW223439   1.579   1.846   1.973
 7514SOL     OW23440   1.271   6.054   1.679
 7514SOL    HW123441   1.232   6.042   1.770
 7514SOL    HW223442   1.260   6.149   1.650
 7515SOL     OW23443   0.464   4.646   5.338
 7515SOL    HW123444   0.376   4.624   5.380
 7515SOL    HW223445   0.450   4.666   5.240
 7516SOL     OW23446   1.619   6.692   5.483
 7516SOL    HW123447   1.614   6.597   5.452
 7516SOL    HW223448   1.709   6.709   5.524
 7517SOL     OW23449   1.272   1.638   5.817
 7517SOL    HW123450   1.273   1.670   5.722
 7517SOL    HW223451   1.364   1.649   5.856
 7518SOL     OW23452   5.040   1.972   4.236
 7518SOL    HW123453   4.943   1.977   4.210
 7518SOL    HW223454   5.094   1.949   4.155
 7519SOL     OW23455   3.989   6.351   3.849
 7519SOL    HW123456   3.936   6.388   3.926
 7519SOL    HW223457   4.025   6.261   3.874
 7520SOL     OW23458   1.597   2.087   0.528
 7520SOL    HW123459   1.609   2.046   0.438
 7520SOL    HW223460   1.687   2.114   0.564
 7521SOL     OW23461   3.947   0.989   4.601
 7521SOL    HW123462   4.022   0.992   4.668
 7521SOL    HW223463   3.901   1.078   4.600
 7522SOL     OW23464   2.333   0.030   3.904
 7522SOL    HW123465   2.273   0.086   3.848
 7522SOL    HW223466   2.305   0.037   4.000
 7523SOL     OW23467   5.463   0.965   0.786
 7523SOL    HW123468   5.524   0.959   0.707
 7523SOL    HW223469   5.391   0.897   0.778
 7524SOL     OW23470   0.780   3.453   4.435
 7524SOL    HW123471   0.850   3.382   4.434
 7524SOL    HW223472   0.737   3.460   4.345
 7525SOL     OW23473   3.708   4.960   6.091
 7525SOL    HW123474   3.805   4.941   6.078
 7525SOL    HW223475   3.660   4.874   6.108
 7526SOL     OW23476   2.422   3.763   1.214
 7526SOL    HW123477   2.474   3.794   1.134
 7526SOL    HW223478   2.351   3.830   1.236
 7527SOL     OW23479   3.910   5.108   3.336
 7527SOL    HW123480   3.996   5.158   3.347
 7527SOL    HW223481   3.922   5.014   3.365
 7528SOL     OW23482   6.568   2.758   6.056
 7528SOL    HW123483   6.643   2.824   6.061
 7528SOL    HW223484   6.550   2.735   5.961
 7529SOL     OW23485   6.245   3.585   3.813
 7529SOL    HW123486   6.279   3.496   3.782
 7529SOL    HW223487   6.296   3.657   3.765
 7530SOL     OW23488   0.573   2.217   2.129
 7530SOL    HW123489   0.556   2.196   2.225
 7530SOL    HW223490   0.589   2.316   2.119
 7531SOL     OW23491   3.730   2.165   3.921
 7531SOL    HW123492   3.718   2.075   3.962
 7531SOL    HW223493   3.753   2.232   3.992
 7532SOL     OW23494   4.845   5.755   6.223
 7532SOL    HW123495   4.902   5.680   6.257
 7532SOL    HW223496   4.848   5.757   6.123
 7533SOL     OW23497   4.334   4.444   1.760
 7533SOL    HW123498   4.245   4.436   1.714
 7533SOL    HW223499   4.370   4.352   1.777
 7534SOL     OW23500   4.256   6.890   5.364
 7534SOL    HW123501   4.277   6.793   5.352
 7534SOL    HW223502   4.339   6.944   5.352
 7535SOL     OW23503   0.621   6.452   3.543
 7535SOL    HW123504   0.635   6.536   3.595
 7535SOL    HW223505   0.534   6.456   3.495
 7536SOL     OW23506   5.868   6.342   3.981
 7536SOL    HW123507   5.907   6.252   3.998
 7536SOL    HW223508   5.926   6.412   4.022
 7537SOL     OW23509   1.933   6.474   2.942
 7537SOL    HW123510   2.000   6.407   2.975
 7537SOL    HW223511   1.959   6.504   2.850
 7538SOL     OW23512   1.139   4.151   0.590
 7538SOL    HW123513   1.189   4.090   0.652
 7538SOL    HW223514   1.205   4.202   0.535
 7539SOL     OW23515   6.867   0.115   4.512
 7539SOL    HW123516   6.806   0.040   4.484
 7539SOL    HW223517   6.942   0.077   4.566
 7540SOL     OW23518   5.712   4.945   3.013
 7540SOL    HW123519   5.791   4.948   3.073
 7540SOL    HW223520   5.670   4.854   3.017
 7541SOL     OW23521   2.722   4.243   5.397
 7541SOL    HW123522   2.687   4.326   5.354
 7541SOL    HW223523   2.756   4.180   5.327
 7542SOL     OW23524   6.113   5.555   4.527
 7542SOL    HW123525   6.101   5.639   4.580
 7542SOL    HW223526   6.195   5.507   4.559
 7543SOL     OW23527   2.784   1.079   0.200
 7543SOL    HW123528   2.858   1.102   0.138
 7543SOL    HW223529   2.703   1.053   0.147
 7544SOL     OW23530   6.557   1.811   4.540
 7544SOL    HW123531   6.644   1.764   4.522
 7544SOL    HW223532   6.481   1.757   4.505
 7545SOL     OW23533   1.769   5.865   5.627
 7545SOL    HW123534   1.774   5.933   5.553
 7545SOL    HW223535   1.783   5.774   5.588
 7546SOL     OW23536   2.396   2.706   1.967
 7546SOL    HW123537   2.400   2.699   2.067
 7546SOL    HW223538   2.481   2.670   1.928
 7547SOL     OW23539   4.133   0.253   1.612
 7547SOL    HW123540   4.168   0.184   1.549
 7547SOL    HW223541   4.092   0.208   1.691
 7548SOL     OW23542   3.630   2.914   6.327
 7548SOL    HW123543   3.721   2.920   6.284
 7548SOL    HW223544   3.601   2.818   6.328
 7549SOL     OW23545   5.571   0.993   4.489
 7549SOL    HW123546   5.668   1.020   4.495
 7549SOL    HW223547   5.565   0.900   4.453
 7550SOL     OW23548   2.783   5.404   4.902
 7550SOL    HW123549   2.767   5.316   4.947
 7550SOL    HW223550   2.876   5.408   4.867
 7551SOL     OW23551   6.544   2.315   6.296
 7551SOL    HW123552   6.632   2.285   6.333
 7551SOL    HW223553   6.548   2.412   6.274
 7552SOL     OW23554   2.413   7.018   5.006
 7552SOL    HW123555   2.432   6.993   4.911
 7552SOL    HW223556   2.367   0.082   5.009
 7553SOL     OW23557   5.533   6.340   5.598
 7553SOL    HW123558   5.447   6.295   5.576
 7553SOL    HW223559   5.515   6.431   5.635
 7554SOL     OW23560   4.381   1.305   0.781
 7554SOL    HW123561   4.430   1.301   0.693
 7554SOL    HW223562   4.352   1.399   0.798
 7555SOL     OW23563   4.392   4.902   4.222
 7555SOL    HW123564   4.325   4.828   4.216
 7555SOL    HW223565   4.368   4.975   4.159
 7556SOL     OW23566   0.763   6.723   1.494
 7556SOL    HW123567   0.762   6.665   1.412
 7556SOL    HW223568   0.671   6.758   1.510
 7557SOL     OW23569   4.874   6.774   1.261
 7557SOL    HW123570   4.938   6.703   1.233
 7557SOL    HW223571   4.810   6.793   1.186
 7558SOL     OW23572   0.648   1.735   3.960
 7558SOL    HW123573   0.651   1.834   3.955
 7558SOL    HW223574   0.568   1.701   3.911
 7559SOL     OW23575   2.738   1.702   4.697
 7559SOL    HW123576   2.793   1.773   4.740
 7559SOL    HW223577   2.642   1.714   4.724
 7560SOL     OW23578   1.290   1.163   5.831
 7560SOL    HW123579   1.207   1.191   5.880
 7560SOL    HW223580   1.345   1.244   5.810
 7561SOL     OW23581   6.123   1.755   5.372
 7561SOL    HW123582   6.106   1.713   5.283
 7561SOL    HW223583   6.101   1.690   5.444
 7562SOL     OW23584   2.003   5.500   3.424
 7562SOL    HW123585   2.055   5.437   3.365
 7562SOL    HW223586   1.909   5.507   3.390
 7563SOL     OW23587   3.749   6.163   2.117
 7563SOL    HW123588   3.660   6.183   2.077
 7563SOL    HW223589   3.739   6.088   2.183
 7564SOL     OW23590   3.757   1.877   5.288
 7564SOL    HW123591   3.763   1.844   5.194
 7564SOL    HW223592   3.762   1.800   5.351
 7565SOL     OW23593   6.578   3.616   6.004
 7565SOL    HW123594   6.579   3.625   5.904
 7565SOL    HW223595   6.666   3.580   6.035
 7566SOL     OW23596   4.592   4.700   1.415
 7566SOL    HW123597   4.571   4.690   1.512
 7566SOL    HW223598   4.552   4.624   1.365
 7567SOL     OW23599   0.841   6.802   4.129
 7567SOL    HW123600   0.865   6.820   4.225
 7567SOL    HW223601   0.761   6.742   4.126
 7568SOL     OW23602   6.164   5.506   1.490
 7568SOL    HW123603   6.253   5.482   1.450
 7568SOL    HW223604   6.137   5.597   1.457
 7569SOL     OW23605   4.893   3.499   0.250
 7569SOL    HW123606   4.943   3.479   0.165
 7569SOL    HW223607   4.822   3.567   0.231
 7570SOL     OW23608   0.823   3.305   2.316
 7570SOL    HW123609   0.822   3.368   2.394
 7570SOL    HW223610   0.772   3.222   2.339
 7571SOL     OW23611   4.492   2.067   2.357
 7571SOL    HW123612   4.454   1.976   2.339
 7571SOL    HW223613   4.417   2.130   2.377
 7572SOL     OW23614   4.474   7.007   3.766
 7572SOL    HW123615   4.435   0.057   3.713
 7572SOL    HW223616   4.563   0.009   3.803
 7573SOL     OW23617   4.270   6.776   5.949
 7573SOL    HW123618   4.335   6.844   5.983
 7573SOL    HW223619   4.215   6.741   6.026
 7574SOL     OW23620   0.668   2.312   3.803
 7574SOL    HW123621   0.642   2.341   3.895
 7574SOL    HW223622   0.762   2.341   3.785
 7575SOL     OW23623   0.326   6.468   2.732
 7575SOL    HW123624   0.276   6.497   2.813
 7575SOL    HW223625   0.339   6.547   2.671
 7576SOL     OW23626   5.195   2.698   0.260
 7576SOL    HW123627   5.108   2.743   0.281
 7576SOL    HW223628   5.250   2.758   0.202
 7577SOL     OW23629   0.839   0.579   0.233
 7577SOL    HW123630   0.927   0.541   0.205
 7577SOL    HW223631   0.766   0.517   0.203
 7578SOL     OW23632   6.479   5.747   3.475
 7578SOL    HW123633   6.420   5.828   3.472
 7578SOL    HW223634   6.487   5.714   3.569
 7579SOL     OW23635   0.832   1.633   6.713
 7579SOL    HW123636   0.764   1.704   6.696
 7579SOL    HW223637   0.880   1.611   6.628
 7580SOL     OW23638   2.006   4.952   3.794
 7580SOL    HW123639   1.944   4.972   3.718
 7580SOL    HW223640   1.997   4.855   3.819
 7581SOL     OW23641   6.855   0.725   2.301
 7581SOL    HW123642   6.922   0.794   2.273
 7581SOL    HW223643   6.864   0.644   2.243
 7582SOL     OW23644   2.239   1.968   6.766
 7582SOL    HW123645   2.249   2.005   6.674
 7582SOL    HW223646   2.157   2.005   6.809
 7583SOL     OW23647   5.293   3.191   3.172
 7583SOL    HW123648   5.385   3.205   3.137
 7583SOL    HW223649   5.259   3.102   3.142
 7584SOL     OW23650   0.725   1.316   3.152
 7584SOL    HW123651   0.664   1.253   3.200
 7584SOL    HW223652   0.808   1.330   3.206
 7585SOL     OW23653   0.805   1.363   6.006
 7585SOL    HW123654   0.719   1.347   6.053
 7585SOL    HW223655   0.808   1.458   5.974
 7586SOL     OW23656   1.733   0.140   3.088
 7586SOL    HW123657   1.714   0.149   3.185
 7586SOL    HW223658   1.775   0.051   3.070
 7587SOL     OW23659   4.128   6.929   1.025
 7587SOL    HW123660   4.139   6.840   1.071
 7587SOL    HW223661   4.074   6.990   1.084
 7588SOL     OW23662   2.558   2.507   4.645
 7588SOL    HW123663   2.596   2.415   4.633
 7588SOL    HW223664   2.611   2.556   4.715
 7589SOL     OW23665   0.309   0.212   2.660
 7589SOL    HW123666   0.395   0.230   2.611
 7589SOL    HW223667   0.322   0.232   2.757
 7590SOL     OW23668   6.648   0.899   7.002
 7590SOL    HW123669   6.711   0.895   6.924
 7590SOL    HW223670   6.687   0.958   0.048
 7591SOL     OW23671   3.528   3.138   4.639
 7591SOL    HW123672   3.580   3.180   4.564
 7591SOL    HW223673   3.587   3.075   4.690
 7592SOL     OW23674   6.617   6.549   4.140
 7592SOL    HW123675   6.713   6.539   4.166
 7592SOL    HW223676   6.610   6.559   4.041
 7593SOL     OW23677   0.517   1.249   5.390
 7593SOL    HW123678   0.419   1.254   5.410
 7593SOL    HW223679   0.530   1.222   5.295
 7594SOL     OW23680   0.203   3.992   6.796
 7594SOL    HW123681   0.236   4.081   6.827
 7594SOL    HW223682   0.208   3.988   6.696
 7595SOL     OW23683   1.217   3.349   6.947
 7595SOL    HW123684   1.255   3.386   0.007
 7595SOL    HW223685   1.119   3.332   6.960
 7596SOL     OW23686   3.018   1.488   5.977
 7596SOL    HW123687   3.088   1.481   5.906
 7596SOL    HW223688   2.927   1.488   5.935
 7597SOL     OW23689   1.635   4.872   1.643
 7597SOL    HW123690   1.662   4.844   1.551
 7597SOL    HW223691   1.543   4.910   1.641
 7598SOL     OW23692   6.170   0.508   1.935
 7598SOL    HW123693   6.172   0.600   1.975
 7598SOL    HW223694   6.113   0.508   1.853
 7599SOL     OW23695   3.252   3.889   0.979
 7599SOL    HW123696   3.174   3.894   1.041
 7599SOL    HW223697   3.220   3.895   0.884
 7600SOL     OW23698   1.268   6.902   3.823
 7600SOL    HW123699   1.229   6.816   3.792
 7600SOL    HW223700   1.326   6.941   3.751
 7601SOL     OW23701   2.948   6.837   2.193
 7601SOL    HW123702   2.929   6.929   2.157
 7601SOL    HW223703   2.893   6.770   2.143
 7602SOL     OW23704   0.516   1.421   1.046
 7602SOL    HW123705   0.492   1.340   0.994
 7602SOL    HW223706   0.514   1.400   1.144
 7603SOL     OW23707   3.651   0.898   6.173
 7603SOL    HW123708   3.697   0.818   6.135
 7603SOL    HW223709   3.682   0.980   6.126
 7604SOL     OW23710   0.672   2.596   4.967
 7604SOL    HW123711   0.665   2.562   5.060
 7604SOL    HW223712   0.595   2.656   4.947
 7605SOL     OW23713   2.064   6.334   6.965
 7605SOL    HW123714   2.035   6.407   6.903
 7605SOL    HW223715   2.109   6.373   0.021
 7606SOL     OW23716   6.976   1.109   3.520
 7606SOL    HW123717   6.921   1.147   3.447
 7606SOL    HW223718   0.047   1.101   3.490
 7607SOL     OW23719   1.803   6.048   5.454
 7607SOL    HW123720   1.845   6.136   5.473
 7607SOL    HW223721   1.847   6.006   5.375
 7608SOL     OW23722   6.090   2.468   6.386
 7608SOL    HW123723   6.082   2.392   6.321
 7608SOL    HW223724   6.186   2.486   6.404
 7609SOL     OW23725   2.542   1.432   4.526
 7609SOL    HW123726   2.607   1.485   4.471
 7609SOL    HW223727   2.571   1.432   4.622
 7610SOL     OW23728   4.115   5.108   4.595
 7610SOL    HW123729   4.089   5.194   4.639
 7610SOL    HW223730   4.091   5.031   4.655
 7611SOL     OW23731   4.655   2.902   0.901
 7611SOL    HW123732   4.581   2.968   0.885
 7611SOL    HW223733   4.734   2.950   0.937
 7612SOL     OW23734   4.000   1.753   2.655
 7612SOL    HW123735   4.039   1.830   2.706
 7612SOL    HW223736   4.037   1.667   2.690
 7613SOL     OW23737   0.939   0.619   1.337
 7613SOL    HW123738   0.886   0.681   1.278
 7613SOL    HW223739   0.979   0.672   1.413
 7614SOL     OW23740   5.363   4.042   7.013
 7614SOL    HW123741   5.421   3.984   0.046
 7614SOL    HW223742   5.402   4.047   6.921
 7615SOL     OW23743   6.351   3.033   5.138
 7615SOL    HW123744   6.429   2.978   5.109
 7615SOL    HW223745   6.347   3.117   5.084
 7616SOL     OW23746   6.476   0.096   3.257
 7616SOL    HW123747   6.494   0.005   3.219
 7616SOL    HW223748   6.385   0.096   3.300
 7617SOL     OW23749   6.245   4.033   3.322
 7617SOL    HW123750   6.325   3.985   3.358
 7617SOL    HW223751   6.162   3.993   3.361
 7618SOL     OW23752   2.336   2.786   0.226
 7618SOL    HW123753   2.300   2.868   0.270
 7618SOL    HW223754   2.343   2.801   0.127
 7619SOL     OW23755   1.889   1.360   4.690
 7619SOL    HW123756   1.901   1.274   4.739
 7619SOL    HW223757   1.967   1.376   4.630
 7620SOL     OW23758   3.332   4.855   0.833
 7620SOL    HW123759   3.333   4.784   0.763
 7620SOL    HW223760   3.250   4.912   0.822
 7621SOL     OW23761   6.012   3.899   0.251
 7621SOL    HW123762   5.970   3.826   0.196
 7621SOL    HW223763   5.957   3.914   0.333
 7622SOL     OW23764   3.297   3.845   1.689
 7622SOL    HW123765   3.318   3.760   1.738
 7622SOL    HW223766   3.212   3.885   1.725
 7623SOL     OW23767   5.043   4.045   1.872
 7623SOL    HW123768   4.956   4.000   1.849
 7623SOL    HW223769   5.047   4.059   1.971
 7624SOL     OW23770   1.346   3.361   2.416
 7624SOL    HW123771   1.369   3.289   2.482
 7624SOL    HW223772   1.357   3.326   2.323
 7625SOL     OW23773   5.018   0.664   1.921
 7625SOL    HW123774   5.099   0.657   1.862
 7625SOL    HW223775   4.944   0.706   1.869
 7626SOL     OW23776   4.658   0.699   6.608
 7626SOL    HW123777   4.565   0.664   6.620
 7626SOL    HW223778   4.705   0.698   6.696
 7627SOL     OW23779   4.295   3.221   6.361
 7627SOL    HW123780   4.325   3.298   6.417
 7627SOL    HW223781   4.325   3.235   6.267
 7628SOL     OW23782   3.419   2.629   0.437
 7628SOL    HW123783   3.442   2.710   0.492
 7628SOL    HW223784   3.485   2.619   0.363
 7629SOL     OW23785   5.788   2.335   3.076
 7629SOL    HW123786   5.764   2.406   3.009
 7629SOL    HW223787   5.708   2.315   3.132
 7630SOL     OW23788   1.240   6.467   3.887
 7630SOL    HW123789   1.161   6.481   3.946
 7630SOL    HW223790   1.323   6.495   3.935
 7631SOL     OW23791   0.831   0.301   5.298
 7631SOL    HW123792   0.734   0.320   5.282
 7631SOL    HW223793   0.869   0.372   5.357
 7632SOL     OW23794   5.038   5.812   0.496
 7632SOL    HW123795   5.136   5.827   0.502
 7632SOL    HW223796   4.992   5.900   0.483
 7633SOL     OW23797   6.559   0.976   1.335
 7633SOL    HW123798   6.508   1.014   1.257
 7633SOL    HW223799   6.581   0.880   1.317
 7634SOL     OW23800   6.912   1.953   6.826
 7634SOL    HW123801   6.979   1.890   6.786
 7634SOL    HW223802   6.825   1.906   6.836
 7635SOL     OW23803   2.045   3.019   5.535
 7635SOL    HW123804   1.948   2.997   5.538
 7635SOL    HW223805   2.079   3.011   5.442
 7636SOL     OW23806   7.002   3.700   4.381
 7636SOL    HW123807   6.926   3.691   4.317
 7636SOL    HW223808   0.013   3.610   4.404
 7637SOL     OW23809   0.885   4.604   4.398
 7637SOL    HW123810   0.879   4.653   4.485
 7637SOL    HW223811   0.793   4.579   4.367
 7638SOL     OW23812   0.299   6.062   1.229
 7638SOL    HW123813   0.299   5.976   1.180
 7638SOL    HW223814   0.394   6.088   1.250
 7639SOL     OW23815   1.881   1.205   0.463
 7639SOL    HW123816   1.796   1.152   0.456
 7639SOL    HW223817   1.860   1.302   0.464
 7640SOL     OW23818   3.019   1.290   0.877
 7640SOL    HW123819   2.961   1.311   0.798
 7640SOL    HW223820   2.999   1.354   0.951
 7641SOL     OW23821   0.298   3.753   4.212
 7641SOL    HW123822   0.324   3.724   4.304
 7641SOL    HW223823   0.221   3.817   4.218
 7642SOL     OW23824   5.255   0.714   3.087
 7642SOL    HW123825   5.259   0.765   3.173
 7642SOL    HW223826   5.346   0.677   3.066
 7643SOL     OW23827   5.145   3.385   4.166
 7643SOL    HW123828   5.132   3.384   4.265
 7643SOL    HW223829   5.185   3.298   4.137
 7644SOL     OW23830   5.133   3.444   0.889
 7644SOL    HW123831   5.158   3.524   0.835
 7644SOL    HW223832   5.150   3.463   0.986
 7645SOL     OW23833   3.474   4.808   6.999
 7645SOL    HW123834   3.457   4.737   6.930
 7645SOL    HW223835   3.572   4.814   7.016
 7646SOL     OW23836   6.514   1.820   0.300
 7646SOL    HW123837   6.561   1.901   0.265
 7646SOL    HW223838   6.570   1.776   0.371
 7647SOL     OW23839   0.155   2.381   3.932
 7647SOL    HW123840   0.229   2.329   3.888
 7647SOL    HW223841   0.075   2.322   3.944
 7648SOL     OW23842   2.120   2.063   1.991
 7648SOL    HW123843   2.214   2.028   1.991
 7648SOL    HW223844   2.101   2.108   2.078
 7649SOL     OW23845   3.767   1.524   6.712
 7649SOL    HW123846   3.754   1.559   6.805
 7649SOL    HW223847   3.720   1.583   6.647
 7650SOL     OW23848   4.318   2.555   0.172
 7650SOL    HW123849   4.261   2.512   0.103
 7650SOL    HW223850   4.261   2.583   0.250
 7651SOL     OW23851   3.062   5.149   6.506
 7651SOL    HW123852   3.014   5.117   6.588
 7651SOL    HW223853   3.131   5.216   6.530
 7652SOL     OW23854   0.992   0.977   4.245
 7652SOL    HW123855   0.902   1.002   4.280
 7652SOL    HW223856   1.034   0.909   4.305
 7653SOL     OW23857   2.409   0.530   6.632
 7653SOL    HW123858   2.433   0.627   6.629
 7653SOL    HW223859   2.331   0.513   6.571
 7654SOL     OW23860   6.351   1.951   6.132
 7654SOL    HW123861   6.369   2.048   6.115
 7654SOL    HW223862   6.313   1.909   6.050
 7655SOL     OW23863   3.447   1.535   3.954
 7655SOL    HW123864   3.531   1.527   4.007
 7655SOL    HW223865   3.463   1.593   3.874
 7656SOL     OW23866   6.139   4.184   0.021
 7656SOL    HW123867   6.150   4.089   7.017
 7656SOL    HW223868   6.182   4.244   6.978
 7657SOL     OW23869   1.343   4.043   4.930
 7657SOL    HW123870   1.426   4.098   4.939
 7657SOL    HW223871   1.343   3.970   4.998
 7658SOL     OW23872   2.829   0.695   0.742
 7658SOL    HW123873   2.822   0.794   0.729
 7658SOL    HW223874   2.901   0.659   0.684
 7659SOL     OW23875   4.944   4.377   5.749
 7659SOL    HW123876   4.845   4.390   5.743
 7659SOL    HW223877   4.967   4.339   5.838
 7660SOL     OW23878   6.889   5.483   5.648
 7660SOL    HW123879   6.934   5.396   5.628
 7660SOL    HW223880   6.915   5.513   5.740
 7661SOL     OW23881   3.765   1.563   4.838
 7661SOL    HW123882   3.705   1.593   4.911
 7661SOL    HW223883   3.712   1.551   4.754
 7662SOL     OW23884   6.759   6.307   1.308
 7662SOL    HW123885   6.706   6.222   1.313
 7662SOL    HW223886   6.776   6.329   1.212
 7663SOL     OW23887   0.472   5.249   5.061
 7663SOL    HW123888   0.376   5.234   5.083
 7663SOL    HW223889   0.482   5.334   5.010
 7664SOL     OW23890   3.761   1.940   2.514
 7664SOL    HW123891   3.740   1.850   2.552
 7664SOL    HW223892   3.700   1.959   2.437
 7665SOL     OW23893   3.713   0.571   5.903
 7665SOL    HW123894   3.750   0.594   5.812
 7665SOL    HW223895   3.614   0.559   5.897
 7666SOL     OW23896   5.565   4.172   3.769
 7666SOL    HW123897   5.617   4.258   3.771
 7666SOL    HW223898   5.470   4.190   3.794
 7667SOL     OW23899   4.002   6.353   2.550
 7667SOL    HW123900   4.067   6.399   2.489
 7667SOL    HW223901   4.048   6.331   2.636
 7668SOL     OW23902   1.865   5.833   0.768
 7668SOL    HW123903   1.832   5.898   0.837
 7668SOL    HW223904   1.787   5.784   0.729
 7669SOL     OW23905   2.553   1.125   6.626
 7669SOL    HW123906   2.469   1.085   6.590
 7669SOL    HW223907   2.537   1.220   6.653
 7670SOL     OW23908   1.116   0.616   1.058
 7670SOL    HW123909   1.067   0.654   0.980
 7670SOL    HW223910   1.058   0.622   1.139
 7671SOL     OW23911   3.244   6.752   1.150
 7671SOL    HW123912   3.158   6.800   1.169
 7671SOL    HW223913   3.286   6.792   1.068
 7672SOL     OW23914   4.943   4.367   1.901
 7672SOL    HW123915   4.994   4.287   1.933
 7672SOL    HW223916   4.905   4.415   1.980
 7673SOL     OW23917   1.911   6.679   4.974
 7673SOL    HW123918   1.865   6.768   4.972
 7673SOL    HW223919   1.870   6.622   5.044
 7674SOL     OW23920   4.502   5.905   4.934
 7674SOL    HW123921   4.506   5.959   4.850
 7674SOL    HW223922   4.410   5.908   4.972
 7675SOL     OW23923   4.887   6.106   3.222
 7675SOL    HW123924   4.801   6.071   3.261
 7675SOL    HW223925   4.950   6.030   3.209
 7676SOL     OW23926   3.690   2.905   5.476
 7676SOL    HW123927   3.637   2.922   5.559
 7676SOL    HW223928   3.655   2.962   5.402
 7677SOL     OW23929   6.492   4.972   6.987
 7677SOL    HW123930   6.445   4.991   6.901
 7677SOL    HW223931   6.479   4.876   7.011
 7678SOL     OW23932   3.034   1.695   5.014
 7678SOL    HW123933   3.055   1.616   5.072
 7678SOL    HW223934   2.972   1.757   5.063
 7679SOL     OW23935   3.809   5.925   4.763
 7679SOL    HW123936   3.747   5.942   4.686
 7679SOL    HW223937   3.867   5.846   4.742
 7680SOL     OW23938   2.047   6.761   4.653
 7680SOL    HW123939   2.120   6.705   4.611
 7680SOL    HW223940   1.987   6.702   4.707
 7681SOL     OW23941   2.278   2.720   5.903
 7681SOL    HW123942   2.371   2.731   5.867
 7681SOL    HW223943   2.219   2.792   5.865
 7682SOL     OW23944   3.130   1.022   2.816
 7682SOL    HW123945   3.135   1.028   2.916
 7682SOL    HW223946   3.120   0.926   2.789
 7683SOL     OW23947   0.977   4.335   4.533
 7683SOL    HW123948   0.974   4.434   4.536
 7683SOL    HW223949   0.903   4.297   4.589
 7684SOL     OW23950   5.041   3.419   1.358
 7684SOL    HW123951   4.988   3.503   1.351
 7684SOL    HW223952   5.071   3.406   1.452
 7685SOL     OW23953   2.565   0.373   0.826
 7685SOL    HW123954   2.538   0.356   0.731
 7685SOL    HW223955   2.650   0.426   0.827
 7686SOL     OW23956   6.739   6.790   4.707
 7686SOL    HW123957   6.741   6.843   4.792
 7686SOL    HW223958   6.811   6.721   4.709
 7687SOL     OW23959   5.518   3.639   5.971
 7687SOL    HW123960   5.422   3.663   5.959
 7687SOL    HW223961   5.531   3.601   6.063
 7688SOL     OW23962   6.557   3.577   6.326
 7688SOL    HW123963   6.482   3.619   6.274
 7688SOL    HW223964   6.612   3.521   6.264
 7689SOL     OW23965   5.019   0.973   2.043
 7689SOL    HW123966   5.065   0.944   1.959
 7689SOL    HW223967   4.932   1.017   2.020
 7690SOL     OW23968   6.241   5.263   2.210
 7690SOL    HW123969   6.219   5.190   2.145
 7690SOL    HW223970   6.332   5.299   2.190
 7691SOL     OW23971   4.892   3.253   4.028
 7691SOL    HW123972   4.950   3.192   4.081
 7691SOL    HW223973   4.852   3.322   4.088
 7692SOL     OW23974   2.855   6.626   2.583
 7692SOL    HW123975   2.862   6.528   2.600
 7692SOL    HW223976   2.939   6.659   2.540
 7693SOL     OW23977   2.973   0.787   1.678
 7693SOL    HW123978   3.065   0.820   1.698
 7693SOL    HW223979   2.907   0.859   1.700
 7694SOL     OW23980   4.343   1.793   6.360
 7694SOL    HW123981   4.362   1.703   6.398
 7694SOL    HW223982   4.429   1.835   6.331
 7695SOL     OW23983   4.930   0.092   3.726
 7695SOL    HW123984   4.942   0.191   3.716
 7695SOL    HW223985   5.015   0.051   3.758
 7696SOL     OW23986   2.111   2.524   6.017
 7696SOL    HW123987   2.182   2.579   5.974
 7696SOL    HW223988   2.093   2.558   6.109
 7697SOL     OW23989   5.962   6.859   3.455
 7697SOL    HW123990   5.999   6.827   3.542
 7697SOL    HW223991   5.862   6.852   3.458
 7698SOL     OW23992   6.261   3.300   1.083
 7698SOL    HW123993   6.278   3.390   1.123
 7698SOL    HW223994   6.180   3.304   1.025
 7699SOL     OW23995   4.876   6.415   5.427
 7699SOL    HW123996   4.865   6.317   5.446
 7699SOL    HW223997   4.959   6.428   5.372
 7700SOL     OW23998   5.182   5.572   1.686
 7700SOL    HW123999   5.117   5.518   1.739
 7700SOL    HW224000   5.275   5.550   1.713
 7701SOL     OW24001   1.508   2.438   6.369
 7701SOL    HW124002   1.439   2.372   6.340
 7701SOL    HW224003   1.471   2.492   6.446
 7702SOL     OW24004   5.090   0.086   4.706
 7702SOL    HW124005   5.064   7.020   4.672
 7702SOL    HW224006   5.007   0.137   4.729
 7703SOL     OW24007   0.034   6.714   5.368
 7703SOL    HW124008   0.001   6.689   5.459
 7703SOL    HW224009   0.114   6.658   5.344
 7704SOL     OW24010   1.046   1.610   4.913
 7704SOL    HW124011   1.024   1.632   4.818
 7704SOL    HW224012   0.963   1.589   4.963
 7705SOL     OW24013   1.042   5.283   7.014
 7705SOL    HW124014   1.110   5.212   0.008
 7705SOL    HW224015   1.003   5.315   0.076
 7706SOL     OW24016   3.626   3.168   2.832
 7706SOL    HW124017   3.659   3.076   2.812
 7706SOL    HW224018   3.610   3.177   2.930
 7707SOL     OW24019   6.464   4.120   7.003
 7707SOL    HW124020   6.402   4.172   0.037
 7707SOL    HW224021   6.498   4.178   6.930
 7708SOL     OW24022   1.814   0.288   4.152
 7708SOL    HW124023   1.757   0.217   4.194
 7708SOL    HW224024   1.787   0.378   4.188
 7709SOL     OW24025   0.021   4.916   1.588
 7709SOL    HW124026   0.065   4.867   1.663
 7709SOL    HW224027   6.983   4.984   1.625
 7710SOL     OW24028   6.383   2.870   1.184
 7710SOL    HW124029   6.463   2.874   1.124
 7710SOL    HW224030   6.307   2.921   1.143
 7711SOL     OW24031   0.138   4.531   4.594
 7711SOL    HW124032   0.105   4.626   4.600
 7711SOL    HW224033   0.078   4.479   4.533
 7712SOL     OW24034   0.241   4.927   5.494
 7712SOL    HW124035   0.292   4.968   5.418
 7712SOL    HW224036   0.260   4.977   5.578
 7713SOL     OW24037   1.569   4.636   0.042
 7713SOL    HW124038   1.641   4.679   0.097
 7713SOL    HW224039   1.586   4.654   6.970
 7714SOL     OW24040   5.831   1.766   4.724
 7714SOL    HW124041   5.800   1.852   4.766
 7714SOL    HW224042   5.861   1.785   4.630
 7715SOL     OW24043   3.655   3.432   5.352
 7715SOL    HW124044   3.655   3.345   5.401
 7715SOL    HW224045   3.564   3.474   5.359
 7716SOL     OW24046   1.348   6.918   6.200
 7716SOL    HW124047   1.278   6.987   6.185
 7716SOL    HW224048   1.337   6.844   6.134
 7717SOL     OW24049   0.125   2.361   6.445
 7717SOL    HW124050   0.192   2.436   6.447
 7717SOL    HW224051   0.063   2.371   6.523
 7718SOL     OW24052   0.550   3.427   3.139
 7718SOL    HW124053   0.491   3.504   3.164
 7718SOL    HW224054   0.495   3.344   3.136
 7719SOL     OW24055   1.610   5.289   5.237
 7719SOL    HW124056   1.625   5.255   5.144
 7719SOL    HW224057   1.590   5.212   5.298
 7720SOL     OW24058   4.343   1.278   6.703
 7720SOL    HW124059   4.412   1.350   6.693
 7720SOL    HW224060   4.269   1.293   6.639
 7721SOL     OW24061   6.683   6.627   2.617
 7721SOL    HW124062   6.704   6.542   2.568
 7721SOL    HW224063   6.667   6.700   2.551
 7722SOL     OW24064   1.267   6.196   3.529
 7722SOL    HW124065   1.282   6.268   3.462
 7722SOL    HW224066   1.324   6.117   3.505
 7723SOL     OW24067   4.722   3.966   6.675
 7723SOL    HW124068   4.732   4.059   6.640
 7723SOL    HW224069   4.725   3.968   6.775
 7724SOL     OW24070   1.949   3.459   0.834
 7724SOL    HW124071   1.859   3.496   0.811
 7724SOL    HW224072   1.955   3.442   0.932
 7725SOL     OW24073   5.382   2.742   4.583
 7725SOL    HW124074   5.364   2.723   4.679
 7725SOL    HW224075   5.307   2.798   4.546
 7726SOL     OW24076   1.459   3.555   6.644
 7726SOL    HW124077   1.521   3.618   6.692
 7726SOL    HW224078   1.411   3.605   6.572
 7727SOL     OW24079   4.540   0.664   2.629
 7727SOL    HW124080   4.554   0.591   2.696
 7727SOL    HW224081   4.609   0.735   2.641
 7728SOL     OW24082   1.926   4.091   4.938
 7728SOL    HW124083   1.979   4.176   4.943
 7728SOL    HW224084   1.966   4.031   4.868
 7729SOL     OW24085   6.863   1.224   2.915
 7729SOL    HW124086   6.917   1.251   2.994
 7729SOL    HW224087   6.839   1.128   2.922
 7730SOL     OW24088   6.594   4.448   5.274
 7730SOL    HW124089   6.652   4.509   5.221
 7730SOL    HW224090   6.651   4.385   5.327
 7731SOL     OW24091   6.605   0.170   5.765
 7731SOL    HW124092   6.592   0.180   5.864
 7731SOL    HW224093   6.639   0.079   5.744
 7732SOL     OW24094   3.966   0.224   6.409
 7732SOL    HW124095   3.973   0.161   6.331
 7732SOL    HW224096   3.870   0.237   6.432
 7733SOL     OW24097   0.084   5.413   1.513
 7733SOL    HW124098   0.135   5.390   1.429
 7733SOL    HW224099   0.131   5.486   1.562
 7734SOL     OW24100   3.147   4.044   3.540
 7734SOL    HW124101   3.176   4.093   3.622
 7734SOL    HW224102   3.104   3.958   3.565
 7735SOL     OW24103   0.444   6.539   1.189
 7735SOL    HW124104   0.544   6.539   1.190
 7735SOL    HW224105   0.411   6.630   1.163
 7736SOL     OW24106   1.478   2.297   7.020
 7736SOL    HW124107   1.560   2.262   6.974
 7736SOL    HW224108   1.504   2.340   0.082
 7737SOL     OW24109   4.371   4.589   6.929
 7737SOL    HW124110   4.371   4.491   6.913
 7737SOL    HW224111   4.457   4.628   6.896
 7738SOL     OW24112   2.009   0.650   5.595
 7738SOL    HW124113   1.968   0.737   5.569
 7738SOL    HW224114   1.955   0.608   5.668
 7739SOL     OW24115   1.945   2.356   0.619
 7739SOL    HW124116   1.931   2.454   0.607
 7739SOL    HW224117   2.042   2.334   0.609
 7740SOL     OW24118   2.397   0.339   5.108
 7740SOL    HW124119   2.312   0.377   5.145
 7740SOL    HW224120   2.428   0.393   5.030
 7741SOL     OW24121   0.650   4.819   6.237
 7741SOL    HW124122   0.689   4.741   6.286
 7741SOL    HW224123   0.658   4.804   6.138
 7742SOL     OW24124   4.526   2.148   3.966
 7742SOL    HW124125   4.502   2.212   4.039
 7742SOL    HW224126   4.617   2.170   3.931
 7743SOL     OW24127   4.038   1.673   5.972
 7743SOL    HW124128   4.062   1.728   5.892
 7743SOL    HW224129   4.117   1.618   5.999
 7744SOL     OW24130   1.021   0.034   4.444
 7744SOL    HW124131   1.116   0.004   4.449
 7744SOL    HW224132   0.961   6.979   4.437
 7745SOL     OW24133   3.147   0.024   1.379
 7745SOL    HW124134   3.096   0.109   1.392
 7745SOL    HW224135   3.096   6.988   1.319
 7746SOL     OW24136   0.568   5.545   1.993
 7746SOL    HW124137   0.636   5.607   2.032
 7746SOL    HW224138   0.487   5.596   1.966
 7747SOL     OW24139   6.711   5.827   0.583
 7747SOL    HW124140   6.752   5.835   0.491
 7747SOL    HW224141   6.688   5.917   0.617
 7748SOL     OW24142   4.576   1.348   5.639
 7748SOL    HW124143   4.635   1.411   5.689
 7748SOL    HW224144   4.526   1.291   5.704
 7749SOL     OW24145   4.100   3.458   3.091
 7749SOL    HW124146   4.051   3.380   3.053
 7749SOL    HW224147   4.136   3.435   3.181
 7750SOL     OW24148   5.072   5.193   5.622
 7750SOL    HW124149   5.086   5.263   5.552
 7750SOL    HW224150   5.059   5.104   5.577
 7751SOL     OW24151   6.784   1.658   4.518
 7751SOL    HW124152   6.858   1.721   4.494
 7751SOL    HW224153   6.810   1.606   4.600
 7752SOL     OW24154   6.452   4.944   5.316
 7752SOL    HW124155   6.398   4.861   5.301
 7752SOL    HW224156   6.494   4.973   5.230
 7753SOL     OW24157   2.518   0.872   5.359
 7753SOL    HW124158   2.537   0.812   5.437
 7753SOL    HW224159   2.436   0.926   5.378
 7754SOL     OW24160   6.639   1.270   1.378
 7754SOL    HW124161   6.601   1.331   1.448
 7754SOL    HW224162   6.594   1.181   1.384
 7755SOL     OW24163   1.317   5.994   5.157
 7755SOL    HW124164   1.389   6.059   5.133
 7755SOL    HW224165   1.356   5.917   5.207
 7756SOL     OW24166   3.877   5.641   3.237
 7756SOL    HW124167   3.935   5.717   3.207
 7756SOL    HW224168   3.895   5.621   3.333
 7757SOL     OW24169   3.293   6.394   5.532
 7757SOL    HW124170   3.282   6.351   5.621
 7757SOL    HW224171   3.379   6.444   5.530
 7758SOL     OW24172   3.233   2.693   6.439
 7758SOL    HW124173   3.221   2.594   6.429
 7758SOL    HW224174   3.144   2.738   6.438
 7759SOL     OW24175   2.203   1.036   5.112
 7759SOL    HW124176   2.270   0.996   5.050
 7759SOL    HW224177   2.246   1.110   5.165
 7760SOL     OW24178   5.143   1.715   3.766
 7760SOL    HW124179   5.050   1.751   3.763
 7760SOL    HW224180   5.142   1.625   3.809
 7761SOL     OW24181   4.137   0.561   6.604
 7761SOL    HW124182   4.070   0.587   6.535
 7761SOL    HW224183   4.097   0.571   6.695
 7762SOL     OW24184   1.430   2.285   0.468
 7762SOL    HW124185   1.476   2.215   0.522
 7762SOL    HW224186   1.436   2.261   0.371
 7763SOL     OW24187   2.352   2.415   1.403
 7763SOL    HW124188   2.356   2.323   1.440
 7763SOL    HW224189   2.415   2.474   1.452
 7764SOL     OW24190   4.134   3.604   2.261
 7764SOL    HW124191   4.163   3.509   2.266
 7764SOL    HW224192   4.122   3.640   2.353
 7765SOL     OW24193   0.311   1.933   2.422
 7765SOL    HW124194   0.314   2.025   2.383
 7765SOL    HW224195   0.217   1.912   2.448
 7766SOL     OW24196   6.658   3.882   0.426
 7766SOL    HW124197   6.634   3.830   0.508
 7766SOL    HW224198   6.623   3.834   0.345
 7767SOL     OW24199   5.631   4.105   5.196
 7767SOL    HW124200   5.709   4.044   5.180
 7767SOL    HW224201   5.547   4.052   5.198
 7768SOL     OW24202   4.210   5.295   1.785
 7768SOL    HW124203   4.164   5.279   1.873
 7768SOL    HW224204   4.142   5.307   1.714
 7769SOL     OW24205   6.715   2.023   2.262
 7769SOL    HW124206   6.804   2.000   2.223
 7769SOL    HW224207   6.644   1.969   2.215
 7770SOL     OW24208   3.430   5.728   1.356
 7770SOL    HW124209   3.435   5.661   1.431
 7770SOL    HW224210   3.510   5.717   1.297
 7771SOL     OW24211   2.495   0.765   4.759
 7771SOL    HW124212   2.558   0.840   4.738
 7771SOL    HW224213   2.515   0.687   4.699
 7772SOL     OW24214   5.624   0.869   5.231
 7772SOL    HW124215   5.684   0.934   5.278
 7772SOL    HW224216   5.551   0.841   5.293
 7773SOL     OW24217   4.051   4.541   5.548
 7773SOL    HW124218   4.104   4.519   5.467
 7773SOL    HW224219   4.111   4.548   5.627
 7774SOL     OW24220   4.945   1.654   6.663
 7774SOL    HW124221   4.997   1.632   6.580
 7774SOL    HW224222   4.916   1.569   6.707
 7775SOL     OW24223   2.481   6.609   2.270
 7775SOL    HW124224   2.489   6.533   2.206
 7775SOL    HW224225   2.553   6.603   2.339
 7776SOL     OW24226   3.826   4.200   0.650
 7776SOL    HW124227   3.750   4.212   0.715
 7776SOL    HW224228   3.884   4.281   0.653
 7777SOL     OW24229   1.654   0.318   6.754
 7777SOL    HW124230   1.742   0.365   6.761
 7777SOL    HW224231   1.580   0.386   6.757
 7778SOL     OW24232   4.990   1.230   1.546
 7778SOL    HW124233   5.020   1.288   1.621
 7778SOL    HW224234   5.040   1.143   1.549
 7779SOL     OW24235   4.150   3.055   0.103
 7779SOL    HW124236   4.101   3.104   0.175
 7779SOL    HW224237   4.090   2.987   0.062
 7780SOL     OW24238   1.135   0.122   4.704
 7780SOL    HW124239   1.209   0.070   4.747
 7780SOL    HW224240   1.051   0.068   4.708
 7781SOL     OW24241   1.084   4.870   5.503
 7781SOL    HW124242   1.015   4.825   5.445
 7781SOL    HW224243   1.141   4.929   5.446
 7782SOL     OW24244   3.548   5.077   6.846
 7782SOL    HW124245   3.644   5.103   6.855
 7782SOL    HW224246   3.541   4.978   6.835
 7783SOL     OW24247   2.714   5.056   6.639
 7783SOL    HW124248   2.702   5.019   6.547
 7783SOL    HW224249   2.664   5.142   6.648
 7784SOL     OW24250   0.302   2.758   6.873
 7784SOL    HW124251   0.205   2.779   6.857
 7784SOL    HW224252   0.340   2.823   6.939
 7785SOL     OW24253   2.179   5.816   4.795
 7785SOL    HW124254   2.243   5.888   4.768
 7785SOL    HW224255   2.201   5.732   4.745
 7786SOL     OW24256   3.321   4.116   4.932
 7786SOL    HW124257   3.247   4.065   4.890
 7786SOL    HW224258   3.285   4.173   5.006
 7787SOL     OW24259   2.970   2.331   5.273
 7787SOL    HW124260   2.942   2.292   5.185
 7787SOL    HW224261   3.057   2.380   5.262
 7788SOL     OW24262   0.647   1.462   0.200
 7788SOL    HW124263   0.701   1.482   0.282
 7788SOL    HW224264   0.646   1.364   0.184
 7789SOL     OW24265   1.925   0.445   1.391
 7789SOL    HW124266   1.911   0.350   1.362
 7789SOL    HW224267   1.958   0.447   1.486
 7790SOL     OW24268   6.464   3.466   2.902
 7790SOL    HW124269   6.495   3.385   2.851
 7790SOL    HW224270   6.528   3.485   2.976
 7791SOL     OW24271   0.780   4.164   4.934
 7791SOL    HW124272   0.797   4.104   5.012
 7791SOL    HW224273   0.817   4.255   4.953
 7792SOL     OW24274   2.180   5.693   6.324
 7792SOL    HW124275   2.087   5.671   6.356
 7792SOL    HW224276   2.241   5.617   6.345
 7793SOL     OW24277   1.548   0.865   6.535
 7793SOL    HW124278   1.620   0.902   6.477
 7793SOL    HW224279   1.512   0.937   6.594
 7794SOL     OW24280   5.317   5.638   3.338
 7794SOL    HW124281   5.395   5.587   3.303
 7794SOL    HW224282   5.233   5.585   3.322
 7795SOL     OW24283   1.580   5.225   5.619
 7795SOL    HW124284   1.639   5.305   5.626
 7795SOL    HW224285   1.597   5.164   5.697
 7796SOL     OW24286   4.031   3.186   4.272
 7796SOL    HW124287   4.031   3.197   4.371
 7796SOL    HW224288   4.060   3.271   4.228
 7797SOL     OW24289   0.900   0.093   3.019
 7797SOL    HW124290   0.971   0.162   3.031
 7797SOL    HW224291   0.919   0.040   2.936
 7798SOL     OW24292   4.066   5.835   6.446
 7798SOL    HW124293   4.123   5.770   6.497
 7798SOL    HW224294   4.125   5.898   6.395
 7799SOL     OW24295   6.019   4.688   1.451
 7799SOL    HW124296   6.048   4.719   1.542
 7799SOL    HW224297   6.010   4.588   1.452
 7800SOL     OW24298   0.711   6.281   2.009
 7800SOL    HW124299   0.684   6.200   1.955
 7800SOL    HW224300   0.661   6.280   2.096
 7801SOL     OW24301   3.731   2.306   5.825
 7801SOL    HW124302   3.768   2.398   5.822
 7801SOL    HW224303   3.643   2.307   5.872
 7802SOL     OW24304   5.905   2.126   0.953
 7802SOL    HW124305   5.928   2.050   0.893
 7802SOL    HW224306   5.818   2.108   0.998
 7803SOL     OW24307   3.366   4.171   5.954
 7803SOL    HW124308   3.321   4.143   5.870
 7803SOL    HW224309   3.448   4.115   5.970
 7804SOL     OW24310   5.085   1.564   6.439
 7804SOL    HW124311   5.178   1.535   6.464
 7804SOL    HW224312   5.089   1.653   6.394
 7805SOL     OW24313   5.423   3.372   2.002
 7805SOL    HW124314   5.450   3.452   1.948
 7805SOL    HW224315   5.340   3.332   1.963
 7806SOL     OW24316   4.705   3.043   6.719
 7806SOL    HW124317   4.752   3.022   6.633
 7806SOL    HW224318   4.629   3.105   6.701
 7807SOL     OW24319   0.137   3.291   6.808
 7807SOL    HW124320   0.206   3.342   6.755
 7807SOL    HW224321   0.080   3.356   6.859
 7808SOL     OW24322   0.764   1.557   5.290
 7808SOL    HW124323   0.856   1.520   5.301
 7808SOL    HW224324   0.766   1.656   5.307
 7809SOL     OW24325   1.591   5.431   5.930
 7809SOL    HW124326   1.494   5.454   5.925
 7809SOL    HW224327   1.604   5.352   5.989
 7810SOL     OW24328   2.266   1.070   6.872
 7810SOL    HW124329   2.306   0.978   6.872
 7810SOL    HW224330   2.232   1.091   6.780
 7811SOL     OW24331   0.271   4.488   4.841
 7811SOL    HW124332   0.217   4.489   4.756
 7811SOL    HW224333   0.366   4.463   4.819
 7812SOL     OW24334   0.348   1.852   4.098
 7812SOL    HW124335   0.394   1.854   4.009
 7812SOL    HW224336   0.274   1.785   4.096
 7813SOL     OW24337   6.160   2.583   0.972
 7813SOL    HW124338   6.172   2.616   0.878
 7813SOL    HW224339   6.128   2.659   1.029
 7814SOL     OW24340   1.876   3.538   3.906
 7814SOL    HW124341   1.974   3.516   3.911
 7814SOL    HW224342   1.862   3.612   3.841
 7815SOL     OW24343   0.055   1.376   6.180
 7815SOL    HW124344   6.996   1.385   6.126
 7815SOL    HW224345   0.131   1.416   6.129
 7816SOL     OW24346   1.284   3.840   5.124
 7816SOL    HW124347   1.336   3.768   5.170
 7816SOL    HW224348   1.192   3.845   5.165
 7817SOL     OW24349   5.289   3.631   5.228
 7817SOL    HW124350   5.305   3.538   5.263
 7817SOL    HW224351   5.205   3.632   5.175
 7818SOL     OW24352   4.733   5.260   2.831
 7818SOL    HW124353   4.702   5.317   2.754
 7818SOL    HW224354   4.758   5.169   2.797
 7819SOL     OW24355   0.324   1.720   1.435
 7819SOL    HW124356   0.341   1.803   1.381
 7819SOL    HW224357   0.253   1.666   1.390
 7820SOL     OW24358   2.141   6.936   6.372
 7820SOL    HW124359   2.092   7.021   6.390
 7820SOL    HW224360   2.239   6.954   6.368
 7821SOL     OW24361   2.824   5.536   0.780
 7821SOL    HW124362   2.846   5.631   0.803
 7821SOL    HW224363   2.773   5.494   0.855
 7822SOL     OW24364   1.477   6.222   5.911
 7822SOL    HW124365   1.549   6.289   5.931
 7822SOL    HW224366   1.464   6.216   5.812
 7823SOL     OW24367   1.882   4.414   5.021
 7823SOL    HW124368   1.849   4.336   4.968
 7823SOL    HW224369   1.839   4.413   5.112
 7824SOL     OW24370   0.811   3.664   5.793
 7824SOL    HW124371   0.746   3.592   5.768
 7824SOL    HW224372   0.827   3.661   5.892
 7825SOL     OW24373   2.918   0.771   6.777
 7825SOL    HW124374   2.866   0.855   6.764
 7825SOL    HW224375   2.998   0.772   6.718
 7826SOL     OW24376   0.782   3.206   5.772
 7826SOL    HW124377   0.769   3.108   5.788
 7826SOL    HW224378   0.851   3.240   5.837
 7827SOL     OW24379   6.618   5.429   4.597
 7827SOL    HW124380   6.605   5.345   4.649
 7827SOL    HW224381   6.701   5.422   4.542
 7828SOL     OW24382   0.578   5.133   0.086
 7828SOL    HW124383   0.492   5.122   0.135
 7828SOL    HW224384   0.563   5.192   0.006
 7829SOL     OW24385   3.791   3.336   0.378
 7829SOL    HW124386   3.816   3.401   0.450
 7829SOL    HW224387   3.712   3.370   0.327
 7830SOL     OW24388   2.308   5.845   3.830
 7830SOL    HW124389   2.373   5.913   3.862
 7830SOL    HW224390   2.255   5.882   3.754
 7831SOL     OW24391   1.624   0.049   6.867
 7831SOL    HW124392   1.624   0.023   6.963
 7831SOL    HW224393   1.652   0.145   6.858
 7832SOL     OW24394   6.564   0.648   4.681
 7832SOL    HW124395   6.640   0.671   4.620
 7832SOL    HW224396   6.576   0.695   4.768
 7833SOL     OW24397   1.168   0.593   3.285
 7833SOL    HW124398   1.182   0.571   3.189
 7833SOL    HW224399   1.254   0.629   3.323
 7834SOL     OW24400   6.525   3.370   5.687
 7834SOL    HW124401   6.466   3.356   5.766
 7834SOL    HW224402   6.551   3.466   5.680
 7835SOL     OW24403   4.219   2.496   5.572
 7835SOL    HW124404   4.284   2.492   5.496
 7835SOL    HW224405   4.228   2.414   5.628
 7836SOL     OW24406   3.250   3.594   4.111
 7836SOL    HW124407   3.228   3.496   4.107
 7836SOL    HW224408   3.349   3.606   4.104
 7837SOL     OW24409   0.358   5.697   0.027
 7837SOL    HW124410   0.333   5.785   7.011
 7837SOL    HW224411   0.437   5.709   0.087
 7838SOL     OW24412   4.521   5.601   2.456
 7838SOL    HW124413   4.530   5.693   2.418
 7838SOL    HW224414   4.426   5.584   2.480
 7839SOL     OW24415   5.869   3.084   4.337
 7839SOL    HW124416   5.938   3.031   4.288
 7839SOL    HW224417   5.914   3.138   4.408
 7840SOL     OW24418   2.047   2.909   4.296
 7840SOL    HW124419   2.133   2.898   4.347
 7840SOL    HW224420   1.975   2.856   4.339
 7841SOL     OW24421   3.878   1.889   6.642
 7841SOL    HW124422   3.928   1.976   6.642
 7841SOL    HW224423   3.937   1.817   6.606
 7842SOL     OW24424   1.168   0.578   1.743
 7842SOL    HW124425   1.139   0.673   1.758
 7842SOL    HW224426   1.195   0.567   1.648
 7843SOL     OW24427   0.350   6.191   3.094
 7843SOL    HW124428   0.291   6.164   3.018
 7843SOL    HW224429   0.425   6.125   3.103
 7844SOL     OW24430   3.806   0.419   2.142
 7844SOL    HW124431   3.852   0.330   2.145
 7844SOL    HW224432   3.743   0.421   2.065
 7845SOL     OW24433   6.589   2.829   0.767
 7845SOL    HW124434   6.591   2.842   0.866
 7845SOL    HW224435   6.634   2.742   0.744
 7846SOL     OW24436   1.016   1.124   0.260
 7846SOL    HW124437   1.098   1.116   0.204
 7846SOL    HW224438   1.021   1.208   0.315
 7847SOL     OW24439   5.753   4.639   6.252
 7847SOL    HW124440   5.699   4.556   6.263
 7847SOL    HW224441   5.817   4.647   6.328
 7848SOL     OW24442   3.118   4.651   0.467
 7848SOL    HW124443   3.150   4.627   0.375
 7848SOL    HW224444   3.047   4.721   0.459
 7849SOL     OW24445   4.383   5.526   0.131
 7849SOL    HW124446   4.386   5.489   0.038
 7849SOL    HW224447   4.354   5.454   0.194
 7850SOL     OW24448   0.040   1.330   4.080
 7850SOL    HW124449   0.077   1.239   4.060
 7850SOL    HW224450   0.083   1.366   4.163
 7851SOL     OW24451   0.044   4.615   1.162
 7851SOL    HW124452   7.009   4.538   1.180
 7851SOL    HW224453   0.055   4.627   1.064
 7852SOL     OW24454   1.256   2.829   6.911
 7852SOL    HW124455   1.332   2.872   6.959
 7852SOL    HW224456   1.254   2.731   6.930
 7853SOL     OW24457   4.115   2.995   1.701
 7853SOL    HW124458   4.068   3.077   1.668
 7853SOL    HW224459   4.210   3.017   1.723
 7854SOL     OW24460   4.715   1.546   0.201
 7854SOL    HW124461   4.768   1.483   0.257
 7854SOL    HW224462   4.764   1.566   0.116
 7855SOL     OW24463   5.199   0.011   4.001
 7855SOL    HW124464   5.210   0.096   3.950
 7855SOL    HW224465   5.269   6.970   3.973
 7856SOL     OW24466   2.169   6.474   5.020
 7856SOL    HW124467   2.079   6.500   4.984
 7856SOL    HW224468   2.240   6.502   4.956
 7857SOL     OW24469   6.043   4.225   1.097
 7857SOL    HW124470   5.949   4.209   1.128
 7857SOL    HW224471   6.069   4.319   1.118
 7858SOL     OW24472   0.040   3.958   6.353
 7858SOL    HW124473   0.039   4.004   6.442
 7858SOL    HW224474   6.971   3.930   6.329
 7859SOL     OW24475   5.123   1.774   0.653
 7859SOL    HW124476   5.025   1.768   0.634
 7859SOL    HW224477   5.169   1.817   0.576
 7860SOL     OW24478   2.946   0.980   4.576
 7860SOL    HW124479   3.020   0.983   4.508
 7860SOL    HW224480   2.888   1.060   4.565
 7861SOL     OW24481   2.162   6.365   0.797
 7861SOL    HW124482   2.153   6.451   0.746
 7861SOL    HW224483   2.200   6.295   0.737
 7862SOL     OW24484   1.535   6.400   0.085
 7862SOL    HW124485   1.630   6.430   0.075
 7862SOL    HW224486   1.530   6.301   0.079
 7863SOL     OW24487   1.526   4.054   3.868
 7863SOL    HW124488   1.582   4.134   3.892
 7863SOL    HW224489   1.554   4.019   3.779
 7864SOL     OW24490   2.413   5.776   5.441
 7864SOL    HW124491   2.399   5.677   5.436
 7864SOL    HW224492   2.382   5.818   5.356
 7865SOL     OW24493   5.859   3.906   3.067
 7865SOL    HW124494   5.923   3.979   3.090
 7865SOL    HW224495   5.766   3.937   3.088
 7866SOL     OW24496   0.861   1.212   5.785
 7866SOL    HW124497   0.841   1.290   5.845
 7866SOL    HW224498   0.792   1.206   5.714
 7867SOL     OW24499   4.529   5.002   3.556
 7867SOL    HW124500   4.538   4.926   3.621
 7867SOL    HW224501   4.434   5.031   3.551
 7868SOL     OW24502   2.770   6.281   1.419
 7868SOL    HW124503   2.766   6.227   1.335
 7868SOL    HW224504   2.685   6.269   1.470
 7869SOL     OW24505   6.084   4.661   6.999
 7869SOL    HW124506   6.059   4.749   6.957
 7869SOL    HW224507   6.142   4.678   0.053
 7870SOL     OW24508   6.021   6.099   3.945
 7870SOL    HW124509   6.119   6.106   3.928
 7870SOL    HW224510   5.975   6.065   3.863
 7871SOL     OW24511   4.523   1.266   0.558
 7871SOL    HW124512   4.525   1.355   0.512
 7871SOL    HW224513   4.616   1.238   0.580
 7872SOL     OW24514   1.155   5.392   2.942
 7872SOL    HW124515   1.212   5.399   2.860
 7872SOL    HW224516   1.213   5.397   3.023
 7873SOL     OW24517   4.904   1.862   0.212
 7873SOL    HW124518   4.829   1.928   0.205
 7873SOL    HW224519   4.991   1.909   0.199
 7874SOL     OW24520   5.830   2.589   0.663
 7874SOL    HW124521   5.820   2.548   0.754
 7874SOL    HW224522   5.752   2.647   0.643
 7875SOL     OW24523   5.996   4.415   5.918
 7875SOL    HW124524   5.992   4.428   5.819
 7875SOL    HW224525   5.913   4.453   5.960
 7876SOL     OW24526   1.005   0.117   3.746
 7876SOL    HW124527   1.094   0.112   3.701
 7876SOL    HW224528   0.954   0.196   3.710
 7877SOL     OW24529   7.015   2.698   3.392
 7877SOL    HW124530   0.081   2.714   3.354
 7877SOL    HW224531   6.953   2.771   3.362
 7878SOL     OW24532   4.095   5.708   2.785
 7878SOL    HW124533   4.147   5.679   2.704
 7878SOL    HW224534   4.099   5.636   2.854
 7879SOL     OW24535   3.096   4.872   3.020
 7879SOL    HW124536   3.021   4.885   3.085
 7879SOL    HW224537   3.062   4.830   2.936
 7880SOL     OW24538   1.207   4.661   2.469
 7880SOL    HW124539   1.223   4.563   2.457
 7880SOL    HW224540   1.279   4.712   2.422
 7881SOL     OW24541   4.920   3.903   3.568
 7881SOL    HW124542   4.943   3.865   3.478
 7881SOL    HW224543   4.903   3.828   3.632
 7882SOL     OW24544   0.674   3.227   0.032
 7882SOL    HW124545   0.661   3.315   7.010
 7882SOL    HW224546   0.587   3.197   0.070
 7883SOL     OW24547   0.570   0.707   5.225
 7883SOL    HW124548   0.538   0.622   5.182
 7883SOL    HW224549   0.670   0.712   5.219
 7884SOL     OW24550   0.739   2.855   4.514
 7884SOL    HW124551   0.700   2.770   4.478
 7884SOL    HW224552   0.720   2.930   4.449
 7885SOL     OW24553   0.145   6.070   6.515
 7885SOL    HW124554   0.064   6.055   6.572
 7885SOL    HW224555   0.215   6.117   6.568
 7886SOL     OW24556   5.274   4.329   1.022
 7886SOL    HW124557   5.196   4.303   0.964
 7886SOL    HW224558   5.266   4.426   1.046
 7887SOL     OW24559   4.510   3.141   5.906
 7887SOL    HW124560   4.591   3.089   5.877
 7887SOL    HW224561   4.466   3.181   5.826
 7888SOL     OW24562   5.438   6.042   4.762
 7888SOL    HW124563   5.352   6.005   4.727
 7888SOL    HW224564   5.505   5.968   4.773
 7889SOL     OW24565   6.921   4.889   3.151
 7889SOL    HW124566   6.978   4.955   3.200
 7889SOL    HW224567   6.917   4.914   3.054
 7890SOL     OW24568   1.823   3.161   2.325
 7890SOL    HW124569   1.764   3.166   2.244
 7890SOL    HW224570   1.808   3.241   2.383
 7891SOL     OW24571   1.191   4.863   2.641
 7891SOL    HW124572   1.189   4.780   2.585
 7891SOL    HW224573   1.274   4.864   2.696
 7892SOL     OW24574   2.110   2.402   5.374
 7892SOL    HW124575   2.203   2.379   5.401
 7892SOL    HW224576   2.060   2.436   5.454
 7893SOL     OW24577   5.966   6.479   1.819
 7893SOL    HW124578   6.065   6.476   1.836
 7893SOL    HW224579   5.923   6.399   1.861
 7894SOL     OW24580   2.934   0.238   1.937
 7894SOL    HW124581   2.957   0.331   1.965
 7894SOL    HW224582   2.997   0.208   1.865
 7895SOL     OW24583   6.817   1.241   3.341
 7895SOL    HW124584   6.773   1.294   3.413
 7895SOL    HW224585   6.749   1.215   3.272
 7896SOL     OW24586   4.235   1.992   6.098
 7896SOL    HW124587   4.294   1.928   6.147
 7896SOL    HW224588   4.139   1.966   6.110
 7897SOL     OW24589   3.215   3.047   6.313
 7897SOL    HW124590   3.289   3.007   6.367
 7897SOL    HW224591   3.129   3.003   6.336
 7898SOL     OW24592   5.073   1.832   3.447
 7898SOL    HW124593   4.991   1.775   3.445
 7898SOL    HW224594   5.117   1.831   3.358
 7899SOL     OW24595   4.353   1.680   2.644
 7899SOL    HW124596   4.414   1.759   2.650
 7899SOL    HW224597   4.301   1.672   2.729
 7900SOL     OW24598   1.376   5.520   1.044
 7900SOL    HW124599   1.471   5.504   1.070
 7900SOL    HW224600   1.317   5.458   1.095
 7901SOL     OW24601   6.143   5.623   0.922
 7901SOL    HW124602   6.209   5.660   0.987
 7901SOL    HW224603   6.171   5.647   0.829
 7902SOL     OW24604   5.271   5.011   6.031
 7902SOL    HW124605   5.210   4.935   6.008
 7902SOL    HW224606   5.241   5.052   6.117
 7903SOL     OW24607   0.141   2.485   6.880
 7903SOL    HW124608   0.173   2.575   6.851
 7903SOL    HW224609   0.192   2.456   6.961
 7904SOL     OW24610   6.173   1.632   2.237
 7904SOL    HW124611   6.181   1.708   2.300
 7904SOL    HW224612   6.230   1.649   2.156
 7905SOL     OW24613   2.386   2.242   1.794
 7905SOL    HW124614   2.482   2.232   1.818
 7905SOL    HW224615   2.332   2.174   1.844
 7906SOL     OW24616   0.716   4.481   0.617
 7906SOL    HW124617   0.788   4.459   0.551
 7906SOL    HW224618   0.631   4.436   0.590
 7907SOL     OW24619   6.548   2.712   2.001
 7907SOL    HW124620   6.529   2.803   2.038
 7907SOL    HW224621   6.627   2.716   1.940
 7908SOL     OW24622   6.673   1.165   3.147
 7908SOL    HW124623   6.584   1.207   3.127
 7908SOL    HW224624   6.699   1.106   3.070
 7909SOL     OW24625   4.417   6.274   4.923
 7909SOL    HW124626   4.469   6.238   5.001
 7909SOL    HW224627   4.449   6.366   4.902
 7910SOL     OW24628   5.997   3.650   6.226
 7910SOL    HW124629   6.046   3.670   6.142
 7910SOL    HW224630   6.063   3.634   6.300
 7911SOL     OW24631   0.160   5.029   6.859
 7911SOL    HW124632   0.077   5.074   6.827
 7911SOL    HW224633   0.228   5.098   6.885
 7912SOL     OW24634   0.046   5.279   5.560
 7912SOL    HW124635   0.123   5.341   5.576
 7912SOL    HW224636   0.074   5.207   5.497
 7913SOL     OW24637   1.127   6.118   6.555
 7913SOL    HW124638   1.172   6.181   6.619
 7913SOL    HW224639   1.153   6.143   6.461
 7914SOL     OW24640   6.613   3.830   1.813
 7914SOL    HW124641   6.547   3.761   1.782
 7914SOL    HW224642   6.564   3.906   1.855
 7915SOL     OW24643   4.123   1.148   2.265
 7915SOL    HW124644   4.175   1.112   2.188
 7915SOL    HW224645   4.119   1.248   2.259
 7916SOL     OW24646   4.716   3.914   5.550
 7916SOL    HW124647   4.636   3.967   5.577
 7916SOL    HW224648   4.782   3.974   5.505
 7917SOL     OW24649   3.569   4.034   3.645
 7917SOL    HW124650   3.606   3.955   3.693
 7917SOL    HW224651   3.632   4.112   3.655
 7918SOL     OW24652   6.418   2.524   2.490
 7918SOL    HW124653   6.490   2.557   2.551
 7918SOL    HW224654   6.409   2.587   2.413
 7919SOL     OW24655   5.858   4.555   1.930
 7919SOL    HW124656   5.813   4.467   1.917
 7919SOL    HW224657   5.805   4.610   1.994
 7920SOL     OW24658   0.417   6.718   2.349
 7920SOL    HW124659   0.326   6.727   2.308
 7920SOL    HW224660   0.466   6.644   2.303
 7921SOL     OW24661   2.754   6.278   1.845
 7921SOL    HW124662   2.675   6.218   1.836
 7921SOL    HW224663   2.780   6.285   1.941
 7922SOL     OW24664   0.962   4.540   6.077
 7922SOL    HW124665   0.955   4.597   6.158
 7922SOL    HW224666   0.976   4.444   6.104
 7923SOL     OW24667   0.762   1.817   2.918
 7923SOL    HW124668   0.839   1.840   2.977
 7923SOL    HW224669   0.686   1.880   2.935
 7924SOL     OW24670   2.202   0.810   3.733
 7924SOL    HW124671   2.254   0.887   3.695
 7924SOL    HW224672   2.105   0.823   3.713
 7925SOL     OW24673   0.505   1.475   6.487
 7925SOL    HW124674   0.420   1.431   6.456
 7925SOL    HW224675   0.574   1.406   6.504
 7926SOL     OW24676   3.413   6.957   1.668
 7926SOL    HW124677   3.493   6.953   1.728
 7926SOL    HW224678   3.336   6.996   1.719
 7927SOL     OW24679   4.752   4.021   4.255
 7927SOL    HW124680   4.745   3.949   4.324
 7927SOL    HW224681   4.817   4.090   4.286
 7928SOL     OW24682   0.952   4.485   6.922
 7928SOL    HW124683   0.900   4.571   6.922
 7928SOL    HW224684   0.900   4.415   6.873
 7929SOL     OW24685   4.089   3.784   4.427
 7929SOL    HW124686   4.189   3.789   4.426
 7929SOL    HW224687   4.051   3.874   4.451
 7930SOL     OW24688   5.717   6.215   3.401
 7930SOL    HW124689   5.710   6.226   3.500
 7930SOL    HW224690   5.628   6.231   3.359
 7931SOL     OW24691   2.210   3.355   0.072
 7931SOL    HW124692   2.132   3.321   0.124
 7931SOL    HW224693   2.290   3.362   0.132
 7932SOL     OW24694   3.217   0.258   0.411
 7932SOL    HW124695   3.132   0.239   0.361
 7932SOL    HW224696   3.200   0.331   0.477
 7933SOL     OW24697   1.770   1.204   6.073
 7933SOL    HW124698   1.814   1.283   6.032
 7933SOL    HW224699   1.682   1.187   6.029
 7934SOL     OW24700   4.026   2.755   5.529
 7934SOL    HW124701   4.062   2.685   5.591
 7934SOL    HW224702   4.098   2.785   5.467
 7935SOL     OW24703   4.829   5.993   1.507
 7935SOL    HW124704   4.838   6.017   1.411
 7935SOL    HW224705   4.888   5.915   1.528
 7936SOL     OW24706   4.216   5.968   2.733
 7936SOL    HW124707   4.134   6.024   2.748
 7936SOL    HW224708   4.193   5.871   2.745
 7937SOL     OW24709   6.528   0.637   6.122
 7937SOL    HW124710   6.582   0.718   6.146
 7937SOL    HW224711   6.545   0.613   6.026
 7938SOL     OW24712   6.038   5.035   4.304
 7938SOL    HW124713   6.047   5.133   4.323
 7938SOL    HW224714   6.014   4.986   4.387
 7939SOL     OW24715   0.414   6.781   4.191
 7939SOL    HW124716   0.490   6.728   4.153
 7939SOL    HW224717   0.393   6.858   4.130
 7940SOL     OW24718   1.915   6.087   0.510
 7940SOL    HW124719   1.913   6.073   0.609
 7940SOL    HW224720   1.848   6.156   0.484
 7941SOL     OW24721   0.076   0.519   0.608
 7941SOL    HW124722   0.054   0.487   0.700
 7941SOL    HW224723   0.038   0.611   0.594
 7942SOL     OW24724   1.312   1.136   0.985
 7942SOL    HW124725   1.365   1.143   0.900
 7942SOL    HW224726   1.227   1.087   0.968
 7943SOL     OW24727   5.869   2.280   0.072
 7943SOL    HW124728   5.832   2.373   0.070
 7943SOL    HW224729   5.953   2.280   0.126
 7944SOL     OW24730   6.861   3.153   2.165
 7944SOL    HW124731   6.844   3.066   2.117
 7944SOL    HW224732   6.856   3.228   2.100
 7945SOL     OW24733   5.374   6.537   1.356
 7945SOL    HW124734   5.424   6.561   1.273
 7945SOL    HW224735   5.306   6.467   1.335
 7946SOL     OW24736   1.503   1.702   5.976
 7946SOL    HW124737   1.588   1.650   5.969
 7946SOL    HW224738   1.457   1.681   6.061
 7947SOL     OW24739   4.267   5.279   6.079
 7947SOL    HW124740   4.322   5.361   6.063
 7947SOL    HW224741   4.190   5.277   6.015
 7948SOL     OW24742   0.716   4.873   5.860
 7948SOL    HW124743   0.639   4.857   5.799
 7948SOL    HW224744   0.727   4.971   5.875
 7949SOL     OW24745   6.484   3.892   3.889
 7949SOL    HW124746   6.488   3.932   3.981
 7949SOL    HW224747   6.450   3.961   3.824
 7950SOL     OW24748   3.651   5.351   4.412
 7950SOL    HW124749   3.720   5.278   4.417
 7950SOL    HW224750   3.626   5.366   4.316
 7951SOL     OW24751   3.124   3.504   0.618
 7951SOL    HW124752   3.042   3.527   0.566
 7951SOL    HW224753   3.134   3.405   0.623
 7952SOL     OW24754   4.831   4.936   0.410
 7952SOL    HW124755   4.871   4.984   0.332
 7952SOL    HW224756   4.768   4.997   0.459
 7953SOL     OW24757   1.948   3.238   2.914
 7953SOL    HW124758   2.032   3.191   2.942
 7953SOL    HW224759   1.968   3.334   2.896
 7954SOL     OW24760   5.240   5.396   4.668
 7954SOL    HW124761   5.257   5.469   4.735
 7954SOL    HW224762   5.179   5.430   4.597
 7955SOL     OW24763   1.474   6.978   6.441
 7955SOL    HW124764   1.573   6.973   6.426
 7955SOL    HW224765   1.426   6.944   6.359
 7956SOL     OW24766   6.104   0.088   3.004
 7956SOL    HW124767   6.173   0.016   3.004
 7956SOL    HW224768   6.115   0.145   2.922
 7957SOL     OW24769   0.656   2.296   1.125
 7957SOL    HW124770   0.577   2.358   1.130
 7957SOL    HW224771   0.645   2.222   1.191
 7958SOL     OW24772   2.075   5.615   3.663
 7958SOL    HW124773   2.037   5.568   3.583
 7958SOL    HW224774   2.017   5.694   3.685
 7959SOL     OW24775   4.988   5.617   0.692
 7959SOL    HW124776   4.893   5.583   0.690
 7959SOL    HW224777   4.999   5.687   0.622
 7960SOL     OW24778   2.611   2.610   1.138
 7960SOL    HW124779   2.531   2.669   1.144
 7960SOL    HW224780   2.650   2.596   1.229
 7961SOL     OW24781   1.680   5.734   0.169
 7961SOL    HW124782   1.687   5.703   0.074
 7961SOL    HW224783   1.770   5.731   0.212
 7962SOL     OW24784   1.776   6.597   2.219
 7962SOL    HW124785   1.811   6.641   2.136
 7962SOL    HW224786   1.712   6.658   2.264
 7963SOL     OW24787   0.896   6.274   4.802
 7963SOL    HW124788   0.990   6.307   4.795
 7963SOL    HW224789   0.879   6.243   4.895
 7964SOL     OW24790   6.355   5.461   3.545
 7964SOL    HW124791   6.394   5.547   3.578
 7964SOL    HW224792   6.282   5.433   3.607
 7965SOL     OW24793   5.462   1.628   0.496
 7965SOL    HW124794   5.389   1.572   0.458
 7965SOL    HW224795   5.491   1.695   0.427
 7966SOL     OW24796   6.858   6.414   3.528
 7966SOL    HW124797   6.931   6.353   3.496
 7966SOL    HW224798   6.771   6.364   3.527
 7967SOL     OW24799   2.873   6.898   3.113
 7967SOL    HW124800   2.852   6.980   3.166
 7967SOL    HW224801   2.793   6.872   3.060
 7968SOL     OW24802   1.999   0.742   1.528
 7968SOL    HW124803   1.911   0.788   1.518
 7968SOL    HW224804   2.045   0.738   1.439
 7969SOL     OW24805   3.304   1.684   3.438
 7969SOL    HW124806   3.213   1.726   3.432
 7969SOL    HW224807   3.358   1.708   3.358
 7970SOL     OW24808   0.500   5.134   3.204
 7970SOL    HW124809   0.559   5.192   3.147
 7970SOL    HW224810   0.544   5.046   3.219
 7971SOL     OW24811   2.653   1.561   2.251
 7971SOL    HW124812   2.667   1.660   2.238
 7971SOL    HW224813   2.714   1.511   2.189
 7972SOL     OW24814   0.169   5.162   1.709
 7972SOL    HW124815   0.158   5.189   1.613
 7972SOL    HW224816   0.219   5.076   1.714
 7973SOL     OW24817   4.366   2.363   2.664
 7973SOL    HW124818   4.379   2.390   2.760
 7973SOL    HW224819   4.356   2.264   2.659
 7974SOL     OW24820   5.642   6.592   3.718
 7974SOL    HW124821   5.598   6.516   3.767
 7974SOL    HW224822   5.737   6.568   3.700
 7975SOL     OW24823   2.121   0.937   3.058
 7975SOL    HW124824   2.214   0.905   3.074
 7975SOL    HW224825   2.103   1.018   3.114
 7976SOL     OW24826   1.052   6.268   6.058
 7976SOL    HW124827   1.116   6.245   6.132
 7976SOL    HW224828   0.982   6.196   6.052
 7977SOL     OW24829   4.852   6.472   1.481
 7977SOL    HW124830   4.806   6.468   1.393
 7977SOL    HW224831   4.872   6.380   1.513
 7978SOL     OW24832   3.599   2.617   5.853
 7978SOL    HW124833   3.534   2.643   5.782
 7978SOL    HW224834   3.576   2.666   5.938
 7979SOL     OW24835   4.936   0.096   4.388
 7979SOL    HW124836   5.028   0.082   4.426
 7979SOL    HW224837   4.872   0.035   4.434
 7980SOL     OW24838   2.731   0.633   2.221
 7980SOL    HW124839   2.651   0.625   2.161
 7980SOL    HW224840   2.752   0.729   2.235
 7981SOL     OW24841   0.940   6.030   2.489
 7981SOL    HW124842   1.016   6.060   2.547
 7981SOL    HW224843   0.937   5.930   2.487
 7982SOL     OW24844   0.410   2.520   0.402
 7982SOL    HW124845   0.399   2.617   0.425
 7982SOL    HW224846   0.439   2.512   0.307
 7983SOL     OW24847   4.744   2.601   2.145
 7983SOL    HW124848   4.742   2.695   2.179
 7983SOL    HW224849   4.772   2.540   2.219
 7984SOL     OW24850   6.992   0.405   0.072
 7984SOL    HW124851   6.899   0.377   0.098
 7984SOL    HW224852   0.004   0.467   0.141
 7985SOL     OW24853   0.402   1.212   0.889
 7985SOL    HW124854   0.318   1.238   0.841
 7985SOL    HW224855   0.449   1.141   0.837
 7986SOL     OW24856   4.809   3.118   6.969
 7986SOL    HW124857   4.791   3.062   6.888
 7986SOL    HW224858   4.732   3.112   0.007
 7987SOL     OW24859   0.892   2.316   4.698
 7987SOL    HW124860   0.902   2.403   4.745
 7987SOL    HW224861   0.942   2.318   4.612
 7988SOL     OW24862   2.718   2.006   5.512
 7988SOL    HW124863   2.706   1.932   5.578
 7988SOL    HW224864   2.760   2.085   5.557
 7989SOL     OW24865   3.596   3.606   5.687
 7989SOL    HW124866   3.622   3.629   5.593
 7989SOL    HW224867   3.557   3.687   5.731
 7990SOL     OW24868   2.282   2.553   4.642
 7990SOL    HW124869   2.235   2.546   4.730
 7990SOL    HW224870   2.378   2.525   4.653
 7991SOL     OW24871   0.844   3.065   5.135
 7991SOL    HW124872   0.756   3.104   5.107
 7991SOL    HW224873   0.902   3.136   5.173
 7992SOL     OW24874   2.412   1.117   0.812
 7992SOL    HW124875   2.510   1.122   0.834
 7992SOL    HW224876   2.396   1.155   0.721
 7993SOL     OW24877   2.425   6.407   6.251
 7993SOL    HW124878   2.376   6.329   6.289
 7993SOL    HW224879   2.370   6.448   6.178
 7994SOL     OW24880   6.080   0.724   4.693
 7994SOL    HW124881   6.109   0.805   4.745
 7994SOL    HW224882   5.984   0.734   4.667
 7995SOL     OW24883   4.382   5.842   3.579
 7995SOL    HW124884   4.413   5.908   3.510
 7995SOL    HW224885   4.459   5.816   3.637
 7996SOL     OW24886   3.962   1.025   5.393
 7996SOL    HW124887   3.996   0.958   5.459
 7996SOL    HW224888   3.966   0.985   5.301
 7997SOL     OW24889   5.472   2.697   2.201
 7997SOL    HW124890   5.527   2.751   2.137
 7997SOL    HW224891   5.530   2.666   2.277
 7998SOL     OW24892   5.952   4.755   6.398
 7998SOL    HW124893   5.975   4.833   6.341
 7998SOL    HW224894   6.036   4.706   6.423
 7999SOL     OW24895   1.783   0.517   5.787
 7999SOL    HW124896   1.752   0.429   5.751
 7999SOL    HW224897   1.787   0.513   5.887
 8000SOL     OW24898   5.871   0.417   5.896
 8000SOL    HW124899   5.860   0.446   5.991
 8000SOL    HW224900   5.856   0.495   5.836
 8001SOL     OW24901   2.341   6.419   1.424
 8001SOL    HW124902   2.352   6.346   1.357
 8001SOL    HW224903   2.423   6.477   1.424
 8002SOL     OW24904   4.943   2.891   5.591
 8002SOL    HW124905   4.922   2.794   5.591
 8002SOL    HW224906   4.864   2.943   5.559
 8003SOL     OW24907   3.659   5.943   3.758
 8003SOL    HW124908   3.636   6.023   3.702
 8003SOL    HW224909   3.706   5.875   3.703
 8004SOL     OW24910   0.979   3.874   2.938
 8004SOL    HW124911   1.007   3.864   3.034
 8004SOL    HW224912   0.954   3.969   2.920
 8005SOL     OW24913   2.216   0.412   2.385
 8005SOL    HW124914   2.188   0.382   2.294
 8005SOL    HW224915   2.145   0.388   2.451
 8006SOL     OW24916   3.640   6.368   1.319
 8006SOL    HW124917   3.740   6.365   1.321
 8006SOL    HW224918   3.610   6.464   1.320
 8007SOL     OW24919   0.330   1.442   4.051
 8007SOL    HW124920   0.306   1.354   4.010
 8007SOL    HW224921   0.427   1.442   4.075
 8008SOL     OW24922   6.025   5.511   0.565
 8008SOL    HW124923   6.007   5.413   0.555
 8008SOL    HW224924   5.953   5.563   0.520
 8009SOL     OW24925   6.816   6.807   4.202
 8009SOL    HW124926   6.758   6.844   4.130
 8009SOL    HW224927   6.832   6.709   4.184
 8010SOL     OW24928   1.719   3.056   6.624
 8010SOL    HW124929   1.640   3.030   6.679
 8010SOL    HW224930   1.722   3.156   6.616
 8011SOL     OW24931   2.282   2.421   0.783
 8011SOL    HW124932   2.293   2.432   0.882
 8011SOL    HW224933   2.312   2.505   0.737
 8012SOL     OW24934   2.998   0.553   3.684
 8012SOL    HW124935   2.982   0.455   3.682
 8012SOL    HW224936   2.959   0.596   3.603
 8013SOL     OW24937   6.044   5.347   4.713
 8013SOL    HW124938   6.078   5.394   4.632
 8013SOL    HW224939   5.952   5.379   4.734
 8014SOL     OW24940   2.282   0.147   6.689
 8014SOL    HW124941   2.264   0.065   6.744
 8014SOL    HW224942   2.371   0.185   6.713
 8015SOL     OW24943   1.695   2.052   6.222
 8015SOL    HW124944   1.782   2.102   6.219
 8015SOL    HW224945   1.629   2.103   6.278
 8016SOL     OW24946   3.821   6.411   1.725
 8016SOL    HW124947   3.888   6.432   1.654
 8016SOL    HW224948   3.850   6.331   1.777
 8017SOL     OW24949   5.826   3.944   5.156
 8017SOL    HW124950   5.768   3.880   5.206
 8017SOL    HW224951   5.894   3.894   5.102
 8018SOL     OW24952   5.670   2.758   4.506
 8018SOL    HW124953   5.682   2.835   4.443
 8018SOL    HW224954   5.573   2.747   4.528
 8019SOL     OW24955   2.071   5.026   1.237
 8019SOL    HW124956   2.002   5.091   1.206
 8019SOL    HW224957   2.055   5.003   1.334
 8020SOL     OW24958   5.922   6.463   6.251
 8020SOL    HW124959   6.014   6.428   6.236
 8020SOL    HW224960   5.855   6.400   6.212
 8021SOL     OW24961   0.416   0.798   0.836
 8021SOL    HW124962   0.443   0.703   0.828
 8021SOL    HW224963   0.496   0.854   0.857
 8022SOL     OW24964   4.430   5.638   3.391
 8022SOL    HW124965   4.397   5.682   3.307
 8022SOL    HW224966   4.390   5.682   3.471
 8023SOL     OW24967   6.598   6.315   3.543
 8023SOL    HW124968   6.558   6.255   3.612
 8023SOL    HW224969   6.594   6.271   3.453
 8024SOL     OW24970   4.827   5.753   4.815
 8024SOL    HW124971   4.852   5.677   4.755
 8024SOL    HW224972   4.751   5.804   4.775
 8025SOL     OW24973   2.958   5.974   0.372
 8025SOL    HW124974   3.008   6.027   0.303
 8025SOL    HW224975   2.970   6.016   0.462
 8026SOL     OW24976   1.932   2.936   0.644
 8026SOL    HW124977   1.893   2.844   0.636
 8026SOL    HW224978   1.922   2.968   0.738
 8027SOL     OW24979   5.191   3.526   5.913
 8027SOL    HW124980   5.153   3.444   5.955
 8027SOL    HW224981   5.214   3.593   5.983
 8028SOL     OW24982   5.285   5.846   0.542
 8028SOL    HW124983   5.380   5.845   0.511
 8028SOL    HW224984   5.279   5.891   0.630
 8029SOL     OW24985   3.172   4.790   0.207
 8029SOL    HW124986   3.269   4.794   0.228
 8029SOL    HW224987   3.159   4.770   0.110
 8030SOL     OW24988   6.089   3.582   0.311
 8030SOL    HW124989   6.114   3.611   0.219
 8030SOL    HW224990   6.171   3.582   0.369
 8031SOL     OW24991   3.338   5.836   1.017
 8031SOL    HW124992   3.275   5.909   1.045
 8031SOL    HW224993   3.381   5.861   0.930
 8032SOL     OW24994   4.983   4.914   5.468
 8032SOL    HW124995   4.899   4.898   5.519
 8032SOL    HW224996   4.978   5.001   5.421
 8033SOL     OW24997   6.175   2.205   0.711
 8033SOL    HW124998   6.255   2.251   0.749
 8033SOL    HW224999   6.156   2.122   0.764
 8034SOL     OW25000   6.125   1.451   4.612
 8034SOL    HW125001   6.085   1.407   4.531
 8034SOL    HW225002   6.225   1.456   4.600
 8035SOL     OW25003   5.701   6.372   7.016
 8035SOL    HW125004   5.643   6.363   6.935
 8035SOL    HW225005   5.691   6.292   0.050
 8036SOL     OW25006   1.510   4.605   1.455
 8036SOL    HW125007   1.438   4.674   1.447
 8036SOL    HW225008   1.507   4.565   1.547
 8037SOL     OW25009   2.190   3.232   1.475
 8037SOL    HW125010   2.251   3.310   1.489
 8037SOL    HW225011   2.166   3.193   1.564
 8038SOL     OW25012   6.434   1.699   3.956
 8038SOL    HW125013   6.518   1.746   3.930
 8038SOL    HW225014   6.452   1.639   4.034
 8039SOL     OW25015   3.280   6.685   4.573
 8039SOL    HW125016   3.377   6.702   4.558
 8039SOL    HW225017   3.231   6.772   4.575
 8040SOL     OW25018   6.076   6.184   0.801
 8040SOL    HW125019   6.163   6.146   0.771
 8040SOL    HW225020   6.090   6.272   0.845
 8041SOL     OW25021   4.009   2.011   0.764
 8041SOL    HW125022   4.037   2.092   0.712
 8041SOL    HW225023   4.090   1.956   0.783
 8042SOL     OW25024   2.445   4.185   0.701
 8042SOL    HW125025   2.529   4.225   0.664
 8042SOL    HW225026   2.468   4.122   0.775
 8043SOL     OW25027   2.454   0.411   1.402
 8043SOL    HW125028   2.390   0.335   1.407
 8043SOL    HW225029   2.542   0.379   1.367
 8044SOL     OW25030   3.136   3.956   1.491
 8044SOL    HW125031   3.186   3.886   1.543
 8044SOL    HW225032   3.180   4.045   1.504
 8045SOL     OW25033   6.480   2.755   3.378
 8045SOL    HW125034   6.495   2.847   3.341
 8045SOL    HW225035   6.548   2.736   3.449
 8046SOL     OW25036   0.149   5.141   5.860
 8046SOL    HW125037   0.103   5.059   5.826
 8046SOL    HW225038   0.086   5.192   5.920
 8047SOL     OW25039   2.711   6.497   4.223
 8047SOL    HW125040   2.661   6.581   4.242
 8047SOL    HW225041   2.769   6.475   4.302
 8048SOL     OW25042   6.272   0.684   6.136
 8048SOL    HW125043   6.367   0.653   6.135
 8048SOL    HW225044   6.225   0.650   6.055
 8049SOL     OW25045   1.303   6.446   0.180
 8049SOL    HW125046   1.394   6.433   0.141
 8049SOL    HW225047   1.277   6.542   0.170
 8050SOL     OW25048   0.573   3.145   0.725
 8050SOL    HW125049   0.543   3.205   0.799
 8050SOL    HW225050   0.493   3.100   0.684
 8051SOL     OW25051   3.495   2.145   3.735
 8051SOL    HW125052   3.586   2.155   3.776
 8051SOL    HW225053   3.479   2.219   3.670
 8052SOL     OW25054   3.668   2.071   3.009
 8052SOL    HW125055   3.731   2.009   3.056
 8052SOL    HW225056   3.603   2.109   3.075
 8053SOL     OW25057   3.863   3.302   1.862
 8053SOL    HW125058   3.820   3.336   1.946
 8053SOL    HW225059   3.960   3.285   1.879
 8054SOL     OW25060   4.646   5.701   4.438
 8054SOL    HW125061   4.644   5.773   4.507
 8054SOL    HW225062   4.724   5.640   4.456
 8055SOL     OW25063   1.059   6.793   4.910
 8055SOL    HW125064   1.086   6.874   4.962
 8055SOL    HW225065   1.006   6.731   4.969
 8056SOL     OW25066   4.317   1.461   2.495
 8056SOL    HW125067   4.335   1.544   2.548
 8056SOL    HW225068   4.403   1.418   2.470
 8057SOL     OW25069   3.367   0.065   3.087
 8057SOL    HW125070   3.299   0.043   3.017
 8057SOL    HW225071   3.414   7.006   3.115
 8058SOL     OW25072   2.740   0.051   3.714
 8058SOL    HW125073   2.782   0.140   3.735
 8058SOL    HW225074   2.707   0.051   3.620
 8059SOL     OW25075   2.774   1.121   3.940
 8059SOL    HW125076   2.816   1.120   3.850
 8059SOL    HW225077   2.726   1.034   3.955
 8060SOL     OW25078   0.980   2.089   5.099
 8060SOL    HW125079   1.026   2.177   5.095
 8060SOL    HW225080   1.036   2.019   5.055
 8061SOL     OW25081   6.727   5.997   1.616
 8061SOL    HW125082   6.780   5.919   1.583
 8061SOL    HW225083   6.747   6.012   1.713
 8062SOL     OW25084   2.050   3.541   2.234
 8062SOL    HW125085   2.081   3.461   2.285
 8062SOL    HW225086   2.114   3.561   2.160
 8063SOL     OW25087   2.661   3.281   6.689
 8063SOL    HW125088   2.587   3.277   6.622
 8063SOL    HW225089   2.663   3.196   6.741
 8064SOL     OW25090   6.362   3.012   6.662
 8064SOL    HW125091   6.402   2.930   6.619
 8064SOL    HW225092   6.263   3.002   6.666
 8065SOL     OW25093   4.450   6.939   6.544
 8065SOL    HW125094   4.519   6.872   6.517
 8065SOL    HW225095   4.456   6.955   6.643
 8066SOL     OW25096   2.688   0.125   1.906
 8066SOL    HW125097   2.786   0.136   1.922
 8066SOL    HW225098   2.638   0.196   1.956
 8067SOL     OW25099   4.908   2.214   2.150
 8067SOL    HW125100   4.825   2.159   2.160
 8067SOL    HW225101   4.894   2.304   2.192
 8068SOL     OW25102   6.360   4.855   4.219
 8068SOL    HW125103   6.336   4.840   4.123
 8068SOL    HW225104   6.323   4.781   4.274
 8069SOL     OW25105   1.130   6.453   2.565
 8069SOL    HW125106   1.030   6.450   2.567
 8069SOL    HW225107   1.159   6.533   2.512
 8070SOL     OW25108   3.755   0.056   2.271
 8070SOL    HW125109   3.747   0.102   2.182
 8070SOL    HW225110   3.850   0.031   2.287
 8071SOL     OW25111   3.412   6.563   0.390
 8071SOL    HW125112   3.367   6.511   0.317
 8071SOL    HW225113   3.511   6.551   0.384
 8072SOL     OW25114   5.250   0.717   2.491
 8072SOL    HW125115   5.337   0.670   2.478
 8072SOL    HW225116   5.212   0.692   2.580
 8073SOL     OW25117   4.736   0.139   6.568
 8073SOL    HW125118   4.673   0.120   6.493
 8073SOL    HW225119   4.718   0.230   6.605
 8074SOL     OW25120   3.318   3.867   6.801
 8074SOL    HW125121   3.361   3.805   6.867
 8074SOL    HW225122   3.353   3.848   6.709
 8075SOL     OW25123   5.433   2.290   2.955
 8075SOL    HW125124   5.514   2.232   2.968
 8075SOL    HW225125   5.358   2.253   3.010
 8076SOL     OW25126   4.697   2.977   6.138
 8076SOL    HW125127   4.711   3.059   6.192
 8076SOL    HW225128   4.599   2.961   6.126
 8077SOL     OW25129   1.164   0.791   0.531
 8077SOL    HW125130   1.157   0.817   0.627
 8077SOL    HW225131   1.120   0.703   0.517
 8078SOL     OW25132   5.902   2.982   0.520
 8078SOL    HW125133   5.849   2.931   0.452
 8078SOL    HW225134   5.842   3.045   0.569
 8079SOL     OW25135   0.910   1.728   1.664
 8079SOL    HW125136   0.811   1.734   1.654
 8079SOL    HW225137   0.935   1.638   1.698
 8080SOL     OW25138   3.236   5.300   0.496
 8080SOL    HW125139   3.229   5.272   0.401
 8080SOL    HW225140   3.145   5.302   0.538
 8081SOL     OW25141   6.066   2.012   5.074
 8081SOL    HW125142   6.119   2.016   4.989
 8081SOL    HW225143   6.065   1.918   5.108
 8082SOL     OW25144   6.359   3.321   4.192
 8082SOL    HW125145   6.372   3.411   4.150
 8082SOL    HW225146   6.442   3.298   4.244
 8083SOL     OW25147   5.953   2.349   4.389
 8083SOL    HW125148   5.929   2.261   4.348
 8083SOL    HW225149   5.890   2.419   4.355
 8084SOL     OW25150   6.537   0.083   1.023
 8084SOL    HW125151   6.616   0.137   0.992
 8084SOL    HW225152   6.525   0.094   1.121
 8085SOL     OW25153   5.907   2.157   0.618
 8085SOL    HW125154   5.815   2.190   0.641
 8085SOL    HW225155   5.972   2.191   0.686
 8086SOL     OW25156   2.910   6.219   5.659
 8086SOL    HW125157   2.892   6.128   5.622
 8086SOL    HW225158   2.976   6.266   5.600
 8087SOL     OW25159   2.643   3.932   0.507
 8087SOL    HW125160   2.607   3.922   0.600
 8087SOL    HW225161   2.733   3.890   0.502
 8088SOL     OW25162   4.594   0.462   2.824
 8088SOL    HW125163   4.521   0.394   2.832
 8088SOL    HW225164   4.662   0.430   2.758
 8089SOL     OW25165   6.007   2.887   0.220
 8089SOL    HW125166   6.019   2.985   0.236
 8089SOL    HW225167   5.919   2.858   0.256
 8090SOL     OW25168   4.373   2.458   5.338
 8090SOL    HW125169   4.309   2.491   5.269
 8090SOL    HW225170   4.429   2.384   5.300
 8091SOL     OW25171   2.504   4.777   5.859
 8091SOL    HW125172   2.578   4.839   5.832
 8091SOL    HW225173   2.417   4.825   5.852
 8092SOL     OW25174   6.785   2.070   4.176
 8092SOL    HW125175   6.780   2.076   4.276
 8092SOL    HW225176   6.865   2.015   4.150
 8093SOL     OW25177   5.610   5.450   1.120
 8093SOL    HW125178   5.534   5.462   1.056
 8093SOL    HW225179   5.602   5.360   1.164
 8094SOL     OW25180   1.132   3.736   4.460
 8094SOL    HW125181   1.152   3.798   4.384
 8094SOL    HW225182   1.199   3.662   4.460
 8095SOL     OW25183   6.045   3.364   4.754
 8095SOL    HW125184   6.020   3.422   4.676
 8095SOL    HW225185   6.142   3.343   4.749
 8096SOL     OW25186   3.857   0.581   0.054
 8096SOL    HW125187   3.925   0.516   0.088
 8096SOL    HW225188   3.838   0.650   0.123
 8097SOL     OW25189   4.799   1.087   4.411
 8097SOL    HW125190   4.884   1.096   4.358
 8097SOL    HW225191   4.822   1.078   4.508
 8098SOL     OW25192   2.746   1.220   4.270
 8098SOL    HW125193   2.773   1.295   4.210
 8098SOL    HW225194   2.789   1.135   4.239
 8099SOL     OW25195   4.795   6.371   5.003
 8099SOL    HW125196   4.812   6.284   5.049
 8099SOL    HW225197   4.706   6.407   5.030
 8100SOL     OW25198   6.920   6.318   0.756
 8100SOL    HW125199   6.898   6.348   0.849
 8100SOL    HW225200   6.835   6.302   0.706
 8101SOL     OW25201   0.862   5.357   2.784
 8101SOL    HW125202   0.935   5.370   2.852
 8101SOL    HW225203   0.782   5.409   2.812
 8102SOL     OW25204   0.015   0.028   6.304
 8102SOL    HW125205   6.985   0.075   6.235
 8102SOL    HW225206   0.110   0.061   6.301
 8103SOL     OW25207   2.524   1.781   2.469
 8103SOL    HW125208   2.456   1.800   2.540
 8103SOL    HW225209   2.615   1.798   2.505
 8104SOL     OW25210   3.217   6.237   5.770
 8104SOL    HW125211   3.160   6.317   5.786
 8104SOL    HW225212   3.170   6.155   5.802
 8105SOL     OW25213   2.221   2.955   2.551
 8105SOL    HW125214   2.250   2.998   2.465
 8105SOL    HW225215   2.162   3.019   2.601
 8106SOL     OW25216   7.019   4.265   5.068
 8106SOL    HW125217   6.926   4.268   5.030
 8106SOL    HW225218   7.018   4.214   5.154
 8107SOL     OW25219   0.998   5.724   6.507
 8107SOL    HW125220   1.090   5.742   6.472
 8107SOL    HW225221   0.999   5.640   6.561
 8108SOL     OW25222   2.127   3.589   4.948
 8108SOL    HW125223   2.097   3.605   5.042
 8108SOL    HW225224   2.196   3.516   4.947
 8109SOL     OW25225   1.023   5.875   4.876
 8109SOL    HW125226   1.119   5.863   4.900
 8109SOL    HW225227   0.972   5.907   4.956
 8110SOL     OW25228   1.526   4.572   0.732
 8110SOL    HW125229   1.624   4.561   0.751
 8110SOL    HW225230   1.476   4.583   0.818
 8111SOL     OW25231   3.140   5.985   4.154
 8111SOL    HW125232   3.181   6.058   4.098
 8111SOL    HW225233   3.083   5.927   4.096
 8112SOL     OW25234   4.155   1.012   4.814
 8112SOL    HW125235   4.192   0.921   4.795
 8112SOL    HW225236   4.229   1.079   4.811
 8113SOL     OW25237   3.539   2.919   5.949
 8113SOL    HW125238   3.627   2.898   5.993
 8113SOL    HW225239   3.469   2.858   5.986
 8114SOL     OW25240   3.390   3.568   1.762
 8114SOL    HW125241   3.331   3.488   1.753
 8114SOL    HW225242   3.483   3.544   1.733
 8115SOL     OW25243   3.612   2.169   1.026
 8115SOL    HW125244   3.711   2.165   1.043
 8115SOL    HW225245   3.584   2.264   1.018
 8116SOL     OW25246   5.217   1.394   5.440
 8116SOL    HW125247   5.181   1.465   5.501
 8116SOL    HW225248   5.159   1.313   5.445
 8117SOL     OW25249   2.465   1.959   5.895
 8117SOL    HW125250   2.466   1.885   5.962
 8117SOL    HW225251   2.383   1.952   5.838
 8118SOL     OW25252   1.190   2.375   4.252
 8118SOL    HW125253   1.257   2.322   4.201
 8118SOL    HW225254   1.153   2.447   4.193
 8119SOL     OW25255   0.917   6.100   1.681
 8119SOL    HW125256   0.837   6.091   1.622
 8119SOL    HW225257   0.991   6.043   1.646
 8120SOL     OW25258   4.497   4.009   1.612
 8120SOL    HW125259   4.458   4.034   1.701
 8120SOL    HW225260   4.497   3.910   1.603
 8121SOL     OW25261   6.770   6.847   3.211
 8121SOL    HW125262   6.804   6.939   3.228
 8121SOL    HW225263   6.771   6.794   3.296
 8122SOL     OW25264   0.515   5.740   1.449
 8122SOL    HW125265   0.598   5.769   1.497
 8122SOL    HW225266   0.540   5.700   1.361
 8123SOL     OW25267   0.680   5.581   0.380
 8123SOL    HW125268   0.692   5.482   0.378
 8123SOL    HW225269   0.627   5.607   0.461
 8124SOL     OW25270   1.251   6.324   3.010
 8124SOL    HW125271   1.309   6.244   2.990
 8124SOL    HW225272   1.244   6.337   3.109
 8125SOL     OW25273   5.577   5.166   2.945
 8125SOL    HW125274   5.634   5.092   2.980
 8125SOL    HW225275   5.635   5.234   2.899
 8126SOL     OW25276   6.641   4.587   2.869
 8126SOL    HW125277   6.613   4.646   2.793
 8126SOL    HW225278   6.601   4.496   2.857
 8127SOL     OW25279   3.665   4.835   1.053
 8127SOL    HW125280   3.596   4.763   1.059
 8127SOL    HW225281   3.621   4.922   1.034
 8128SOL     OW25282   3.479   2.431   5.363
 8128SOL    HW125283   3.410   2.360   5.349
 8128SOL    HW225284   3.463   2.507   5.300
 8129SOL     OW25285   5.116   6.242   6.621
 8129SOL    HW125286   5.104   6.314   6.689
 8129SOL    HW225287   5.057   6.165   6.644
 8130SOL     OW25288   0.595   6.737   0.295
 8130SOL    HW125289   0.631   6.680   0.369
 8130SOL    HW225290   0.525   6.687   0.245
 8131SOL     OW25291   1.863   1.397   0.789
 8131SOL    HW125292   1.824   1.489   0.795
 8131SOL    HW225293   1.959   1.403   0.759
 8132SOL     OW25294   6.294   4.576   2.860
 8132SOL    HW125295   6.264   4.632   2.937
 8132SOL    HW225296   6.362   4.510   2.892
 8133SOL     OW25297   0.413   5.977   1.993
 8133SOL    HW125298   0.488   6.023   1.944
 8133SOL    HW225299   0.416   6.002   2.089
 8134SOL     OW25300   1.827   2.898   1.932
 8134SOL    HW125301   1.774   2.879   2.015
 8134SOL    HW225302   1.824   2.997   1.913
 8135SOL     OW25303   3.821   6.420   2.744
 8135SOL    HW125304   3.856   6.410   2.651
 8135SOL    HW225305   3.847   6.509   2.780
 8136SOL     OW25306   2.151   5.897   1.435
 8136SOL    HW125307   2.240   5.858   1.459
 8136SOL    HW225308   2.118   5.954   1.510
 8137SOL     OW25309   3.193   3.685   4.823
 8137SOL    HW125310   3.269   3.642   4.775
 8137SOL    HW225311   3.112   3.626   4.817
 8138SOL     OW25312   5.130   1.029   3.703
 8138SOL    HW125313   5.157   0.990   3.615
 8138SOL    HW225314   5.121   1.128   3.694
 8139SOL     OW25315   1.461   3.160   4.884
 8139SOL    HW125316   1.411   3.243   4.858
 8139SOL    HW225317   1.400   3.101   4.938
 8140SOL     OW25318   4.639   0.734   1.118
 8140SOL    HW125319   4.573   0.809   1.112
 8140SOL    HW225320   4.732   0.772   1.116
 8141SOL     OW25321   6.272   0.254   5.942
 8141SOL    HW125322   6.251   0.289   6.033
 8141SOL    HW225323   6.344   0.310   5.900
 8142SOL     OW25324   2.411   5.485   0.690
 8142SOL    HW125325   2.381   5.564   0.637
 8142SOL    HW225326   2.509   5.470   0.677
 8143SOL     OW25327   5.631   4.761   0.664
 8143SOL    HW125328   5.709   4.822   0.676
 8143SOL    HW225329   5.615   4.747   0.566
 8144SOL     OW25330   0.864   5.857   0.202
 8144SOL    HW125331   0.893   5.824   0.112
 8144SOL    HW225332   0.827   5.949   0.193
 8145SOL     OW25333   5.570   5.744   6.922
 8145SOL    HW125334   5.633   5.805   6.970
 8145SOL    HW225335   5.478   5.755   6.958
 8146SOL     OW25336   6.581   6.448   4.813
 8146SOL    HW125337   6.657   6.428   4.875
 8146SOL    HW225338   6.505   6.487   4.866
 8147SOL     OW25339   2.231   0.827   5.789
 8147SOL    HW125340   2.267   0.733   5.793
 8147SOL    HW225341   2.133   0.825   5.808
 8148SOL     OW25342   4.747   3.724   0.533
 8148SOL    HW125343   4.750   3.794   0.461
 8148SOL    HW225344   4.822   3.659   0.520
 8149SOL     OW25345   1.245   0.388   5.309
 8149SOL    HW125346   1.244   0.425   5.402
 8149SOL    HW225347   1.253   0.463   5.243
 8150SOL     OW25348   0.875   4.040   0.647
 8150SOL    HW125349   0.908   4.044   0.741
 8150SOL    HW225350   0.934   4.096   0.589
 8151SOL     OW25351   6.374   5.445   3.177
 8151SOL    HW125352   6.444   5.377   3.156
 8151SOL    HW225353   6.396   5.491   3.263
 8152SOL     OW25354   5.062   1.301   2.801
 8152SOL    HW125355   5.001   1.360   2.854
 8152SOL    HW225356   5.151   1.345   2.792
 8153SOL     OW25357   0.385   1.666   2.392
 8153SOL    HW125358   0.428   1.623   2.312
 8153SOL    HW225359   0.383   1.765   2.379
 8154SOL     OW25360   1.922   0.290   3.331
 8154SOL    HW125361   1.869   0.371   3.305
 8154SOL    HW225362   1.860   0.217   3.360
 8155SOL     OW25363   1.799   4.850   4.014
 8155SOL    HW125364   1.850   4.798   3.946
 8155SOL    HW225365   1.858   4.869   4.093
 8156SOL     OW25366   1.355   4.273   0.449
 8156SOL    HW125367   1.309   4.361   0.439
 8156SOL    HW225368   1.403   4.250   0.365
 8157SOL     OW25369   6.524   4.039   5.165
 8157SOL    HW125370   6.550   4.116   5.106
 8157SOL    HW225371   6.597   3.970   5.162
 8158SOL     OW25372   5.983   5.532   6.369
 8158SOL    HW125373   6.067   5.548   6.317
 8158SOL    HW225374   5.969   5.608   6.433
 8159SOL     OW25375   2.583   0.231   5.255
 8159SOL    HW125376   2.591   0.284   5.339
 8159SOL    HW225377   2.509   0.268   5.199
 8160SOL     OW25378   5.681   1.452   2.309
 8160SOL    HW125379   5.715   1.546   2.309
 8160SOL    HW225380   5.581   1.453   2.304
 8161SOL     OW25381   6.105   2.402   1.985
 8161SOL    HW125382   6.121   2.421   1.888
 8161SOL    HW225383   6.184   2.357   2.024
 8162SOL     OW25384   0.945   5.610   4.840
 8162SOL    HW125385   0.979   5.703   4.830
 8162SOL    HW225386   1.019   5.551   4.874
 8163SOL     OW25387   4.220   4.836   5.489
 8163SOL    HW125388   4.225   4.740   5.516
 8163SOL    HW225389   4.173   4.844   5.401
 8164SOL     OW25390   5.528   1.671   0.755
 8164SOL    HW125391   5.497   1.645   0.663
 8164SOL    HW225392   5.477   1.750   0.786
 8165SOL     OW25393   0.764   1.888   6.264
 8165SOL    HW125394   0.805   1.967   6.310
 8165SOL    HW225395   0.756   1.907   6.166
 8166SOL     OW25396   1.843   1.562   5.182
 8166SOL    HW125397   1.893   1.533   5.101
 8166SOL    HW225398   1.785   1.640   5.159
 8167SOL     OW25399   1.728   3.344   3.500
 8167SOL    HW125400   1.694   3.428   3.541
 8167SOL    HW225401   1.679   3.266   3.539
 8168SOL     OW25402   1.894   0.133   2.512
 8168SOL    HW125403   1.868   0.227   2.532
 8168SOL    HW225404   1.858   0.107   2.422
 8169SOL     OW25405   4.878   3.676   1.151
 8169SOL    HW125406   4.791   3.633   1.125
 8169SOL    HW225407   4.935   3.687   1.070
 8170SOL     OW25408   6.465   4.753   2.680
 8170SOL    HW125409   6.385   4.715   2.727
 8170SOL    HW225410   6.503   4.827   2.734
 8171SOL     OW25411   2.241   1.940   1.361
 8171SOL    HW125412   2.222   1.855   1.311
 8171SOL    HW225413   2.284   2.006   1.300
 8172SOL     OW25414   1.258   2.968   1.080
 8172SOL    HW125415   1.299   2.883   1.046
 8172SOL    HW225416   1.249   2.962   1.180
 8173SOL     OW25417   5.653   0.535   1.625
 8173SOL    HW125418   5.613   0.529   1.534
 8173SOL    HW225419   5.595   0.591   1.684
 8174SOL     OW25420   2.421   6.547   3.792
 8174SOL    HW125421   2.353   6.558   3.720
 8174SOL    HW225422   2.512   6.567   3.755
 8175SOL     OW25423   0.905   2.541   5.927
 8175SOL    HW125424   0.841   2.567   6.000
 8175SOL    HW225425   0.860   2.478   5.864
 8176SOL     OW25426   2.798   4.597   0.326
 8176SOL    HW125427   2.711   4.563   0.363
 8176SOL    HW225428   2.869   4.528   0.340
 8177SOL     OW25429   2.626   1.279   3.446
 8177SOL    HW125430   2.705   1.311   3.395
 8177SOL    HW225431   2.651   1.264   3.542
 8178SOL     OW25432   2.591   6.497   1.314
 8178SOL    HW125433   2.624   6.586   1.345
 8178SOL    HW225434   2.654   6.425   1.345
 8179SOL     OW25435   5.706   0.468   3.459
 8179SOL    HW125436   5.744   0.558   3.442
 8179SOL    HW225437   5.724   0.408   3.381
 8180SOL     OW25438   5.182   5.965   0.209
 8180SOL    HW125439   5.224   5.880   0.242
 8180SOL    HW225440   5.096   5.944   0.163
 8181SOL     OW25441   6.906   0.396   6.482
 8181SOL    HW125442   6.838   0.351   6.423
 8181SOL    HW225443   6.876   0.489   6.502
 8182SOL     OW25444   3.188   3.646   3.761
 8182SOL    HW125445   3.265   3.604   3.808
 8182SOL    HW225446   3.215   3.670   3.668
 8183SOL     OW25447   6.689   0.535   5.823
 8183SOL    HW125448   6.699   0.436   5.811
 8183SOL    HW225449   6.736   0.582   5.748
 8184SOL     OW25450   0.035   5.615   6.353
 8184SOL    HW125451   0.126   5.599   6.390
 8184SOL    HW225452   6.993   5.556   6.400
 8185SOL     OW25453   0.328   5.973   6.083
 8185SOL    HW125454   0.242   5.923   6.092
 8185SOL    HW225455   0.336   6.039   6.157
 8186SOL     OW25456   1.770   5.496   0.381
 8186SOL    HW125457   1.778   5.397   0.374
 8186SOL    HW225458   1.823   5.528   0.460
 8187SOL     OW25459   1.585   0.040   5.267
 8187SOL    HW125460   1.613   0.132   5.297
 8187SOL    HW225461   1.665   7.013   5.238
 8188SOL     OW25462   1.978   3.122   2.675
 8188SOL    HW125463   1.903   3.129   2.609
 8188SOL    HW225464   1.957   3.175   2.757
 8189SOL     OW25465   5.853   5.089   3.413
 8189SOL    HW125466   5.757   5.070   3.397
 8189SOL    HW225467   5.893   5.018   3.471
 8190SOL     OW25468   6.585   4.173   3.010
 8190SOL    HW125469   6.610   4.209   3.100
 8190SOL    HW225470   6.637   4.090   2.992
 8191SOL     OW25471   4.402   5.255   1.059
 8191SOL    HW125472   4.326   5.190   1.049
 8191SOL    HW225473   4.412   5.280   1.155
 8192SOL     OW25474   0.326   5.877   3.147
 8192SOL    HW125475   0.380   5.927   3.214
 8192SOL    HW225476   0.365   5.890   3.055
 8193SOL     OW25477   0.716   4.366   3.834
 8193SOL    HW125478   0.679   4.430   3.767
 8193SOL    HW225479   0.730   4.414   3.921
 8194SOL     OW25480   4.406   0.362   1.610
 8194SOL    HW125481   4.317   0.342   1.650
 8194SOL    HW225482   4.409   0.327   1.516
 8195SOL     OW25483   6.534   0.117   4.035
 8195SOL    HW125484   6.492   0.111   3.944
 8195SOL    HW225485   6.463   0.116   4.105
 8196SOL     OW25486   4.797   1.103   1.953
 8196SOL    HW125487   4.709   1.057   1.938
 8196SOL    HW225488   4.793   1.195   1.915
 8197SOL     OW25489   3.785   1.927   3.197
 8197SOL    HW125490   3.814   1.997   3.263
 8197SOL    HW225491   3.825   1.839   3.222
 8198SOL     OW25492   1.367   5.821   1.602
 8198SOL    HW125493   1.333   5.914   1.609
 8198SOL    HW225494   1.345   5.783   1.512
 8199SOL     OW25495   5.822   2.552   0.106
 8199SOL    HW125496   5.809   2.582   0.200
 8199SOL    HW225497   5.905   2.593   0.069
 8200SOL     OW25498   4.848   3.480   0.754
 8200SOL    HW125499   4.897   3.563   0.778
 8200SOL    HW225500   4.879   3.449   0.663
 8201SOL     OW25501   6.146   6.977   5.420
 8201SOL    HW125502   6.101   6.928   5.495
 8201SOL    HW225503   6.231   6.930   5.396
 8202SOL     OW25504   1.218   6.361   1.611
 8202SOL    HW125505   1.293   6.393   1.669
 8202SOL    HW225506   1.190   6.436   1.550
 8203SOL     OW25507   1.730   3.456   1.115
 8203SOL    HW125508   1.697   3.418   1.201
 8203SOL    HW225509   1.828   3.471   1.120
 8204SOL     OW25510   2.808   3.659   0.684
 8204SOL    HW125511   2.861   3.678   0.766
 8204SOL    HW225512   2.720   3.619   0.709
 8205SOL     OW25513   1.161   4.491   0.277
 8205SOL    HW125514   1.163   4.449   0.187
 8205SOL    HW225515   1.224   4.569   0.278
 8206SOL     OW25516   2.998   1.106   1.306
 8206SOL    HW125517   3.056   1.120   1.226
 8206SOL    HW225518   3.041   1.150   1.385
 8207SOL     OW25519   3.789   4.089   4.334
 8207SOL    HW125520   3.863   4.041   4.288
 8207SOL    HW225521   3.825   4.136   4.415
 8208SOL     OW25522   1.999   0.518   0.350
 8208SOL    HW125523   2.069   0.532   0.420
 8208SOL    HW225524   1.935   0.448   0.381
 8209SOL     OW25525   6.052   1.675   4.851
 8209SOL    HW125526   5.981   1.713   4.791
 8209SOL    HW225527   6.049   1.575   4.848
 8210SOL     OW25528   2.330   2.766   6.941
 8210SOL    HW125529   2.411   2.716   6.972
 8210SOL    HW225530   2.257   2.701   6.919
 8211SOL     OW25531   4.077   4.729   1.309
 8211SOL    HW125532   4.013   4.776   1.248
 8211SOL    HW225533   4.164   4.714   1.261
 8212SOL     OW25534   1.889   2.561   2.848
 8212SOL    HW125535   1.926   2.652   2.865
 8212SOL    HW225536   1.907   2.503   2.928
 8213SOL     OW25537   6.538   5.098   1.468
 8213SOL    HW125538   6.482   5.122   1.548
 8213SOL    HW225539   6.591   5.016   1.488
 8214SOL     OW25540   5.487   3.565   3.370
 8214SOL    HW125541   5.495   3.573   3.270
 8214SOL    HW225542   5.458   3.473   3.394
 8215SOL     OW25543   3.389   4.918   3.107
 8215SOL    HW125544   3.385   4.853   3.030
 8215SOL    HW225545   3.315   4.984   3.097
 8216SOL     OW25546   5.783   3.753   3.520
 8216SOL    HW125547   5.843   3.796   3.586
 8216SOL    HW225548   5.726   3.823   3.476
 8217SOL     OW25549   1.941   6.060   0.916
 8217SOL    HW125550   2.026   6.022   0.879
 8217SOL    HW225551   1.926   6.151   0.877
 8218SOL     OW25552   6.259   2.532   6.781
 8218SOL    HW125553   6.263   2.548   6.880
 8218SOL    HW225554   6.240   2.435   6.764
 8219SOL     OW25555   5.667   1.555   6.866
 8219SOL    HW125556   5.574   1.589   6.878
 8219SOL    HW225557   5.708   1.536   6.955
 8220SOL     OW25558   4.193   3.821   1.636
 8220SOL    HW125559   4.148   3.749   1.688
 8220SOL    HW225560   4.198   3.905   1.690
 8221SOL     OW25561   4.947   5.419   2.878
 8221SOL    HW125562   4.861   5.368   2.876
 8221SOL    HW225563   5.016   5.368   2.827
 8222SOL     OW25564   6.647   2.196   2.434
 8222SOL    HW125565   6.677   2.132   2.363
 8222SOL    HW225566   6.640   2.148   2.521
 8223SOL     OW25567   0.309   5.320   5.726
 8223SOL    HW125568   0.244   5.265   5.778
 8223SOL    HW225569   0.400   5.279   5.731
 8224SOL     OW25570   1.295   3.100   3.152
 8224SOL    HW125571   1.218   3.047   3.187
 8224SOL    HW225572   1.302   3.090   3.053
 8225SOL     OW25573   4.806   1.251   0.609
 8225SOL    HW125574   4.883   1.218   0.663
 8225SOL    HW225575   4.782   1.344   0.637
 8226SOL     OW25576   3.904   0.374   0.610
 8226SOL    HW125577   3.812   0.377   0.649
 8226SOL    HW225578   3.906   0.305   0.537
 8227SOL     OW25579   5.938   3.430   2.723
 8227SOL    HW125580   5.854   3.399   2.680
 8227SOL    HW225581   5.972   3.511   2.676
 8228SOL     OW25582   0.246   2.144   4.915
 8228SOL    HW125583   0.222   2.047   4.918
 8228SOL    HW225584   0.345   2.154   4.929
 8229SOL     OW25585   3.657   5.312   0.791
 8229SOL    HW125586   3.583   5.245   0.796
 8229SOL    HW225587   3.704   5.316   0.879
 8230SOL     OW25588   5.206   0.051   4.310
 8230SOL    HW125589   5.220   6.978   4.325
 8230SOL    HW225590   5.198   0.069   4.212
 8231SOL     OW25591   4.367   5.870   1.633
 8231SOL    HW125592   4.312   5.953   1.642
 8231SOL    HW225593   4.308   5.790   1.642
 8232SOL     OW25594   2.804   1.901   6.804
 8232SOL    HW125595   2.769   1.935   6.716
 8232SOL    HW225596   2.728   1.869   6.860
 8233SOL     OW25597   0.286   5.047   6.251
 8233SOL    HW125598   0.358   5.009   6.310
 8233SOL    HW225599   0.261   5.138   6.284
 8234SOL     OW25600   3.338   2.880   0.086
 8234SOL    HW125601   3.271   2.858   0.157
 8234SOL    HW225602   3.294   2.878   7.021
 8235SOL     OW25603   4.556   2.357   6.973
 8235SOL    HW125604   4.580   2.263   6.997
 8235SOL    HW225605   4.462   2.375   7.002
 8236SOL     OW25606   5.787   2.411   0.887
 8236SOL    HW125607   5.860   2.345   0.903
 8236SOL    HW225608   5.729   2.417   0.969
 8237SOL     OW25609   4.049   6.084   5.310
 8237SOL    HW125610   4.122   6.039   5.260
 8237SOL    HW225611   4.028   6.173   5.268
 8238SOL     OW25612   1.882   0.994   6.633
 8238SOL    HW125613   1.828   1.007   6.550
 8238SOL    HW225614   1.856   0.907   6.676
 8239SOL     OW25615   6.783   1.289   6.561
 8239SOL    HW125616   6.705   1.227   6.564
 8239SOL    HW225617   6.817   1.306   6.653
 8240SOL     OW25618   3.827   4.036   3.456
 8240SOL    HW125619   3.819   4.080   3.367
 8240SOL    HW225620   3.854   3.940   3.443
 8241SOL     OW25621   4.498   6.673   1.311
 8241SOL    HW125622   4.548   6.675   1.397
 8241SOL    HW225623   4.558   6.698   1.235
 8242SOL     OW25624   1.051   3.864   5.371
 8242SOL    HW125625   0.961   3.822   5.356
 8242SOL    HW225626   1.039   3.957   5.404
 8243SOL     OW25627   0.957   3.526   4.922
 8243SOL    HW125628   0.882   3.466   4.950
 8243SOL    HW225629   0.920   3.616   4.898
 8244SOL     OW25630   1.425   5.963   4.675
 8244SOL    HW125631   1.376   5.931   4.757
 8244SOL    HW225632   1.516   5.996   4.702
 8245SOL     OW25633   3.845   3.590   0.746
 8245SOL    HW125634   3.899   3.522   0.696
 8245SOL    HW225635   3.785   3.638   0.682
 8246SOL     OW25636   5.235   4.264   5.729
 8246SOL    HW125637   5.155   4.324   5.736
 8246SOL    HW225638   5.208   4.178   5.685
 8247SOL     OW25639   1.060   6.974   1.857
 8247SOL    HW125640   1.090   0.028   1.804
 8247SOL    HW225641   0.998   7.004   1.930
 8248SOL     OW25642   0.322   4.246   3.515
 8248SOL    HW125643   0.242   4.186   3.523
 8248SOL    HW225644   0.378   4.236   3.597
 8249SOL     OW25645   1.728   5.557   3.328
 8249SOL    HW125646   1.730   5.632   3.261
 8249SOL    HW225647   1.659   5.576   3.397
 8250SOL     OW25648   3.738   4.053   2.258
 8250SOL    HW125649   3.778   4.144   2.248
 8250SOL    HW225650   3.800   3.985   2.219
 8251SOL     OW25651   6.140   1.455   5.247
 8251SOL    HW125652   6.068   1.517   5.215
 8251SOL    HW225653   6.107   1.405   5.327
 8252SOL     OW25654   1.324   3.269   4.565
 8252SOL    HW125655   1.401   3.274   4.501
 8252SOL    HW225656   1.283   3.178   4.560
 8253SOL     OW25657   2.571   2.605   5.613
 8253SOL    HW125658   2.655   2.605   5.558
 8253SOL    HW225659   2.498   2.649   5.561
 8254SOL     OW25660   4.179   6.102   3.604
 8254SOL    HW125661   4.164   6.042   3.525
 8254SOL    HW225662   4.099   6.161   3.615
 8255SOL     OW25663   4.378   5.040   3.948
 8255SOL    HW125664   4.421   5.124   3.982
 8255SOL    HW225665   4.279   5.054   3.940
 8256SOL     OW25666   6.370   2.250   4.448
 8256SOL    HW125667   6.440   2.195   4.492
 8256SOL    HW225668   6.280   2.212   4.468
 8257SOL     OW25669   6.570   4.047   4.527
 8257SOL    HW125670   6.617   3.972   4.575
 8257SOL    HW225671   6.471   4.038   4.539
 8258SOL     OW25672   4.857   1.668   0.008
 8258SOL    HW125673   4.827   1.701   6.943
 8258SOL    HW225674   4.864   1.745   0.071
 8259SOL     OW25675   3.675   1.202   1.801
 8259SOL    HW125676   3.679   1.178   1.704
 8259SOL    HW225677   3.654   1.300   1.811
 8260SOL     OW25678   2.702   6.158   0.244
 8260SOL    HW125679   2.769   6.091   0.275
 8260SOL    HW225680   2.621   6.154   0.303
 8261SOL     OW25681   5.532   1.268   1.397
 8261SOL    HW125682   5.446   1.315   1.415
 8261SOL    HW225683   5.540   1.250   1.299
 8262SOL     OW25684   1.081   1.898   0.648
 8262SOL    HW125685   1.179   1.917   0.652
 8262SOL    HW225686   1.030   1.984   0.656
 8263SOL     OW25687   5.896   1.072   0.297
 8263SOL    HW125688   5.956   1.058   0.217
 8263SOL    HW225689   5.901   0.992   0.356
 8264SOL     OW25690   2.031   4.234   2.859
 8264SOL    HW125691   2.097   4.308   2.873
 8264SOL    HW225692   1.941   4.274   2.841
 8265SOL     OW25693   1.786   1.193   1.807
 8265SOL    HW125694   1.804   1.289   1.829
 8265SOL    HW225695   1.830   1.170   1.721
 8266SOL     OW25696   3.022   0.210   3.056
 8266SOL    HW125697   3.073   0.125   3.041
 8266SOL    HW225698   3.042   0.273   2.981
 8267SOL     OW25699   0.494   3.457   0.582
 8267SOL    HW125700   0.427   3.406   0.636
 8267SOL    HW225701   0.498   3.552   0.614
 8268SOL     OW25702   3.445   5.955   5.979
 8268SOL    HW125703   3.445   5.952   6.079
 8268SOL    HW225704   3.426   5.863   5.943
 8269SOL     OW25705   6.008   1.704   1.110
 8269SOL    HW125706   6.016   1.759   1.193
 8269SOL    HW225707   5.919   1.658   1.109
 8270SOL     OW25708   3.428   6.411   3.990
 8270SOL    HW125709   3.389   6.319   3.993
 8270SOL    HW225710   3.436   6.442   3.895
 8271SOL     OW25711   6.644   2.316   2.010
 8271SOL    HW125712   6.665   2.222   1.980
 8271SOL    HW225713   6.729   2.367   2.019
 8272SOL     OW25714   3.438   1.219   3.936
 8272SOL    HW125715   3.507   1.282   3.901
 8272SOL    HW225716   3.374   1.195   3.862
 8273SOL     OW25717   1.911   6.727   1.292
 8273SOL    HW125718   1.983   6.658   1.289
 8273SOL    HW225719   1.830   6.689   1.336
 8274SOL     OW25720   5.133   4.525   3.199
 8274SOL    HW125721   5.095   4.519   3.291
 8274SOL    HW225722   5.224   4.568   3.203
 8275SOL     OW25723   4.897   2.465   6.586
 8275SOL    HW125724   4.937   2.394   6.528
 8275SOL    HW225725   4.809   2.433   6.622
 8276SOL     OW25726   0.827   2.234   2.869
 8276SOL    HW125727   0.873   2.161   2.818
 8276SOL    HW225728   0.735   2.247   2.834
 8277SOL     OW25729   6.409   0.761   0.036
 8277SOL    HW125730   6.488   0.813   0.006
 8277SOL    HW225731   6.438   0.691   0.102
 8278SOL     OW25732   1.762   2.652   6.741
 8278SOL    HW125733   1.737   2.713   6.665
 8278SOL    HW225734   1.796   2.706   6.817
 8279SOL     OW25735   6.939   5.927   3.970
 8279SOL    HW125736   6.968   6.015   3.931
 8279SOL    HW225737   6.866   5.889   3.913
 8280SOL     OW25738   2.614   2.184   6.272
 8280SOL    HW125739   2.627   2.261   6.209
 8280SOL    HW225740   2.641   2.211   6.364
 8281SOL     OW25741   6.247   5.634   2.114
 8281SOL    HW125742   6.318   5.570   2.144
 8281SOL    HW225743   6.176   5.641   2.183
 8282SOL     OW25744   5.731   2.586   5.857
 8282SOL    HW125745   5.781   2.629   5.932
 8282SOL    HW225746   5.633   2.589   5.875
 8283SOL     OW25747   1.722   3.425   5.706
 8283SOL    HW125748   1.717   3.330   5.738
 8283SOL    HW225749   1.786   3.476   5.764
 8284SOL     OW25750   6.091   4.223   1.711
 8284SOL    HW125751   6.155   4.148   1.696
 8284SOL    HW225752   6.007   4.206   1.659
 8285SOL     OW25753   3.746   3.808   4.441
 8285SOL    HW125754   3.813   3.815   4.368
 8285SOL    HW225755   3.726   3.898   4.478
 8286SOL     OW25756   0.088   1.643   6.455
 8286SOL    HW125757   7.023   1.619   6.491
 8286SOL    HW225758   0.082   1.727   6.403
 8287SOL     OW25759   1.033   5.711   4.405
 8287SOL    HW125760   1.101   5.706   4.478
 8287SOL    HW225761   1.063   5.777   4.336
 8288SOL     OW25762   3.020   2.246   2.977
 8288SOL    HW125763   2.987   2.341   2.970
 8288SOL    HW225764   2.966   2.188   2.916
 8289SOL     OW25765   0.147   6.131   0.038
 8289SOL    HW125766   0.105   6.080   0.113
 8289SOL    HW225767   0.084   6.201   0.006
 8290SOL     OW25768   6.699   2.582   0.698
 8290SOL    HW125769   6.691   2.521   0.777
 8290SOL    HW225770   6.752   2.537   0.626
 8291SOL     OW25771   4.067   6.636   1.124
 8291SOL    HW125772   4.007   6.592   1.057
 8291SOL    HW225773   4.013   6.698   1.181
 8292SOL     OW25774   2.899   6.636   6.525
 8292SOL    HW125775   2.823   6.689   6.488
 8292SOL    HW225776   2.907   6.550   6.475
 8293SOL     OW25777   5.480   5.391   4.966
 8293SOL    HW125778   5.393   5.353   4.936
 8293SOL    HW225779   5.475   5.416   5.062
 8294SOL     OW25780   5.503   2.634   0.112
 8294SOL    HW125781   5.445   2.691   0.054
 8294SOL    HW225782   5.593   2.624   0.069
 8295SOL     OW25783   4.915   4.131   0.264
 8295SOL    HW125784   4.931   4.203   0.332
 8295SOL    HW225785   4.973   4.146   0.185
 8296SOL     OW25786   1.143   5.466   6.824
 8296SOL    HW125787   1.145   5.553   6.873
 8296SOL    HW225788   1.188   5.396   6.879
 8297SOL     OW25789   0.787   2.553   3.282
 8297SOL    HW125790   0.694   2.563   3.316
 8297SOL    HW225791   0.786   2.502   3.195
 8298SOL     OW25792   4.634   1.604   1.860
 8298SOL    HW125793   4.658   1.641   1.949
 8298SOL    HW225794   4.564   1.533   1.870
 8299SOL     OW25795   6.699   2.155   1.389
 8299SOL    HW125796   6.762   2.163   1.467
 8299SOL    HW225797   6.722   2.225   1.321
 8300SOL     OW25798   0.631   4.556   3.631
 8300SOL    HW125799   0.700   4.628   3.623
 8300SOL    HW225800   0.627   4.505   3.545
 8301SOL     OW25801   3.407   2.944   6.802
 8301SOL    HW125802   3.353   3.014   6.755
 8301SOL    HW225803   3.400   2.858   6.751
 8302SOL     OW25804   5.556   5.768   6.101
 8302SOL    HW125805   5.649   5.736   6.120
 8302SOL    HW225806   5.503   5.765   6.185
 8303SOL     OW25807   0.203   0.481   5.505
 8303SOL    HW125808   0.236   0.429   5.584
 8303SOL    HW225809   0.275   0.541   5.472
 8304SOL     OW25810   0.389   3.410   6.699
 8304SOL    HW125811   0.349   3.430   6.610
 8304SOL    HW225812   0.456   3.480   6.723
 8305SOL     OW25813   3.303   6.102   3.643
 8305SOL    HW125814   3.289   6.003   3.652
 8305SOL    HW225815   3.226   6.150   3.685
 8306SOL     OW25816   0.872   3.235   4.029
 8306SOL    HW125817   0.794   3.176   4.007
 8306SOL    HW225818   0.918   3.200   4.111
 8307SOL     OW25819   2.948   5.762   1.105
 8307SOL    HW125820   3.015   5.821   1.150
 8307SOL    HW225821   2.970   5.666   1.125
 8308SOL     OW25822   3.806   6.621   3.117
 8308SOL    HW125823   3.745   6.542   3.120
 8308SOL    HW225824   3.839   6.634   3.023
 8309SOL     OW25825   5.123   5.904   2.187
 8309SOL    HW125826   5.095   5.995   2.219
 8309SOL    HW225827   5.223   5.901   2.178
 8310SOL     OW25828   6.943   4.562   0.205
 8310SOL    HW125829   6.935   4.563   0.305
 8310SOL    HW225830   6.994   4.481   0.177
 8311SOL     OW25831   6.409   7.024   0.649
 8311SOL    HW125832   6.459   6.957   0.593
 8311SOL    HW225833   6.313   7.024   0.623
 8312SOL     OW25834   5.326   6.446   1.656
 8312SOL    HW125835   5.351   6.369   1.715
 8312SOL    HW225836   5.237   6.482   1.684
 8313SOL     OW25837   3.296   1.219   2.990
 8313SOL    HW125838   3.305   1.315   2.964
 8313SOL    HW225839   3.339   1.162   2.921
 8314SOL     OW25840   6.655   6.782   3.595
 8314SOL    HW125841   6.745   6.802   3.555
 8314SOL    HW225842   6.598   6.865   3.593
 8315SOL     OW25843   4.841   4.795   6.404
 8315SOL    HW125844   4.753   4.773   6.445
 8315SOL    HW225845   4.896   4.712   6.396
 8316SOL     OW25846   2.095   5.461   6.761
 8316SOL    HW125847   2.180   5.496   6.721
 8316SOL    HW225848   2.041   5.538   6.796
 8317SOL     OW25849   2.204   4.416   2.315
 8317SOL    HW125850   2.173   4.489   2.376
 8317SOL    HW225851   2.161   4.426   2.225
 8318SOL     OW25852   3.317   1.348   5.388
 8318SOL    HW125853   3.365   1.298   5.315
 8318SOL    HW225854   3.369   1.430   5.411
 8319SOL     OW25855   3.495   0.646   4.539
 8319SOL    HW125856   3.423   0.672   4.604
 8319SOL    HW225857   3.519   0.550   4.553
 8320SOL     OW25858   3.778   4.433   1.548
 8320SOL    HW125859   3.759   4.377   1.629
 8320SOL    HW225860   3.877   4.446   1.540
 8321SOL     OW25861   0.654   0.708   1.472
 8321SOL    HW125862   0.600   0.781   1.432
 8321SOL    HW225863   0.595   0.632   1.498
 8322SOL     OW25864   6.206   6.622   0.234
 8322SOL    HW125865   6.273   6.550   0.254
 8322SOL    HW225866   6.176   6.614   0.139
 8323SOL     OW25867   1.562   1.938   1.533
 8323SOL    HW125868   1.555   1.850   1.487
 8323SOL    HW225869   1.650   1.980   1.512
 8324SOL     OW25870   6.911   1.359   1.984
 8324SOL    HW125871   6.882   1.449   2.018
 8324SOL    HW225872   6.941   1.367   1.889
 8325SOL     OW25873   3.304   2.896   3.699
 8325SOL    HW125874   3.223   2.952   3.684
 8325SOL    HW225875   3.290   2.838   3.779
 8326SOL     OW25876   3.661   3.324   5.737
 8326SOL    HW125877   3.606   3.300   5.817
 8326SOL    HW225878   3.671   3.424   5.733
 8327SOL     OW25879   4.838   1.733   6.098
 8327SOL    HW125880   4.824   1.640   6.063
 8327SOL    HW225881   4.755   1.764   6.145
 8328SOL     OW25882   2.546   2.433   5.242
 8328SOL    HW125883   2.547   2.485   5.327
 8328SOL    HW225884   2.601   2.351   5.253
 8329SOL     OW25885   0.112   2.813   5.221
 8329SOL    HW125886   0.116   2.894   5.163
 8329SOL    HW225887   0.075   2.736   5.169
 8330SOL     OW25888   3.225   6.716   0.071
 8330SOL    HW125889   3.127   6.694   0.065
 8330SOL    HW225890   3.243   6.762   0.158
 8331SOL     OW25891   2.543   0.106   1.021
 8331SOL    HW125892   2.632   0.138   1.053
 8331SOL    HW225893   2.515   0.159   0.941
 8332SOL     OW25894   5.004   6.021   2.920
 8332SOL    HW125895   5.012   6.111   2.877
 8332SOL    HW225896   5.001   6.032   3.019
 8333SOL     OW25897   0.653   5.808   6.286
 8333SOL    HW125898   0.614   5.900   6.278
 8333SOL    HW225899   0.725   5.797   6.219
 8334SOL     OW25900   6.018   0.910   3.573
 8334SOL    HW125901   6.089   0.930   3.505
 8334SOL    HW225902   5.992   0.995   3.619
 8335SOL     OW25903   5.729   6.853   5.708
 8335SOL    HW125904   5.827   6.840   5.694
 8335SOL    HW225905   5.697   6.931   5.653
 8336SOL     OW25906   0.262   2.184   2.328
 8336SOL    HW125907   0.177   2.235   2.342
 8336SOL    HW225908   0.338   2.231   2.373
 8337SOL     OW25909   0.487   6.209   2.626
 8337SOL    HW125910   0.417   6.138   2.623
 8337SOL    HW225911   0.444   6.299   2.632
 8338SOL     OW25912   1.665   4.842   0.444
 8338SOL    HW125913   1.737   4.802   0.502
 8338SOL    HW225914   1.693   4.837   0.348
 8339SOL     OW25915   5.363   1.285   2.764
 8339SOL    HW125916   5.331   1.193   2.782
 8339SOL    HW225917   5.398   1.291   2.670
 8340SOL     OW25918   4.667   3.330   0.317
 8340SOL    HW125919   4.688   3.246   0.266
 8340SOL    HW225920   4.739   3.397   0.303
 8341SOL     OW25921   1.981   6.934   1.137
 8341SOL    HW125922   1.882   6.931   1.132
 8341SOL    HW225923   2.016   6.849   1.177
 8342SOL     OW25924   4.447   0.938   1.106
 8342SOL    HW125925   4.467   1.022   1.057
 8342SOL    HW225926   4.382   0.957   1.179
 8343SOL     OW25927   1.702   5.228   6.074
 8343SOL    HW125928   1.631   5.192   6.134
 8343SOL    HW225929   1.792   5.196   6.106
 8344SOL     OW25930   3.813   0.005   5.472
 8344SOL    HW125931   3.892   7.007   5.528
 8344SOL    HW225932   3.839   0.072   5.403
 8345SOL     OW25933   6.262   1.139   2.258
 8345SOL    HW125934   6.298   1.046   2.264
 8345SOL    HW225935   6.196   1.154   2.331
 8346SOL     OW25936   3.441   5.390   1.913
 8346SOL    HW125937   3.379   5.415   1.838
 8346SOL    HW225938   3.405   5.310   1.960
 8347SOL     OW25939   3.723   5.501   4.045
 8347SOL    HW125940   3.637   5.489   4.096
 8347SOL    HW225941   3.707   5.565   3.970
 8348SOL     OW25942   1.608   0.369   0.244
 8348SOL    HW125943   1.673   0.300   0.275
 8348SOL    HW225944   1.593   0.435   0.317
 8349SOL     OW25945   5.954   5.354   1.892
 8349SOL    HW125946   5.892   5.432   1.882
 8349SOL    HW225947   6.033   5.367   1.832
 8350SOL     OW25948   6.567   0.688   4.981
 8350SOL    HW125949   6.580   0.783   5.007
 8350SOL    HW225950   6.508   0.643   5.049
 8351SOL     OW25951   2.993   6.349   2.607
 8351SOL    HW125952   3.007   6.361   2.509
 8351SOL    HW225953   3.018   6.256   2.634
 8352SOL     OW25954   6.676   6.537   1.486
 8352SOL    HW125955   6.701   6.453   1.437
 8352SOL    HW225956   6.753   6.567   1.542
 8353SOL     OW25957   0.300   3.855   2.409
 8353SOL    HW125958   0.326   3.758   2.415
 8353SOL    HW225959   0.222   3.864   2.347
 8354SOL     OW25960   2.252   1.042   0.488
 8354SOL    HW125961   2.350   1.059   0.497
 8354SOL    HW225962   2.216   1.098   0.413
 8355SOL     OW25963   3.159   1.060   0.303
 8355SOL    HW125964   3.171   1.075   0.205
 8355SOL    HW225965   3.083   0.997   0.318
 8356SOL     OW25966   2.197   5.280   6.920
 8356SOL    HW125967   2.168   5.341   6.846
 8356SOL    HW225968   2.179   5.185   6.894
 8357SOL     OW25969   5.054   5.450   4.465
 8357SOL    HW125970   5.027   5.540   4.432
 8357SOL    HW225971   5.057   5.386   4.389
 8358SOL     OW25972   2.233   2.343   5.871
 8358SOL    HW125973   2.185   2.409   5.929
 8358SOL    HW225974   2.325   2.377   5.850
 8359SOL     OW25975   4.479   4.851   3.796
 8359SOL    HW125976   4.439   4.923   3.853
 8359SOL    HW225977   4.411   4.779   3.781
 8360SOL     OW25978   4.776   0.731   3.632
 8360SOL    HW125979   4.815   0.639   3.637
 8360SOL    HW225980   4.681   0.729   3.662
 8361SOL     OW25981   2.081   0.497   3.042
 8361SOL    HW125982   2.012   0.460   2.979
 8361SOL    HW225983   2.101   0.429   3.113
 8362SOL     OW25984   2.603   2.958   0.331
 8362SOL    HW125985   2.644   2.871   0.304
 8362SOL    HW225986   2.525   2.978   0.272
 8363SOL     OW25987   0.007   3.287   0.693
 8363SOL    HW125988   6.947   3.336   0.714
 8363SOL    HW225989   0.025   3.294   0.594
 8364SOL     OW25990   6.527   4.243   3.570
 8364SOL    HW125991   6.555   4.237   3.475
 8364SOL    HW225992   6.544   4.336   3.604
 8365SOL     OW25993   2.179   3.360   5.905
 8365SOL    HW125994   2.265   3.347   5.953
 8365SOL    HW225995   2.103   3.359   5.970
 8366SOL     OW25996   3.010   6.658   2.910
 8366SOL    HW125997   3.001   6.733   2.846
 8366SOL    HW225998   3.106   6.628   2.914
 8367SOL     OW25999   5.356   5.661   3.728
 8367SOL    HW126000   5.373   5.563   3.726
 8367SOL    HW226001   5.411   5.707   3.659
 8368SOL     OW26002   2.954   5.167   6.783
 8368SOL    HW126003   2.854   5.175   6.783
 8368SOL    HW226004   2.983   5.112   6.861
 8369SOL     OW26005   2.378   1.359   1.472
 8369SOL    HW126006   2.303   1.374   1.537
 8369SOL    HW226007   2.359   1.277   1.419
 8370SOL     OW26008   1.398   1.314   6.669
 8370SOL    HW126009   1.407   1.312   6.769
 8370SOL    HW226010   1.329   1.382   6.643
 8371SOL     OW26011   2.105   3.292   0.689
 8371SOL    HW126012   2.065   3.363   0.747
 8371SOL    HW226013   2.091   3.203   0.731
 8372SOL     OW26014   0.246   0.525   1.892
 8372SOL    HW126015   0.190   0.450   1.858
 8372SOL    HW226016   0.341   0.512   1.861
 8373SOL     OW26017   1.538   6.692   5.212
 8373SOL    HW126018   1.506   6.783   5.184
 8373SOL    HW226019   1.592   6.701   5.297
 8374SOL     OW26020   6.502   7.004   6.439
 8374SOL    HW126021   6.560   6.926   6.415
 8374SOL    HW226022   6.463   6.990   6.530
 8375SOL     OW26023   3.574   0.613   6.537
 8375SOL    HW126024   3.650   0.677   6.547
 8375SOL    HW226025   3.587   0.559   6.454
 8376SOL     OW26026   3.731   0.320   4.813
 8376SOL    HW126027   3.724   0.413   4.851
 8376SOL    HW226028   3.722   0.253   4.886
 8377SOL     OW26029   5.702   4.382   0.812
 8377SOL    HW126030   5.798   4.365   0.834
 8377SOL    HW226031   5.645   4.307   0.846
 8378SOL     OW26032   4.867   2.978   3.703
 8378SOL    HW126033   4.882   3.002   3.607
 8378SOL    HW226034   4.830   2.885   3.708
 8379SOL     OW26035   5.689   2.431   1.764
 8379SOL    HW126036   5.623   2.393   1.829
 8379SOL    HW226037   5.762   2.365   1.748
 8380SOL     OW26038   4.783   1.914   3.228
 8380SOL    HW126039   4.798   2.012   3.238
 8380SOL    HW226040   4.808   1.866   3.312
 8381SOL     OW26041   1.835   5.226   4.554
 8381SOL    HW126042   1.848   5.308   4.610
 8381SOL    HW226043   1.797   5.252   4.465
 8382SOL     OW26044   1.069   2.979   2.075
 8382SOL    HW126045   1.059   3.031   2.160
 8382SOL    HW226046   1.101   2.887   2.096
 8383SOL     OW26047   3.498   2.014   6.325
 8383SOL    HW126048   3.549   1.991   6.242
 8383SOL    HW226049   3.401   1.995   6.312
 8384SOL     OW26050   0.688   6.478   1.619
 8384SOL    HW126051   0.781   6.458   1.650
 8384SOL    HW226052   0.691   6.545   1.545
 8385SOL     OW26053   4.514   2.293   0.952
 8385SOL    HW126054   4.604   2.332   0.933
 8385SOL    HW226055   4.479   2.332   1.037
 8386SOL     OW26056   1.415   4.741   2.793
 8386SOL    HW126057   1.450   4.771   2.882
 8386SOL    HW226058   1.415   4.641   2.790
 8387SOL     OW26059   0.379   1.951   1.249
 8387SOL    HW126060   0.343   1.938   1.156
 8387SOL    HW226061   0.337   2.033   1.289
 8388SOL     OW26062   1.111   0.057   2.468
 8388SOL    HW126063   1.032   0.024   2.416
 8388SOL    HW226064   1.176   0.100   2.405
 8389SOL     OW26065   5.169   2.646   2.494
 8389SOL    HW126066   5.072   2.656   2.469
 8389SOL    HW226067   5.198   2.552   2.478
 8390SOL     OW26068   5.207   1.624   5.835
 8390SOL    HW126069   5.298   1.610   5.796
 8390SOL    HW226070   5.166   1.535   5.857
 8391SOL     OW26071   6.578   6.970   1.686
 8391SOL    HW126072   6.579   0.045   1.695
 8391SOL    HW226073   6.635   6.943   1.608
 8392SOL     OW26074   5.033   3.005   5.189
 8392SOL    HW126075   5.055   3.090   5.142
 8392SOL    HW226076   5.117   2.967   5.229
 8393SOL     OW26077   5.117   0.140   1.484
 8393SOL    HW126078   5.026   0.153   1.524
 8393SOL    HW226079   5.178   0.100   1.552
 8394SOL     OW26080   5.747   3.096   2.019
 8394SOL    HW126081   5.840   3.063   2.036
 8394SOL    HW226082   5.708   3.129   2.105
 8395SOL     OW26083   1.917   1.129   4.858
 8395SOL    HW126084   1.937   1.046   4.806
 8395SOL    HW226085   2.003   1.172   4.886
 8396SOL     OW26086   4.416   5.597   4.324
 8396SOL    HW126087   4.352   5.557   4.390
 8396SOL    HW226088   4.481   5.656   4.373
 8397SOL     OW26089   5.918   1.125   2.989
 8397SOL    HW126090   5.849   1.197   2.975
 8397SOL    HW226091   5.904   1.084   3.079
 8398SOL     OW26092   4.615   2.105   6.248
 8398SOL    HW126093   4.692   2.123   6.309
 8398SOL    HW226094   4.558   2.187   6.241
 8399SOL     OW26095   0.266   4.654   1.341
 8399SOL    HW126096   0.318   4.569   1.333
 8399SOL    HW226097   0.189   4.652   1.278
 8400SOL     OW26098   1.647   1.808   4.848
 8400SOL    HW126099   1.684   1.893   4.884
 8400SOL    HW226100   1.645   1.738   4.920
 8401SOL     OW26101   2.534   6.776   5.809
 8401SOL    HW126102   2.552   6.835   5.887
 8401SOL    HW226103   2.596   6.799   5.734
 8402SOL     OW26104   3.502   0.673   6.205
 8402SOL    HW126105   3.583   0.615   6.214
 8402SOL    HW226106   3.530   0.769   6.203
 8403SOL     OW26107   5.735   4.210   4.487
 8403SOL    HW126108   5.766   4.249   4.400
 8403SOL    HW226109   5.783   4.123   4.503
 8404SOL     OW26110   0.908   1.587   6.463
 8404SOL    HW126111   0.873   1.495   6.479
 8404SOL    HW226112   0.940   1.595   6.368
 8405SOL     OW26113   4.385   0.360   6.038
 8405SOL    HW126114   4.407   0.451   6.004
 8405SOL    HW226115   4.349   0.305   5.962
 8406SOL     OW26116   5.364   0.282   6.170
 8406SOL    HW126117   5.428   0.209   6.146
 8406SOL    HW226118   5.403   0.336   6.245
 8407SOL     OW26119   3.428   6.801   4.134
 8407SOL    HW126120   3.509   6.747   4.156
 8407SOL    HW226121   3.447   6.898   4.148
 8408SOL     OW26122   3.646   1.498   1.450
 8408SOL    HW126123   3.665   1.403   1.475
 8408SOL    HW226124   3.598   1.543   1.526
 8409SOL     OW26125   4.395   2.329   2.112
 8409SOL    HW126126   4.425   2.308   2.205
 8409SOL    HW226127   4.301   2.297   2.100
 8410SOL     OW26128   6.770   1.807   2.014
 8410SOL    HW126129   6.683   1.790   1.969
 8410SOL    HW226130   6.800   1.725   2.062
 8411SOL     OW26131   1.437   6.208   0.683
 8411SOL    HW126132   1.350   6.188   0.729
 8411SOL    HW226133   1.420   6.231   0.587
 8412SOL     OW26134   2.703   2.233   6.509
 8412SOL    HW126135   2.655   2.177   6.576
 8412SOL    HW226136   2.753   2.305   6.556
 8413SOL     OW26137   4.284   5.428   4.512
 8413SOL    HW126138   4.199   5.431   4.565
 8413SOL    HW226139   4.358   5.473   4.564
 8414SOL     OW26140   0.915   0.379   1.706
 8414SOL    HW126141   0.841   0.407   1.644
 8414SOL    HW226142   0.999   0.427   1.681
 8415SOL     OW26143   2.541   1.673   5.799
 8415SOL    HW126144   2.526   1.648   5.895
 8415SOL    HW226145   2.469   1.736   5.770
 8416SOL     OW26146   6.640   1.817   5.647
 8416SOL    HW126147   6.705   1.892   5.633
 8416SOL    HW226148   6.560   1.830   5.589
 8417SOL     OW26149   1.369   3.486   5.696
 8417SOL    HW126150   1.391   3.486   5.794
 8417SOL    HW226151   1.324   3.572   5.672
 8418SOL     OW26152   0.418   6.102   2.244
 8418SOL    HW126153   0.349   6.063   2.306
 8418SOL    HW226154   0.433   6.198   2.269
 8419SOL     OW26155   4.409   1.908   4.166
 8419SOL    HW126156   4.452   1.990   4.130
 8419SOL    HW226157   4.436   1.828   4.113
 8420SOL     OW26158   3.373   0.378   1.770
 8420SOL    HW126159   3.463   0.405   1.735
 8420SOL    HW226160   3.311   0.362   1.694
 8421SOL     OW26161   4.774   6.604   6.436
 8421SOL    HW126162   4.838   6.564   6.370
 8421SOL    HW226163   4.812   6.598   6.528
 8422SOL     OW26164   5.124   2.568   3.420
 8422SOL    HW126165   5.166   2.595   3.506
 8422SOL    HW226166   5.042   2.514   3.439
 8423SOL     OW26167   6.892   4.831   6.662
 8423SOL    HW126168   6.885   4.930   6.671
 8423SOL    HW226169   6.801   4.791   6.654
 8424SOL     OW26170   3.137   0.542   4.662
 8424SOL    HW126171   3.173   0.613   4.721
 8424SOL    HW226172   3.210   0.477   4.639
 8425SOL     OW26173   3.504   4.107   2.024
 8425SOL    HW126174   3.422   4.065   2.063
 8425SOL    HW226175   3.554   4.156   2.095
 8426SOL     OW26176   3.940   2.999   1.958
 8426SOL    HW126177   4.005   2.995   1.882
 8426SOL    HW226178   3.870   2.928   1.946
 8427SOL     OW26179   3.413   3.831   3.951
 8427SOL    HW126180   3.458   3.788   4.029
 8427SOL    HW226181   3.329   3.781   3.929
 8428SOL     OW26182   5.975   6.680   1.555
 8428SOL    HW126183   5.920   6.702   1.636
 8428SOL    HW226184   5.960   6.584   1.531
 8429SOL     OW26185   2.885   5.627   5.239
 8429SOL    HW126186   2.878   5.690   5.162
 8429SOL    HW226187   2.806   5.566   5.240
 8430SOL     OW26188   4.739   0.201   5.143
 8430SOL    HW126189   4.653   0.160   5.114
 8430SOL    HW226190   4.756   0.284   5.089
 8431SOL     OW26191   2.159   3.718   5.751
 8431SOL    HW126192   2.186   3.798   5.697
 8431SOL    HW226193   2.140   3.747   5.845
 8432SOL     OW26194   6.369   4.767   5.889
 8432SOL    HW126195   6.431   4.691   5.907
 8432SOL    HW226196   6.275   4.739   5.903
 8433SOL     OW26197   5.259   2.255   0.996
 8433SOL    HW126198   5.284   2.162   1.024
 8433SOL    HW226199   5.221   2.304   1.074
 8434SOL     OW26200   2.808   5.749   4.902
 8434SOL    HW126201   2.745   5.675   4.925
 8434SOL    HW226202   2.900   5.712   4.889
 8435SOL     OW26203   5.322   1.699   2.954
 8435SOL    HW126204   5.358   1.609   2.978
 8435SOL    HW226205   5.383   1.770   2.989
 8436SOL     OW26206   2.220   5.739   2.279
 8436SOL    HW126207   2.173   5.810   2.332
 8436SOL    HW226208   2.278   5.685   2.340
 8437SOL     OW26209   1.192   5.047   2.204
 8437SOL    HW126210   1.201   5.030   2.106
 8437SOL    HW226211   1.095   5.049   2.229
 8438SOL     OW26212   0.732   3.726   2.557
 8438SOL    HW126213   0.762   3.820   2.545
 8438SOL    HW226214   0.736   3.702   2.654
 8439SOL     OW26215   5.862   4.696   2.840
 8439SOL    HW126216   5.767   4.708   2.870
 8439SOL    HW226217   5.870   4.723   2.744
 8440SOL     OW26218   1.956   2.066   2.818
 8440SOL    HW126219   1.932   2.073   2.721
 8440SOL    HW226220   1.873   2.062   2.873
 8441SOL     OW26221   6.726   1.542   5.646
 8441SOL    HW126222   6.674   1.618   5.686
 8441SOL    HW226223   6.789   1.577   5.577
 8442SOL     OW26224   3.668   1.582   6.386
 8442SOL    HW126225   3.579   1.548   6.353
 8442SOL    HW226226   3.653   1.642   6.465
 8443SOL     OW26227   1.364   3.964   2.960
 8443SOL    HW126228   1.269   3.958   2.928
 8443SOL    HW226229   1.426   3.937   2.887
 8444SOL     OW26230   5.458   5.057   5.040
 8444SOL    HW126231   5.551   5.058   5.078
 8444SOL    HW226232   5.392   5.057   5.114
 8445SOL     OW26233   4.362   6.190   6.375
 8445SOL    HW126234   4.347   6.282   6.340
 8445SOL    HW226235   4.313   6.178   6.462
 8446SOL     OW26236   6.876   5.315   4.938
 8446SOL    HW126237   6.889   5.317   5.037
 8446SOL    HW226238   6.830   5.399   4.909
 8447SOL     OW26239   4.167   2.039   3.528
 8447SOL    HW126240   4.229   1.962   3.518
 8447SOL    HW226241   4.107   2.024   3.607
 8448SOL     OW26242   3.072   6.146   3.262
 8448SOL    HW126243   3.135   6.211   3.304
 8448SOL    HW226244   2.997   6.195   3.217
 8449SOL     OW26245   1.702   2.201   3.348
 8449SOL    HW126246   1.677   2.125   3.287
 8449SOL    HW226247   1.684   2.288   3.302
 8450SOL     OW26248   0.132   1.413   6.712
 8450SOL    HW126249   0.160   1.370   6.626
 8450SOL    HW226250   0.034   1.434   6.708
 8451SOL     OW26251   4.325   2.459   0.712
 8451SOL    HW126252   4.370   2.369   0.711
 8451SOL    HW226253   4.328   2.496   0.805
 8452SOL     OW26254   5.062   1.936   5.645
 8452SOL    HW126255   4.968   1.928   5.612
 8452SOL    HW226256   5.075   1.875   5.724
 8453SOL     OW26257   6.755   6.129   0.480
 8453SOL    HW126258   6.701   6.113   0.398
 8453SOL    HW226259   6.844   6.168   0.454
 8454SOL     OW26260   6.688   3.981   0.075
 8454SOL    HW126261   6.612   4.037   0.044
 8454SOL    HW226262   6.773   4.015   0.035
 8455SOL     OW26263   6.918   1.592   2.671
 8455SOL    HW126264   7.017   1.604   2.670
 8455SOL    HW226265   6.888   1.567   2.763
 8456SOL     OW26266   6.622   0.304   3.386
 8456SOL    HW126267   6.562   0.246   3.331
 8456SOL    HW226268   6.686   0.247   3.438
 8457SOL     OW26269   6.746   0.034   5.390
 8457SOL    HW126270   6.780   0.127   5.378
 8457SOL    HW226271   6.771   0.000   5.480
 8458SOL     OW26272   0.759   0.104   6.532
 8458SOL    HW126273   0.678   0.048   6.511
 8458SOL    HW226274   0.730   0.197   6.552
 8459SOL     OW26275   1.500   6.639   3.677
 8459SOL    HW126276   1.529   6.555   3.722
 8459SOL    HW226277   1.401   6.637   3.663
 8460SOL     OW26278   3.488   4.156   3.140
 8460SOL    HW126279   3.571   4.166   3.085
 8460SOL    HW226280   3.507   4.098   3.219
 8461SOL     OW26281   6.656   3.604   4.015
 8461SOL    HW126282   6.627   3.517   3.977
 8461SOL    HW226283   6.590   3.675   3.992
 8462SOL     OW26284   2.431   3.024   1.686
 8462SOL    HW126285   2.436   3.109   1.738
 8462SOL    HW226286   2.346   3.022   1.633
 8463SOL     OW26287   5.252   0.958   2.178
 8463SOL    HW126288   5.164   0.953   2.131
 8463SOL    HW226289   5.299   0.870   2.171
 8464SOL     OW26290   6.362   1.679   5.114
 8464SOL    HW126291   6.267   1.709   5.126
 8464SOL    HW226292   6.423   1.748   5.153
 8465SOL     OW26293   1.893   1.993   6.745
 8465SOL    HW126294   1.806   2.022   6.705
 8465SOL    HW226295   1.877   1.925   6.816
 8466SOL     OW26296   0.370   6.981   3.985
 8466SOL    HW126297   0.415   0.023   3.925
 8466SOL    HW226298   0.344   6.900   3.932
 8467SOL     OW26299   3.722   5.317   1.074
 8467SOL    HW126300   3.643   5.343   1.130
 8467SOL    HW226301   3.784   5.262   1.130
 8468SOL     OW26302   4.499   2.449   0.336
 8468SOL    HW126303   4.466   2.366   0.380
 8468SOL    HW226304   4.423   2.494   0.288
 8469SOL     OW26305   3.952   2.686   6.873
 8469SOL    HW126306   3.920   2.641   6.789
 8469SOL    HW226307   4.049   2.708   6.863
 8470SOL     OW26308   1.526   3.067   6.811
 8470SOL    HW126309   1.487   3.155   6.784
 8470SOL    HW226310   1.468   3.024   6.880
 8471SOL     OW26311   5.041   1.078   4.230
 8471SOL    HW126312   5.076   1.015   4.300
 8471SOL    HW226313   5.028   1.028   4.144
 8472SOL     OW26314   1.592   0.182   2.703
 8472SOL    HW126315   1.648   0.105   2.732
 8472SOL    HW226316   1.561   0.233   2.783
 8473SOL     OW26317   6.328   5.413   6.558
 8473SOL    HW126318   6.420   5.401   6.521
 8473SOL    HW226319   6.274   5.331   6.537
 8474SOL     OW26320   3.920   5.138   0.700
 8474SOL    HW126321   3.892   5.211   0.637
 8474SOL    HW226322   3.953   5.179   0.786
 8475SOL     OW26323   4.523   1.580   3.253
 8475SOL    HW126324   4.610   1.531   3.242
 8475SOL    HW226325   4.457   1.520   3.298
 8476SOL     OW26326   4.338   0.721   2.847
 8476SOL    HW126327   4.437   0.732   2.854
 8476SOL    HW226328   4.307   0.750   2.757
 8477SOL     OW26329   2.461   0.579   2.157
 8477SOL    HW126330   2.405   0.498   2.141
 8477SOL    HW226331   2.409   0.646   2.210
 8478SOL     OW26332   1.690   0.272   5.733
 8478SOL    HW126333   1.654   0.194   5.784
 8478SOL    HW226334   1.614   0.327   5.698
 8479SOL     OW26335   4.724   1.284   2.204
 8479SOL    HW126336   4.789   1.343   2.156
 8479SOL    HW226337   4.773   1.218   2.260
 8480SOL     OW26338   1.196   1.512   1.231
 8480SOL    HW126339   1.126   1.446   1.203
 8480SOL    HW226340   1.153   1.587   1.281
 8481SOL     OW26341   4.503   0.076   5.050
 8481SOL    HW126342   4.412   0.115   5.056
 8481SOL    HW226343   4.498   7.012   5.003
 8482SOL     OW26344   0.335   0.267   2.046
 8482SOL    HW126345   0.405   0.200   2.023
 8482SOL    HW226346   0.355   0.354   2.001
 8483SOL     OW26347   5.022   6.185   2.231
 8483SOL    HW126348   5.049   6.217   2.140
 8483SOL    HW226349   5.097   6.202   2.296
 8484SOL     OW26350   0.710   4.191   4.627
 8484SOL    HW126351   0.734   4.134   4.549
 8484SOL    HW226352   0.723   4.139   4.712
 8485SOL     OW26353   2.406   3.596   5.768
 8485SOL    HW126354   2.311   3.625   5.772
 8485SOL    HW226355   2.411   3.500   5.739
 8486SOL     OW26356   4.053   0.320   2.455
 8486SOL    HW126357   4.092   0.411   2.468
 8486SOL    HW226358   4.024   0.283   2.543
 8487SOL     OW26359   4.765   0.138   1.312
 8487SOL    HW126360   4.707   0.144   1.231
 8487SOL    HW226361   4.800   0.229   1.334
 8488SOL     OW26362   5.458   3.167   4.881
 8488SOL    HW126363   5.497   3.252   4.846
 8488SOL    HW226364   5.531   3.102   4.902
 8489SOL     OW26365   4.181   5.373   2.649
 8489SOL    HW126366   4.168   5.297   2.712
 8489SOL    HW226367   4.092   5.409   2.621
 8490SOL     OW26368   3.578   5.369   2.464
 8490SOL    HW126369   3.498   5.340   2.515
 8490SOL    HW226370   3.606   5.296   2.401
 8491SOL     OW26371   1.585   1.002   1.843
 8491SOL    HW126372   1.525   0.992   1.763
 8491SOL    HW226373   1.641   1.084   1.832
 8492SOL     OW26374   5.338   3.765   4.372
 8492SOL    HW126375   5.278   3.712   4.431
 8492SOL    HW226376   5.359   3.853   4.414
 8493SOL     OW26377   3.312   2.041   0.953
 8493SOL    HW126378   3.358   2.125   0.980
 8493SOL    HW226379   3.252   2.059   0.875
 8494SOL     OW26380   3.585   5.663   0.176
 8494SOL    HW126381   3.531   5.624   0.250
 8494SOL    HW226382   3.525   5.699   0.105
 8495SOL     OW26383   0.566   2.450   0.141
 8495SOL    HW126384   0.641   2.386   0.159
 8495SOL    HW226385   0.588   2.504   0.060
 8496SOL     OW26386   6.456   2.217   2.982
 8496SOL    HW126387   6.545   2.262   2.970
 8496SOL    HW226388   6.406   2.261   3.056
 8497SOL     OW26389   6.290   4.895   3.672
 8497SOL    HW126390   6.302   4.825   3.602
 8497SOL    HW226391   6.269   4.982   3.628
 8498SOL     OW26392   6.686   0.938   0.741
 8498SOL    HW126393   6.707   0.887   0.824
 8498SOL    HW226394   6.758   1.005   0.724
 8499SOL     OW26395   2.868   4.108   6.063
 8499SOL    HW126396   2.842   4.011   6.066
 8499SOL    HW226397   2.966   4.115   6.042
 8500SOL     OW26398   3.368   0.434   6.164
 8500SOL    HW126399   3.406   0.522   6.192
 8500SOL    HW226400   3.367   0.372   6.243
 8501SOL     OW26401   2.740   4.447   5.976
 8501SOL    HW126402   2.792   4.365   5.999
 8501SOL    HW226403   2.647   4.439   6.012
 8502SOL     OW26404   0.309   6.998   2.136
 8502SOL    HW126405   0.307   0.074   2.130
 8502SOL    HW226406   0.398   6.969   2.171
 8503SOL     OW26407   3.190   6.279   2.941
 8503SOL    HW126408   3.107   6.226   2.960
 8503SOL    HW226409   3.201   6.351   3.010
 8504SOL     OW26410   1.258   5.741   3.504
 8504SOL    HW126411   1.160   5.762   3.501
 8504SOL    HW226412   1.310   5.827   3.500
 8505SOL     OW26413   4.769   2.995   3.973
 8505SOL    HW126414   4.784   3.088   4.008
 8505SOL    HW226415   4.798   2.990   3.878
 8506SOL     OW26416   0.634   6.434   0.784
 8506SOL    HW126417   0.608   6.343   0.815
 8506SOL    HW226418   0.721   6.429   0.735
 8507SOL     OW26419   1.692   0.442   4.593
 8507SOL    HW126420   1.772   0.403   4.638
 8507SOL    HW226421   1.614   0.439   4.655
 8508SOL     OW26422   1.009   2.909   6.464
 8508SOL    HW126423   0.943   2.983   6.457
 8508SOL    HW226424   1.081   2.922   6.397
 8509SOL     OW26425   6.133   2.197   4.562
 8509SOL    HW126426   6.100   2.273   4.505
 8509SOL    HW226427   6.092   2.203   4.653
 8510SOL     OW26428   4.835   0.112   2.564
 8510SOL    HW126429   4.935   0.115   2.561
 8510SOL    HW226430   4.798   0.203   2.548
 8511SOL     OW26431   7.016   4.673   2.027
 8511SOL    HW126432   6.976   4.749   2.080
 8511SOL    HW226433   0.073   4.639   2.074
 8512SOL     OW26434   4.253   2.655   0.452
 8512SOL    HW126435   4.272   2.604   0.536
 8512SOL    HW226436   4.189   2.730   0.472
 8513SOL     OW26437   0.498   4.586   1.680
 8513SOL    HW126438   0.440   4.553   1.605
 8513SOL    HW226439   0.444   4.640   1.743
 8514SOL     OW26440   2.600   2.217   5.848
 8514SOL    HW126441   2.545   2.138   5.876
 8514SOL    HW226442   2.672   2.186   5.786
 8515SOL     OW26443   1.886   0.711   0.683
 8515SOL    HW126444   1.905   0.782   0.750
 8515SOL    HW226445   1.938   0.730   0.599
 8516SOL     OW26446   5.285   2.503   3.928
 8516SOL    HW126447   5.214   2.524   3.996
 8516SOL    HW226448   5.337   2.586   3.909
 8517SOL     OW26449   2.129   1.949   6.266
 8517SOL    HW126450   2.096   1.941   6.360
 8517SOL    HW226451   2.227   1.972   6.267
 8518SOL     OW26452   5.477   4.756   6.616
 8518SOL    HW126453   5.554   4.696   6.638
 8518SOL    HW226454   5.392   4.704   6.622
 8519SOL     OW26455   0.931   3.174   1.046
 8519SOL    HW126456   0.929   3.271   1.020
 8519SOL    HW226457   0.884   3.120   0.977
 8520SOL     OW26458   3.846   3.956   6.047
 8520SOL    HW126459   3.908   4.033   6.032
 8520SOL    HW226460   3.900   3.873   6.062
 8521SOL     OW26461   1.988   6.370   5.289
 8521SOL    HW126462   2.066   6.339   5.234
 8521SOL    HW226463   2.021   6.406   5.377
 8522SOL     OW26464   0.517   6.993   0.397
 8522SOL    HW126465   0.556   6.911   0.355
 8522SOL    HW226466   0.550   0.050   0.351
 8523SOL     OW26467   3.596   1.463   0.336
 8523SOL    HW126468   3.599   1.562   0.342
 8523SOL    HW226469   3.509   1.430   0.375
 8524SOL     OW26470   2.472   5.369   4.909
 8524SOL    HW126471   2.552   5.321   4.945
 8524SOL    HW226472   2.427   5.312   4.840
 8525SOL     OW26473   6.089   4.188   2.006
 8525SOL    HW126474   6.067   4.211   1.912
 8525SOL    HW226475   6.054   4.097   2.027
 8526SOL     OW26476   0.332   4.698   0.830
 8526SOL    HW126477   0.414   4.721   0.883
 8526SOL    HW226478   0.338   4.740   0.739
 8527SOL     OW26479   2.896   0.732   5.420
 8527SOL    HW126480   2.881   0.706   5.515
 8527SOL    HW226481   2.885   0.831   5.410
 8528SOL     OW26482   5.170   0.890   0.531
 8528SOL    HW126483   5.243   0.853   0.473
 8528SOL    HW226484   5.137   0.976   0.491
 8529SOL     OW26485   0.936   6.145   6.759
 8529SOL    HW126486   0.849   6.165   6.715
 8529SOL    HW226487   1.000   6.107   6.692
 8530SOL     OW26488   3.153   4.049   3.261
 8530SOL    HW126489   3.138   4.083   3.353
 8530SOL    HW226490   3.183   4.124   3.202
 8531SOL     OW26491   6.872   5.047   4.536
 8531SOL    HW126492   6.892   5.118   4.603
 8531SOL    HW226493   6.921   4.963   4.561
 8532SOL     OW26494   2.928   4.679   6.536
 8532SOL    HW126495   2.892   4.587   6.547
 8532SOL    HW226496   2.903   4.735   6.614
 8533SOL     OW26497   2.482   6.544   5.377
 8533SOL    HW126498   2.500   6.446   5.371
 8533SOL    HW226499   2.466   6.569   5.473
 8534SOL     OW26500   2.316   2.362   3.249
 8534SOL    HW126501   2.340   2.273   3.288
 8534SOL    HW226502   2.279   2.421   3.321
 8535SOL     OW26503   6.549   0.297   2.599
 8535SOL    HW126504   6.496   0.327   2.678
 8535SOL    HW226505   6.614   0.368   2.572
 8536SOL     OW26506   0.681   1.533   4.730
 8536SOL    HW126507   0.732   1.489   4.656
 8536SOL    HW226508   0.724   1.512   4.818
 8537SOL     OW26509   6.632   1.138   2.682
 8537SOL    HW126510   6.628   1.236   2.664
 8537SOL    HW226511   6.664   1.123   2.776
 8538SOL     OW26512   0.988   2.360   0.179
 8538SOL    HW126513   1.076   2.348   0.226
 8538SOL    HW226514   0.913   2.339   0.243
 8539SOL     OW26515   5.491   2.911   2.515
 8539SOL    HW126516   5.400   2.870   2.521
 8539SOL    HW226517   5.483   3.011   2.516
 8540SOL     OW26518   3.595   0.352   0.322
 8540SOL    HW126519   3.503   0.341   0.284
 8540SOL    HW226520   3.650   0.272   0.299
 8541SOL     OW26521   2.101   2.495   4.435
 8541SOL    HW126522   2.023   2.545   4.471
 8541SOL    HW226523   2.183   2.521   4.485
 8542SOL     OW26524   3.379   4.972   0.536
 8542SOL    HW126525   3.344   4.964   0.629
 8542SOL    HW226526   3.354   5.061   0.499
 8543SOL     OW26527   2.304   2.334   6.582
 8543SOL    HW126528   2.232   2.281   6.538
 8543SOL    HW226529   2.274   2.428   6.594
 8544SOL     OW26530   6.230   2.656   3.540
 8544SOL    HW126531   6.295   2.703   3.479
 8544SOL    HW226532   6.144   2.707   3.543
 8545SOL     OW26533   4.225   6.537   4.648
 8545SOL    HW126534   4.223   6.442   4.615
 8545SOL    HW226535   4.136   6.579   4.634
 8546SOL     OW26536   4.616   2.209   6.573
 8546SOL    HW126537   4.636   2.263   6.654
 8546SOL    HW226538   4.598   2.270   6.496
 8547SOL     OW26539   1.016   4.205   2.824
 8547SOL    HW126540   0.921   4.202   2.795
 8547SOL    HW226541   1.074   4.162   2.754
 8548SOL     OW26542   6.396   1.565   5.450
 8548SOL    HW126543   6.484   1.589   5.409
 8548SOL    HW226544   6.329   1.550   5.378
 8549SOL     OW26545   5.301   2.978   4.974
 8549SOL    HW126546   5.349   3.061   4.944
 8549SOL    HW226547   5.302   2.973   5.074
 8550SOL     OW26548   1.046   4.469   6.386
 8550SOL    HW126549   1.101   4.425   6.315
 8550SOL    HW226550   1.105   4.522   6.446
 8551SOL     OW26551   3.079   4.345   1.322
 8551SOL    HW126552   3.061   4.401   1.402
 8551SOL    HW226553   3.175   4.316   1.322
 8552SOL     OW26554   3.108   6.784   4.354
 8552SOL    HW126555   3.021   6.736   4.343
 8552SOL    HW226556   3.171   6.756   4.282
 8553SOL     OW26557   6.101   4.893   6.859
 8553SOL    HW126558   6.200   4.888   6.868
 8553SOL    HW226559   6.066   4.968   6.915
 8554SOL     OW26560   6.180   3.833   6.663
 8554SOL    HW126561   6.110   3.762   6.656
 8554SOL    HW226562   6.199   3.852   6.760
 8555SOL     OW26563   1.466   6.553   4.001
 8555SOL    HW126564   1.493   6.649   4.007
 8555SOL    HW226565   1.443   6.520   4.093
 8556SOL     OW26566   6.054   0.355   4.023
 8556SOL    HW126567   5.997   0.310   3.955
 8556SOL    HW226568   6.084   0.288   4.091
 8557SOL     OW26569   6.930   0.761   0.000
 8557SOL    HW126570   6.994   0.709   0.057
 8557SOL    HW226571   6.951   0.858   0.006
 8558SOL     OW26572   0.813   5.684   2.098
 8558SOL    HW126573   0.846   5.759   2.156
 8558SOL    HW226574   0.875   5.606   2.105
 8559SOL     OW26575   0.531   1.527   5.722
 8559SOL    HW126576   0.580   1.559   5.803
 8559SOL    HW226577   0.513   1.605   5.662
 8560SOL     OW26578   6.669   2.554   6.261
 8560SOL    HW126579   6.642   2.631   6.204
 8560SOL    HW226580   6.726   2.587   6.336
 8561SOL     OW26581   5.042   6.737   5.449
 8561SOL    HW126582   5.009   6.682   5.372
 8561SOL    HW226583   5.135   6.768   5.429
 8562SOL     OW26584   3.696   0.137   4.125
 8562SOL    HW126585   3.703   0.083   4.209
 8562SOL    HW226586   3.635   0.214   4.140
 8563SOL     OW26587   3.015   2.864   6.372
 8563SOL    HW126588   2.952   2.865   6.294
 8563SOL    HW226589   2.964   2.882   6.456
 8564SOL     OW26590   6.837   6.260   3.952
 8564SOL    HW126591   6.921   6.213   3.927
 8564SOL    HW226592   6.761   6.225   3.897
 8565SOL     OW26593   3.933   0.493   1.867
 8565SOL    HW126594   3.916   0.520   1.961
 8565SOL    HW226595   3.900   0.399   1.852
 8566SOL     OW26596   2.171   3.783   3.278
 8566SOL    HW126597   2.208   3.869   3.244
 8566SOL    HW226598   2.190   3.775   3.376
 8567SOL     OW26599   5.458   6.107   0.669
 8567SOL    HW126600   5.424   6.095   0.576
 8567SOL    HW226601   5.429   6.197   0.704
 8568SOL     OW26602   5.363   1.102   0.010
 8568SOL    HW126603   5.387   1.196   7.012
 8568SOL    HW226604   5.286   1.103   0.075
 8569SOL     OW26605   4.129   1.479   5.707
 8569SOL    HW126606   4.165   1.487   5.800
 8569SOL    HW226607   4.202   1.498   5.642
 8570SOL     OW26608   0.569   4.213   6.705
 8570SOL    HW126609   0.600   4.239   6.614
 8570SOL    HW226610   0.601   4.120   6.726
 8571SOL     OW26611   6.915   4.456   4.726
 8571SOL    HW126612   6.997   4.502   4.693
 8571SOL    HW226613   6.872   4.406   4.651
 8572SOL     OW26614   3.172   5.068   5.642
 8572SOL    HW126615   3.075   5.058   5.620
 8572SOL    HW226616   3.205   5.156   5.609
 8573SOL     OW26617   4.227   5.791   4.551
 8573SOL    HW126618   4.284   5.842   4.487
 8573SOL    HW226619   4.177   5.720   4.502
 8574SOL     OW26620   0.348   3.595   4.700
 8574SOL    HW126621   0.442   3.626   4.720
 8574SOL    HW226622   0.307   3.655   4.631
 8575SOL     OW26623   2.708   3.471   6.245
 8575SOL    HW126624   2.795   3.459   6.293
 8575SOL    HW226625   2.722   3.458   6.147
 8576SOL     OW26626   1.500   0.218   1.448
 8576SOL    HW126627   1.551   0.148   1.498
 8576SOL    HW226628   1.564   0.281   1.405
 8577SOL     OW26629   6.840   5.341   3.366
 8577SOL    HW126630   6.825   5.261   3.424
 8577SOL    HW226631   6.938   5.364   3.365
 8578SOL     OW26632   4.723   6.767   3.519
 8578SOL    HW126633   4.712   6.866   3.507
 8578SOL    HW226634   4.637   6.721   3.499
 8579SOL     OW26635   0.695   5.291   3.069
 8579SOL    HW126636   0.760   5.303   3.144
 8579SOL    HW226637   0.694   5.373   3.012
 8580SOL     OW26638   3.247   4.596   5.975
 8580SOL    HW126639   3.345   4.620   5.978
 8580SOL    HW226640   3.194   4.678   5.956
 8581SOL     OW26641   3.424   2.940   0.432
 8581SOL    HW126642   3.508   2.984   0.400
 8581SOL    HW226643   3.411   2.960   0.529
 8582SOL     OW26644   4.362   4.253   1.242
 8582SOL    HW126645   4.272   4.276   1.203
 8582SOL    HW226646   4.349   4.200   1.325
 8583SOL     OW26647   5.452   0.528   5.316
 8583SOL    HW126648   5.404   0.554   5.232
 8583SOL    HW226649   5.460   0.607   5.376
 8584SOL     OW26650   0.592   5.335   6.446
 8584SOL    HW126651   0.667   5.362   6.508
 8584SOL    HW226652   0.595   5.392   6.364
 8585SOL     OW26653   1.023   1.078   0.983
 8585SOL    HW126654   0.945   1.089   0.922
 8585SOL    HW226655   1.029   1.157   1.044
 8586SOL     OW26656   4.165   5.223   4.357
 8586SOL    HW126657   4.150   5.174   4.443
 8586SOL    HW226658   4.198   5.316   4.377
 8587SOL     OW26659   6.901   2.191   1.567
 8587SOL    HW126660   6.960   2.129   1.515
 8587SOL    HW226661   6.933   2.285   1.555
 8588SOL     OW26662   3.912   2.156   0.512
 8588SOL    HW126663   3.866   2.170   0.425
 8588SOL    HW226664   3.850   2.112   0.577
 8589SOL     OW26665   2.866   1.469   4.680
 8589SOL    HW126666   2.916   1.467   4.766
 8589SOL    HW226667   2.831   1.562   4.664
 8590SOL     OW26668   6.228   5.355   5.538
 8590SOL    HW126669   6.154   5.360   5.605
 8590SOL    HW226670   6.208   5.283   5.471
 8591SOL     OW26671   0.766   2.684   0.143
 8591SOL    HW126672   0.838   2.750   0.124
 8591SOL    HW226673   0.716   2.662   0.059
 8592SOL     OW26674   6.424   5.776   6.097
 8592SOL    HW126675   6.463   5.684   6.097
 8592SOL    HW226676   6.356   5.783   6.170
 8593SOL     OW26677   0.394   6.485   3.348
 8593SOL    HW126678   0.304   6.453   3.318
 8593SOL    HW226679   0.394   6.585   3.352
 8594SOL     OW26680   2.907   3.286   3.343
 8594SOL    HW126681   2.903   3.324   3.436
 8594SOL    HW226682   2.892   3.359   3.276
 8595SOL     OW26683   2.039   2.955   1.429
 8595SOL    HW126684   2.061   3.047   1.461
 8595SOL    HW226685   2.032   2.955   1.330
 8596SOL     OW26686   6.667   4.452   2.484
 8596SOL    HW126687   6.701   4.495   2.567
 8596SOL    HW226688   6.567   4.443   2.490
 8597SOL     OW26689   2.482   1.960   0.601
 8597SOL    HW126690   2.418   2.026   0.561
 8597SOL    HW226691   2.567   2.007   0.623
 8598SOL     OW26692   4.932   4.035   1.418
 8598SOL    HW126693   5.020   4.042   1.465
 8598SOL    HW226694   4.866   4.096   1.462
 8599SOL     OW26695   0.957   3.412   1.499
 8599SOL    HW126696   0.981   3.487   1.438
 8599SOL    HW226697   1.013   3.332   1.477
 8600SOL     OW26698   6.436   3.390   5.956
 8600SOL    HW126699   6.441   3.323   6.029
 8600SOL    HW226700   6.464   3.480   5.990
 8601SOL     OW26701   0.270   0.766   5.079
 8601SOL    HW126702   0.359   0.720   5.089
 8601SOL    HW226703   0.203   0.723   5.139
 8602SOL     OW26704   1.933   5.719   2.155
 8602SOL    HW126705   1.961   5.772   2.075
 8602SOL    HW226706   2.009   5.714   2.220
 8603SOL     OW26707   4.478   3.749   1.458
 8603SOL    HW126708   4.549   3.701   1.407
 8603SOL    HW226709   4.412   3.789   1.395
 8604SOL     OW26710   5.785   2.025   2.595
 8604SOL    HW126711   5.845   2.041   2.674
 8604SOL    HW226712   5.819   2.077   2.517
 8605SOL     OW26713   2.857   6.030   2.197
 8605SOL    HW126714   2.954   6.035   2.173
 8605SOL    HW226715   2.821   5.939   2.174
 8606SOL     OW26716   4.310   5.468   5.795
 8606SOL    HW126717   4.252   5.546   5.773
 8606SOL    HW226718   4.341   5.474   5.890
 8607SOL     OW26719   2.797   5.827   1.627
 8607SOL    HW126720   2.828   5.746   1.577
 8607SOL    HW226721   2.837   5.826   1.719
 8608SOL     OW26722   5.838   6.397   2.257
 8608SOL    HW126723   5.754   6.452   2.256
 8608SOL    HW226724   5.820   6.309   2.301
 8609SOL     OW26725   4.265   0.824   6.626
 8609SOL    HW126726   4.215   0.740   6.647
 8609SOL    HW226727   4.299   0.820   6.532
 8610SOL     OW26728   0.003   6.784   4.588
 8610SOL    HW126729   0.033   6.788   4.683
 8610SOL    HW226730   0.044   6.859   4.537
 8611SOL     OW26731   1.360   1.922   3.250
 8611SOL    HW126732   1.416   1.991   3.204
 8611SOL    HW226733   1.278   1.966   3.287
 8612SOL     OW26734   4.756   2.823   4.689
 8612SOL    HW126735   4.747   2.905   4.745
 8612SOL    HW226736   4.816   2.757   4.734
 8613SOL     OW26737   1.399   1.612   6.968
 8613SOL    HW126738   1.405   1.517   6.935
 8613SOL    HW226739   1.428   1.616   0.039
 8614SOL     OW26740   1.293   1.172   3.538
 8614SOL    HW126741   1.224   1.217   3.596
 8614SOL    HW226742   1.379   1.222   3.544
 8615SOL     OW26743   4.498   2.183   5.335
 8615SOL    HW126744   4.408   2.177   5.291
 8615SOL    HW226745   4.512   2.101   5.391
 8616SOL     OW26746   1.447   2.947   0.031
 8616SOL    HW126747   1.507   2.886   0.083
 8616SOL    HW226748   1.431   3.031   0.083
 8617SOL     OW26749   6.139   3.035   1.149
 8617SOL    HW126750   6.201   3.114   1.149
 8617SOL    HW226751   6.050   3.063   1.114
 8618SOL     OW26752   4.404   0.818   3.170
 8618SOL    HW126753   4.457   0.772   3.099
 8618SOL    HW226754   4.327   0.866   3.128
 8619SOL     OW26755   4.517   5.727   0.887
 8619SOL    HW126756   4.517   5.627   0.878
 8619SOL    HW226757   4.448   5.766   0.826
 8620SOL     OW26758   6.675   6.452   3.064
 8620SOL    HW126759   6.698   6.493   3.152
 8620SOL    HW226760   6.639   6.523   3.003
 8621SOL     OW26761   5.520   0.623   3.047
 8621SOL    HW126762   5.555   0.534   3.074
 8621SOL    HW226763   5.587   0.694   3.069
 8622SOL     OW26764   5.522   5.431   0.008
 8622SOL    HW126765   5.595   5.380   6.988
 8622SOL    HW226766   5.561   5.492   0.077
 8623SOL     OW26767   6.034   2.587   2.883
 8623SOL    HW126768   6.059   2.604   2.787
 8623SOL    HW226769   5.935   2.581   2.891
 8624SOL     OW26770   0.285   4.178   4.121
 8624SOL    HW126771   0.375   4.147   4.092
 8624SOL    HW226772   0.229   4.099   4.147
 8625SOL     OW26773   3.389   0.866   6.521
 8625SOL    HW126774   3.447   0.940   6.489
 8625SOL    HW226775   3.429   0.778   6.496
 8626SOL     OW26776   3.512   3.053   1.969
 8626SOL    HW126777   3.599   3.072   1.924
 8626SOL    HW226778   3.461   3.138   1.981
 8627SOL     OW26779   2.626   0.005   6.530
 8627SOL    HW126780   2.584   0.044   6.612
 8627SOL    HW226781   2.722   0.031   6.525
 8628SOL     OW26782   5.782   0.990   6.929
 8628SOL    HW126783   5.790   0.905   6.981
 8628SOL    HW226784   5.737   1.060   6.986
 8629SOL     OW26785   1.684   5.224   4.106
 8629SOL    HW126786   1.688   5.130   4.142
 8629SOL    HW226787   1.681   5.289   4.182
 8630SOL     OW26788   5.514   4.492   3.928
 8630SOL    HW126789   5.525   4.455   4.020
 8630SOL    HW226790   5.468   4.581   3.933
 8631SOL     OW26791   4.414   6.241   3.572
 8631SOL    HW126792   4.329   6.189   3.583
 8631SOL    HW226793   4.491   6.186   3.604
 8632SOL     OW26794   4.366   0.614   3.331
 8632SOL    HW126795   4.419   0.612   3.416
 8632SOL    HW226796   4.396   0.690   3.275
 8633SOL     OW26797   6.039   0.462   3.630
 8633SOL    HW126798   5.988   0.541   3.663
 8633SOL    HW226799   6.135   0.470   3.658
 8634SOL     OW26800   6.415   5.634   1.692
 8634SOL    HW126801   6.319   5.652   1.714
 8634SOL    HW226802   6.470   5.641   1.775
 8635SOL     OW26803   5.961   3.575   5.476
 8635SOL    HW126804   5.981   3.645   5.407
 8635SOL    HW226805   6.038   3.511   5.480
 8636SOL     OW26806   5.385   5.666   0.207
 8636SOL    HW126807   5.482   5.645   0.215
 8636SOL    HW226808   5.331   5.598   0.257
 8637SOL     OW26809   1.723   0.624   1.523
 8637SOL    HW126810   1.675   0.568   1.591
 8637SOL    HW226811   1.820   0.599   1.522
 8638SOL     OW26812   4.882   5.343   0.904
 8638SOL    HW126813   4.895   5.248   0.876
 8638SOL    HW226814   4.802   5.381   0.856
 8639SOL     OW26815   6.369   3.096   1.732
 8639SOL    HW126816   6.298   3.078   1.664
 8639SOL    HW226817   6.332   3.083   1.824
 8640SOL     OW26818   5.213   6.225   1.464
 8640SOL    HW126819   5.266   6.153   1.419
 8640SOL    HW226820   5.275   6.284   1.516
 8641SOL     OW26821   5.213   4.875   3.345
 8641SOL    HW126822   5.206   4.965   3.387
 8641SOL    HW226823   5.150   4.812   3.390
 8642SOL     OW26824   4.746   1.668   1.603
 8642SOL    HW126825   4.787   1.754   1.573
 8642SOL    HW226826   4.725   1.673   1.701
 8643SOL     OW26827   4.390   0.909   6.858
 8643SOL    HW126828   4.411   1.000   6.894
 8643SOL    HW226829   4.383   0.913   6.759
 8644SOL     OW26830   6.573   3.633   5.719
 8644SOL    HW126831   6.656   3.690   5.715
 8644SOL    HW226832   6.504   3.670   5.657
 8645SOL     OW26833   6.074   4.715   1.852
 8645SOL    HW126834   6.134   4.689   1.928
 8645SOL    HW226835   5.986   4.668   1.861
 8646SOL     OW26836   5.470   0.310   1.114
 8646SOL    HW126837   5.532   0.232   1.113
 8646SOL    HW226838   5.377   0.278   1.134
 8647SOL     OW26839   4.763   4.714   1.860
 8647SOL    HW126840   4.862   4.700   1.852
 8647SOL    HW226841   4.716   4.635   1.820
 8648SOL     OW26842   5.552   1.651   4.497
 8648SOL    HW126843   5.537   1.658   4.595
 8648SOL    HW226844   5.606   1.729   4.465
 8649SOL     OW26845   0.540   4.694   5.713
 8649SOL    HW126846   0.453   4.661   5.678
 8649SOL    HW226847   0.589   4.618   5.756
 8650SOL     OW26848   0.900   4.806   2.075
 8650SOL    HW126849   0.808   4.768   2.081
 8650SOL    HW226850   0.896   4.906   2.076
 8651SOL     OW26851   3.319   2.595   1.047
 8651SOL    HW126852   3.366   2.627   1.129
 8651SOL    HW226853   3.358   2.508   1.018
 8652SOL     OW26854   1.389   3.086   4.050
 8652SOL    HW126855   1.475   3.054   4.009
 8652SOL    HW226856   1.315   3.023   4.025
 8653SOL     OW26857   6.172   3.330   6.220
 8653SOL    HW126858   6.150   3.283   6.135
 8653SOL    HW226859   6.101   3.312   6.288
 8654SOL     OW26860   0.121   6.145   2.900
 8654SOL    HW126861   0.076   6.230   2.873
 8654SOL    HW226862   0.059   6.093   2.959
 8655SOL     OW26863   6.147   6.149   3.636
 8655SOL    HW126864   6.072   6.108   3.586
 8655SOL    HW226865   6.197   6.212   3.577
 8656SOL     OW26866   6.654   1.868   1.471
 8656SOL    HW126867   6.731   1.871   1.535
 8656SOL    HW226868   6.622   1.961   1.454
 8657SOL     OW26869   3.168   4.190   0.764
 8657SOL    HW126870   3.144   4.267   0.823
 8657SOL    HW226871   3.266   4.172   0.770
 8658SOL     OW26872   0.417   5.232   6.903
 8658SOL    HW126873   0.438   5.325   6.933
 8658SOL    HW226874   0.447   5.220   6.808
 8659SOL     OW26875   4.568   0.694   3.963
 8659SOL    HW126876   4.533   0.687   3.869
 8659SOL    HW226877   4.529   0.619   4.017
 8660SOL     OW26878   5.218   5.044   0.719
 8660SOL    HW126879   5.170   4.995   0.647
 8660SOL    HW226880   5.313   5.061   0.690
 8661SOL     OW26881   6.294   3.633   1.498
 8661SOL    HW126882   6.204   3.657   1.534
 8661SOL    HW226883   6.329   3.554   1.547
 8662SOL     OW26884   0.027   0.815   0.727
 8662SOL    HW126885   0.116   0.829   0.685
 8662SOL    HW226886   6.986   0.785   0.658
 8663SOL     OW26887   2.209   6.061   0.756
 8663SOL    HW126888   2.300   6.085   0.790
 8663SOL    HW226889   2.213   6.048   0.656
 8664SOL     OW26890   4.394   5.148   1.595
 8664SOL    HW126891   4.347   5.198   1.667
 8664SOL    HW226892   4.493   5.151   1.612
 8665SOL     OW26893   4.902   5.113   4.920
 8665SOL    HW126894   4.993   5.089   4.889
 8665SOL    HW226895   4.906   5.199   4.973
 8666SOL     OW26896   5.778   3.584   4.444
 8666SOL    HW126897   5.739   3.630   4.365
 8666SOL    HW226898   5.739   3.492   4.452
 8667SOL     OW26899   5.038   2.280   2.991
 8667SOL    HW126900   4.971   2.223   3.039
 8667SOL    HW226901   5.116   2.223   2.964
 8668SOL     OW26902   3.289   1.538   4.364
 8668SOL    HW126903   3.333   1.627   4.354
 8668SOL    HW226904   3.338   1.471   4.308
 8669SOL     OW26905   4.453   0.005   5.592
 8669SOL    HW126906   4.476   0.027   5.497
 8669SOL    HW226907   4.537   7.022   5.646
 8670SOL     OW26908   4.232   4.728   3.415
 8670SOL    HW126909   4.312   4.675   3.445
 8670SOL    HW226910   4.243   4.752   3.319
 8671SOL     OW26911   5.823   6.159   2.763
 8671SOL    HW126912   5.886   6.137   2.689
 8671SOL    HW226913   5.778   6.246   2.745
 8672SOL     OW26914   3.516   4.949   5.477
 8672SOL    HW126915   3.451   4.889   5.525
 8672SOL    HW226916   3.563   4.897   5.406
 8673SOL     OW26917   5.487   2.024   0.552
 8673SOL    HW126918   5.526   2.106   0.593
 8673SOL    HW226919   5.556   1.978   0.496
 8674SOL     OW26920   0.567   0.466   2.537
 8674SOL    HW126921   0.493   0.526   2.566
 8674SOL    HW226922   0.642   0.472   2.602
 8675SOL     OW26923   1.825   2.080   2.560
 8675SOL    HW126924   1.844   2.127   2.474
 8675SOL    HW226925   1.822   1.982   2.544
 8676SOL     OW26926   4.723   0.012   3.509
 8676SOL    HW126927   4.803   0.023   3.568
 8676SOL    HW226928   4.651   0.076   3.538
 8677SOL     OW26929   2.154   4.499   5.097
 8677SOL    HW126930   2.082   4.439   5.062
 8677SOL    HW226931   2.215   4.447   5.156
 8678SOL     OW26932   1.344   0.918   6.005
 8678SOL    HW126933   1.333   0.984   5.930
 8678SOL    HW226934   1.428   0.865   5.989
 8679SOL     OW26935   6.588   2.480   5.234
 8679SOL    HW126936   6.585   2.468   5.135
 8679SOL    HW226937   6.496   2.499   5.268
 8680SOL     OW26938   1.044   3.675   0.603
 8680SOL    HW126939   1.027   3.589   0.555
 8680SOL    HW226940   1.142   3.693   0.606
 8681SOL     OW26941   4.409   3.565   1.166
 8681SOL    HW126942   4.506   3.540   1.156
 8681SOL    HW226943   4.360   3.488   1.207
 8682SOL     OW26944   2.135   5.766   2.793
 8682SOL    HW126945   2.214   5.705   2.803
 8682SOL    HW226946   2.156   5.837   2.726
 8683SOL     OW26947   6.027   3.272   6.458
 8683SOL    HW126948   6.051   3.216   6.538
 8683SOL    HW226949   5.952   3.333   6.482
 8684SOL     OW26950   6.269   2.832   4.343
 8684SOL    HW126951   6.339   2.855   4.275
 8684SOL    HW226952   6.282   2.890   4.424
 8685SOL     OW26953   0.480   2.277   5.212
 8685SOL    HW126954   0.421   2.344   5.257
 8685SOL    HW226955   0.565   2.267   5.264
 8686SOL     OW26956   6.507   1.912   3.631
 8686SOL    HW126957   6.412   1.939   3.615
 8686SOL    HW226958   6.546   1.877   3.547
 8687SOL     OW26959   3.974   0.811   2.723
 8687SOL    HW126960   4.068   0.795   2.694
 8687SOL    HW226961   3.927   0.724   2.735
 8688SOL     OW26962   1.964   6.857   2.334
 8688SOL    HW126963   1.870   6.825   2.351
 8688SOL    HW226964   2.015   6.859   2.420
 8689SOL     OW26965   4.509   5.592   0.599
 8689SOL    HW126966   4.540   5.578   0.505
 8689SOL    HW226967   4.491   5.689   0.615
 8690SOL     OW26968   1.274   0.815   2.657
 8690SOL    HW126969   1.283   0.906   2.617
 8690SOL    HW226970   1.364   0.784   2.690
 8691SOL     OW26971   6.100   1.775   0.595
 8691SOL    HW126972   6.186   1.748   0.551
 8691SOL    HW226973   6.033   1.702   0.585
 8692SOL     OW26974   1.620   1.579   4.076
 8692SOL    HW126975   1.711   1.551   4.106
 8692SOL    HW226976   1.619   1.678   4.061
 8693SOL     OW26977   5.570   1.905   6.928
 8693SOL    HW126978   5.575   1.994   6.881
 8693SOL    HW226979   5.598   1.916   7.023
 8694SOL     OW26980   3.932   6.166   6.400
 8694SOL    HW126981   3.878   6.178   6.317
 8694SOL    HW226982   3.976   6.076   6.399
 8695SOL     OW26983   4.544   4.079   5.273
 8695SOL    HW126984   4.526   3.980   5.272
 8695SOL    HW226985   4.641   4.095   5.257
 8696SOL     OW26986   1.612   5.433   1.131
 8696SOL    HW126987   1.702   5.472   1.111
 8696SOL    HW226988   1.623   5.360   1.199
 8697SOL     OW26989   5.609   4.560   7.008
 8697SOL    HW126990   5.700   4.534   6.976
 8697SOL    HW226991   5.560   4.479   0.016
 8698SOL     OW26992   5.924   6.133   4.205
 8698SOL    HW126993   5.927   6.097   4.111
 8698SOL    HW226994   5.959   6.064   4.268
 8699SOL     OW26995   1.369   1.499   5.169
 8699SOL    HW126996   1.272   1.510   5.191
 8699SOL    HW226997   1.423   1.561   5.226
 8700SOL     OW26998   2.381   1.954   6.495
 8700SOL    HW126999   2.437   1.871   6.507
 8700SOL    HW227000   2.378   1.978   6.398
 8701SOL     OW27001   1.075   1.990   4.168
 8701SOL    HW127002   0.981   2.018   4.184
 8701SOL    HW227003   1.123   1.981   4.255
 8702SOL     OW27004   5.288   5.800   6.649
 8702SOL    HW127005   5.213   5.804   6.715
 8702SOL    HW227006   5.332   5.889   6.643
 8703SOL     OW27007   1.741   5.856   1.124
 8703SOL    HW127008   1.745   5.813   1.214
 8703SOL    HW227009   1.833   5.863   1.087
 8704SOL     OW27010   0.598   4.316   1.713
 8704SOL    HW127011   0.641   4.377   1.646
 8704SOL    HW227012   0.529   4.366   1.765
 8705SOL     OW27013   5.294   6.725   4.864
 8705SOL    HW127014   5.306   6.628   4.885
 8705SOL    HW227015   5.236   6.767   4.934
 8706SOL     OW27016   4.890   2.278   6.174
 8706SOL    HW127017   4.881   2.194   6.122
 8706SOL    HW227018   4.970   2.272   6.234
 8707SOL     OW27019   4.693   2.576   5.861
 8707SOL    HW127020   4.739   2.565   5.772
 8707SOL    HW227021   4.619   2.509   5.868
 8708SOL     OW27022   3.903   1.585   0.855
 8708SOL    HW127023   3.942   1.496   0.879
 8708SOL    HW227024   3.879   1.635   0.938
 8709SOL     OW27025   6.297   3.534   1.228
 8709SOL    HW127026   6.230   3.595   1.184
 8709SOL    HW227027   6.338   3.582   1.306
 8710SOL     OW27028   0.385   3.035   3.368
 8710SOL    HW127029   0.420   3.006   3.279
 8710SOL    HW227030   0.295   2.995   3.384
 8711SOL     OW27031   0.610   1.482   4.067
 8711SOL    HW127032   0.676   1.407   4.071
 8711SOL    HW227033   0.657   1.565   4.039
 8712SOL     OW27034   3.553   1.192   5.911
 8712SOL    HW127035   3.545   1.192   5.811
 8712SOL    HW227036   3.646   1.165   5.937
 8713SOL     OW27037   6.072   5.076   2.639
 8713SOL    HW127038   5.991   5.049   2.691
 8713SOL    HW227039   6.148   5.094   2.701
 8714SOL     OW27040   1.577   1.081   4.869
 8714SOL    HW127041   1.583   1.177   4.893
 8714SOL    HW227042   1.610   1.068   4.775
 8715SOL     OW27043   6.318   1.354   1.811
 8715SOL    HW127044   6.274   1.440   1.787
 8715SOL    HW227045   6.273   1.315   1.892
 8716SOL     OW27046   1.275   1.840   1.474
 8716SOL    HW127047   1.322   1.902   1.537
 8716SOL    HW227048   1.339   1.771   1.440
 8717SOL     OW27049   3.935   3.045   0.902
 8717SOL    HW127050   3.931   3.061   0.803
 8717SOL    HW227051   3.856   3.088   0.945
 8718SOL     OW27052   0.009   3.181   6.013
 8718SOL    HW127053   7.024   3.084   6.038
 8718SOL    HW227054   0.040   3.187   5.918
 8719SOL     OW27055   6.773   0.793   6.057
 8719SOL    HW127056   6.811   0.863   6.118
 8719SOL    HW227057   6.714   0.837   5.990
 8720SOL     OW27058   4.983   4.040   5.868
 8720SOL    HW127059   4.934   3.962   5.829
 8720SOL    HW227060   4.920   4.093   5.925
 8721SOL     OW27061   0.004   1.773   4.358
 8721SOL    HW127062   6.987   1.718   4.285
 8721SOL    HW227063   0.098   1.742   4.374
 8722SOL     OW27064   3.333   2.672   0.746
 8722SOL    HW127065   3.389   2.653   0.827
 8722SOL    HW227066   3.303   2.586   0.705
 8723SOL     OW27067   0.034   4.850   0.036
 8723SOL    HW127068   0.049   4.754   0.012
 8723SOL    HW227069   0.085   4.908   6.997
 8724SOL     OW27070   5.344   6.099   6.634
 8724SOL    HW127071   5.405   6.120   6.710
 8724SOL    HW227072   5.262   6.156   6.641
 8725SOL     OW27073   2.135   6.081   1.128
 8725SOL    HW127074   2.123   5.983   1.142
 8725SOL    HW227075   2.092   6.108   1.042
 8726SOL     OW27076   5.025   0.641   1.342
 8726SOL    HW127077   4.969   0.711   1.385
 8726SOL    HW227078   5.005   0.638   1.244
 8727SOL     OW27079   6.073   5.773   0.689
 8727SOL    HW127080   6.021   5.688   0.694
 8727SOL    HW227081   6.020   5.847   0.730
 8728SOL     OW27082   2.313   6.907   5.641
 8728SOL    HW127083   2.355   6.818   5.622
 8728SOL    HW227084   2.243   6.896   5.712
 8729SOL     OW27085   5.667   6.531   4.506
 8729SOL    HW127086   5.571   6.506   4.519
 8729SOL    HW227087   5.711   6.542   4.595
 8730SOL     OW27088   0.075   0.085   1.256
 8730SOL    HW127089   0.086   0.039   1.168
 8730SOL    HW227090   0.063   0.017   1.329
 8731SOL     OW27091   1.143   1.777   2.487
 8731SOL    HW127092   1.093   1.861   2.509
 8731SOL    HW227093   1.085   1.698   2.507
 8732SOL     OW27094   5.793   4.785   1.639
 8732SOL    HW127095   5.834   4.694   1.643
 8732SOL    HW227096   5.865   4.854   1.637
 8733SOL     OW27097   0.021   6.318   1.320
 8733SOL    HW127098   6.949   6.305   1.295
 8733SOL    HW227099   0.056   6.234   1.362
 8734SOL     OW27100   6.850   4.955   0.190
 8734SOL    HW127101   6.818   4.886   0.255
 8734SOL    HW227102   6.934   4.924   0.147
 8735SOL     OW27103   6.706   2.344   7.008
 8735SOL    HW127104   6.752   2.277   6.950
 8735SOL    HW227105   6.690   2.305   0.074
 8736SOL     OW27106   0.503   4.987   6.404
 8736SOL    HW127107   0.550   4.917   6.350
 8736SOL    HW227108   0.560   5.070   6.408
 8737SOL     OW27109   3.815   5.784   6.618
 8737SOL    HW127110   3.781   5.877   6.610
 8737SOL    HW227111   3.897   5.773   6.562
 8738SOL     OW27112   1.603   3.611   4.896
 8738SOL    HW127113   1.533   3.638   4.830
 8738SOL    HW227114   1.637   3.692   4.943
 8739SOL     OW27115   1.561   2.875   5.130
 8739SOL    HW127116   1.521   2.965   5.112
 8739SOL    HW227117   1.658   2.886   5.151
 8740SOL     OW27118   1.829   6.497   1.482
 8740SOL    HW127119   1.894   6.548   1.539
 8740SOL    HW227120   1.880   6.433   1.424
 8741SOL     OW27121   1.110   3.500   2.153
 8741SOL    HW127122   1.130   3.432   2.082
 8741SOL    HW227123   1.195   3.539   2.188
 8742SOL     OW27124   4.823   6.671   2.030
 8742SOL    HW127125   4.911   6.716   2.015
 8742SOL    HW227126   4.838   6.573   2.044
 8743SOL     OW27127   2.414   4.517   3.315
 8743SOL    HW127128   2.342   4.585   3.301
 8743SOL    HW227129   2.408   4.481   3.408
 8744SOL     OW27130   2.883   3.272   5.661
 8744SOL    HW127131   2.921   3.361   5.637
 8744SOL    HW227132   2.883   3.261   5.761
 8745SOL     OW27133   6.680   1.817   6.995
 8745SOL    HW127134   6.625   1.880   6.941
 8745SOL    HW227135   6.621   1.746   0.009
 8746SOL     OW27136   5.183   4.056   5.190
 8746SOL    HW127137   5.112   4.125   5.175
 8746SOL    HW227138   5.143   3.975   5.234
 8747SOL     OW27139   1.882   2.922   3.808
 8747SOL    HW127140   1.847   2.964   3.891
 8747SOL    HW227141   1.820   2.849   3.779
 8748SOL     OW27142   2.995   0.562   6.915
 8748SOL    HW127143   2.968   0.632   6.850
 8748SOL    HW227144   3.047   0.491   6.868
 8749SOL     OW27145   4.153   1.422   4.012
 8749SOL    HW127146   4.087   1.429   3.937
 8749SOL    HW227147   4.108   1.383   4.093
 8750SOL     OW27148   2.196   0.485   5.246
 8750SOL    HW127149   2.193   0.448   5.339
 8750SOL    HW227150   2.259   0.562   5.242
 8751SOL     OW27151   2.224   0.197   3.015
 8751SOL    HW127152   2.150   0.129   3.016
 8751SOL    HW227153   2.215   0.255   2.934
 8752SOL     OW27154   2.068   2.740   6.614
 8752SOL    HW127155   2.105   2.830   6.593
 8752SOL    HW227156   1.969   2.741   6.602
 8753SOL     OW27157   5.839   1.335   5.222
 8753SOL    HW127158   5.923   1.297   5.259
 8753SOL    HW227159   5.805   1.277   5.148
 8754SOL     OW27160   2.059   0.910   5.316
 8754SOL    HW127161   2.107   0.954   5.240
 8754SOL    HW227162   2.044   0.814   5.294
 8755SOL     OW27163   2.287   2.131   0.475
 8755SOL    HW127164   2.315   2.220   0.439
 8755SOL    HW227165   2.227   2.145   0.554
 8756SOL     OW27166   2.214   3.095   4.070
 8756SOL    HW127167   2.168   3.113   3.983
 8756SOL    HW227168   2.262   3.008   4.065
 8757SOL     OW27169   5.038   5.712   4.363
 8757SOL    HW127170   5.137   5.723   4.361
 8757SOL    HW227171   4.994   5.801   4.349
 8758SOL     OW27172   5.152   6.235   1.979
 8758SOL    HW127173   5.199   6.151   1.951
 8758SOL    HW227174   5.144   6.296   1.900
 8759SOL     OW27175   5.173   1.280   5.743
 8759SOL    HW127176   5.120   1.316   5.820
 8759SOL    HW227177   5.270   1.300   5.756
 8760SOL     OW27178   2.077   2.898   3.336
 8760SOL    HW127179   2.130   2.961   3.280
 8760SOL    HW227180   1.987   2.937   3.354
 8761SOL     OW27181   4.998   6.526   0.740
 8761SOL    HW127182   4.928   6.505   0.809
 8761SOL    HW227183   5.058   6.598   0.774
 8762SOL     OW27184   1.123   4.204   0.195
 8762SOL    HW127185   1.140   4.270   0.267
 8762SOL    HW227186   1.037   4.156   0.212
 8763SOL     OW27187   6.943   6.155   5.684
 8763SOL    HW127188   6.983   6.066   5.705
 8763SOL    HW227189   6.971   6.221   5.754
 8764SOL     OW27190   3.268   2.241   5.380
 8764SOL    HW127191   3.242   2.302   5.306
 8764SOL    HW227192   3.185   2.212   5.429
 8765SOL     OW27193   0.265   0.258   5.282
 8765SOL    HW127194   0.191   0.228   5.223
 8765SOL    HW227195   0.226   0.304   5.363
 8766SOL     OW27196   2.456   4.459   2.447
 8766SOL    HW127197   2.383   4.423   2.389
 8766SOL    HW227198   2.529   4.497   2.390
 8767SOL     OW27199   5.040   1.613   4.720
 8767SOL    HW127200   4.998   1.687   4.773
 8767SOL    HW227201   5.121   1.648   4.674
 8768SOL     OW27202   1.512   4.200   6.807
 8768SOL    HW127203   1.514   4.117   6.863
 8768SOL    HW227204   1.486   4.177   6.713
 8769SOL     OW27205   2.475   0.649   5.562
 8769SOL    HW127206   2.549   0.583   5.548
 8769SOL    HW227207   2.387   0.601   5.560
 8770SOL     OW27208   5.292   2.075   2.255
 8770SOL    HW127209   5.286   2.172   2.233
 8770SOL    HW227210   5.388   2.047   2.257
 8771SOL     OW27211   2.089   2.667   6.285
 8771SOL    HW127212   2.079   2.684   6.383
 8771SOL    HW227213   2.116   2.752   6.239
 8772SOL     OW27214   6.026   6.012   6.506
 8772SOL    HW127215   5.993   6.000   6.599
 8772SOL    HW227216   5.979   6.090   6.463
 8773SOL     OW27217   3.276   2.138   3.449
 8773SOL    HW127218   3.220   2.121   3.367
 8773SOL    HW227219   3.237   2.215   3.500
 8774SOL     OW27220   1.262   1.043   0.165
 8774SOL    HW127221   1.361   1.058   0.161
 8774SOL    HW227222   1.243   0.963   0.220
 8775SOL     OW27223   6.661   6.889   4.006
 8775SOL    HW127224   6.591   6.819   3.993
 8775SOL    HW227225   6.618   6.979   4.004
 8776SOL     OW27226   2.938   3.702   4.549
 8776SOL    HW127227   2.987   3.683   4.464
 8776SOL    HW227228   2.965   3.792   4.583
 8777SOL     OW27229   6.677   5.620   2.265
 8777SOL    HW127230   6.640   5.566   2.341
 8777SOL    HW227231   6.615   5.696   2.245
 8778SOL     OW27232   0.746   2.054   3.247
 8778SOL    HW127233   0.712   1.995   3.321
 8778SOL    HW227234   0.833   2.020   3.214
 8779SOL     OW27235   1.647   4.671   1.083
 8779SOL    HW127236   1.659   4.574   1.106
 8779SOL    HW227237   1.736   4.713   1.066
 8780SOL     OW27238   2.193   5.716   4.486
 8780SOL    HW127239   2.261   5.788   4.505
 8780SOL    HW227240   2.175   5.712   4.388
 8781SOL     OW27241   0.895   2.257   2.547
 8781SOL    HW127242   0.889   2.276   2.449
 8781SOL    HW227243   0.968   2.312   2.587
 8782SOL     OW27244   4.892   1.441   2.949
 8782SOL    HW127245   4.947   1.489   3.018
 8782SOL    HW227246   4.809   1.494   2.930
 8783SOL     OW27247   5.180   2.332   5.412
 8783SOL    HW127248   5.207   2.426   5.390
 8783SOL    HW227249   5.158   2.326   5.510
 8784SOL     OW27250   5.473   4.127   5.928
 8784SOL    HW127251   5.467   4.184   5.846
 8784SOL    HW227252   5.392   4.068   5.933
 8785SOL     OW27253   5.067   5.184   6.264
 8785SOL    HW127254   5.145   5.241   6.291
 8785SOL    HW227255   5.065   5.102   6.321
 8786SOL     OW27256   1.355   6.330   0.396
 8786SOL    HW127257   1.316   6.349   0.305
 8786SOL    HW227258   1.332   6.404   0.458
 8787SOL     OW27259   1.451   2.756   0.236
 8787SOL    HW127260   1.432   2.692   0.310
 8787SOL    HW227261   1.477   2.705   0.153
 8788SOL     OW27262   1.076   1.538   5.202
 8788SOL    HW127263   1.038   1.447   5.224
 8788SOL    HW227264   1.079   1.550   5.103
 8789SOL     OW27265   0.429   0.253   6.505
 8789SOL    HW127266   0.484   0.298   6.435
 8789SOL    HW227267   0.377   0.321   6.556
 8790SOL     OW27268   4.864   1.252   0.200
 8790SOL    HW127269   4.836   1.268   0.105
 8790SOL    HW227270   4.791   1.205   0.249
 8791SOL     OW27271   4.505   6.528   4.939
 8791SOL    HW127272   4.575   6.592   4.971
 8791SOL    HW227273   4.415   6.570   4.946
 8792SOL     OW27274   5.293   0.035   2.860
 8792SOL    HW127275   5.219   0.058   2.924
 8792SOL    HW227276   5.270   0.070   2.769
 8793SOL     OW27277   1.226   4.063   3.905
 8793SOL    HW127278   1.312   4.022   3.876
 8793SOL    HW227279   1.161   3.991   3.930
 8794SOL     OW27280   2.211   6.269   2.677
 8794SOL    HW127281   2.305   6.301   2.665
 8794SOL    HW227282   2.151   6.348   2.695
 8795SOL     OW27283   1.856   6.145   5.165
 8795SOL    HW127284   1.906   6.060   5.184
 8795SOL    HW227285   1.899   6.221   5.213
 8796SOL     OW27286   5.845   2.762   5.350
 8796SOL    HW127287   5.862   2.729   5.442
 8796SOL    HW227288   5.918   2.824   5.322
 8797SOL     OW27289   0.501   6.874   6.553
 8797SOL    HW127290   0.477   6.929   6.632
 8797SOL    HW227291   0.418   6.833   6.514
 8798SOL     OW27292   3.821   3.608   5.854
 8798SOL    HW127293   3.738   3.633   5.804
 8798SOL    HW227294   3.879   3.550   5.797
 8799SOL     OW27295   3.624   6.641   2.384
 8799SOL    HW127296   3.533   6.605   2.405
 8799SOL    HW227297   3.690   6.602   2.448
 8800SOL     OW27298   4.538   5.120   0.339
 8800SOL    HW127299   4.455   5.128   0.394
 8800SOL    HW227300   4.618   5.130   0.398
 8801SOL     OW27301   3.043   6.572   5.053
 8801SOL    HW127302   3.101   6.624   4.990
 8801SOL    HW227303   3.093   6.555   5.138
 8802SOL     OW27304   2.557   6.923   2.151
 8802SOL    HW127305   2.582   6.921   2.248
 8802SOL    HW227306   2.606   6.997   2.105
 8803SOL     OW27307   3.667   6.136   0.740
 8803SOL    HW127308   3.661   6.229   0.774
 8803SOL    HW227309   3.576   6.094   0.740
 8804SOL     OW27310   3.369   0.406   0.733
 8804SOL    HW127311   3.357   0.493   0.782
 8804SOL    HW227312   3.383   0.333   0.800
 8805SOL     OW27313   0.309   0.463   3.132
 8805SOL    HW127314   0.235   0.400   3.158
 8805SOL    HW227315   0.381   0.459   3.202
 8806SOL     OW27316   2.276   5.097   0.309
 8806SOL    HW127317   2.213   5.078   0.384
 8806SOL    HW227318   2.298   5.195   0.308
 8807SOL     OW27319   1.833   6.236   6.459
 8807SOL    HW127320   1.841   6.333   6.437
 8807SOL    HW227321   1.848   6.181   6.376
 8808SOL     OW27322   6.202   1.329   1.015
 8808SOL    HW127323   6.225   1.421   1.048
 8808SOL    HW227324   6.160   1.336   0.925
 8809SOL     OW27325   6.032   4.383   0.841
 8809SOL    HW127326   6.057   4.326   0.919
 8809SOL    HW227327   6.077   4.472   0.849
 8810SOL     OW27328   5.353   1.674   3.591
 8810SOL    HW127329   5.340   1.674   3.492
 8810SOL    HW227330   5.265   1.681   3.636
 8811SOL     OW27331   1.370   1.453   4.154
 8811SOL    HW127332   1.457   1.490   4.124
 8811SOL    HW227333   1.384   1.360   4.189
 8812SOL     OW27334   1.720   0.954   0.379
 8812SOL    HW127335   1.649   0.912   0.435
 8812SOL    HW227336   1.791   0.886   0.358
 8813SOL     OW27337   1.198   5.606   0.845
 8813SOL    HW127338   1.266   5.590   0.916
 8813SOL    HW227339   1.194   5.703   0.823
 8814SOL     OW27340   5.525   6.640   0.121
 8814SOL    HW127341   5.613   6.631   0.075
 8814SOL    HW227342   5.534   6.604   0.215
 8815SOL     OW27343   0.001   5.689   2.871
 8815SOL    HW127344   6.970   5.653   2.796
 8815SOL    HW227345   6.966   5.721   2.944
 8816SOL     OW27346   0.937   6.431   1.715
 8816SOL    HW127347   1.006   6.397   1.651
 8816SOL    HW227348   0.979   6.493   1.781
 8817SOL     OW27349   2.603   4.476   5.315
 8817SOL    HW127350   2.679   4.510   5.260
 8817SOL    HW227351   2.591   4.535   5.395
 8818SOL     OW27352   0.149   5.267   4.877
 8818SOL    HW127353   0.051   5.278   4.892
 8818SOL    HW227354   0.194   5.249   4.964
 8819SOL     OW27355   5.251   0.366   3.502
 8819SOL    HW127356   5.323   0.297   3.499
 8819SOL    HW227357   5.164   0.323   3.527
 8820SOL     OW27358   1.534   2.382   4.032
 8820SOL    HW127359   1.451   2.356   3.984
 8820SOL    HW227360   1.559   2.476   4.008
 8821SOL     OW27361   1.861   0.193   6.612
 8821SOL    HW127362   1.768   0.204   6.645
 8821SOL    HW227363   1.925   0.198   6.690
 8822SOL     OW27364   0.430   1.585   3.833
 8822SOL    HW127365   0.396   1.546   3.919
 8822SOL    HW227366   0.386   1.539   3.756
 8823SOL     OW27367   2.566   4.891   2.018
 8823SOL    HW127368   2.653   4.852   2.049
 8823SOL    HW227369   2.512   4.820   1.973
 8824SOL     OW27370   4.721   3.919   0.760
 8824SOL    HW127371   4.725   3.844   0.694
 8824SOL    HW227372   4.694   3.884   0.850
 8825SOL     OW27373   1.895   2.359   1.144
 8825SOL    HW127374   1.948   2.370   1.228
 8825SOL    HW227375   1.827   2.432   1.137
 8826SOL     OW27376   5.788   0.580   0.306
 8826SOL    HW127377   5.697   0.550   0.335
 8826SOL    HW227378   5.818   0.655   0.365
 8827SOL     OW27379   0.603   1.447   3.455
 8827SOL    HW127380   0.621   1.351   3.434
 8827SOL    HW227381   0.608   1.501   3.371
 8828SOL     OW27382   1.354   6.332   2.708
 8828SOL    HW127383   1.313   6.393   2.775
 8828SOL    HW227384   1.373   6.382   2.624
 8829SOL     OW27385   0.891   1.608   0.086
 8829SOL    HW127386   0.793   1.619   0.105
 8829SOL    HW227387   0.921   1.676   0.019
 8830SOL     OW27388   1.043   1.638   0.709
 8830SOL    HW127389   1.036   1.738   0.700
 8830SOL    HW227390   1.133   1.608   0.676
 8831SOL     OW27391   6.976   1.192   2.197
 8831SOL    HW127392   6.944   1.276   2.152
 8831SOL    HW227393   6.936   1.185   2.288
 8832SOL     OW27394   6.891   1.160   2.445
 8832SOL    HW127395   6.947   1.183   2.525
 8832SOL    HW227396   6.821   1.094   2.472
 8833SOL     OW27397   1.610   4.622   3.232
 8833SOL    HW127398   1.600   4.523   3.217
 8833SOL    HW227399   1.557   4.649   3.312
 8834SOL     OW27400   5.898   3.805   4.031
 8834SOL    HW127401   5.824   3.738   4.035
 8834SOL    HW227402   5.986   3.759   4.048
 8835SOL     OW27403   0.601   0.408   6.347
 8835SOL    HW127404   0.551   0.495   6.345
 8835SOL    HW227405   0.699   0.427   6.348
 8836SOL     OW27406   5.047   1.533   1.372
 8836SOL    HW127407   4.955   1.497   1.387
 8836SOL    HW227408   5.078   1.507   1.281
 8837SOL     OW27409   0.762   1.900   2.307
 8837SOL    HW127410   0.789   1.806   2.325
 8837SOL    HW227411   0.670   1.902   2.267
 8838SOL     OW27412   2.211   6.222   3.504
 8838SOL    HW127413   2.208   6.200   3.601
 8838SOL    HW227414   2.232   6.140   3.451
 8839SOL     OW27415   5.456   6.747   4.276
 8839SOL    HW127416   5.478   6.837   4.240
 8839SOL    HW227417   5.388   6.755   4.348
 8840SOL     OW27418   4.804   1.279   2.634
 8840SOL    HW127419   4.825   1.268   2.537
 8840SOL    HW227420   4.869   1.345   2.675
 8841SOL     OW27421   1.944   6.920   4.264
 8841SOL    HW127422   1.886   6.842   4.289
 8841SOL    HW227423   1.920   6.999   4.321
 8842SOL     OW27424   1.671   2.596   1.883
 8842SOL    HW127425   1.727   2.588   1.801
 8842SOL    HW227426   1.661   2.693   1.907
 8843SOL     OW27427   0.403   3.419   4.937
 8843SOL    HW127428   0.430   3.325   4.956
 8843SOL    HW227429   0.354   3.423   4.850
 8844SOL     OW27430   5.993   1.240   6.238
 8844SOL    HW127431   6.065   1.170   6.236
 8844SOL    HW227432   5.969   1.260   6.333
 8845SOL     OW27433   5.690   3.500   0.123
 8845SOL    HW127434   5.657   3.516   0.031
 8845SOL    HW227435   5.731   3.584   0.159
 8846SOL     OW27436   2.797   4.701   3.321
 8846SOL    HW127437   2.771   4.635   3.250
 8846SOL    HW227438   2.727   4.701   3.392
 8847SOL     OW27439   1.613   0.492   2.495
 8847SOL    HW127440   1.538   0.538   2.543
 8847SOL    HW227441   1.579   0.408   2.453
 8848SOL     OW27442   1.125   0.199   2.909
 8848SOL    HW127443   1.099   0.107   2.881
 8848SOL    HW227444   1.202   0.194   2.972
 8849SOL     OW27445   2.640   6.971   1.465
 8849SOL    HW127446   2.603   6.992   1.556
 8849SOL    HW227447   2.669   0.032   1.421
 8850SOL     OW27448   2.606   2.688   7.012
 8850SOL    HW127449   2.683   2.624   7.019
 8850SOL    HW227450   2.641   2.781   7.007
 8851SOL     OW27451   1.795   3.607   2.270
 8851SOL    HW127452   1.889   3.579   2.251
 8851SOL    HW227453   1.737   3.583   2.192
 8852SOL     OW27454   1.066   1.989   5.428
 8852SOL    HW127455   1.075   1.961   5.524
 8852SOL    HW227456   1.080   1.909   5.369
 8853SOL     OW27457   5.139   0.635   1.625
 8853SOL    HW127458   5.078   0.571   1.671
 8853SOL    HW227459   5.122   0.633   1.527
 8854SOL     OW27460   1.070   2.622   5.076
 8854SOL    HW127461   1.157   2.666   5.057
 8854SOL    HW227462   1.040   2.646   5.169
 8855SOL     OW27463   5.463   4.776   1.350
 8855SOL    HW127464   5.385   4.825   1.314
 8855SOL    HW227465   5.518   4.836   1.408
 8856SOL     OW27466   6.505   0.711   5.843
 8856SOL    HW127467   6.583   0.648   5.836
 8856SOL    HW227468   6.538   0.805   5.847
 8857SOL     OW27469   6.397   1.756   6.325
 8857SOL    HW127470   6.424   1.665   6.293
 8857SOL    HW227471   6.403   1.821   6.249
 8858SOL     OW27472   6.999   6.076   5.031
 8858SOL    HW127473   0.018   6.110   5.115
 8858SOL    HW227474   6.918   6.023   5.055
 8859SOL     OW27475   1.166   6.048   3.209
 8859SOL    HW127476   1.079   6.009   3.176
 8859SOL    HW227477   1.238   6.027   3.143
 8860SOL     OW27478   6.993   3.804   2.678
 8860SOL    HW127479   6.921   3.766   2.737
 8860SOL    HW227480   0.048   3.742   2.679
 8861SOL     OW27481   3.425   2.698   1.273
 8861SOL    HW127482   3.462   2.790   1.282
 8861SOL    HW227483   3.441   2.647   1.358
 8862SOL     OW27484   4.540   4.537   4.751
 8862SOL    HW127485   4.460   4.511   4.804
 8862SOL    HW227486   4.599   4.457   4.737
 8863SOL     OW27487   1.866   3.756   3.280
 8863SOL    HW127488   1.899   3.777   3.373
 8863SOL    HW227489   1.941   3.720   3.225
 8864SOL     OW27490   6.332   2.146   5.532
 8864SOL    HW127491   6.397   2.175   5.602
 8864SOL    HW227492   6.351   2.051   5.506
 8865SOL     OW27493   2.972   1.832   0.242
 8865SOL    HW127494   3.010   1.915   0.202
 8865SOL    HW227495   2.961   1.845   0.341
 8866SOL     OW27496   5.944   6.777   2.070
 8866SOL    HW127497   5.893   6.699   2.035
 8866SOL    HW227498   5.913   6.860   2.023
 8867SOL     OW27499   6.387   2.947   2.672
 8867SOL    HW127500   6.394   2.918   2.767
 8867SOL    HW227501   6.292   2.972   2.652
 8868SOL     OW27502   6.610   3.749   3.715
 8868SOL    HW127503   6.560   3.816   3.769
 8868SOL    HW227504   6.689   3.793   3.673
 8869SOL     OW27505   5.059   0.615   3.564
 8869SOL    HW127506   5.039   0.705   3.525
 8869SOL    HW227507   5.158   0.603   3.571
 8870SOL     OW27508   1.442   0.710   1.981
 8870SOL    HW127509   1.353   0.751   1.960
 8870SOL    HW227510   1.504   0.724   1.903
 8871SOL     OW27511   0.067   0.759   1.628
 8871SOL    HW127512   0.018   0.729   1.710
 8871SOL    HW227513   0.165   0.769   1.650
 8872SOL     OW27514   6.795   3.625   3.453
 8872SOL    HW127515   6.696   3.634   3.458
 8872SOL    HW227516   6.837   3.711   3.482
 8873SOL     OW27517   2.359   2.131   2.515
 8873SOL    HW127518   2.347   2.032   2.515
 8873SOL    HW227519   2.356   2.165   2.609
 8874SOL     OW27520   2.804   6.413   0.219
 8874SOL    HW127521   2.757   6.326   0.203
 8874SOL    HW227522   2.814   6.428   0.317
 8875SOL     OW27523   6.625   3.197   4.302
 8875SOL    HW127524   6.620   3.151   4.213
 8875SOL    HW227525   6.707   3.255   4.305
 8876SOL     OW27526   4.310   0.400   0.075
 8876SOL    HW127527   4.218   0.368   0.054
 8876SOL    HW227528   4.305   0.483   0.130
 8877SOL     OW27529   1.105   4.962   1.301
 8877SOL    HW127530   1.136   5.008   1.218
 8877SOL    HW227531   1.025   4.906   1.280
 8878SOL     OW27532   4.723   4.192   1.574
 8878SOL    HW127533   4.631   4.151   1.570
 8878SOL    HW227534   4.727   4.256   1.651
 8879SOL     OW27535   6.804   3.951   2.497
 8879SOL    HW127536   6.768   3.989   2.581
 8879SOL    HW227537   6.898   3.919   2.512
 8880SOL     OW27538   4.128   1.917   2.848
 8880SOL    HW127539   4.075   1.992   2.889
 8880SOL    HW227540   4.170   1.863   2.920
 8881SOL     OW27541   3.955   4.838   3.393
 8881SOL    HW127542   4.011   4.780   3.453
 8881SOL    HW227543   3.943   4.793   3.305
 8882SOL     OW27544   3.873   0.660   0.635
 8882SOL    HW127545   3.909   0.709   0.556
 8882SOL    HW227546   3.887   0.562   0.622
 8883SOL     OW27547   6.927   6.465   3.790
 8883SOL    HW127548   6.946   6.465   3.692
 8883SOL    HW227549   6.893   6.376   3.818
 8884SOL     OW27550   4.946   3.245   5.495
 8884SOL    HW127551   4.946   3.315   5.424
 8884SOL    HW227552   4.920   3.157   5.455
 8885SOL     OW27553   5.690   5.938   0.424
 8885SOL    HW127554   5.627   5.905   0.493
 8885SOL    HW227555   5.726   6.027   0.452
 8886SOL     OW27556   4.107   6.004   6.814
 8886SOL    HW127557   4.124   5.985   6.717
 8886SOL    HW227558   4.019   6.051   6.825
 8887SOL     OW27559   4.080   0.517   1.647
 8887SOL    HW127560   4.103   0.422   1.628
 8887SOL    HW227561   4.020   0.522   1.727
 8888SOL     OW27562   3.365   1.777   2.408
 8888SOL    HW127563   3.308   1.856   2.430
 8888SOL    HW227564   3.320   1.722   2.338
 8889SOL     OW27565   1.451   5.028   0.325
 8889SOL    HW127566   1.366   4.980   0.343
 8889SOL    HW227567   1.527   4.979   0.368
 8890SOL     OW27568   0.932   6.923   0.171
 8890SOL    HW127569   0.918   6.859   0.095
 8890SOL    HW227570   0.968   6.874   0.250
 8891SOL     OW27571   6.065   4.058   5.633
 8891SOL    HW127572   5.976   4.104   5.631
 8891SOL    HW227573   6.058   3.977   5.692
 8892SOL     OW27574   3.045   5.616   4.865
 8892SOL    HW127575   3.052   5.520   4.890
 8892SOL    HW227576   3.134   5.649   4.834
 8893SOL     OW27577   1.014   4.969   5.752
 8893SOL    HW127578   1.017   4.932   5.659
 8893SOL    HW227579   0.962   4.908   5.811
 8894SOL     OW27580   4.944   1.795   1.983
 8894SOL    HW127581   4.876   1.838   1.924
 8894SOL    HW227582   4.997   1.866   2.031
 8895SOL     OW27583   6.512   3.521   1.056
 8895SOL    HW127584   6.432   3.541   1.113
 8895SOL    HW227585   6.571   3.456   1.103
 8896SOL     OW27586   1.238   1.627   3.761
 8896SOL    HW127587   1.286   1.714   3.752
 8896SOL    HW227588   1.192   1.623   3.850
 8897SOL     OW27589   1.665   5.693   4.176
 8897SOL    HW127590   1.612   5.691   4.261
 8897SOL    HW227591   1.610   5.734   4.103
 8898SOL     OW27592   4.989   3.696   2.359
 8898SOL    HW127593   4.945   3.610   2.335
 8898SOL    HW227594   5.076   3.677   2.403
 8899SOL     OW27595   1.859   3.958   3.084
 8899SOL    HW127596   1.842   3.896   3.161
 8899SOL    HW227597   1.955   3.953   3.058
 8900SOL     OW27598   4.343   1.575   4.274
 8900SOL    HW127599   4.439   1.603   4.277
 8900SOL    HW227600   4.299   1.616   4.194
 8901SOL     OW27601   1.224   5.112   4.727
 8901SOL    HW127602   1.244   5.016   4.744
 8901SOL    HW227603   1.246   5.166   4.809
 8902SOL     OW27604   0.113   4.857   0.309
 8902SOL    HW127605   0.090   4.842   0.213
 8902SOL    HW227606   0.154   4.774   0.346
 8903SOL     OW27607   1.263   6.994   5.625
 8903SOL    HW127608   1.362   6.980   5.625
 8903SOL    HW227609   1.234   7.018   5.532
 8904SOL     OW27610   0.819   1.116   3.607
 8904SOL    HW127611   0.741   1.057   3.628
 8904SOL    HW227612   0.902   1.074   3.643
 8905SOL     OW27613   1.203   3.763   2.689
 8905SOL    HW127614   1.193   3.686   2.627
 8905SOL    HW227615   1.152   3.745   2.773
 8906SOL     OW27616   5.934   7.021   0.055
 8906SOL    HW127617   5.926   6.933   0.009
 8906SOL    HW227618   6.030   0.019   0.068
 8907SOL     OW27619   3.018   3.073   5.133
 8907SOL    HW127620   2.952   3.147   5.120
 8907SOL    HW227621   3.108   3.102   5.101
 8908SOL     OW27622   1.478   4.311   6.306
 8908SOL    HW127623   1.539   4.390   6.315
 8908SOL    HW227624   1.505   4.258   6.226
 8909SOL     OW27625   1.751   5.731   1.407
 8909SOL    HW127626   1.665   5.680   1.408
 8909SOL    HW227627   1.753   5.795   1.483
 8910SOL     OW27628   0.932   0.369   3.680
 8910SOL    HW127629   0.987   0.426   3.619
 8910SOL    HW227630   0.940   0.404   3.774
 8911SOL     OW27631   4.507   2.484   4.377
 8911SOL    HW127632   4.559   2.566   4.403
 8911SOL    HW227633   4.568   2.420   4.330
 8912SOL     OW27634   3.522   3.719   4.160
 8912SOL    HW127635   3.593   3.648   4.158
 8912SOL    HW227636   3.566   3.808   4.172
 8913SOL     OW27637   5.256   5.962   0.822
 8913SOL    HW127638   5.167   6.008   0.809
 8913SOL    HW227639   5.329   6.020   0.785
 8914SOL     OW27640   4.840   6.130   5.445
 8914SOL    HW127641   4.926   6.110   5.492
 8914SOL    HW227642   4.766   6.078   5.489
 8915SOL     OW27643   1.732   0.713   3.167
 8915SOL    HW127644   1.685   0.795   3.199
 8915SOL    HW227645   1.830   0.730   3.163
 8916SOL     OW27646   5.070   1.258   1.084
 8916SOL    HW127647   5.135   1.334   1.091
 8916SOL    HW227648   5.006   1.261   1.160
 8917SOL     OW27649   5.864   1.674   0.336
 8917SOL    HW127650   5.816   1.740   0.393
 8917SOL    HW227651   5.888   1.593   0.391
 8918SOL     OW27652   0.814   3.477   3.048
 8918SOL    HW127653   0.890   3.519   3.099
 8918SOL    HW227654   0.738   3.460   3.110
 8919SOL     OW27655   6.204   2.809   1.795
 8919SOL    HW127656   6.281   2.764   1.750
 8919SOL    HW227657   6.237   2.871   1.866
 8920SOL     OW27658   0.289   0.866   0.199
 8920SOL    HW127659   0.251   0.774   0.194
 8920SOL    HW227660   0.360   0.876   0.129
 8921SOL     OW27661   0.776   2.818   2.144
 8921SOL    HW127662   0.861   2.766   2.153
 8921SOL    HW227663   0.737   2.803   2.054
 8922SOL     OW27664   4.178   5.307   3.815
 8922SOL    HW127665   4.223   5.389   3.851
 8922SOL    HW227666   4.178   5.236   3.886
 8923SOL     OW27667   2.298   1.357   4.422
 8923SOL    HW127668   2.387   1.371   4.464
 8923SOL    HW227669   2.310   1.323   4.329
 8924SOL     OW27670   6.304   4.721   5.185
 8924SOL    HW127671   6.279   4.625   5.195
 8924SOL    HW227672   6.351   4.734   5.097
 8925SOL     OW27673   0.895   6.704   2.646
 8925SOL    HW127674   0.875   6.621   2.595
 8925SOL    HW227675   0.993   6.724   2.640
 8926SOL     OW27676   6.027   0.884   6.881
 8926SOL    HW127677   5.952   0.950   6.891
 8926SOL    HW227678   6.086   0.912   6.805
 8927SOL     OW27679   1.684   0.614   6.292
 8927SOL    HW127680   1.619   0.651   6.359
 8927SOL    HW227681   1.732   0.689   6.247
 8928SOL     OW27682   1.439   6.537   5.691
 8928SOL    HW127683   1.442   6.438   5.679
 8928SOL    HW227684   1.516   6.579   5.643
 8929SOL     OW27685   6.863   1.584   4.167
 8929SOL    HW127686   6.878   1.506   4.227
 8929SOL    HW227687   6.888   1.560   4.073
 8930SOL     OW27688   2.062   4.581   4.119
 8930SOL    HW127689   2.062   4.657   4.184
 8930SOL    HW227690   2.128   4.600   4.046
 8931SOL     OW27691   4.134   3.490   0.397
 8931SOL    HW127692   4.128   3.588   0.379
 8931SOL    HW227693   4.227   3.459   0.381
 8932SOL     OW27694   0.586   3.302   3.642
 8932SOL    HW127695   0.506   3.273   3.589
 8932SOL    HW227696   0.667   3.252   3.612
 8933SOL     OW27697   4.122   1.855   5.755
 8933SOL    HW127698   4.032   1.898   5.752
 8933SOL    HW227699   4.152   1.835   5.662
 8934SOL     OW27700   2.528   6.086   2.954
 8934SOL    HW127701   2.525   5.997   2.909
 8934SOL    HW227702   2.582   6.079   3.038
 8935SOL     OW27703   6.661   4.728   0.750
 8935SOL    HW127704   6.581   4.759   0.699
 8935SOL    HW227705   6.737   4.792   0.735
 8936SOL     OW27706   3.725   2.536   0.327
 8936SOL    HW127707   3.764   2.621   0.292
 8936SOL    HW227708   3.708   2.474   0.250
 8937SOL     OW27709   0.397   0.097   6.122
 8937SOL    HW127710   0.442   0.186   6.115
 8937SOL    HW227711   0.350   0.091   6.211
 8938SOL     OW27712   4.967   6.231   1.538
 8938SOL    HW127713   4.916   6.145   1.537
 8938SOL    HW227714   5.063   6.213   1.516
 8939SOL     OW27715   4.656   1.640   4.946
 8939SOL    HW127716   4.644   1.727   4.994
 8939SOL    HW227717   4.651   1.565   5.012
 8940SOL     OW27718   5.654   0.182   2.356
 8940SOL    HW127719   5.669   0.280   2.365
 8940SOL    HW227720   5.711   0.133   2.422
 8941SOL     OW27721   4.572   1.425   6.632
 8941SOL    HW127722   4.651   1.430   6.571
 8941SOL    HW227723   4.601   1.449   6.725
 8942SOL     OW27724   1.553   2.521   5.226
 8942SOL    HW127725   1.586   2.534   5.320
 8942SOL    HW227726   1.480   2.586   5.206
 8943SOL     OW27727   4.963   3.734   0.795
 8943SOL    HW127728   4.948   3.831   0.778
 8943SOL    HW227729   5.060   3.716   0.807
 8944SOL     OW27730   4.568   5.755   1.748
 8944SOL    HW127731   4.494   5.797   1.696
 8944SOL    HW227732   4.627   5.703   1.687
 8945SOL     OW27733   1.765   0.816   4.727
 8945SOL    HW127734   1.862   0.838   4.727
 8945SOL    HW227735   1.713   0.897   4.701
 8946SOL     OW27736   4.059   1.585   4.600
 8946SOL    HW127737   4.090   1.512   4.540
 8946SOL    HW227738   4.061   1.672   4.550
 8947SOL     OW27739   3.527   3.809   5.218
 8947SOL    HW127740   3.525   3.754   5.134
 8947SOL    HW227741   3.621   3.838   5.237
 8948SOL     OW27742   5.841   4.968   2.773
 8948SOL    HW127743   5.785   4.976   2.690
 8948SOL    HW227744   5.782   4.956   2.852
 8949SOL     OW27745   2.549   5.627   6.329
 8949SOL    HW127746   2.573   5.607   6.234
 8949SOL    HW227747   2.540   5.726   6.341
 8950SOL     OW27748   4.879   2.192   4.590
 8950SOL    HW127749   4.947   2.142   4.644
 8950SOL    HW227750   4.805   2.223   4.650
 8951SOL     OW27751   2.032   1.704   5.743
 8951SOL    HW127752   2.010   1.737   5.651
 8951SOL    HW227753   1.990   1.765   5.810
 8952SOL     OW27754   6.276   0.017   3.418
 8952SOL    HW127755   6.267   6.945   3.393
 8952SOL    HW227756   6.221   0.036   3.499
 8953SOL     OW27757   1.551   5.207   6.804
 8953SOL    HW127758   1.601   5.135   6.853
 8953SOL    HW227759   1.482   5.165   6.745
 8954SOL     OW27760   1.806   6.630   6.103
 8954SOL    HW127761   1.736   6.696   6.076
 8954SOL    HW227762   1.890   6.679   6.126
 8955SOL     OW27763   6.349   3.631   4.189
 8955SOL    HW127764   6.355   3.613   4.287
 8955SOL    HW227765   6.260   3.670   4.168
 8956SOL     OW27766   1.107   0.790   5.020
 8956SOL    HW127767   1.098   0.695   5.050
 8956SOL    HW227768   1.143   0.792   4.927
 8957SOL     OW27769   2.440   5.371   2.065
 8957SOL    HW127770   2.424   5.286   2.114
 8957SOL    HW227771   2.359   5.394   2.011
 8958SOL     OW27772   2.682   0.541   4.194
 8958SOL    HW127773   2.609   0.483   4.157
 8958SOL    HW227774   2.648   0.634   4.205
 8959SOL     OW27775   2.898   4.823   0.415
 8959SOL    HW127776   2.848   4.906   0.390
 8959SOL    HW227777   2.857   4.744   0.370
 8960SOL     OW27778   3.615   5.644   1.172
 8960SOL    HW127779   3.521   5.618   1.150
 8960SOL    HW227780   3.668   5.563   1.196
 8961SOL     OW27781   1.884   2.353   4.225
 8961SOL    HW127782   1.967   2.357   4.281
 8961SOL    HW227783   1.886   2.270   4.169
 8962SOL     OW27784   4.870   0.500   3.297
 8962SOL    HW127785   4.788   0.445   3.282
 8962SOL    HW227786   4.907   0.480   3.387
 8963SOL     OW27787   0.065   0.810   3.738
 8963SOL    HW127788   0.069   0.893   3.682
 8963SOL    HW227789   7.001   0.807   3.785
 8964SOL     OW27790   6.757   3.962   3.013
 8964SOL    HW127791   6.770   3.887   2.948
 8964SOL    HW227792   6.802   3.940   3.099
 8965SOL     OW27793   1.345   5.551   1.780
 8965SOL    HW127794   1.319   5.647   1.768
 8965SOL    HW227795   1.440   5.539   1.751
 8966SOL     OW27796   3.171   2.667   5.624
 8966SOL    HW127797   3.093   2.722   5.653
 8966SOL    HW227798   3.165   2.648   5.526
 8967SOL     OW27799   4.420   0.083   0.676
 8967SOL    HW127800   4.358   0.037   0.739
 8967SOL    HW227801   4.511   0.089   0.717
 8968SOL     OW27802   5.037   4.708   2.990
 8968SOL    HW127803   5.049   4.683   3.086
 8968SOL    HW227804   5.054   4.806   2.978
 8969SOL     OW27805   6.646   0.875   4.547
 8969SOL    HW127806   6.573   0.916   4.602
 8969SOL    HW227807   6.616   0.865   4.453
 8970SOL     OW27808   3.235   2.048   1.355
 8970SOL    HW127809   3.314   2.022   1.299
 8970SOL    HW227810   3.194   1.967   1.396
 8971SOL     OW27811   4.558   6.116   3.056
 8971SOL    HW127812   4.570   6.162   3.144
 8971SOL    HW227813   4.464   6.127   3.025
 8972SOL     OW27814   5.871   0.537   4.737
 8972SOL    HW127815   5.848   0.499   4.826
 8972SOL    HW227816   5.966   0.514   4.715
 8973SOL     OW27817   2.069   4.431   6.951
 8973SOL    HW127818   2.103   4.435   6.857
 8973SOL    HW227819   2.007   4.354   6.962
 8974SOL     OW27820   0.548   2.982   4.154
 8974SOL    HW127821   0.607   3.026   4.221
 8974SOL    HW227822   0.599   2.966   4.069
 8975SOL     OW27823   3.184   0.351   6.855
 8975SOL    HW127824   3.283   0.355   6.866
 8975SOL    HW227825   3.151   0.261   6.882
 8976SOL     OW27826   0.466   4.853   4.565
 8976SOL    HW127827   0.565   4.864   4.571
 8976SOL    HW227828   0.425   4.870   4.655
 8977SOL     OW27829   5.534   1.250   6.360
 8977SOL    HW127830   5.611   1.280   6.417
 8977SOL    HW227831   5.525   1.150   6.367
 8978SOL     OW27832   5.795   5.617   1.021
 8978SOL    HW127833   5.858   5.560   0.968
 8978SOL    HW227834   5.733   5.558   1.073
 8979SOL     OW27835   1.800   5.254   4.963
 8979SOL    HW127836   1.824   5.312   4.885
 8979SOL    HW227837   1.715   5.206   4.943
 8980SOL     OW27838   3.891   3.048   4.582
 8980SOL    HW127839   3.946   3.127   4.609
 8980SOL    HW227840   3.835   3.018   4.659
 8981SOL     OW27841   3.101   1.184   5.269
 8981SOL    HW127842   3.073   1.157   5.361
 8981SOL    HW227843   3.140   1.276   5.271
 8982SOL     OW27844   4.513   4.342   0.635
 8982SOL    HW127845   4.499   4.244   0.644
 8982SOL    HW227846   4.597   4.359   0.582
 8983SOL     OW27847   5.378   5.367   0.626
 8983SOL    HW127848   5.278   5.374   0.633
 8983SOL    HW227849   5.402   5.341   0.532
 8984SOL     OW27850   1.581   6.817   3.080
 8984SOL    HW127851   1.584   6.855   3.172
 8984SOL    HW227852   1.539   6.885   3.018
 8985SOL     OW27853   2.950   3.181   5.919
 8985SOL    HW127854   3.039   3.221   5.898
 8985SOL    HW227855   2.944   3.163   6.017
 8986SOL     OW27856   3.598   6.021   2.679
 8986SOL    HW127857   3.518   6.024   2.739
 8986SOL    HW227858   3.594   6.097   2.614
 8987SOL     OW27859   4.928   5.853   1.960
 8987SOL    HW127860   4.975   5.917   2.021
 8987SOL    HW227861   4.876   5.904   1.892
 8988SOL     OW27862   0.851   5.908   5.198
 8988SOL    HW127863   0.922   5.876   5.261
 8988SOL    HW227864   0.770   5.850   5.207
 8989SOL     OW27865   3.136   3.105   6.792
 8989SOL    HW127866   3.054   3.137   6.744
 8989SOL    HW227867   3.182   3.184   6.833
 8990SOL     OW27868   0.081   6.315   3.461
 8990SOL    HW127869   0.079   6.336   3.363
 8990SOL    HW227870   0.160   6.360   3.503
 8991SOL     OW27871   1.167   1.802   5.267
 8991SOL    HW127872   1.184   1.837   5.175
 8991SOL    HW227873   1.110   1.719   5.261
 8992SOL     OW27874   6.354   2.244   0.475
 8992SOL    HW127875   6.316   2.254   0.567
 8992SOL    HW227876   6.347   2.148   0.447
 8993SOL     OW27877   4.684   2.500   0.551
 8993SOL    HW127878   4.630   2.500   0.467
 8993SOL    HW227879   4.650   2.570   0.613
 8994SOL     OW27880   2.072   6.159   4.011
 8994SOL    HW127881   2.147   6.205   4.060
 8994SOL    HW227882   2.043   6.216   3.934
 8995SOL     OW27883   0.268   0.823   0.609
 8995SOL    HW127884   0.307   0.894   0.551
 8995SOL    HW227885   0.327   0.807   0.688
 8996SOL     OW27886   4.364   6.346   5.324
 8996SOL    HW127887   4.312   6.416   5.374
 8996SOL    HW227888   4.362   6.367   5.226
 8997SOL     OW27889   6.209   0.693   5.181
 8997SOL    HW127890   6.221   0.791   5.161
 8997SOL    HW227891   6.298   0.651   5.196
 8998SOL     OW27892   6.375   3.315   4.699
 8998SOL    HW127893   6.438   3.245   4.665
 8998SOL    HW227894   6.383   3.323   4.798
 8999SOL     OW27895   3.493   6.563   5.441
 8999SOL    HW127896   3.584   6.541   5.405
 8999SOL    HW227897   3.501   6.638   5.506
 9000SOL     OW27898   1.586   4.198   1.194
 9000SOL    HW127899   1.569   4.281   1.247
 9000SOL    HW227900   1.603   4.121   1.256
 9001SOL     OW27901   0.926   5.944   2.186
 9001SOL    HW127902   0.860   6.010   2.220
 9001SOL    HW227903   1.003   5.992   2.144
 9002SOL     OW27904   0.822   4.410   0.145
 9002SOL    HW127905   0.768   4.329   0.119
 9002SOL    HW227906   0.895   4.424   0.078
 9003SOL     OW27907   5.470   0.477   1.358
 9003SOL    HW127908   5.393   0.413   1.358
 9003SOL    HW227909   5.551   0.431   1.321
 9004SOL     OW27910   4.529   5.032   0.070
 9004SOL    HW127911   4.543   5.063   0.164
 9004SOL    HW227912   4.437   4.994   0.060
 9005SOL     OW27913   5.275   1.836   5.416
 9005SOL    HW127914   5.206   1.880   5.474
 9005SOL    HW227915   5.229   1.773   5.352
 9006SOL     OW27916   3.822   6.040   0.436
 9006SOL    HW127917   3.915   6.075   0.430
 9006SOL    HW227918   3.800   5.987   0.353
 9007SOL     OW27919   1.990   0.722   3.190
 9007SOL    HW127920   2.017   0.803   3.137
 9007SOL    HW227921   2.037   0.642   3.154
 9008SOL     OW27922   0.713   6.091   2.291
 9008SOL    HW127923   0.614   6.089   2.277
 9008SOL    HW227924   0.737   6.171   2.346
 9009SOL     OW27925   3.414   6.240   1.270
 9009SOL    HW127926   3.352   6.314   1.246
 9009SOL    HW227927   3.498   6.278   1.310
 9010SOL     OW27928   1.326   5.933   4.130
 9010SOL    HW127929   1.270   5.974   4.203
 9010SOL    HW227930   1.328   5.834   4.142
 9011SOL     OW27931   2.680   2.212   1.824
 9011SOL    HW127932   2.746   2.254   1.887
 9011SOL    HW227933   2.715   2.217   1.731
 9012SOL     OW27934   2.093   6.644   0.026
 9012SOL    HW127935   2.136   6.701   6.980
 9012SOL    HW227936   1.995   6.635   0.005
 9013SOL     OW27937   1.858   6.647   4.283
 9013SOL    HW127938   1.878   6.583   4.357
 9013SOL    HW227939   1.760   6.668   4.283
 9014SOL     OW27940   5.483   3.086   3.363
 9014SOL    HW127941   5.445   3.128   3.280
 9014SOL    HW227942   5.580   3.110   3.371
 9015SOL     OW27943   5.040   1.091   6.215
 9015SOL    HW127944   5.054   1.068   6.118
 9015SOL    HW227945   5.099   1.168   6.240
 9016SOL     OW27946   5.066   5.563   6.251
 9016SOL    HW127947   5.136   5.567   6.322
 9016SOL    HW227948   5.083   5.484   6.192
 9017SOL     OW27949   3.998   6.926   4.307
 9017SOL    HW127950   3.914   6.879   4.336
 9017SOL    HW227951   4.075   6.893   4.360
 9018SOL     OW27952   4.230   4.741   6.295
 9018SOL    HW127953   4.289   4.811   6.255
 9018SOL    HW227954   4.185   4.690   6.221
 9019SOL     OW27955   0.437   3.384   3.975
 9019SOL    HW127956   0.392   3.318   3.914
 9019SOL    HW227957   0.401   3.373   4.068
 9020SOL     OW27958   5.248   5.403   2.597
 9020SOL    HW127959   5.186   5.328   2.571
 9020SOL    HW227960   5.337   5.389   2.553
 9021SOL     OW27961   0.477   1.238   4.328
 9021SOL    HW127962   0.499   1.212   4.422
 9021SOL    HW227963   0.561   1.240   4.273
 9022SOL     OW27964   4.827   4.186   6.037
 9022SOL    HW127965   4.775   4.270   6.023
 9022SOL    HW227966   4.811   4.152   6.130
 9023SOL     OW27967   5.991   4.543   0.380
 9023SOL    HW127968   5.948   4.523   0.468
 9023SOL    HW227969   5.938   4.614   0.333
 9024SOL     OW27970   2.338   5.908   6.167
 9024SOL    HW127971   2.305   5.820   6.202
 9024SOL    HW227972   2.262   5.957   6.123
 9025SOL     OW27973   1.019   6.021   1.105
 9025SOL    HW127974   0.988   6.103   1.056
 9025SOL    HW227975   0.977   5.940   1.064
 9026SOL     OW27976   5.122   1.406   0.594
 9026SOL    HW127977   5.046   1.419   0.531
 9026SOL    HW227978   5.108   1.461   0.676
 9027SOL     OW27979   1.158   3.680   3.477
 9027SOL    HW127980   1.242   3.645   3.436
 9027SOL    HW227981   1.122   3.613   3.541
 9028SOL     OW27982   3.136   5.338   6.122
 9028SOL    HW127983   3.147   5.254   6.175
 9028SOL    HW227984   3.218   5.394   6.129
 9029SOL     OW27985   4.396   0.116   4.627
 9029SOL    HW127986   4.414   0.178   4.703
 9029SOL    HW227987   4.359   0.168   4.550
 9030SOL     OW27988   3.119   1.529   2.403
 9030SOL    HW127989   3.149   1.555   2.312
 9030SOL    HW227990   3.101   1.431   2.406
 9031SOL     OW27991   4.501   6.895   4.633
 9031SOL    HW127992   4.461   6.986   4.639
 9031SOL    HW227993   4.479   6.853   4.545
 9032SOL     OW27994   5.022   3.486   2.164
 9032SOL    HW127995   4.987   3.436   2.243
 9032SOL    HW227996   5.009   3.430   2.081
 9033SOL     OW27997   0.559   0.010   2.988
 9033SOL    HW127998   0.500   6.979   2.930
 9033SOL    HW227999   0.609   6.975   3.051
 9034SOL     OW28000   4.681   0.131   4.515
 9034SOL    HW128001   4.606   0.090   4.566
 9034SOL    HW228002   4.651   0.218   4.475
 9035SOL     OW28003   2.324   4.712   6.516
 9035SOL    HW128004   2.410   4.686   6.560
 9035SOL    HW228005   2.339   4.795   6.461
 9036SOL     OW28006   1.612   4.291   5.442
 9036SOL    HW128007   1.564   4.206   5.464
 9036SOL    HW228008   1.592   4.359   5.512
 9037SOL     OW28009   1.208   1.369   3.044
 9037SOL    HW128010   1.207   1.372   3.144
 9037SOL    HW228011   1.186   1.276   3.014
 9038SOL     OW28012   4.387   3.147   5.644
 9038SOL    HW128013   4.408   3.206   5.566
 9038SOL    HW228014   4.436   3.061   5.634
 9039SOL     OW28015   4.266   5.760   6.615
 9039SOL    HW128016   4.348   5.759   6.558
 9039SOL    HW228017   4.292   5.768   6.711
 9040SOL     OW28018   2.066   1.869   1.594
 9040SOL    HW128019   2.116   1.953   1.571
 9040SOL    HW228020   2.130   1.796   1.615
 9041SOL     OW28021   6.928   2.142   2.500
 9041SOL    HW128022   6.982   2.201   2.440
 9041SOL    HW228023   6.832   2.170   2.499
 9042SOL     OW28024   3.760   6.282   0.240
 9042SOL    HW128025   3.706   6.226   0.302
 9042SOL    HW228026   3.835   6.227   0.202
 9043SOL     OW28027   3.539   2.154   0.428
 9043SOL    HW128028   3.587   2.120   0.509
 9043SOL    HW228029   3.474   2.084   0.398
 9044SOL     OW28030   0.759   1.133   0.142
 9044SOL    HW128031   0.773   1.205   0.074
 9044SOL    HW228032   0.839   1.129   0.202
 9045SOL     OW28033   4.093   1.683   3.035
 9045SOL    HW128034   4.006   1.701   2.989
 9045SOL    HW228035   4.143   1.612   2.986
 9046SOL     OW28036   3.485   3.456   2.172
 9046SOL    HW128037   3.394   3.489   2.197
 9046SOL    HW228038   3.552   3.488   2.239
 9047SOL     OW28039   1.429   4.161   6.542
 9047SOL    HW128040   1.460   4.216   6.465
 9047SOL    HW228041   1.358   4.209   6.592
 9048SOL     OW28042   6.865   1.552   6.536
 9048SOL    HW128043   6.792   1.596   6.588
 9048SOL    HW228044   6.846   1.454   6.529
 9049SOL     OW28045   2.814   6.956   6.180
 9049SOL    HW128046   2.801   6.889   6.253
 9049SOL    HW228047   2.878   6.919   6.112
 9050SOL     OW28048   0.786   4.800   0.914
 9050SOL    HW128049   0.850   4.740   0.867
 9050SOL    HW228050   0.697   4.756   0.921
 9051SOL     OW28051   2.566   1.208   1.618
 9051SOL    HW128052   2.646   1.216   1.559
 9051SOL    HW228053   2.499   1.278   1.593
 9052SOL     OW28054   1.266   2.550   5.332
 9052SOL    HW128055   1.286   2.504   5.419
 9052SOL    HW228056   1.282   2.486   5.256
 9053SOL     OW28057   1.388   1.415   0.185
 9053SOL    HW128058   1.321   1.483   0.215
 9053SOL    HW228059   1.477   1.459   0.172
 9054SOL     OW28060   2.056   5.460   2.513
 9054SOL    HW128061   2.051   5.409   2.427
 9054SOL    HW228062   2.141   5.512   2.516
 9055SOL     OW28063   0.182   3.231   5.029
 9055SOL    HW128064   0.185   3.131   5.040
 9055SOL    HW228065   0.258   3.272   5.080
 9056SOL     OW28066   6.388   2.862   2.929
 9056SOL    HW128067   6.473   2.863   2.981
 9056SOL    HW228068   6.316   2.908   2.981
 9057SOL     OW28069   4.092   1.901   3.895
 9057SOL    HW128070   4.042   1.903   3.808
 9057SOL    HW228071   4.181   1.944   3.883
 9058SOL     OW28072   2.870   0.687   5.705
 9058SOL    HW128073   2.836   0.762   5.762
 9058SOL    HW228074   2.958   0.656   5.741
 9059SOL     OW28075   1.379   2.114   2.655
 9059SOL    HW128076   1.311   2.138   2.586
 9059SOL    HW228077   1.367   2.018   2.682
 9060SOL     OW28078   5.212   2.963   5.622
 9060SOL    HW128079   5.265   2.893   5.574
 9060SOL    HW228080   5.115   2.938   5.621
 9061SOL     OW28081   3.192   5.625   2.996
 9061SOL    HW128082   3.164   5.663   2.908
 9061SOL    HW228083   3.121   5.641   3.064
 9062SOL     OW28084   1.412   5.893   0.850
 9062SOL    HW128085   1.455   5.973   0.890
 9062SOL    HW228086   1.445   5.880   0.756
 9063SOL     OW28087   2.590   2.109   2.056
 9063SOL    HW128088   2.646   2.161   2.120
 9063SOL    HW228089   2.611   2.138   1.962
 9064SOL     OW28090   5.253   3.469   0.523
 9064SOL    HW128091   5.204   3.386   0.549
 9064SOL    HW228092   5.323   3.489   0.591
 9065SOL     OW28093   2.653   0.485   6.728
 9065SOL    HW128094   2.651   0.529   6.818
 9065SOL    HW228095   2.560   0.480   6.691
 9066SOL     OW28096   5.041   6.724   0.059
 9066SOL    HW128097   5.001   6.801   0.009
 9066SOL    HW228098   4.978   6.646   0.057
 9067SOL     OW28099   1.625   6.803   1.924
 9067SOL    HW128100   1.610   6.882   1.983
 9067SOL    HW228101   1.711   6.758   1.949
 9068SOL     OW28102   1.275   6.436   6.583
 9068SOL    HW128103   1.301   6.417   6.678
 9068SOL    HW228104   1.265   6.534   6.570
 9069SOL     OW28105   1.128   2.359   6.129
 9069SOL    HW128106   1.176   2.438   6.167
 9069SOL    HW228107   1.154   2.277   6.180
 9070SOL     OW28108   1.532   3.933   3.636
 9070SOL    HW128109   1.439   3.895   3.637
 9070SOL    HW228110   1.544   3.990   3.555
 9071SOL     OW28111   4.854   5.870   0.245
 9071SOL    HW128112   4.768   5.821   0.229
 9071SOL    HW228113   4.906   5.824   0.318
 9072SOL     OW28114   5.760   4.799   0.018
 9072SOL    HW128115   5.699   4.737   6.993
 9072SOL    HW228116   5.796   4.867   6.979
 9073SOL     OW28117   1.634   0.417   1.294
 9073SOL    HW128118   1.605   0.485   1.226
 9073SOL    HW228119   1.667   0.464   1.376
 9074SOL     OW28120   0.511   0.413   3.338
 9074SOL    HW128121   0.478   0.392   3.430
 9074SOL    HW228122   0.606   0.446   3.344
 9075SOL     OW28123   0.499   0.425   1.834
 9075SOL    HW128124   0.516   0.404   1.738
 9075SOL    HW228125   0.581   0.469   1.873
 9076SOL     OW28126   0.063   1.651   5.271
 9076SOL    HW128127   0.071   1.727   5.206
 9076SOL    HW228128   0.015   1.683   5.353
 9077SOL     OW28129   6.291   6.185   1.693
 9077SOL    HW128130   6.350   6.116   1.649
 9077SOL    HW228131   6.344   6.267   1.712
 9078SOL     OW28132   3.898   3.031   4.975
 9078SOL    HW128133   3.986   3.079   4.979
 9078SOL    HW228134   3.829   3.084   5.024
 9079SOL     OW28135   3.724   1.078   5.544
 9079SOL    HW128136   3.690   1.170   5.560
 9079SOL    HW228137   3.773   1.075   5.457
 9080SOL     OW28138   5.274   1.390   0.358
 9080SOL    HW128139   5.340   1.329   0.403
 9080SOL    HW228140   5.210   1.425   0.426
 9081SOL     OW28141   5.618   0.349   2.758
 9081SOL    HW128142   5.664   0.284   2.698
 9081SOL    HW228143   5.642   0.442   2.732
 9082SOL     OW28144   3.077   0.577   2.617
 9082SOL    HW128145   3.026   0.634   2.552
 9082SOL    HW228146   3.164   0.620   2.639
 9083SOL     OW28147   4.559   4.489   4.031
 9083SOL    HW128148   4.591   4.395   4.044
 9083SOL    HW228149   4.527   4.525   4.119
 9084SOL     OW28150   3.381   4.029   2.722
 9084SOL    HW128151   3.473   4.052   2.753
 9084SOL    HW228152   3.367   4.068   2.631
 9085SOL     OW28153   0.935   2.097   0.547
 9085SOL    HW128154   0.895   2.188   0.559
 9085SOL    HW228155   0.941   2.075   0.450
 9086SOL     OW28156   6.903   3.993   0.499
 9086SOL    HW128157   6.821   3.938   0.488
 9086SOL    HW228158   6.912   4.056   0.422
 9087SOL     OW28159   5.221   3.699   2.052
 9087SOL    HW128160   5.150   3.630   2.070
 9087SOL    HW228161   5.178   3.789   2.047
 9088SOL     OW28162   5.180   6.369   0.578
 9088SOL    HW128163   5.099   6.393   0.632
 9088SOL    HW228164   5.155   6.302   0.509
 9089SOL     OW28165   4.078   0.313   6.073
 9089SOL    HW128166   4.137   0.389   6.103
 9089SOL    HW228167   4.115   0.227   6.109
 9090SOL     OW28168   5.975   1.596   3.351
 9090SOL    HW128169   5.963   1.658   3.428
 9090SOL    HW228170   6.046   1.632   3.289
 9091SOL     OW28171   3.790   2.594   6.392
 9091SOL    HW128172   3.815   2.531   6.319
 9091SOL    HW228173   3.825   2.685   6.371
 9092SOL     OW28174   0.060   3.075   6.573
 9092SOL    HW128175   0.089   3.147   6.636
 9092SOL    HW228176   6.988   3.055   6.588
 9093SOL     OW28177   2.140   6.227   4.785
 9093SOL    HW128178   2.201   6.156   4.820
 9093SOL    HW228179   2.137   6.222   4.685
 9094SOL     OW28180   1.267   3.894   1.473
 9094SOL    HW128181   1.219   3.810   1.449
 9094SOL    HW228182   1.301   3.888   1.567
 9095SOL     OW28183   0.058   6.610   6.141
 9095SOL    HW128184   6.992   6.622   6.100
 9095SOL    HW228185   0.109   6.696   6.135
 9096SOL     OW28186   6.106   5.312   4.325
 9096SOL    HW128187   6.112   5.406   4.290
 9096SOL    HW228188   6.196   5.269   4.320
 9097SOL     OW28189   1.241   2.653   5.618
 9097SOL    HW128190   1.151   2.611   5.612
 9097SOL    HW228191   1.259   2.706   5.535
 9098SOL     OW28192   2.256   4.236   3.608
 9098SOL    HW128193   2.167   4.278   3.626
 9098SOL    HW228194   2.280   4.174   3.683
 9099SOL     OW28195   2.331   1.578   6.602
 9099SOL    HW128196   2.412   1.631   6.625
 9099SOL    HW228197   2.249   1.634   6.617
 9100SOL     OW28198   1.780   4.372   4.064
 9100SOL    HW128199   1.876   4.347   4.081
 9100SOL    HW228200   1.722   4.329   4.133
 9101SOL     OW28201   0.494   2.405   0.633
 9101SOL    HW128202   0.446   2.438   0.552
 9101SOL    HW228203   0.430   2.357   0.693
 9102SOL     OW28204   3.721   6.950   2.837
 9102SOL    HW128205   3.668   7.017   2.786
 9102SOL    HW228206   3.782   6.997   2.901
 9103SOL     OW28207   6.398   1.088   1.144
 9103SOL    HW128208   6.418   1.185   1.126
 9103SOL    HW228209   6.323   1.081   1.209
 9104SOL     OW28210   5.984   1.953   6.063
 9104SOL    HW128211   5.920   1.911   5.999
 9104SOL    HW228212   6.044   2.016   6.015
 9105SOL     OW28213   2.833   1.367   5.584
 9105SOL    HW128214   2.802   1.324   5.500
 9105SOL    HW228215   2.886   1.449   5.563
 9106SOL     OW28216   1.966   3.803   6.915
 9106SOL    HW128217   1.899   3.730   6.924
 9106SOL    HW228218   1.980   3.847   7.004
 9107SOL     OW28219   3.206   1.232   0.515
 9107SOL    HW128220   3.193   1.168   0.440
 9107SOL    HW228221   3.135   1.302   0.513
 9108SOL     OW28222   6.994   5.536   5.903
 9108SOL    HW128223   6.959   5.503   5.990
 9108SOL    HW228224   0.054   5.587   5.919
 9109SOL     OW28225   5.668   3.735   2.793
 9109SOL    HW128226   5.589   3.682   2.822
 9109SOL    HW228227   5.675   3.734   2.694
 9110SOL     OW28228   1.503   6.305   3.286
 9110SOL    HW128229   1.405   6.291   3.296
 9110SOL    HW228230   1.551   6.221   3.311
 9111SOL     OW28231   3.830   2.394   6.207
 9111SOL    HW128232   3.784   2.355   6.127
 9111SOL    HW228233   3.825   2.329   6.283
 9112SOL     OW28234   0.682   5.139   2.168
 9112SOL    HW128235   0.622   5.180   2.099
 9112SOL    HW228236   0.636   5.061   2.210
 9113SOL     OW28237   5.709   0.628   3.923
 9113SOL    HW128238   5.715   0.528   3.933
 9113SOL    HW228239   5.793   0.670   3.956
 9114SOL     OW28240   0.940   6.966   5.666
 9114SOL    HW128241   0.898   0.029   5.689
 9114SOL    HW228242   0.985   6.973   5.577
 9115SOL     OW28243   4.916   4.500   5.036
 9115SOL    HW128244   4.820   4.474   5.038
 9115SOL    HW228245   4.962   4.453   4.961
 9116SOL     OW28246   1.892   0.222   3.891
 9116SOL    HW128247   1.891   0.256   3.985
 9116SOL    HW228248   1.872   0.298   3.829
 9117SOL     OW28249   2.246   6.924   0.281
 9117SOL    HW128250   2.182   6.890   0.211
 9117SOL    HW228251   2.243   6.862   0.360
 9118SOL     OW28252   6.547   4.071   2.014
 9118SOL    HW128253   6.613   4.144   2.027
 9118SOL    HW228254   6.573   3.992   2.070
 9119SOL     OW28255   3.106   1.095   0.725
 9119SOL    HW128256   3.070   1.162   0.790
 9119SOL    HW228257   3.142   1.143   0.645
 9120SOL     OW28258   6.296   3.932   4.517
 9120SOL    HW128259   6.293   3.964   4.423
 9120SOL    HW228260   6.218   3.872   4.535
 9121SOL     OW28261   4.029   1.002   4.344
 9121SOL    HW128262   4.035   1.002   4.444
 9121SOL    HW228263   3.932   1.004   4.317
 9122SOL     OW28264   0.341   2.771   1.541
 9122SOL    HW128265   0.437   2.752   1.518
 9122SOL    HW228266   0.337   2.842   1.612
 9123SOL     OW28267   0.741   5.813   4.150
 9123SOL    HW128268   0.644   5.833   4.164
 9123SOL    HW228269   0.758   5.717   4.170
 9124SOL     OW28270   3.376   5.580   0.949
 9124SOL    HW128271   3.462   5.610   0.906
 9124SOL    HW228272   3.340   5.656   1.004
 9125SOL     OW28273   5.467   6.258   1.819
 9125SOL    HW128274   5.422   6.174   1.849
 9125SOL    HW228275   5.542   6.281   1.881
 9126SOL     OW28276   4.430   4.930   0.828
 9126SOL    HW128277   4.357   4.875   0.869
 9126SOL    HW228278   4.391   5.004   0.774
 9127SOL     OW28279   6.331   4.307   5.271
 9127SOL    HW128280   6.331   4.232   5.336
 9127SOL    HW228281   6.415   4.360   5.280
 9128SOL     OW28282   5.706   4.036   5.815
 9128SOL    HW128283   5.738   4.093   5.739
 9128SOL    HW228284   5.650   4.092   5.877
 9129SOL     OW28285   0.496   2.835   0.491
 9129SOL    HW128286   0.492   2.749   0.543
 9129SOL    HW228287   0.495   2.814   0.393
 9130SOL     OW28288   2.932   3.391   5.052
 9130SOL    HW128289   2.862   3.459   5.074
 9130SOL    HW228290   2.900   3.335   4.975
 9131SOL     OW28291   5.400   2.512   0.580
 9131SOL    HW128292   5.345   2.428   0.576
 9131SOL    HW228293   5.340   2.591   0.578
 9132SOL     OW28294   0.930   3.697   3.931
 9132SOL    HW128295   0.961   3.682   3.838
 9132SOL    HW228296   0.914   3.795   3.946
 9133SOL     OW28297   5.696   0.160   1.172
 9133SOL    HW128298   5.749   0.092   1.123
 9133SOL    HW228299   5.756   0.236   1.199
 9134SOL     OW28300   4.983   4.583   0.258
 9134SOL    HW128301   4.973   4.603   0.355
 9134SOL    HW228302   4.964   4.665   0.204
 9135SOL     OW28303   6.412   5.696   2.656
 9135SOL    HW128304   6.498   5.746   2.647
 9135SOL    HW228305   6.401   5.666   2.751
 9136SOL     OW28306   0.426   5.079   0.576
 9136SOL    HW128307   0.349   5.056   0.635
 9136SOL    HW228308   0.508   5.030   0.606
 9137SOL     OW28309   5.578   6.077   5.076
 9137SOL    HW128310   5.675   6.075   5.051
 9137SOL    HW228311   5.560   6.155   5.135
 9138SOL     OW28312   2.201   4.272   5.782
 9138SOL    HW128313   2.128   4.217   5.824
 9138SOL    HW228314   2.289   4.248   5.825
 9139SOL     OW28315   6.981   0.159   1.887
 9139SOL    HW128316   6.974   0.063   1.914
 9139SOL    HW228317   6.890   0.198   1.881
 9140SOL     OW28318   1.910   4.054   2.467
 9140SOL    HW128319   1.878   4.010   2.383
 9140SOL    HW228320   1.980   4.122   2.444
 9141SOL     OW28321   0.476   5.862   4.968
 9141SOL    HW128322   0.405   5.838   4.902
 9141SOL    HW228323   0.565   5.867   4.921
 9142SOL     OW28324   1.121   4.035   3.452
 9142SOL    HW128325   1.189   4.071   3.388
 9142SOL    HW228326   1.168   3.983   3.524
 9143SOL     OW28327   6.299   3.760   3.081
 9143SOL    HW128328   6.289   3.669   3.120
 9143SOL    HW228329   6.395   3.789   3.088
 9144SOL     OW28330   3.132   4.366   5.300
 9144SOL    HW128331   3.140   4.289   5.237
 9144SOL    HW228332   3.216   4.420   5.298
 9145SOL     OW28333   1.454   6.257   5.638
 9145SOL    HW128334   1.355   6.259   5.626
 9145SOL    HW228335   1.495   6.202   5.566
 9146SOL     OW28336   6.113   2.178   3.659
 9146SOL    HW128337   6.059   2.165   3.576
 9146SOL    HW228338   6.202   2.217   3.634
 9147SOL     OW28339   4.021   0.816   5.885
 9147SOL    HW128340   4.085   0.760   5.832
 9147SOL    HW228341   3.927   0.794   5.857
 9148SOL     OW28342   4.788   5.605   1.649
 9148SOL    HW128343   4.816   5.593   1.554
 9148SOL    HW228344   4.771   5.516   1.691
 9149SOL     OW28345   0.989   3.637   1.315
 9149SOL    HW128346   1.078   3.646   1.270
 9149SOL    HW228347   0.916   3.648   1.247
 9150SOL     OW28348   2.801   3.581   6.637
 9150SOL    HW128349   2.722   3.607   6.692
 9150SOL    HW228350   2.832   3.659   6.583
 9151SOL     OW28351   2.182   2.885   3.801
 9151SOL    HW128352   2.087   2.910   3.816
 9151SOL    HW228353   2.226   2.866   3.889
 9152SOL     OW28354   1.855   4.464   2.488
 9152SOL    HW128355   1.826   4.463   2.584
 9152SOL    HW228356   1.932   4.526   2.477
 9153SOL     OW28357   0.131   3.269   0.156
 9153SOL    HW128358   0.163   3.263   0.250
 9153SOL    HW228359   0.137   3.364   0.124
 9154SOL     OW28360   4.847   4.772   3.315
 9154SOL    HW128361   4.902   4.812   3.389
 9154SOL    HW228362   4.753   4.804   3.324
 9155SOL     OW28363   1.001   6.336   2.891
 9155SOL    HW128364   0.978   6.426   2.853
 9155SOL    HW228365   1.096   6.335   2.920
 9156SOL     OW28366   0.166   4.175   5.784
 9156SOL    HW128367   0.101   4.126   5.843
 9156SOL    HW228368   0.230   4.111   5.744
 9157SOL     OW28369   1.794   4.641   5.382
 9157SOL    HW128370   1.775   4.546   5.357
 9157SOL    HW228371   1.877   4.672   5.336
 9158SOL     OW28372   0.026   3.559   4.761
 9158SOL    HW128373   0.120   3.593   4.755
 9158SOL    HW228374   0.011   3.515   4.849
 9159SOL     OW28375   2.559   1.301   4.014
 9159SOL    HW128376   2.489   1.284   3.945
 9159SOL    HW228377   2.642   1.252   3.990
 9160SOL     OW28378   0.880   2.730   6.657
 9160SOL    HW128379   0.906   2.792   6.583
 9160SOL    HW228380   0.782   2.739   6.675
 9161SOL     OW28381   6.156   2.866   3.109
 9161SOL    HW128382   6.057   2.865   3.093
 9161SOL    HW228383   6.189   2.772   3.114
 9162SOL     OW28384   3.769   2.247   1.657
 9162SOL    HW128385   3.831   2.316   1.620
 9162SOL    HW228386   3.714   2.288   1.730
 9163SOL     OW28387   1.854   2.559   4.042
 9163SOL    HW128388   1.844   2.481   4.104
 9163SOL    HW228389   1.930   2.616   4.073
 9164SOL     OW28390   2.560   6.364   6.566
 9164SOL    HW128391   2.515   6.450   6.538
 9164SOL    HW228392   2.557   6.356   6.665
 9165SOL     OW28393   5.737   1.523   5.954
 9165SOL    HW128394   5.652   1.558   5.992
 9165SOL    HW228395   5.762   1.439   6.002
 9166SOL     OW28396   4.527   6.384   1.699
 9166SOL    HW128397   4.432   6.359   1.680
 9166SOL    HW228398   4.585   6.347   1.626
 9167SOL     OW28399   1.454   1.675   4.453
 9167SOL    HW128400   1.483   1.771   4.454
 9167SOL    HW228401   1.531   1.617   4.482
 9168SOL     OW28402   5.965   5.868   5.143
 9168SOL    HW128403   5.989   5.879   5.239
 9168SOL    HW228404   6.049   5.858   5.089
 9169SOL     OW28405   6.520   5.582   0.427
 9169SOL    HW128406   6.456   5.650   0.462
 9169SOL    HW228407   6.501   5.562   0.331
 9170SOL     OW28408   2.356   0.584   5.848
 9170SOL    HW128409   2.389   0.495   5.816
 9170SOL    HW228410   2.337   0.580   5.946
 9171SOL     OW28411   3.409   5.798   0.033
 9171SOL    HW128412   3.397   5.814   6.959
 9171SOL    HW228413   3.320   5.787   0.076
 9172SOL     OW28414   4.399   1.454   5.410
 9172SOL    HW128415   4.381   1.366   5.367
 9172SOL    HW228416   4.476   1.445   5.474
 9173SOL     OW28417   6.038   3.769   5.279
 9173SOL    HW128418   6.029   3.869   5.273
 9173SOL    HW228419   6.104   3.738   5.211
 9174SOL     OW28420   6.066   4.492   1.169
 9174SOL    HW128421   6.115   4.572   1.204
 9174SOL    HW228422   5.968   4.505   1.181
 9175SOL     OW28423   2.047   0.665   1.251
 9175SOL    HW128424   2.131   0.637   1.205
 9175SOL    HW228425   1.998   0.584   1.284
 9176SOL     OW28426   1.914   1.086   2.029
 9176SOL    HW128427   1.876   1.118   1.942
 9176SOL    HW228428   1.965   1.001   2.014
 9177SOL     OW28429   0.982   6.147   3.537
 9177SOL    HW128430   1.077   6.177   3.526
 9177SOL    HW228431   0.923   6.206   3.481
 9178SOL     OW28432   1.360   4.203   1.059
 9178SOL    HW128433   1.442   4.187   1.115
 9178SOL    HW228434   1.385   4.203   0.962
 9179SOL     OW28435   4.171   4.954   3.564
 9179SOL    HW128436   4.147   4.935   3.659
 9179SOL    HW228437   4.199   4.870   3.518
 9180SOL     OW28438   0.415   0.649   5.444
 9180SOL    HW128439   0.468   0.668   5.361
 9180SOL    HW228440   0.472   0.667   5.524
 9181SOL     OW28441   2.659   1.904   3.895
 9181SOL    HW128442   2.739   1.874   3.946
 9181SOL    HW228443   2.581   1.845   3.916
 9182SOL     OW28444   0.333   1.892   2.780
 9182SOL    HW128445   0.358   1.797   2.799
 9182SOL    HW228446   0.415   1.944   2.758
 9183SOL     OW28447   1.867   1.402   5.933
 9183SOL    HW128448   1.896   1.452   5.851
 9183SOL    HW228449   1.871   1.463   6.012
 9184SOL     OW28450   2.779   4.621   1.214
 9184SOL    HW128451   2.695   4.675   1.213
 9184SOL    HW228452   2.849   4.670   1.265
 9185SOL     OW28453   1.503   0.314   6.027
 9185SOL    HW128454   1.497   0.291   6.124
 9185SOL    HW228455   1.431   0.266   5.976
 9186SOL     OW28456   5.795   6.322   6.627
 9186SOL    HW128457   5.858   6.395   6.652
 9186SOL    HW228458   5.750   6.344   6.540
 9187SOL     OW28459   4.988   2.782   0.865
 9187SOL    HW128460   5.069   2.725   0.877
 9187SOL    HW228461   4.944   2.797   0.954
 9188SOL     OW28462   1.131   0.147   1.702
 9188SOL    HW128463   1.049   0.204   1.704
 9188SOL    HW228464   1.169   0.144   1.610
 9189SOL     OW28465   3.327   0.674   5.321
 9189SOL    HW128466   3.243   0.621   5.325
 9189SOL    HW228467   3.392   0.640   5.389
 9190SOL     OW28468   4.281   1.024   5.673
 9190SOL    HW128469   4.198   0.970   5.664
 9190SOL    HW228470   4.356   0.965   5.704
 9191SOL     OW28471   5.486   6.636   1.810
 9191SOL    HW128472   5.388   6.648   1.830
 9191SOL    HW228473   5.536   6.717   1.838
 9192SOL     OW28474   4.932   4.157   4.820
 9192SOL    HW128475   4.950   4.076   4.876
 9192SOL    HW228476   4.950   4.135   4.724
 9193SOL     OW28477   3.822   4.031   3.152
 9193SOL    HW128478   3.892   3.969   3.190
 9193SOL    HW228479   3.741   3.978   3.127
 9194SOL     OW28480   3.925   4.798   3.115
 9194SOL    HW128481   3.946   4.745   3.033
 9194SOL    HW228482   3.826   4.809   3.123
 9195SOL     OW28483   0.634   2.482   2.969
 9195SOL    HW128484   0.594   2.528   3.048
 9195SOL    HW228485   0.724   2.446   2.993
 9196SOL     OW28486   4.892   6.176   3.850
 9196SOL    HW128487   4.980   6.189   3.896
 9196SOL    HW228488   4.883   6.081   3.821
 9197SOL     OW28489   4.437   1.629   6.843
 9197SOL    HW128490   4.434   1.581   6.930
 9197SOL    HW228491   4.533   1.645   6.817
 9198SOL     OW28492   5.650   2.900   5.206
 9198SOL    HW128493   5.723   2.844   5.246
 9198SOL    HW228494   5.638   2.983   5.260
 9199SOL     OW28495   1.095   3.350   6.345
 9199SOL    HW128496   1.122   3.353   6.441
 9199SOL    HW228497   1.069   3.441   6.314
 9200SOL     OW28498   5.313   6.002   1.361
 9200SOL    HW128499   5.383   5.950   1.411
 9200SOL    HW228500   5.269   5.942   1.294
 9201SOL     OW28501   0.131   3.299   1.743
 9201SOL    HW128502   0.091   3.215   1.777
 9201SOL    HW228503   0.127   3.300   1.643
 9202SOL     OW28504   2.832   6.068   4.223
 9202SOL    HW128505   2.838   6.168   4.219
 9202SOL    HW228506   2.878   6.029   4.143
 9203SOL     OW28507   4.775   0.953   6.969
 9203SOL    HW128508   4.824   0.917   0.023
 9203SOL    HW228509   4.768   0.882   6.899
 9204SOL     OW28510   4.912   4.679   2.563
 9204SOL    HW128511   4.908   4.633   2.652
 9204SOL    HW228512   5.003   4.719   2.551
 9205SOL     OW28513   3.999   2.330   1.437
 9205SOL    HW128514   4.028   2.423   1.416
 9205SOL    HW228515   4.079   2.270   1.443
 9206SOL     OW28516   6.214   6.318   5.045
 9206SOL    HW128517   6.275   6.255   4.997
 9206SOL    HW228518   6.150   6.360   4.979
 9207SOL     OW28519   4.396   6.719   0.208
 9207SOL    HW128520   4.405   6.628   0.168
 9207SOL    HW228521   4.442   6.721   0.297
 9208SOL     OW28522   4.722   4.347   1.300
 9208SOL    HW128523   4.637   4.400   1.294
 9208SOL    HW228524   4.729   4.307   1.391
 9209SOL     OW28525   4.333   0.204   3.698
 9209SOL    HW128526   4.313   0.194   3.795
 9209SOL    HW228527   4.266   0.266   3.657
 9210SOL     OW28528   0.776   6.725   0.053
 9210SOL    HW128529   0.787   6.630   0.026
 9210SOL    HW228530   0.734   6.729   0.144
 9211SOL     OW28531   4.614   1.149   6.518
 9211SOL    HW128532   4.607   1.200   6.604
 9211SOL    HW228533   4.709   1.152   6.486
 9212SOL     OW28534   6.218   3.463   5.541
 9212SOL    HW128535   6.200   3.450   5.638
 9212SOL    HW228536   6.316   3.453   5.523
 9213SOL     OW28537   6.447   5.953   1.900
 9213SOL    HW128538   6.379   6.011   1.945
 9213SOL    HW228539   6.539   5.983   1.926
 9214SOL     OW28540   1.734   1.555   6.309
 9214SOL    HW128541   1.754   1.652   6.299
 9214SOL    HW228542   1.690   1.538   6.397
 9215SOL     OW28543   0.144   3.861   3.579
 9215SOL    HW128544   0.162   3.818   3.491
 9215SOL    HW228545   0.174   3.800   3.653
 9216SOL     OW28546   2.300   6.490   3.515
 9216SOL    HW128547   2.262   6.397   3.512
 9216SOL    HW228548   2.226   6.557   3.513
 9217SOL     OW28549   3.826   2.167   0.265
 9217SOL    HW128550   3.806   2.079   0.223
 9217SOL    HW228551   3.805   2.240   0.200
 9218SOL     OW28552   5.161   5.965   5.896
 9218SOL    HW128553   5.114   6.050   5.919
 9218SOL    HW228554   5.179   5.913   5.980
 9219SOL     OW28555   3.502   2.331   5.989
 9219SOL    HW128556   3.480   2.319   6.086
 9219SOL    HW228557   3.496   2.428   5.966
 9220SOL     OW28558   0.557   6.383   3.140
 9220SOL    HW128559   0.517   6.442   3.210
 9220SOL    HW228560   0.497   6.305   3.124
 9221SOL     OW28561   2.690   1.841   1.523
 9221SOL    HW128562   2.759   1.871   1.589
 9221SOL    HW228563   2.730   1.837   1.432
 9222SOL     OW28564   1.542   5.255   3.813
 9222SOL    HW128565   1.589   5.216   3.892
 9222SOL    HW228566   1.468   5.315   3.844
 9223SOL     OW28567   6.841   3.376   4.921
 9223SOL    HW128568   6.891   3.429   4.990
 9223SOL    HW228569   6.792   3.439   4.860
 9224SOL     OW28570   1.831   4.416   2.205
 9224SOL    HW128571   1.770   4.491   2.180
 9224SOL    HW228572   1.840   4.412   2.305
 9225SOL     OW28573   0.348   5.642   6.117
 9225SOL    HW128574   0.424   5.619   6.057
 9225SOL    HW228575   0.381   5.699   6.193
 9226SOL     OW28576   1.097   0.522   5.099
 9226SOL    HW128577   1.082   0.467   5.017
 9226SOL    HW228578   1.009   0.556   5.133
 9227SOL     OW28579   3.660   4.286   0.899
 9227SOL    HW128580   3.577   4.305   0.953
 9227SOL    HW228581   3.689   4.192   0.914
 9228SOL     OW28582   3.935   3.564   4.893
 9228SOL    HW128583   3.849   3.516   4.911
 9228SOL    HW228584   4.009   3.497   4.890
 9229SOL     OW28585   0.243   5.200   0.225
 9229SOL    HW128586   0.286   5.110   0.223
 9229SOL    HW228587   0.307   5.268   0.191
 9230SOL     OW28588   4.387   0.327   5.554
 9230SOL    HW128589   4.459   0.297   5.492
 9230SOL    HW228590   4.385   0.267   5.634
 9231SOL     OW28591   6.190   6.176   1.943
 9231SOL    HW128592   6.090   6.170   1.937
 9231SOL    HW228593   6.227   6.194   1.852
 9232SOL     OW28594   1.323   6.055   2.313
 9232SOL    HW128595   1.249   6.119   2.330
 9232SOL    HW228596   1.297   5.964   2.345
 9233SOL     OW28597   0.820   0.172   5.685
 9233SOL    HW128598   0.752   0.114   5.730
 9233SOL    HW228599   0.774   0.230   5.618
 9234SOL     OW28600   3.361   4.371   6.156
 9234SOL    HW128601   3.376   4.465   6.123
 9234SOL    HW228602   3.383   4.306   6.083
 9235SOL     OW28603   2.373   2.244   2.770
 9235SOL    HW128604   2.455   2.262   2.824
 9235SOL    HW228605   2.292   2.256   2.827
 9236SOL     OW28606   1.149   3.152   6.140
 9236SOL    HW128607   1.141   3.232   6.200
 9236SOL    HW228608   1.169   3.071   6.194
 9237SOL     OW28609   6.335   4.843   3.234
 9237SOL    HW128610   6.309   4.938   3.248
 9237SOL    HW228611   6.429   4.838   3.198
 9238SOL     OW28612   1.461   2.830   4.602
 9238SOL    HW128613   1.529   2.766   4.566
 9238SOL    HW228614   1.505   2.917   4.625
 9239SOL     OW28615   1.657   5.947   6.241
 9239SOL    HW128616   1.739   5.998   6.267
 9239SOL    HW228617   1.678   5.883   6.167
 9240SOL     OW28618   3.757   1.756   3.832
 9240SOL    HW128619   3.743   1.831   3.896
 9240SOL    HW228620   3.830   1.781   3.768
 9241SOL     OW28621   6.000   6.306   0.298
 9241SOL    HW128622   6.054   6.228   0.266
 9241SOL    HW228623   6.060   6.372   0.344
 9242SOL     OW28624   1.902   2.715   1.060
 9242SOL    HW128625   1.861   2.704   0.970
 9242SOL    HW228626   1.975   2.648   1.072
 9243SOL     OW28627   2.161   0.162   0.891
 9243SOL    HW128628   2.171   0.062   0.885
 9243SOL    HW228629   2.133   0.197   0.801
 9244SOL     OW28630   2.361   6.009   6.801
 9244SOL    HW128631   2.302   6.002   6.881
 9244SOL    HW228632   2.456   5.999   6.828
 9245SOL     OW28633   0.990   4.973   3.010
 9245SOL    HW128634   0.891   4.976   3.005
 9245SOL    HW228635   1.022   5.024   3.090
 9246SOL     OW28636   5.212   6.238   6.984
 9246SOL    HW128637   5.169   6.289   6.909
 9246SOL    HW228638   5.155   6.159   7.006
 9247SOL     OW28639   3.485   6.717   2.818
 9247SOL    HW128640   3.524   6.810   2.816
 9247SOL    HW228641   3.386   6.723   2.825
 9248SOL     OW28642   2.917   0.440   6.622
 9248SOL    HW128643   2.920   0.348   6.661
 9248SOL    HW228644   2.835   0.488   6.654
 9249SOL     OW28645   3.066   7.002   0.127
 9249SOL    HW128646   3.057   0.053   0.191
 9249SOL    HW228647   3.151   6.952   0.145
 9250SOL     OW28648   0.198   3.715   3.354
 9250SOL    HW128649   0.277   3.713   3.293
 9250SOL    HW228650   0.164   3.622   3.366
 9251SOL     OW28651   3.339   1.777   1.017
 9251SOL    HW128652   3.343   1.877   1.010
 9251SOL    HW228653   3.394   1.747   1.095
 9252SOL     OW28654   5.623   1.363   4.655
 9252SOL    HW128655   5.625   1.456   4.691
 9252SOL    HW228656   5.551   1.311   4.701
 9253SOL     OW28657   2.492   4.921   4.124
 9253SOL    HW128658   2.567   4.973   4.165
 9253SOL    HW228659   2.407   4.973   4.135
 9254SOL     OW28660   0.023   5.493   2.077
 9254SOL    HW128661   6.988   5.424   2.119
 9254SOL    HW228662   0.086   5.448   2.013
 9255SOL     OW28663   6.020   3.360   0.962
 9255SOL    HW128664   6.075   3.413   0.898
 9255SOL    HW228665   5.938   3.327   0.915
 9256SOL     OW28666   2.517   6.381   1.089
 9256SOL    HW128667   2.425   6.397   1.053
 9256SOL    HW228668   2.528   6.432   1.174
 9257SOL     OW28669   6.429   6.184   4.923
 9257SOL    HW128670   6.488   6.108   4.949
 9257SOL    HW228671   6.483   6.255   4.879
 9258SOL     OW28672   5.107   4.889   2.070
 9258SOL    HW128673   5.092   4.978   2.027
 9258SOL    HW228674   5.039   4.875   2.142
 9259SOL     OW28675   0.446   2.284   6.887
 9259SOL    HW128676   0.445   2.185   6.901
 9259SOL    HW228677   0.366   2.325   6.931
 9260SOL     OW28678   4.876   3.895   4.899
 9260SOL    HW128679   4.842   3.819   4.954
 9260SOL    HW228680   4.898   3.862   4.807
 9261SOL     OW28681   1.503   3.172   1.881
 9261SOL    HW128682   1.431   3.103   1.875
 9261SOL    HW228683   1.529   3.201   1.789
 9262SOL     OW28684   6.822   6.291   6.009
 9262SOL    HW128685   6.907   6.334   5.979
 9262SOL    HW228686   6.840   6.198   6.040
 9263SOL     OW28687   2.516   4.577   2.834
 9263SOL    HW128688   2.476   4.489   2.811
 9263SOL    HW228689   2.513   4.637   2.754
 9264SOL     OW28690   5.166   3.604   5.498
 9264SOL    HW128691   5.139   3.572   5.589
 9264SOL    HW228692   5.261   3.580   5.481
 9265SOL     OW28693   4.817   0.743   1.754
 9265SOL    HW128694   4.805   0.645   1.769
 9265SOL    HW228695   4.756   0.794   1.814
 9266SOL     OW28696   1.524   4.884   0.963
 9266SOL    HW128697   1.568   4.796   0.985
 9266SOL    HW228698   1.556   4.915   0.873
 9267SOL     OW28699   6.693   1.789   3.903
 9267SOL    HW128700   6.753   1.709   3.901
 9267SOL    HW228701   6.749   1.872   3.891
 9268SOL     OW28702   0.735   0.968   1.847
 9268SOL    HW128703   0.650   0.952   1.795
 9268SOL    HW228704   0.786   1.043   1.805
 9269SOL     OW28705   4.332   0.924   0.789
 9269SOL    HW128706   4.427   0.948   0.805
 9269SOL    HW228707   4.296   0.980   0.714
 9270SOL     OW28708   2.723   1.231   5.339
 9270SOL    HW128709   2.640   1.203   5.388
 9270SOL    HW228710   2.702   1.311   5.283
 9271SOL     OW28711   1.392   4.679   5.984
 9271SOL    HW128712   1.487   4.676   6.016
 9271SOL    HW228713   1.387   4.730   5.898
 9272SOL     OW28714   6.161   6.094   5.494
 9272SOL    HW128715   6.203   6.140   5.417
 9272SOL    HW228716   6.156   5.996   5.476
 9273SOL     OW28717   5.438   3.442   4.088
 9273SOL    HW128718   5.366   3.511   4.078
 9273SOL    HW228719   5.396   3.352   4.093
 9274SOL     OW28720   0.196   3.794   0.244
 9274SOL    HW128721   0.279   3.764   0.197
 9274SOL    HW228722   0.136   3.841   0.179
 9275SOL     OW28723   5.795   1.235   0.642
 9275SOL    HW128724   5.879   1.237   0.695
 9275SOL    HW228725   5.730   1.171   0.684
 9276SOL     OW28726   2.293   4.163   0.046
 9276SOL    HW128727   2.310   4.174   0.144
 9276SOL    HW228728   2.204   4.119   0.032
 9277SOL     OW28729   4.418   5.916   2.423
 9277SOL    HW128730   4.441   6.007   2.391
 9277SOL    HW228731   4.411   5.917   2.523
 9278SOL     OW28732   0.593   0.023   5.857
 9278SOL    HW128733   0.567   0.119   5.869
 9278SOL    HW228734   0.642   7.016   5.939
 9279SOL     OW28735   2.548   6.114   1.836
 9279SOL    HW128736   2.473   6.101   1.901
 9279SOL    HW228737   2.554   6.034   1.776
 9280SOL     OW28738   1.224   5.776   2.285
 9280SOL    HW128739   1.172   5.759   2.201
 9280SOL    HW228740   1.305   5.717   2.287
 9281SOL     OW28741   1.674   5.693   0.652
 9281SOL    HW128742   1.606   5.743   0.598
 9281SOL    HW228743   1.629   5.614   0.695
 9282SOL     OW28744   2.707   0.276   4.953
 9282SOL    HW128745   2.771   0.330   4.898
 9282SOL    HW228746   2.708   0.309   5.047
 9283SOL     OW28747   4.779   6.080   0.073
 9283SOL    HW128748   4.681   6.102   0.070
 9283SOL    HW228749   4.796   6.014   0.146
 9284SOL     OW28750   4.000   6.386   0.574
 9284SOL    HW128751   4.019   6.478   0.608
 9284SOL    HW228752   4.020   6.319   0.645
 9285SOL     OW28753   0.042   6.043   3.560
 9285SOL    HW128754   0.046   6.140   3.534
 9285SOL    HW228755   0.133   6.003   3.554
 9286SOL     OW28756   4.918   6.590   1.718
 9286SOL    HW128757   4.897   6.687   1.724
 9286SOL    HW228758   4.868   6.549   1.642
 9287SOL     OW28759   4.145   4.213   6.362
 9287SOL    HW128760   4.049   4.193   6.345
 9287SOL    HW228761   4.170   4.299   6.317
 9288SOL     OW28762   3.746   1.668   2.322
 9288SOL    HW128763   3.726   1.697   2.228
 9288SOL    HW228764   3.675   1.604   2.352
 9289SOL     OW28765   4.415   6.367   1.437
 9289SOL    HW128766   4.354   6.348   1.360
 9289SOL    HW228767   4.453   6.281   1.472
 9290SOL     OW28768   5.691   1.034   3.460
 9290SOL    HW128769   5.683   1.011   3.557
 9290SOL    HW228770   5.690   1.134   3.449
 9291SOL     OW28771   0.535   4.335   5.703
 9291SOL    HW128772   0.445   4.354   5.664
 9291SOL    HW228773   0.594   4.295   5.633
 9292SOL     OW28774   0.687   1.850   6.695
 9292SOL    HW128775   0.672   1.914   6.771
 9292SOL    HW228776   0.716   1.901   6.614
 9293SOL     OW28777   4.619   1.901   5.369
 9293SOL    HW128778   4.714   1.917   5.341
 9293SOL    HW228779   4.602   1.948   5.456
 9294SOL     OW28780   5.031   6.384   6.830
 9294SOL    HW128781   4.981   6.359   6.913
 9294SOL    HW228782   4.977   6.448   6.775
 9295SOL     OW28783   6.302   0.539   3.660
 9295SOL    HW128784   6.275   0.598   3.584
 9295SOL    HW228785   6.393   0.502   3.643
 9296SOL     OW28786   2.197   4.155   5.526
 9296SOL    HW128787   2.287   4.150   5.481
 9296SOL    HW228788   2.205   4.210   5.609
 9297SOL     OW28789   7.001   5.031   2.014
 9297SOL    HW128790   6.977   5.118   2.057
 9297SOL    HW228791   6.944   4.959   2.052
 9298SOL     OW28792   0.058   4.132   6.572
 9298SOL    HW128793   0.098   4.220   6.600
 9298SOL    HW228794   6.993   4.122   6.615
 9299SOL     OW28795   3.000   1.547   4.400
 9299SOL    HW128796   3.094   1.578   4.385
 9299SOL    HW228797   2.943   1.625   4.424
 9300SOL     OW28798   2.291   5.889   5.195
 9300SOL    HW128799   2.363   5.851   5.136
 9300SOL    HW228800   2.246   5.965   5.147
 9301SOL     OW28801   0.876   3.953   3.963
 9301SOL    HW128802   0.841   3.997   4.046
 9301SOL    HW228803   0.905   4.024   3.898
 9302SOL     OW28804   3.151   5.524   4.166
 9302SOL    HW128805   3.075   5.463   4.142
 9302SOL    HW228806   3.119   5.594   4.229
 9303SOL     OW28807   2.714   4.754   0.108
 9303SOL    HW128808   2.739   4.695   0.185
 9303SOL    HW228809   2.787   4.820   0.092
 9304SOL     OW28810   5.469   5.768   6.355
 9304SOL    HW128811   5.528   5.830   6.407
 9304SOL    HW228812   5.436   5.695   6.415
 9305SOL     OW28813   1.529   1.674   1.068
 9305SOL    HW128814   1.439   1.637   1.047
 9305SOL    HW228815   1.595   1.641   1.001
 9306SOL     OW28816   6.776   6.096   4.534
 9306SOL    HW128817   6.770   6.191   4.565
 9306SOL    HW228818   6.737   6.088   4.443
 9307SOL     OW28819   2.078   3.501   1.530
 9307SOL    HW128820   2.054   3.473   1.623
 9307SOL    HW228821   2.174   3.529   1.526
 9308SOL     OW28822   2.344   3.557   1.614
 9308SOL    HW128823   2.324   3.529   1.708
 9308SOL    HW228824   2.373   3.653   1.614
 9309SOL     OW28825   4.617   5.226   6.118
 9309SOL    HW128826   4.585   5.169   6.042
 9309SOL    HW228827   4.675   5.299   6.083
 9310SOL     OW28828   5.950   6.175   5.622
 9310SOL    HW128829   6.019   6.143   5.558
 9310SOL    HW228830   5.869   6.115   5.617
 9311SOL     OW28831   5.708   3.808   0.870
 9311SOL    HW128832   5.795   3.761   0.858
 9311SOL    HW228833   5.725   3.906   0.882
 9312SOL     OW28834   6.639   2.512   3.799
 9312SOL    HW128835   6.723   2.501   3.853
 9312SOL    HW228836   6.576   2.437   3.819
 9313SOL     OW28837   0.232   0.766   2.504
 9313SOL    HW128838   0.195   0.768   2.597
 9313SOL    HW228839   0.315   0.822   2.500
 9314SOL     OW28840   5.186   5.262   1.640
 9314SOL    HW128841   5.153   5.307   1.723
 9314SOL    HW228842   5.126   5.284   1.563
 9315SOL     OW28843   5.694   5.578   5.467
 9315SOL    HW128844   5.608   5.597   5.515
 9315SOL    HW228845   5.710   5.649   5.399
 9316SOL     OW28846   5.247   6.706   1.023
 9316SOL    HW128847   5.335   6.725   1.065
 9316SOL    HW228848   5.258   6.694   0.925
 9317SOL     OW28849   2.072   5.875   4.008
 9317SOL    HW128850   2.159   5.877   3.957
 9317SOL    HW228851   2.047   5.969   4.033
 9318SOL     OW28852   3.198   6.874   2.707
 9318SOL    HW128853   3.161   6.912   2.622
 9318SOL    HW228854   3.203   6.774   2.700
 9319SOL     OW28855   4.123   2.073   0.214
 9319SOL    HW128856   4.076   2.141   0.271
 9319SOL    HW228857   4.222   2.088   0.220
 9320SOL     OW28858   6.610   6.783   6.340
 9320SOL    HW128859   6.527   6.733   6.365
 9320SOL    HW228860   6.688   6.722   6.347
 9321SOL     OW28861   1.083   3.065   4.203
 9321SOL    HW128862   1.110   3.041   4.110
 9321SOL    HW228863   1.064   2.981   4.254
 9322SOL     OW28864   5.145   2.271   0.032
 9322SOL    HW128865   5.149   2.315   6.967
 9322SOL    HW228866   5.153   2.339   0.104
 9323SOL     OW28867   0.474   2.409   5.824
 9323SOL    HW128868   0.424   2.324   5.842
 9323SOL    HW228869   0.484   2.422   5.725
 9324SOL     OW28870   0.476   5.338   1.329
 9324SOL    HW128871   0.569   5.319   1.297
 9324SOL    HW228872   0.427   5.252   1.343
 9325SOL     OW28873   0.960   4.715   3.358
 9325SOL    HW128874   0.914   4.628   3.339
 9325SOL    HW228875   1.018   4.705   3.439
 9326SOL     OW28876   4.855   4.691   0.508
 9326SOL    HW128877   4.838   4.779   0.463
 9326SOL    HW228878   4.882   4.707   0.603
 9327SOL     OW28879   2.999   1.368   3.524
 9327SOL    HW128880   2.963   1.345   3.433
 9327SOL    HW228881   3.037   1.287   3.567
 9328SOL     OW28882   2.070   0.712   3.442
 9328SOL    HW128883   2.005   0.745   3.510
 9328SOL    HW228884   2.023   0.703   3.354
 9329SOL     OW28885   0.991   5.487   6.318
 9329SOL    HW128886   0.963   5.391   6.318
 9329SOL    HW228887   0.995   5.520   6.413
 9330SOL     OW28888   0.867   6.894   0.594
 9330SOL    HW128889   0.838   6.980   0.552
 9330SOL    HW228890   0.887   6.911   0.691
 9331SOL     OW28891   1.936   4.592   4.444
 9331SOL    HW128892   1.980   4.632   4.364
 9331SOL    HW228893   1.888   4.664   4.495
 9332SOL     OW28894   6.732   5.096   0.007
 9332SOL    HW128895   6.668   5.029   6.993
 9332SOL    HW228896   6.794   5.050   0.070
 9333SOL     OW28897   2.748   4.906   1.311
 9333SOL    HW128898   2.739   4.928   1.214
 9333SOL    HW228899   2.841   4.873   1.328
 9334SOL     OW28900   6.888   5.438   6.493
 9334SOL    HW128901   6.938   5.351   6.497
 9334SOL    HW228902   6.878   5.475   6.585
 9335SOL     OW28903   0.110   3.580   0.904
 9335SOL    HW128904   0.119   3.678   0.886
 9335SOL    HW228905   0.175   3.553   0.974
 9336SOL     OW28906   4.861   6.752   5.669
 9336SOL    HW128907   4.938   6.811   5.644
 9336SOL    HW228908   4.825   6.707   5.587
 9337SOL     OW28909   2.660   1.601   5.373
 9337SOL    HW128910   2.712   1.566   5.451
 9337SOL    HW228911   2.685   1.551   5.290
 9338SOL     OW28912   5.305   6.647   0.747
 9338SOL    HW128913   5.381   6.710   0.765
 9338SOL    HW228914   5.340   6.568   0.695
 9339SOL     OW28915   6.811   3.805   5.068
 9339SOL    HW128916   6.843   3.720   5.110
 9339SOL    HW228917   6.717   3.793   5.036
 9340SOL     OW28918   2.510   4.882   2.287
 9340SOL    HW128919   2.525   4.784   2.301
 9340SOL    HW228920   2.507   4.902   2.188
 9341SOL     OW28921   5.729   5.114   6.901
 9341SOL    HW128922   5.755   5.173   6.825
 9341SOL    HW228923   5.706   5.170   6.981
 9342SOL     OW28924   3.123   7.003   5.035
 9342SOL    HW128925   3.026   0.004   5.044
 9342SOL    HW228926   3.155   6.965   5.122
 9343SOL     OW28927   4.790   3.960   1.135
 9343SOL    HW128928   4.709   4.012   1.108
 9343SOL    HW228929   4.774   3.862   1.122
 9344SOL     OW28930   6.026   0.133   4.884
 9344SOL    HW128931   6.058   0.095   4.971
 9344SOL    HW228932   6.102   0.178   4.838
 9345SOL     OW28933   0.174   4.587   6.944
 9345SOL    HW128934   0.199   4.674   6.901
 9345SOL    HW228935   0.256   4.530   6.953
 9346SOL     OW28936   5.127   0.645   2.248
 9346SOL    HW128937   5.164   0.668   2.338
 9346SOL    HW228938   5.057   0.711   2.223
 9347SOL     OW28939   4.841   6.226   1.883
 9347SOL    HW128940   4.927   6.252   1.840
 9347SOL    HW228941   4.817   6.133   1.856
 9348SOL     OW28942   2.375   5.068   2.103
 9348SOL    HW128943   2.295   5.044   2.049
 9348SOL    HW228944   2.458   5.053   2.049
 9349SOL     OW28945   6.415   6.267   1.074
 9349SOL    HW128946   6.378   6.175   1.058
 9349SOL    HW228947   6.349   6.321   1.126
 9350SOL     OW28948   6.540   0.372   0.374
 9350SOL    HW128949   6.496   0.285   0.354
 9350SOL    HW228950   6.482   0.447   0.342
 9351SOL     OW28951   4.122   3.577   6.230
 9351SOL    HW128952   4.210   3.536   6.206
 9351SOL    HW228953   4.136   3.654   6.291
 9352SOL     OW28954   2.889   2.621   6.848
 9352SOL    HW128955   2.871   2.639   6.945
 9352SOL    HW228956   2.987   2.614   6.833
 9353SOL     OW28957   1.301   2.891   1.326
 9353SOL    HW128958   1.261   2.950   1.396
 9353SOL    HW228959   1.250   2.806   1.321
 9354SOL     OW28960   5.443   2.004   1.862
 9354SOL    HW128961   5.527   1.997   1.916
 9354SOL    HW228962   5.390   1.920   1.873
 9355SOL     OW28963   6.849   1.565   2.131
 9355SOL    HW128964   6.770   1.523   2.173
 9355SOL    HW228965   6.922   1.576   2.199
 9356SOL     OW28966   5.697   3.132   2.776
 9356SOL    HW128967   5.764   3.147   2.849
 9356SOL    HW228968   5.681   3.218   2.728
 9357SOL     OW28969   2.491   4.639   0.593
 9357SOL    HW128970   2.526   4.732   0.605
 9357SOL    HW228971   2.477   4.597   0.683
 9358SOL     OW28972   5.261   3.758   2.379
 9358SOL    HW128973   5.316   3.729   2.301
 9358SOL    HW228974   5.234   3.853   2.368
 9359SOL     OW28975   5.153   5.449   5.876
 9359SOL    HW128976   5.215   5.421   5.803
 9359SOL    HW228977   5.190   5.420   5.965
 9360SOL     OW28978   1.145   1.117   5.135
 9360SOL    HW128979   1.193   1.065   5.064
 9360SOL    HW228980   1.211   1.146   5.204
 9361SOL     OW28981   2.357   1.127   2.103
 9361SOL    HW128982   2.306   1.122   2.017
 9361SOL    HW228983   2.356   1.221   2.137
 9362SOL     OW28984   2.158   1.611   3.101
 9362SOL    HW128985   2.108   1.692   3.069
 9362SOL    HW228986   2.106   1.529   3.079
 9363SOL     OW28987   1.600   6.381   2.110
 9363SOL    HW128988   1.673   6.448   2.126
 9363SOL    HW228989   1.639   6.289   2.113
 9364SOL     OW28990   5.584   4.569   1.094
 9364SOL    HW128991   5.485   4.556   1.095
 9364SOL    HW228992   5.605   4.664   1.070
 9365SOL     OW28993   2.480   0.684   4.410
 9365SOL    HW128994   2.488   0.784   4.408
 9365SOL    HW228995   2.546   0.647   4.475
 9366SOL     OW28996   3.123   0.993   1.952
 9366SOL    HW128997   3.211   1.042   1.954
 9366SOL    HW228998   3.118   0.938   1.869
 9367SOL     OW28999   6.413   6.043   4.354
 9367SOL    HW129000   6.418   6.017   4.450
 9367SOL    HW229001   6.505   6.066   4.321
 9368SOL     OW29002   4.383   2.983   0.802
 9368SOL    HW129003   4.400   2.994   0.704
 9368SOL    HW229004   4.294   3.021   0.825
 9369SOL     OW29005   0.127   2.506   5.729
 9369SOL    HW129006   0.076   2.544   5.807
 9369SOL    HW229007   0.221   2.541   5.730
 9370SOL     OW29008   6.276   5.824   3.276
 9370SOL    HW129009   6.214   5.758   3.320
 9370SOL    HW229010   6.250   5.917   3.304
 9371SOL     OW29011   1.017   6.767   0.376
 9371SOL    HW129012   0.945   6.784   0.444
 9371SOL    HW229013   0.999   6.680   0.330
 9372SOL     OW29014   5.844   6.635   0.265
 9372SOL    HW129015   5.824   6.553   0.318
 9372SOL    HW229016   5.940   6.632   0.234
 9373SOL     OW29017   4.896   2.521   4.435
 9373SOL    HW129018   4.821   2.554   4.493
 9373SOL    HW229019   4.866   2.441   4.384
 9374SOL     OW29020   4.955   4.296   0.492
 9374SOL    HW129021   4.934   4.266   0.585
 9374SOL    HW229022   5.049   4.328   0.487
 9375SOL     OW29023   6.925   1.614   3.887
 9375SOL    HW129024   6.936   1.534   3.828
 9375SOL    HW229025   6.947   1.696   3.835
 9376SOL     OW29026   1.849   2.862   1.621
 9376SOL    HW129027   1.850   2.928   1.695
 9376SOL    HW229028   1.924   2.882   1.557
 9377SOL     OW29029   6.162   5.334   2.564
 9377SOL    HW129030   6.107   5.253   2.543
 9377SOL    HW229031   6.229   5.311   2.634
 9378SOL     OW29032   3.266   5.967   1.363
 9378SOL    HW129033   3.331   5.895   1.337
 9378SOL    HW229034   3.316   6.052   1.378
 9379SOL     OW29035   5.933   4.539   5.090
 9379SOL    HW129036   5.969   4.454   5.052
 9379SOL    HW229037   5.982   4.617   5.050
 9380SOL     OW29038   5.806   5.675   6.155
 9380SOL    HW129039   5.881   5.710   6.098
 9380SOL    HW229040   5.839   5.597   6.208
 9381SOL     OW29041   1.581   0.789   0.569
 9381SOL    HW129042   1.593   0.783   0.668
 9381SOL    HW229043   1.594   0.698   0.529
 9382SOL     OW29044   5.657   2.029   2.042
 9382SOL    HW129045   5.640   2.126   2.024
 9382SOL    HW229046   5.641   2.009   2.139
 9383SOL     OW29047   6.113   5.113   5.779
 9383SOL    HW129048   6.207   5.080   5.771
 9383SOL    HW229049   6.113   5.213   5.778
 9384SOL     OW29050   3.543   6.424   2.820
 9384SOL    HW129051   3.507   6.515   2.797
 9384SOL    HW229052   3.640   6.421   2.800
 9385SOL     OW29053   3.870   0.730   4.255
 9385SOL    HW129054   3.886   0.782   4.171
 9385SOL    HW229055   3.812   0.651   4.234
 9386SOL     OW29056   4.110   0.371   5.474
 9386SOL    HW129057   4.076   0.453   5.427
 9386SOL    HW229058   4.209   0.375   5.480
 9387SOL     OW29059   3.923   6.483   0.904
 9387SOL    HW129060   3.878   6.568   0.929
 9387SOL    HW229061   3.855   6.415   0.877
 9388SOL     OW29062   6.247   6.775   2.299
 9388SOL    HW129063   6.270   6.801   2.205
 9388SOL    HW229064   6.147   6.769   2.307
 9389SOL     OW29065   3.521   1.395   6.985
 9389SOL    HW129066   3.428   1.423   7.011
 9389SOL    HW229067   3.572   1.475   6.954
 9390SOL     OW29068   2.550   5.920   1.638
 9390SOL    HW129069   2.641   5.880   1.625
 9390SOL    HW229070   2.480   5.851   1.616
 9391SOL     OW29071   6.862   1.046   5.550
 9391SOL    HW129072   6.959   1.027   5.534
 9391SOL    HW229073   6.841   1.139   5.522
 9392SOL     OW29074   1.300   6.664   4.511
 9392SOL    HW129075   1.286   6.668   4.610
 9392SOL    HW229076   1.348   6.747   4.481
 9393SOL     OW29077   3.942   2.066   5.295
 9393SOL    HW129078   3.880   2.145   5.296
 9393SOL    HW229079   3.889   1.982   5.290
 9394SOL     OW29080   5.266   2.778   1.709
 9394SOL    HW129081   5.220   2.859   1.672
 9394SOL    HW229082   5.247   2.700   1.650
 9395SOL     OW29083   2.013   3.133   6.196
 9395SOL    HW129084   1.987   3.052   6.144
 9395SOL    HW229085   2.046   3.204   6.134
 9396SOL     OW29086   6.313   0.275   6.931
 9396SOL    HW129087   6.297   0.266   6.833
 9396SOL    HW229088   6.229   0.304   6.977
 9397SOL     OW29089   2.751   1.551   1.387
 9397SOL    HW129090   2.835   1.519   1.431
 9397SOL    HW229091   2.759   1.649   1.367
 9398SOL     OW29092   2.243   1.461   1.026
 9398SOL    HW129093   2.186   1.411   0.961
 9398SOL    HW229094   2.334   1.420   1.029
 9399SOL     OW29095   6.777   0.691   5.302
 9399SOL    HW129096   6.714   0.632   5.353
 9399SOL    HW229097   6.870   0.677   5.336
 9400SOL     OW29098   3.973   2.201   3.266
 9400SOL    HW129099   3.914   2.281   3.267
 9400SOL    HW229100   4.067   2.229   3.248
 9401SOL     OW29101   4.265   0.364   3.307
 9401SOL    HW129102   4.312   0.452   3.303
 9401SOL    HW229103   4.216   0.348   3.221
 9402SOL     OW29104   1.976   5.079   0.525
 9402SOL    HW129105   2.063   5.050   0.563
 9402SOL    HW229106   1.906   5.010   0.545
 9403SOL     OW29107   5.838   0.750   5.100
 9403SOL    HW129108   5.740   0.750   5.122
 9403SOL    HW229109   5.851   0.714   5.007
 9404SOL     OW29110   1.285   4.221   5.472
 9404SOL    HW129111   1.361   4.157   5.459
 9404SOL    HW229112   1.316   4.314   5.451
 9405SOL     OW29113   6.962   0.443   0.819
 9405SOL    HW129114   6.914   0.412   0.901
 9405SOL    HW229115   6.896   0.464   0.747
 9406SOL     OW29116   6.604   1.118   5.668
 9406SOL    HW129117   6.541   1.142   5.594
 9406SOL    HW229118   6.691   1.088   5.629
 9407SOL     OW29119   3.667   6.111   2.993
 9407SOL    HW129120   3.572   6.113   2.960
 9407SOL    HW229121   3.723   6.056   2.930
 9408SOL     OW29122   4.047   2.117   6.670
 9408SOL    HW129123   4.114   2.108   6.596
 9408SOL    HW229124   4.095   2.117   6.758
 9409SOL     OW29125   6.127   3.257   3.423
 9409SOL    HW129126   6.088   3.215   3.505
 9409SOL    HW229127   6.198   3.197   3.386
 9410SOL     OW29128   4.587   6.375   2.042
 9410SOL    HW129129   4.574   6.425   1.957
 9410SOL    HW229130   4.678   6.335   2.044
 9411SOL     OW29131   4.934   5.591   1.383
 9411SOL    HW129132   5.008   5.649   1.349
 9411SOL    HW229133   4.864   5.583   1.312
 9412SOL     OW29134   6.259   3.005   1.982
 9412SOL    HW129135   6.349   2.986   2.021
 9412SOL    HW229136   6.209   3.066   2.044
 9413SOL     OW29137   3.530   5.323   4.133
 9413SOL    HW129138   3.551   5.272   4.050
 9413SOL    HW229139   3.438   5.300   4.163
 9414SOL     OW29140   2.507   0.964   2.272
 9414SOL    HW129141   2.523   1.018   2.355
 9414SOL    HW229142   2.437   1.008   2.216
 9415SOL     OW29143   2.776   0.976   2.171
 9415SOL    HW129144   2.838   0.988   2.248
 9415SOL    HW229145   2.681   0.984   2.203
 9416SOL     OW29146   1.590   1.971   1.167
 9416SOL    HW129147   1.666   2.006   1.222
 9416SOL    HW229148   1.609   1.876   1.142
 9417SOL     OW29149   2.129   0.501   4.485
 9417SOL    HW129150   2.206   0.501   4.420
 9417SOL    HW229151   2.138   0.422   4.546
 9418SOL     OW29152   3.967   4.335   1.288
 9418SOL    HW129153   3.878   4.292   1.274
 9418SOL    HW229154   4.032   4.300   1.221
 9419SOL     OW29155   3.520   5.661   4.404
 9419SOL    HW129156   3.574   5.577   4.413
 9419SOL    HW229157   3.537   5.700   4.313
 9420SOL     OW29158   1.199   1.570   4.525
 9420SOL    HW129159   1.162   1.547   4.435
 9420SOL    HW229160   1.299   1.565   4.522
 9421SOL     OW29161   1.675   5.020   4.537
 9421SOL    HW129162   1.722   4.935   4.564
 9421SOL    HW229163   1.739   5.096   4.540
 9422SOL     OW29164   4.244   1.103   2.779
 9422SOL    HW129165   4.221   1.139   2.689
 9422SOL    HW229166   4.343   1.092   2.787
 9423SOL     OW29167   4.802   0.148   4.777
 9423SOL    HW129168   4.753   0.180   4.695
 9423SOL    HW229169   4.744   0.162   4.857
 9424SOL     OW29170   3.172   6.196   4.295
 9424SOL    HW129171   3.176   6.255   4.215
 9424SOL    HW229172   3.169   6.100   4.266
 9425SOL     OW29173   1.216   4.790   3.229
 9425SOL    HW129174   1.278   4.732   3.177
 9425SOL    HW229175   1.137   4.736   3.258
 9426SOL     OW29176   3.675   6.394   0.815
 9426SOL    HW129177   3.687   6.449   0.733
 9426SOL    HW229178   3.611   6.440   0.877
 9427SOL     OW29179   3.240   4.844   4.265
 9427SOL    HW129180   3.155   4.880   4.302
 9427SOL    HW229181   3.241   4.854   4.166
 9428SOL     OW29182   4.742   6.077   2.308
 9428SOL    HW129183   4.759   5.979   2.313
 9428SOL    HW229184   4.824   6.124   2.277
 9429SOL     OW29185   6.700   3.262   2.367
 9429SOL    HW129186   6.754   3.234   2.287
 9429SOL    HW229187   6.639   3.188   2.393
 9430SOL     OW29188   5.726   0.178   1.992
 9430SOL    HW129189   5.790   0.197   2.068
 9430SOL    HW229190   5.720   0.259   1.934
 9431SOL     OW29191   6.364   3.950   1.097
 9431SOL    HW129192   6.323   3.909   1.178
 9431SOL    HW229193   6.292   3.971   1.031
 9432SOL     OW29194   6.727   6.905   4.455
 9432SOL    HW129195   6.733   6.861   4.545
 9432SOL    HW229196   6.761   6.843   4.385
 9433SOL     OW29197   3.385   4.991   4.698
 9433SOL    HW129198   3.333   5.005   4.782
 9433SOL    HW229199   3.472   5.040   4.705
 9434SOL     OW29200   5.310   4.655   2.905
 9434SOL    HW129201   5.211   4.654   2.920
 9434SOL    HW229202   5.353   4.717   2.972
 9435SOL     OW29203   1.921   1.821   5.082
 9435SOL    HW129204   2.017   1.846   5.095
 9435SOL    HW229205   1.916   1.734   5.034
 9436SOL     OW29206   2.273   2.322   6.198
 9436SOL    HW129207   2.294   2.230   6.229
 9436SOL    HW229208   2.338   2.350   6.127
 9437SOL     OW29209   0.709   5.107   3.946
 9437SOL    HW129210   0.758   5.191   3.923
 9437SOL    HW229211   0.643   5.125   4.019
 9438SOL     OW29212   0.565   6.909   2.218
 9438SOL    HW129213   0.508   6.860   2.283
 9438SOL    HW229214   0.637   6.849   2.184
 9439SOL     OW29215   1.559   3.153   1.580
 9439SOL    HW129216   1.523   3.223   1.519
 9439SOL    HW229217   1.491   3.081   1.592
 9440SOL     OW29218   4.572   6.129   5.091
 9440SOL    HW129219   4.667   6.128   5.124
 9440SOL    HW229220   4.552   6.043   5.045
 9441SOL     OW29221   1.939   5.678   5.221
 9441SOL    HW129222   1.971   5.670   5.127
 9441SOL    HW229223   1.899   5.591   5.250
 9442SOL     OW29224   0.679   3.713   1.340
 9442SOL    HW129225   0.625   3.778   1.393
 9442SOL    HW229226   0.747   3.670   1.399
 9443SOL     OW29227   2.176   3.305   1.206
 9443SOL    HW129228   2.215   3.227   1.158
 9443SOL    HW229229   2.196   3.299   1.303
 9444SOL     OW29230   0.626   4.096   5.867
 9444SOL    HW129231   0.619   4.185   5.822
 9444SOL    HW229232   0.717   4.058   5.852
 9445SOL     OW29233   6.131   3.369   1.391
 9445SOL    HW129234   6.078   3.320   1.322
 9445SOL    HW229235   6.204   3.421   1.346
 9446SOL     OW29236   6.063   4.881   0.892
 9446SOL    HW129237   6.072   4.843   0.984
 9446SOL    HW229238   6.075   4.980   0.895
 9447SOL     OW29239   6.167   2.463   1.477
 9447SOL    HW129240   6.200   2.371   1.455
 9447SOL    HW229241   6.217   2.530   1.422
 9448SOL     OW29242   6.288   6.190   0.479
 9448SOL    HW129243   6.368   6.194   0.420
 9448SOL    HW229244   6.262   6.282   0.507
 9449SOL     OW29245   6.686   5.223   5.289
 9449SOL    HW129246   6.758   5.288   5.261
 9449SOL    HW229247   6.726   5.154   5.350
 9450SOL     OW29248   2.834   5.624   4.288
 9450SOL    HW129249   2.775   5.692   4.331
 9450SOL    HW229250   2.930   5.652   4.296
 9451SOL     OW29251   4.235   4.242   5.503
 9451SOL    HW129252   4.211   4.308   5.432
 9451SOL    HW229253   4.295   4.285   5.570
 9452SOL     OW29254   2.675   4.417   1.384
 9452SOL    HW129255   2.673   4.495   1.321
 9452SOL    HW229256   2.698   4.449   1.476
 9453SOL     OW29257   2.847   5.396   1.723
 9453SOL    HW129258   2.925   5.338   1.697
 9453SOL    HW229259   2.829   5.462   1.650
 9454SOL     OW29260   1.953   1.781   5.494
 9454SOL    HW129261   1.887   1.851   5.467
 9454SOL    HW229262   1.960   1.712   5.423
 9455SOL     OW29263   2.475   2.412   2.185
 9455SOL    HW129264   2.553   2.377   2.236
 9455SOL    HW229265   2.431   2.338   2.134
 9456SOL     OW29266   1.324   3.707   0.671
 9456SOL    HW129267   1.372   3.794   0.659
 9456SOL    HW229268   1.365   3.637   0.612
 9457SOL     OW29269   6.760   3.412   0.692
 9457SOL    HW129270   6.781   3.502   0.731
 9457SOL    HW229271   6.695   3.364   0.750
 9458SOL     OW29272   0.777   5.543   4.194
 9458SOL    HW129273   0.689   5.496   4.205
 9458SOL    HW229274   0.846   5.497   4.251
 9459SOL     OW29275   4.221   6.078   1.643
 9459SOL    HW129276   4.125   6.068   1.614
 9459SOL    HW229277   4.230   6.161   1.698
 9460SOL     OW29278   1.034   2.672   5.334
 9460SOL    HW129279   0.964   2.631   5.394
 9460SOL    HW229280   1.121   2.625   5.348
 9461SOL     OW29281   1.530   0.737   2.724
 9461SOL    HW129282   1.498   0.673   2.794
 9461SOL    HW229283   1.625   0.762   2.742
 9462SOL     OW29284   0.099   3.550   2.995
 9462SOL    HW129285   0.135   3.561   3.088
 9462SOL    HW229286   7.024   3.555   2.996
 9463SOL     OW29287   5.551   1.879   6.660
 9463SOL    HW129288   5.544   1.977   6.638
 9463SOL    HW229289   5.566   1.868   6.758
 9464SOL     OW29290   4.601   7.010   5.980
 9464SOL    HW129291   4.678   6.954   6.011
 9464SOL    HW229292   4.569   0.043   6.055
 9465SOL     OW29293   5.814   0.138   4.207
 9465SOL    HW129294   5.862   0.222   4.182
 9465SOL    HW229295   5.788   0.143   4.304
 9466SOL     OW29296   2.427   2.127   0.166
 9466SOL    HW129297   2.379   2.040   0.177
 9466SOL    HW229298   2.506   2.114   0.105
 9467SOL     OW29299   2.090   3.280   2.015
 9467SOL    HW129300   2.138   3.366   2.034
 9467SOL    HW229301   2.109   3.214   2.088
 9468SOL     OW29302   0.371   2.659   6.239
 9468SOL    HW129303   0.325   2.612   6.163
 9468SOL    HW229304   0.385   2.756   6.215
 9469SOL     OW29305   6.371   3.987   2.647
 9469SOL    HW129306   6.326   4.063   2.602
 9469SOL    HW229307   6.325   3.967   2.734
 9470SOL     OW29308   5.841   3.415   1.501
 9470SOL    HW129309   5.924   3.387   1.452
 9470SOL    HW229310   5.855   3.403   1.599
 9471SOL     OW29311   0.537   2.698   5.875
 9471SOL    HW129312   0.520   2.602   5.852
 9471SOL    HW229313   0.614   2.704   5.939
 9472SOL     OW29314   6.718   2.546   4.652
 9472SOL    HW129315   6.658   2.541   4.731
 9472SOL    HW229316   6.665   2.529   4.568
 9473SOL     OW29317   4.035   5.350   4.671
 9473SOL    HW129318   3.939   5.379   4.670
 9473SOL    HW229319   4.078   5.382   4.755
 9474SOL     OW29320   3.773   5.317   3.681
 9474SOL    HW129321   3.749   5.220   3.690
 9474SOL    HW229322   3.863   5.325   3.639
 9475SOL     OW29323   1.591   3.290   1.265
 9475SOL    HW129324   1.549   3.340   1.340
 9475SOL    HW229325   1.645   3.214   1.301
 9476SOL     OW29326   3.866   3.615   5.335
 9476SOL    HW129327   3.955   3.576   5.361
 9476SOL    HW229328   3.793   3.550   5.360
 9477SOL     OW29329   0.431   2.477   1.153
 9477SOL    HW129330   0.476   2.566   1.154
 9477SOL    HW229331   0.334   2.489   1.134
 9478SOL     OW29332   5.199   4.260   5.428
 9478SOL    HW129333   5.158   4.186   5.481
 9478SOL    HW229334   5.232   4.224   5.341
 9479SOL     OW29335   6.297   5.710   5.206
 9479SOL    HW129336   6.268   5.669   5.292
 9479SOL    HW229337   6.339   5.799   5.224
 9480SOL     OW29338   5.868   4.061   6.618
 9480SOL    HW129339   5.801   3.987   6.622
 9480SOL    HW229340   5.955   4.027   6.585
 9481SOL     OW29341   6.221   3.390   2.566
 9481SOL    HW129342   6.294   3.427   2.623
 9481SOL    HW229343   6.241   3.295   2.543
 9482SOL     OW29344   4.489   0.019   2.593
 9482SOL    HW129345   4.498   6.976   2.666
 9482SOL    HW229346   4.559   0.003   2.524
 9483SOL     OW29347   1.889   1.698   0.719
 9483SOL    HW129348   1.942   1.622   0.682
 9483SOL    HW229349   1.938   1.784   0.703
 9484SOL     OW29350   6.074   1.101   2.536
 9484SOL    HW129351   5.993   1.063   2.580
 9484SOL    HW229352   6.155   1.051   2.567
 9485SOL     OW29353   1.085   0.634   2.901
 9485SOL    HW129354   1.119   0.718   2.860
 9485SOL    HW229355   1.118   0.555   2.849
 9486SOL     OW29356   2.539   5.659   2.405
 9486SOL    HW129357   2.532   5.669   2.306
 9486SOL    HW229358   2.597   5.732   2.442
 9487SOL     OW29359   3.471   2.975   3.486
 9487SOL    HW129360   3.400   2.934   3.543
 9487SOL    HW229361   3.431   3.046   3.429
 9488SOL     OW29362   0.893   1.077   1.655
 9488SOL    HW129363   0.975   1.080   1.713
 9488SOL    HW229364   0.904   1.004   1.587
 9489SOL     OW29365   3.439   4.411   0.626
 9489SOL    HW129366   3.535   4.439   0.629
 9489SOL    HW229367   3.428   4.325   0.675
 9490SOL     OW29368   5.614   1.417   0.171
 9490SOL    HW129369   5.670   1.380   0.245
 9490SOL    HW229370   5.655   1.503   0.138
 9491SOL     OW29371   6.848   5.027   5.453
 9491SOL    HW129372   6.784   4.951   5.462
 9491SOL    HW229373   6.879   5.055   5.544
 9492SOL     OW29374   2.801   4.167   1.473
 9492SOL    HW129375   2.810   4.252   1.423
 9492SOL    HW229376   2.854   4.171   1.558
 9493SOL     OW29377   5.780   6.484   2.745
 9493SOL    HW129378   5.827   6.522   2.666
 9493SOL    HW229379   5.683   6.507   2.741
 9494SOL     OW29380   3.469   3.223   5.963
 9494SOL    HW129381   3.427   3.228   6.053
 9494SOL    HW229382   3.519   3.137   5.954
 9495SOL     OW29383   5.600   2.431   4.897
 9495SOL    HW129384   5.648   2.420   4.984
 9495SOL    HW229385   5.509   2.470   4.913
 9496SOL     OW29386   5.511   3.917   0.177
 9496SOL    HW129387   5.578   3.990   0.189
 9496SOL    HW229388   5.550   3.844   0.120
 9497SOL     OW29389   0.145   6.633   5.865
 9497SOL    HW129390   0.110   6.603   5.954
 9497SOL    HW229391   0.197   6.718   5.877
 9498SOL     OW29392   4.028   6.889   5.792
 9498SOL    HW129393   4.025   6.880   5.692
 9498SOL    HW229394   4.115   6.856   5.827
 9499SOL     OW29395   4.615   4.230   6.266
 9499SOL    HW129396   4.645   4.309   6.213
 9499SOL    HW229397   4.517   4.215   6.252
 9500SOL     OW29398   4.968   5.557   2.002
 9500SOL    HW129399   4.987   5.536   2.097
 9500SOL    HW229400   4.960   5.656   1.991
 9501SOL     OW29401   3.281   1.704   4.814
 9501SOL    HW129402   3.212   1.726   4.883
 9501SOL    HW229403   3.248   1.630   4.756
 9502SOL     OW29404   4.958   3.575   5.771
 9502SOL    HW129405   5.056   3.560   5.785
 9502SOL    HW229406   4.909   3.488   5.780
 9503SOL     OW29407   1.060   6.999   0.817
 9503SOL    HW129408   1.030   0.002   0.908
 9503SOL    HW229409   1.057   0.053   0.755
 9504SOL     OW29410   0.931   3.378   6.939
 9504SOL    HW129411   0.885   3.456   6.896
 9504SOL    HW229412   0.906   3.294   6.890
 9505SOL     OW29413   4.902   3.599   2.892
 9505SOL    HW129414   4.929   3.571   2.984
 9505SOL    HW229415   4.839   3.677   2.897
 9506SOL     OW29416   6.119   2.691   0.665
 9506SOL    HW129417   6.049   2.630   0.627
 9506SOL    HW229418   6.198   2.693   0.604
 9507SOL     OW29419   0.821   2.077   4.114
 9507SOL    HW129420   0.869   2.133   4.047
 9507SOL    HW229421   0.746   2.029   4.069
 9508SOL     OW29422   5.093   2.079   6.694
 9508SOL    HW129423   5.113   1.987   6.725
 9508SOL    HW229424   5.178   2.132   6.688
 9509SOL     OW29425   2.682   6.324   5.454
 9509SOL    HW129426   2.701   6.261   5.378
 9509SOL    HW229427   2.761   6.384   5.467
 9510SOL     OW29428   6.587   4.259   3.296
 9510SOL    HW129429   6.683   4.280   3.281
 9510SOL    HW229430   6.532   4.340   3.276
 9511SOL     OW29431   1.773   1.019   1.030
 9511SOL    HW129432   1.760   1.116   1.052
 9511SOL    HW229433   1.804   0.970   1.111
 9512SOL     OW29434   1.394   2.471   4.498
 9512SOL    HW129435   1.431   2.404   4.433
 9512SOL    HW229436   1.313   2.515   4.459
 9513SOL     OW29437   2.381   4.323   3.963
 9513SOL    HW129438   2.324   4.241   3.960
 9513SOL    HW229439   2.396   4.350   4.058
 9514SOL     OW29440   2.632   2.889   6.362
 9514SOL    HW129441   2.589   2.812   6.314
 9514SOL    HW229442   2.654   2.861   6.455
 9515SOL     OW29443   2.473   5.419   5.548
 9515SOL    HW129444   2.434   5.462   5.467
 9515SOL    HW229445   2.572   5.433   5.548
 9516SOL     OW29446   5.271   3.959   4.721
 9516SOL    HW129447   5.320   3.996   4.800
 9516SOL    HW229448   5.323   3.974   4.638
 9517SOL     OW29449   0.749   5.814   1.591
 9517SOL    HW129450   0.754   5.794   1.688
 9517SOL    HW229451   0.842   5.827   1.555
 9518SOL     OW29452   0.859   3.041   5.486
 9518SOL    HW129453   0.956   3.037   5.509
 9518SOL    HW229454   0.807   2.979   5.545
 9519SOL     OW29455   3.978   3.177   3.438
 9519SOL    HW129456   3.974   3.117   3.358
 9519SOL    HW229457   3.953   3.125   3.520
 9520SOL     OW29458   5.378   0.530   6.364
 9520SOL    HW129459   5.441   0.477   6.421
 9520SOL    HW229460   5.298   0.555   6.418
 9521SOL     OW29461   3.469   1.077   1.030
 9521SOL    HW129462   3.532   1.020   0.977
 9521SOL    HW229463   3.415   1.134   0.967
 9522SOL     OW29464   3.109   6.015   2.031
 9522SOL    HW129465   3.189   6.020   1.972
 9522SOL    HW229466   3.137   5.994   2.124
 9523SOL     OW29467   2.676   4.683   3.971
 9523SOL    HW129468   2.773   4.706   3.958
 9523SOL    HW229469   2.654   4.682   4.068
 9524SOL     OW29470   2.317   4.095   1.033
 9524SOL    HW129471   2.285   4.035   1.106
 9524SOL    HW229472   2.406   4.133   1.058
 9525SOL     OW29473   2.523   3.270   5.363
 9525SOL    HW129474   2.513   3.185   5.311
 9525SOL    HW229475   2.472   3.343   5.317
 9526SOL     OW29476   5.396   4.765   6.997
 9526SOL    HW129477   5.465   4.693   6.998
 9526SOL    HW229478   5.435   4.849   6.958
 9527SOL     OW29479   4.372   6.620   3.946
 9527SOL    HW129480   4.304   6.692   3.933
 9527SOL    HW229481   4.368   6.556   3.869
 9528SOL     OW29482   5.295   2.197   0.329
 9528SOL    HW129483   5.281   2.293   0.303
 9528SOL    HW229484   5.392   2.183   0.351
 9529SOL     OW29485   5.971   1.264   1.573
 9529SOL    HW129486   6.027   1.188   1.541
 9529SOL    HW229487   5.998   1.289   1.665
 9530SOL     OW29488   1.667   5.766   3.802
 9530SOL    HW129489   1.626   5.821   3.875
 9530SOL    HW229490   1.659   5.669   3.825
 9531SOL     OW29491   3.526   5.632   2.379
 9531SOL    HW129492   3.524   5.685   2.464
 9531SOL    HW229493   3.548   5.537   2.400
 9532SOL     OW29494   6.484   5.130   3.429
 9532SOL    HW129495   6.537   5.151   3.346
 9532SOL    HW229496   6.537   5.068   3.487
 9533SOL     OW29497   1.662   3.585   3.577
 9533SOL    HW129498   1.629   3.645   3.504
 9533SOL    HW229499   1.636   3.622   3.666
 9534SOL     OW29500   5.399   5.190   4.553
 9534SOL    HW129501   5.358   5.274   4.588
 9534SOL    HW229502   5.497   5.192   4.569
 9535SOL     OW29503   0.382   1.739   5.062
 9535SOL    HW129504   0.433   1.723   4.978
 9535SOL    HW229505   0.300   1.794   5.041
 9536SOL     OW29506   3.267   3.925   5.212
 9536SOL    HW129507   3.202   3.852   5.190
 9536SOL    HW229508   3.360   3.889   5.212
 9537SOL     OW29509   0.007   1.957   4.161
 9537SOL    HW129510   0.095   2.004   4.160
 9537SOL    HW229511   0.007   1.888   4.233
 9538SOL     OW29512   5.199   0.071   5.059
 9538SOL    HW129513   5.269   0.049   5.127
 9538SOL    HW229514   5.226   0.154   5.009
 9539SOL     OW29515   3.242   3.586   2.247
 9539SOL    HW129516   3.207   3.627   2.332
 9539SOL    HW229517   3.200   3.496   2.234
 9540SOL     OW29518   4.624   5.100   3.078
 9540SOL    HW129519   4.607   5.003   3.094
 9540SOL    HW229520   4.608   5.122   2.982
 9541SOL     OW29521   2.322   5.541   5.344
 9541SOL    HW129522   2.315   5.545   5.244
 9541SOL    HW229523   2.250   5.481   5.379
 9542SOL     OW29524   6.336   4.292   4.344
 9542SOL    HW129525   6.252   4.299   4.290
 9542SOL    HW229526   6.353   4.379   4.390
 9543SOL     OW29527   2.615   6.948   5.998
 9543SOL    HW129528   2.678   6.954   6.076
 9543SOL    HW229529   2.555   0.003   5.997
 9544SOL     OW29530   5.876   3.199   4.632
 9544SOL    HW129531   5.898   3.110   4.671
 9544SOL    HW229532   5.928   3.270   4.679
 9545SOL     OW29533   0.095   4.324   2.035
 9545SOL    HW129534   0.161   4.392   2.067
 9545SOL    HW229535   0.106   4.239   2.087
 9546SOL     OW29536   2.734   3.008   0.551
 9546SOL    HW129537   2.686   3.005   0.463
 9546SOL    HW229538   2.772   2.918   0.571
 9547SOL     OW29539   4.109   6.787   3.574
 9547SOL    HW129540   4.039   6.810   3.507
 9547SOL    HW229541   4.080   6.706   3.625
 9548SOL     OW29542   1.257   5.053   0.043
 9548SOL    HW129543   1.342   5.007   0.016
 9548SOL    HW229544   1.193   4.985   0.079
 9549SOL     OW29545   4.753   1.850   0.818
 9549SOL    HW129546   4.656   1.857   0.794
 9549SOL    HW229547   4.809   1.872   0.739
 9550SOL     OW29548   5.246   3.371   1.541
 9550SOL    HW129549   5.252   3.421   1.628
 9550SOL    HW229550   5.244   3.273   1.559
 9551SOL     OW29551   6.192   3.544   6.395
 9551SOL    HW129552   6.259   3.508   6.460
 9551SOL    HW229553   6.173   3.474   6.326
 9552SOL     OW29554   3.129   1.502   6.916
 9552SOL    HW129555   3.117   1.597   6.890
 9552SOL    HW229556   3.139   1.446   6.833
 9553SOL     OW29557   5.322   1.461   6.480
 9553SOL    HW129558   5.354   1.379   6.431
 9553SOL    HW229559   5.398   1.524   6.493
 9554SOL     OW29560   3.317   0.984   4.065
 9554SOL    HW129561   3.389   1.049   4.041
 9554SOL    HW229562   3.340   0.938   4.151
 9555SOL     OW29563   6.785   0.134   3.810
 9555SOL    HW129564   6.787   0.063   3.881
 9555SOL    HW229565   6.878   0.151   3.778
 9556SOL     OW29566   2.053   4.745   6.535
 9556SOL    HW129567   2.151   4.728   6.522
 9556SOL    HW229568   2.002   4.660   6.519
 9557SOL     OW29569   5.350   0.718   2.087
 9557SOL    HW129570   5.257   0.680   2.086
 9557SOL    HW229571   5.372   0.754   1.997
 9558SOL     OW29572   4.888   6.702   6.780
 9558SOL    HW129573   4.924   6.709   6.687
 9558SOL    HW229574   4.923   6.778   6.835
 9559SOL     OW29575   1.934   4.186   6.955
 9559SOL    HW129576   1.849   4.178   7.007
 9559SOL    HW229577   1.923   4.143   6.866
 9560SOL     OW29578   3.117   7.005   2.485
 9560SOL    HW129579   3.134   6.937   2.413
 9560SOL    HW229580   3.159   0.067   2.460
 9561SOL     OW29581   0.672   0.803   0.392
 9561SOL    HW129582   0.748   0.867   0.392
 9561SOL    HW229583   0.697   0.721   0.341
 9562SOL     OW29584   2.659   6.301   2.865
 9562SOL    HW129585   2.592   6.232   2.895
 9562SOL    HW229586   2.617   6.391   2.868
 9563SOL     OW29587   0.342   5.956   6.929
 9563SOL    HW129588   0.332   5.997   6.838
 9563SOL    HW229589   0.280   6.001   6.993
 9564SOL     OW29590   1.911   0.854   0.001
 9564SOL    HW129591   1.846   0.782   0.025
 9564SOL    HW229592   1.985   0.814   6.972
 9565SOL     OW29593   2.899   1.843   4.106
 9565SOL    HW129594   2.938   1.916   4.161
 9565SOL    HW229595   2.969   1.773   4.089
 9566SOL     OW29596   3.271   0.895   6.936
 9566SOL    HW129597   3.206   0.868   7.006
 9566SOL    HW229598   3.331   0.818   6.913
 9567SOL     OW29599   6.801   3.646   1.198
 9567SOL    HW129600   6.890   3.692   1.196
 9567SOL    HW229601   6.813   3.549   1.219
 9568SOL     OW29602   4.841   1.435   6.823
 9568SOL    HW129603   4.855   1.340   6.793
 9568SOL    HW229604   4.857   1.441   6.921
 9569SOL     OW29605   5.438   1.143   2.046
 9569SOL    HW129606   5.514   1.078   2.047
 9569SOL    HW229607   5.362   1.106   2.099
 9570SOL     OW29608   0.644   3.137   1.785
 9570SOL    HW129609   0.562   3.084   1.761
 9570SOL    HW229610   0.665   3.122   1.882
 9571SOL     OW29611   1.744   2.322   6.456
 9571SOL    HW129612   1.805   2.325   6.376
 9571SOL    HW229613   1.661   2.375   6.436
 9572SOL     OW29614   2.259   4.062   3.874
 9572SOL    HW129615   2.251   4.034   3.970
 9572SOL    HW229616   2.242   3.983   3.815
 9573SOL     OW29617   6.841   0.795   4.753
 9573SOL    HW129618   6.785   0.812   4.671
 9573SOL    HW229619   6.853   0.881   4.802
 9574SOL     OW29620   3.269   3.254   1.135
 9574SOL    HW129621   3.242   3.170   1.181
 9574SOL    HW229622   3.187   3.301   1.102
 9575SOL     OW29623   5.908   6.216   1.938
 9575SOL    HW129624   5.884   6.181   1.848
 9575SOL    HW229625   5.832   6.200   2.002
 9576SOL     OW29626   1.039   6.911   6.793
 9576SOL    HW129627   1.024   7.010   6.795
 9576SOL    HW229628   1.126   6.892   6.748
 9577SOL     OW29629   6.476   5.517   2.417
 9577SOL    HW129630   6.379   5.538   2.408
 9577SOL    HW229631   6.505   5.536   2.511
 9578SOL     OW29632   2.043   3.411   2.646
 9578SOL    HW129633   2.063   3.456   2.733
 9578SOL    HW229634   1.944   3.401   2.635
 9579SOL     OW29635   6.478   5.791   2.162
 9579SOL    HW129636   6.393   5.793   2.110
 9579SOL    HW229637   6.498   5.883   2.197
 9580SOL     OW29638   5.116   4.270   3.123
 9580SOL    HW129639   5.164   4.227   3.200
 9580SOL    HW229640   5.110   4.369   3.138
 9581SOL     OW29641   6.067   1.035   0.102
 9581SOL    HW129642   6.032   0.979   0.027
 9581SOL    HW229643   6.144   1.090   0.070
 9582SOL     OW29644   5.157   6.317   4.662
 9582SOL    HW129645   5.132   6.319   4.565
 9582SOL    HW229646   5.120   6.235   4.705
 9583SOL     OW29647   3.741   4.677   1.684
 9583SOL    HW129648   3.665   4.681   1.747
 9583SOL    HW229649   3.735   4.593   1.630
 9584SOL     OW29650   2.591   5.319   4.430
 9584SOL    HW129651   2.570   5.235   4.480
 9584SOL    HW229652   2.597   5.396   4.494
 9585SOL     OW29653   4.415   5.747   1.146
 9585SOL    HW129654   4.315   5.749   1.148
 9585SOL    HW229655   4.446   5.745   1.051
 9586SOL     OW29656   4.154   4.721   2.863
 9586SOL    HW129657   4.105   4.688   2.782
 9586SOL    HW229658   4.241   4.672   2.872
 9587SOL     OW29659   2.861   5.615   1.503
 9587SOL    HW129660   2.778   5.582   1.458
 9587SOL    HW229661   2.939   5.563   1.469
 9588SOL     OW29662   6.594   5.202   0.411
 9588SOL    HW129663   6.672   5.156   0.454
 9588SOL    HW229664   6.545   5.137   0.352
 9589SOL     OW29665   1.413   3.640   6.337
 9589SOL    HW129666   1.493   3.589   6.306
 9589SOL    HW229667   1.348   3.649   6.262
 9590SOL     OW29668   6.339   0.739   1.516
 9590SOL    HW129669   6.307   0.763   1.608
 9590SOL    HW229670   6.384   0.819   1.476
 9591SOL     OW29671   4.176   0.906   7.021
 9591SOL    HW129672   4.150   1.000   0.018
 9591SOL    HW229673   4.245   0.907   6.949
 9592SOL     OW29674   2.115   6.394   5.532
 9592SOL    HW129675   2.142   6.469   5.592
 9592SOL    HW229676   2.193   6.333   5.518
 9593SOL     OW29677   2.028   1.414   4.475
 9593SOL    HW129678   1.980   1.484   4.422
 9593SOL    HW229679   2.101   1.373   4.420
 9594SOL     OW29680   0.109   6.602   4.159
 9594SOL    HW129681   0.147   6.511   4.140
 9594SOL    HW229682   0.155   6.670   4.101
 9595SOL     OW29683   0.069   3.357   3.270
 9595SOL    HW129684   0.065   3.422   3.345
 9595SOL    HW229685   0.059   3.264   3.306
 9596SOL     OW29686   0.288   6.729   0.864
 9596SOL    HW129687   0.282   6.629   0.873
 9596SOL    HW229688   0.283   6.755   0.768
 9597SOL     OW29689   1.121   3.010   2.492
 9597SOL    HW129690   1.115   3.081   2.423
 9597SOL    HW229691   1.100   2.921   2.452
 9598SOL     OW29692   1.815   3.783   3.789
 9598SOL    HW129693   1.784   3.832   3.708
 9598SOL    HW229694   1.826   3.847   3.865
 9599SOL     OW29695   4.471   6.660   3.473
 9599SOL    HW129696   4.456   6.600   3.551
 9599SOL    HW229697   4.414   6.629   3.396
 9600SOL     OW29698   3.249   0.888   1.733
 9600SOL    HW129699   3.288   0.834   1.658
 9600SOL    HW229700   3.320   0.945   1.773
 9601SOL     OW29701   0.935   3.850   0.936
 9601SOL    HW129702   0.838   3.842   0.960
 9601SOL    HW229703   0.949   3.814   0.843
 9602SOL     OW29704   4.515   5.258   5.264
 9602SOL    HW129705   4.423   5.268   5.302
 9602SOL    HW229706   4.510   5.262   5.164
 9603SOL     OW29707   4.986   5.787   5.254
 9603SOL    HW129708   4.907   5.799   5.313
 9603SOL    HW229709   5.069   5.816   5.303
 9604SOL     OW29710   5.185   6.630   0.268
 9604SOL    HW129711   5.269   6.684   0.278
 9604SOL    HW229712   5.135   6.662   0.188
 9605SOL     OW29713   6.437   6.030   2.522
 9605SOL    HW129714   6.363   6.071   2.576
 9605SOL    HW229715   6.505   5.991   2.584
 9606SOL     OW29716   1.405   1.315   6.222
 9606SOL    HW129717   1.397   1.377   6.300
 9606SOL    HW229718   1.388   1.221   6.252
 9607SOL     OW29719   2.992   2.682   6.055
 9607SOL    HW129720   2.929   2.698   6.130
 9607SOL    HW229721   3.039   2.767   6.031
 9608SOL     OW29722   6.588   3.355   3.876
 9608SOL    HW129723   6.651   3.393   3.809
 9608SOL    HW229724   6.494   3.366   3.844
 9609SOL     OW29725   4.476   2.964   6.398
 9609SOL    HW129726   4.390   3.013   6.405
 9609SOL    HW229727   4.459   2.870   6.368
 9610SOL     OW29728   1.198   4.377   3.242
 9610SOL    HW129729   1.260   4.430   3.298
 9610SOL    HW229730   1.103   4.398   3.268
 9611SOL     OW29731   1.838   0.305   0.580
 9611SOL    HW129732   1.804   0.246   0.654
 9611SOL    HW229733   1.938   0.312   0.585
 9612SOL     OW29734   6.662   2.674   3.566
 9612SOL    HW129735   6.646   2.614   3.645
 9612SOL    HW229736   6.735   2.636   3.510
 9613SOL     OW29737   5.922   5.489   3.397
 9613SOL    HW129738   5.882   5.502   3.306
 9613SOL    HW229739   5.864   5.427   3.450
 9614SOL     OW29740   4.437   2.405   3.705
 9614SOL    HW129741   4.388   2.376   3.623
 9614SOL    HW229742   4.493   2.486   3.684
 9615SOL     OW29743   2.599   3.918   1.054
 9615SOL    HW129744   2.655   3.982   1.106
 9615SOL    HW229745   2.594   3.947   0.959
 9616SOL     OW29746   4.465   3.578   0.133
 9616SOL    HW129747   4.417   3.539   0.211
 9616SOL    HW229748   4.473   3.509   0.061
 9617SOL     OW29749   2.156   2.043   3.229
 9617SOL    HW129750   2.165   2.083   3.138
 9617SOL    HW229751   2.240   2.059   3.281
 9618SOL     OW29752   2.484   1.344   1.036
 9618SOL    HW129753   2.518   1.367   1.127
 9618SOL    HW229754   2.494   1.246   1.021
 9619SOL     OW29755   3.112   0.982   5.060
 9619SOL    HW129756   3.085   1.039   5.138
 9619SOL    HW229757   3.100   1.034   4.976
 9620SOL     OW29758   6.062   0.604   5.931
 9620SOL    HW129759   6.042   0.515   5.890
 9620SOL    HW229760   6.054   0.675   5.862
 9621SOL     OW29761   1.900   2.511   3.512
 9621SOL    HW129762   1.944   2.551   3.593
 9621SOL    HW229763   1.930   2.416   3.501
 9622SOL     OW29764   5.509   6.862   1.607
 9622SOL    HW129765   5.569   6.914   1.545
 9622SOL    HW229766   5.553   6.853   1.696
 9623SOL     OW29767   2.581   3.716   6.779
 9623SOL    HW129768   2.601   3.774   6.859
 9623SOL    HW229769   2.525   3.767   6.714
 9624SOL     OW29770   6.378   3.140   3.600
 9624SOL    HW129771   6.301   3.081   3.625
 9624SOL    HW229772   6.461   3.086   3.595
 9625SOL     OW29773   5.906   5.968   0.800
 9625SOL    HW129774   5.963   6.050   0.800
 9625SOL    HW229775   5.810   5.995   0.802
 9626SOL     OW29776   2.999   6.618   6.796
 9626SOL    HW129777   2.998   6.666   6.708
 9626SOL    HW229778   2.969   6.524   6.783
 9627SOL     OW29779   1.245   6.783   6.676
 9627SOL    HW129780   1.322   6.841   6.703
 9627SOL    HW229781   1.252   6.762   6.578
 9628SOL     OW29782   4.170   6.093   1.959
 9628SOL    HW129783   4.224   6.165   1.916
 9628SOL    HW229784   4.230   6.020   1.991
 9629SOL     OW29785   2.430   6.847   1.307
 9629SOL    HW129786   2.363   6.827   1.378
 9629SOL    HW229787   2.516   6.876   1.348
 9630SOL     OW29788   6.580   0.518   6.360
 9630SOL    HW129789   6.618   0.433   6.323
 9630SOL    HW229790   6.532   0.567   6.288
 9631SOL     OW29791   6.400   6.097   6.973
 9631SOL    HW129792   6.495   6.088   6.944
 9631SOL    HW229793   6.360   6.179   6.932
 9632SOL     OW29794   1.578   6.085   1.680
 9632SOL    HW129795   1.584   6.145   1.760
 9632SOL    HW229796   1.486   6.048   1.673
 9633SOL     OW29797   0.032   5.243   6.179
 9633SOL    HW129798   0.112   5.287   6.218
 9633SOL    HW229799   6.980   5.308   6.175
 9634SOL     OW29800   1.095   6.162   5.130
 9634SOL    HW129801   1.176   6.108   5.150
 9634SOL    HW229802   1.117   6.232   5.063
 9635SOL     OW29803   1.276   5.310   5.726
 9635SOL    HW129804   1.326   5.373   5.785
 9635SOL    HW229805   1.299   5.330   5.630
 9636SOL     OW29806   4.169   1.678   6.877
 9636SOL    HW129807   4.268   1.686   6.866
 9636SOL    HW229808   4.141   1.723   6.962
 9637SOL     OW29809   2.312   1.031   0.139
 9637SOL    HW129810   2.263   1.091   0.202
 9637SOL    HW229811   2.329   1.079   0.053
 9638SOL     OW29812   6.703   1.892   6.026
 9638SOL    HW129813   6.775   1.832   6.061
 9638SOL    HW229814   6.623   1.837   6.000
 9639SOL     OW29815   3.960   1.068   2.822
 9639SOL    HW129816   3.951   0.976   2.783
 9639SOL    HW229817   4.057   1.086   2.840
 9640SOL     OW29818   2.017   2.595   2.265
 9640SOL    HW129819   2.100   2.546   2.240
 9640SOL    HW229820   2.031   2.693   2.249
 9641SOL     OW29821   6.497   5.558   0.148
 9641SOL    HW129822   6.446   5.542   0.064
 9641SOL    HW229823   6.564   5.485   0.161
 9642SOL     OW29824   3.990   0.316   3.794
 9642SOL    HW129825   3.934   0.237   3.816
 9642SOL    HW229826   4.041   0.299   3.709
 9643SOL     OW29827   4.208   4.723   3.150
 9643SOL    HW129828   4.253   4.693   3.066
 9643SOL    HW229829   4.115   4.754   3.130
 9644SOL     OW29830   2.588   2.110   6.985
 9644SOL    HW129831   2.548   2.114   6.893
 9644SOL    HW229832   2.686   2.125   6.980
 9645SOL     OW29833   3.084   5.358   4.922
 9645SOL    HW129834   3.140   5.295   4.869
 9645SOL    HW229835   3.118   5.363   5.016
 9646SOL     OW29836   4.153   5.711   3.687
 9646SOL    HW129837   4.205   5.627   3.702
 9646SOL    HW229838   4.213   5.781   3.647
 9647SOL     OW29839   6.705   2.898   0.220
 9647SOL    HW129840   6.677   2.964   0.150
 9647SOL    HW229841   6.796   2.863   0.199
 9648SOL     OW29842   4.213   3.654   0.931
 9648SOL    HW129843   4.303   3.636   0.972
 9648SOL    HW229844   4.142   3.642   1.001
 9649SOL     OW29845   2.025   5.656   0.879
 9649SOL    HW129846   1.959   5.604   0.934
 9649SOL    HW229847   1.977   5.728   0.829
 9650SOL     OW29848   0.273   6.869   1.895
 9650SOL    HW129849   0.368   6.854   1.869
 9650SOL    HW229850   0.269   6.898   1.991
 9651SOL     OW29851   0.353   2.029   5.574
 9651SOL    HW129852   0.443   2.074   5.573
 9651SOL    HW229853   0.282   2.097   5.594
 9652SOL     OW29854   0.447   5.375   2.612
 9652SOL    HW129855   0.402   5.461   2.587
 9652SOL    HW229856   0.542   5.378   2.580
 9653SOL     OW29857   6.021   5.563   4.245
 9653SOL    HW129858   6.019   5.654   4.205
 9653SOL    HW229859   6.002   5.569   4.343
 9654SOL     OW29860   2.087   3.088   2.308
 9654SOL    HW129861   1.988   3.096   2.294
 9654SOL    HW229862   2.120   3.005   2.263
 9655SOL     OW29863   5.746   2.301   6.694
 9655SOL    HW129864   5.759   2.211   6.653
 9655SOL    HW229865   5.834   2.346   6.704
 9656SOL     OW29866   3.665   0.872   2.770
 9656SOL    HW129867   3.742   0.898   2.829
 9656SOL    HW229868   3.648   0.774   2.779
 9657SOL     OW29869   0.272   0.029   4.902
 9657SOL    HW129870   0.208   0.095   4.940
 9657SOL    HW229871   0.358   0.033   4.953
 9658SOL     OW29872   5.645   2.115   2.911
 9658SOL    HW129873   5.663   2.016   2.909
 9658SOL    HW229874   5.724   2.164   2.874
 9659SOL     OW29875   0.840   5.043   0.191
 9659SOL    HW129876   0.801   4.994   0.269
 9659SOL    HW229877   0.766   5.070   0.129
 9660SOL     OW29878   0.164   5.008   0.679
 9660SOL    HW129879   0.130   5.067   0.752
 9660SOL    HW229880   0.132   4.914   0.695
 9661SOL     OW29881   4.613   6.368   0.851
 9661SOL    HW129882   4.529   6.336   0.895
 9661SOL    HW229883   4.683   6.385   0.921
 9662SOL     OW29884   5.103   0.900   4.564
 9662SOL    HW129885   5.201   0.916   4.573
 9662SOL    HW229886   5.053   0.963   4.625
 9663SOL     OW29887   2.333   6.018   3.365
 9663SOL    HW129888   2.272   5.943   3.341
 9663SOL    HW229889   2.404   5.985   3.428
 9664SOL     OW29890   2.352   5.734   1.578
 9664SOL    HW129891   2.387   5.649   1.538
 9664SOL    HW229892   2.308   5.715   1.666
 9665SOL     OW29893   5.307   4.182   3.847
 9665SOL    HW129894   5.239   4.126   3.800
 9665SOL    HW229895   5.267   4.270   3.872
 9666SOL     OW29896   5.699   4.469   4.643
 9666SOL    HW129897   5.757   4.415   4.582
 9666SOL    HW229898   5.622   4.506   4.592
 9667SOL     OW29899   3.942   3.593   3.278
 9667SOL    HW129900   3.982   3.561   3.363
 9667SOL    HW229901   3.986   3.547   3.201
 9668SOL     OW29902   0.617   1.316   5.119
 9668SOL    HW129903   0.607   1.382   5.194
 9668SOL    HW229904   0.527   1.296   5.080
 9669SOL     OW29905   1.938   6.425   0.270
 9669SOL    HW129906   1.856   6.392   0.317
 9669SOL    HW229907   1.912   6.492   0.200
 9670SOL     OW29908   6.140   4.517   6.452
 9670SOL    HW129909   6.199   4.592   6.482
 9670SOL    HW229910   6.196   4.439   6.423
 9671SOL     OW29911   0.383   0.415   0.039
 9671SOL    HW129912   0.345   0.325   0.060
 9671SOL    HW229913   0.433   0.411   6.977
 9672SOL     OW29914   1.178   6.329   4.654
 9672SOL    HW129915   1.265   6.297   4.617
 9672SOL    HW229916   1.105   6.313   4.587
 9673SOL     OW29917   2.374   2.599   6.311
 9673SOL    HW129918   2.318   2.669   6.268
 9673SOL    HW229919   2.335   2.509   6.292
 9674SOL     OW29920   2.702   6.898   2.379
 9674SOL    HW129921   2.710   6.998   2.375
 9674SOL    HW229922   2.784   6.859   2.421
 9675SOL     OW29923   0.023   2.612   1.683
 9675SOL    HW129924   6.963   2.573   1.719
 9675SOL    HW229925   0.061   2.551   1.614
 9676SOL     OW29926   0.291   3.655   5.041
 9676SOL    HW129927   0.330   3.652   5.133
 9676SOL    HW229928   0.344   3.594   4.981
 9677SOL     OW29929   2.036   3.238   4.906
 9677SOL    HW129930   1.968   3.169   4.930
 9677SOL    HW229931   1.994   3.308   4.849
 9678SOL     OW29932   3.989   3.189   2.944
 9678SOL    HW129933   3.973   3.249   2.865
 9678SOL    HW229934   3.909   3.131   2.958
 9679SOL     OW29935   0.763   3.538   0.846
 9679SOL    HW129936   0.763   3.623   0.793
 9679SOL    HW229937   0.802   3.464   0.791
 9680SOL     OW29938   5.340   5.173   3.437
 9680SOL    HW129939   5.395   5.091   3.454
 9680SOL    HW229940   5.399   5.254   3.447
 9681SOL     OW29941   0.994   1.378   4.165
 9681SOL    HW129942   0.984   1.330   4.252
 9681SOL    HW229943   0.904   1.396   4.125
 9682SOL     OW29944   0.276   4.953   3.118
 9682SOL    HW129945   0.291   4.856   3.098
 9682SOL    HW229946   0.353   4.988   3.171
 9683SOL     OW29947   4.349   6.475   6.245
 9683SOL    HW129948   4.269   6.533   6.233
 9683SOL    HW229949   4.428   6.519   6.204
 9684SOL     OW29950   0.968   4.291   3.535
 9684SOL    HW129951   1.041   4.225   3.517
 9684SOL    HW229952   0.926   4.271   3.623
 9685SOL     OW29953   1.549   2.423   0.226
 9685SOL    HW129954   1.576   2.508   0.179
 9685SOL    HW229955   1.595   2.418   0.314
 9686SOL     OW29956   5.426   0.709   1.611
 9686SOL    HW129957   5.342   0.658   1.593
 9686SOL    HW229958   5.452   0.760   1.529
 9687SOL     OW29959   3.860   0.868   4.028
 9687SOL    HW129960   3.815   0.785   3.996
 9687SOL    HW229961   3.873   0.931   3.951
 9688SOL     OW29962   6.568   1.949   4.077
 9688SOL    HW129963   6.634   2.023   4.088
 9688SOL    HW229964   6.612   1.871   4.033
 9689SOL     OW29965   1.777   5.828   6.023
 9689SOL    HW129966   1.820   5.738   6.016
 9689SOL    HW229967   1.817   5.890   5.956
 9690SOL     OW29968   5.954   4.281   0.599
 9690SOL    HW129969   5.983   4.315   0.689
 9690SOL    HW229970   5.870   4.328   0.571
 9691SOL     OW29971   1.486   4.232   1.533
 9691SOL    HW129972   1.393   4.254   1.562
 9691SOL    HW229973   1.551   4.288   1.584
 9692SOL     OW29974   2.703   5.796   0.966
 9692SOL    HW129975   2.722   5.875   0.908
 9692SOL    HW229976   2.781   5.780   1.026
 9693SOL     OW29977   6.208   5.366   1.766
 9693SOL    HW129978   6.298   5.363   1.809
 9693SOL    HW229979   6.217   5.390   1.670
 9694SOL     OW29980   1.864   1.921   0.393
 9694SOL    HW129981   1.885   1.827   0.417
 9694SOL    HW229982   1.875   1.980   0.473
 9695SOL     OW29983   6.115   3.987   0.953
 9695SOL    HW129984   6.115   3.928   1.033
 9695SOL    HW229985   6.066   4.072   0.973
 9696SOL     OW29986   3.707   4.030   0.951
 9696SOL    HW129987   3.631   3.993   1.004
 9696SOL    HW229988   3.785   3.967   0.957
 9697SOL     OW29989   0.697   6.232   6.690
 9697SOL    HW129990   0.688   6.145   6.640
 9697SOL    HW229991   0.662   6.306   6.634
 9698SOL     OW29992   5.606   1.669   5.431
 9698SOL    HW129993   5.582   1.755   5.388
 9698SOL    HW229994   5.550   1.595   5.392
 9699SOL     OW29995   1.965   2.918   0.277
 9699SOL    HW129996   1.932   3.010   0.257
 9699SOL    HW229997   2.053   2.923   0.323
 9700SOL     OW29998   3.080   3.816   4.059
 9700SOL    HW129999   3.146   3.751   4.095
 9700SOL    HW230000   3.124   3.906   4.048
 9701SOL     OW30001   5.010   4.286   5.217
 9701SOL    HW130002   5.048   4.332   5.297
 9701SOL    HW230003   5.004   4.350   5.141
 9702SOL     OW30004   4.391   0.328   0.921
 9702SOL    HW130005   4.323   0.336   0.848
 9702SOL    HW230006   4.453   0.406   0.918
 9703SOL     OW30007   3.198   6.434   4.144
 9703SOL    HW130008   3.222   6.447   4.240
 9703SOL    HW230009   3.272   6.468   4.086
 9704SOL     OW30010   2.699   0.571   3.781
 9704SOL    HW130011   2.732   0.664   3.766
 9704SOL    HW230012   2.599   0.572   3.785
 9705SOL     OW30013   3.840   3.966   0.528
 9705SOL    HW130014   3.928   3.920   0.530
 9705SOL    HW230015   3.843   4.047   0.586
 9706SOL     OW30016   5.774   2.507   2.868
 9706SOL    HW130017   5.751   2.476   2.776
 9706SOL    HW230018   5.725   2.592   2.888
 9707SOL     OW30019   2.905   5.295   3.084
 9707SOL    HW130020   2.929   5.215   3.139
 9707SOL    HW230021   2.937   5.378   3.129
 9708SOL     OW30022   2.120   1.985   2.472
 9708SOL    HW130023   2.051   1.960   2.404
 9708SOL    HW230024   2.145   2.081   2.460
 9709SOL     OW30025   2.002   4.967   2.967
 9709SOL    HW130026   2.071   4.990   2.899
 9709SOL    HW230027   1.966   5.050   3.008
 9710SOL     OW30028   0.212   0.596   3.690
 9710SOL    HW130029   0.182   0.528   3.756
 9710SOL    HW230030   0.151   0.676   3.694
 9711SOL     OW30031   1.362   3.730   6.046
 9711SOL    HW130032   1.386   3.773   5.959
 9711SOL    HW230033   1.360   3.800   6.118
 9712SOL     OW30034   4.629   2.684   4.498
 9712SOL    HW130035   4.684   2.754   4.545
 9712SOL    HW230036   4.598   2.616   4.564
 9713SOL     OW30037   6.716   5.235   2.341
 9713SOL    HW130038   6.757   5.286   2.416
 9713SOL    HW230039   6.712   5.138   2.364
 9714SOL     OW30040   1.427   2.432   1.950
 9714SOL    HW130041   1.505   2.490   1.930
 9714SOL    HW230042   1.367   2.428   1.870
 9715SOL     OW30043   5.605   5.185   4.792
 9715SOL    HW130044   5.542   5.236   4.851
 9715SOL    HW230045   5.648   5.112   4.844
 9716SOL     OW30046   4.096   2.375   6.507
 9716SOL    HW130047   4.010   2.323   6.499
 9716SOL    HW230048   4.095   2.451   6.442
 9717SOL     OW30049   6.146   4.714   3.074
 9717SOL    HW130050   6.215   4.751   3.137
 9717SOL    HW230051   6.095   4.641   3.119
 9718SOL     OW30052   4.483   3.342   1.646
 9718SOL    HW130053   4.576   3.379   1.655
 9718SOL    HW230054   4.418   3.417   1.638
 9719SOL     OW30055   0.798   1.542   0.612
 9719SOL    HW130056   0.870   1.542   0.682
 9719SOL    HW230057   0.839   1.552   0.522
 9720SOL     OW30058   0.681   0.408   1.192
 9720SOL    HW130059   0.693   0.458   1.106
 9720SOL    HW230060   0.614   0.335   1.180
 9721SOL     OW30061   6.467   3.211   2.802
 9721SOL    HW130062   6.495   3.128   2.753
 9721SOL    HW230063   6.380   3.196   2.848
 9722SOL     OW30064   6.675   0.323   4.382
 9722SOL    HW130065   6.730   0.274   4.449
 9722SOL    HW230066   6.578   0.315   4.405
 9723SOL     OW30067   6.684   1.341   3.569
 9723SOL    HW130068   6.637   1.281   3.633
 9723SOL    HW230069   6.644   1.433   3.575
 9724SOL     OW30070   3.713   2.865   1.189
 9724SOL    HW130071   3.620   2.894   1.210
 9724SOL    HW230072   3.776   2.901   1.258
 9725SOL     OW30073   4.319   3.794   5.662
 9725SOL    HW130074   4.324   3.699   5.633
 9725SOL    HW230075   4.350   3.853   5.588
 9726SOL     OW30076   5.798   5.525   5.078
 9726SOL    HW130077   5.896   5.507   5.081
 9726SOL    HW230078   5.761   5.493   4.991
 9727SOL     OW30079   1.328   1.505   6.407
 9727SOL    HW130080   1.360   1.587   6.456
 9727SOL    HW230081   1.301   1.530   6.314
 9728SOL     OW30082   3.192   5.672   0.168
 9728SOL    HW130083   3.199   5.626   0.080
 9728SOL    HW230084   3.102   5.655   0.208
 9729SOL     OW30085   2.658   5.281   2.672
 9729SOL    HW130086   2.617   5.293   2.582
 9729SOL    HW230087   2.689   5.186   2.682
 9730SOL     OW30088   5.913   3.719   2.896
 9730SOL    HW130089   5.837   3.729   2.832
 9730SOL    HW230090   5.899   3.779   2.974
 9731SOL     OW30091   5.082   5.758   1.192
 9731SOL    HW130092   5.182   5.758   1.182
 9731SOL    HW230093   5.039   5.737   1.104
 9732SOL     OW30094   6.507   5.176   3.798
 9732SOL    HW130095   6.455   5.174   3.713
 9732SOL    HW230096   6.516   5.083   3.834
 9733SOL     OW30097   5.670   4.406   6.460
 9733SOL    HW130098   5.579   4.418   6.502
 9733SOL    HW230099   5.739   4.444   6.521
 9734SOL     OW30100   5.125   2.463   4.646
 9734SOL    HW130101   5.048   2.507   4.599
 9734SOL    HW230102   5.209   2.483   4.596
 9735SOL     OW30103   2.433   3.882   0.344
 9735SOL    HW130104   2.478   3.822   0.278
 9735SOL    HW230105   2.502   3.923   0.405
 9736SOL     OW30106   3.370   1.495   1.674
 9736SOL    HW130107   3.455   1.473   1.723
 9736SOL    HW230108   3.373   1.453   1.583
 9737SOL     OW30109   4.102   2.168   4.934
 9737SOL    HW130110   4.114   2.068   4.932
 9737SOL    HW230111   4.191   2.212   4.924
 9738SOL     OW30112   1.684   0.497   1.990
 9738SOL    HW130113   1.668   0.550   1.907
 9738SOL    HW230114   1.663   0.553   2.070
 9739SOL     OW30115   5.364   4.872   1.826
 9739SOL    HW130116   5.316   4.916   1.749
 9739SOL    HW230117   5.451   4.919   1.842
 9740SOL     OW30118   6.487   3.358   3.478
 9740SOL    HW130119   6.448   3.275   3.518
 9740SOL    HW230120   6.559   3.333   3.413
 9741SOL     OW30121   3.670   1.798   1.605
 9741SOL    HW130122   3.590   1.845   1.642
 9741SOL    HW230123   3.691   1.718   1.660
 9742SOL     OW30124   4.355   1.668   3.873
 9742SOL    HW130125   4.402   1.581   3.891
 9742SOL    HW230126   4.304   1.696   3.954
 9743SOL     OW30127   1.726   1.891   5.378
 9743SOL    HW130128   1.727   1.990   5.369
 9743SOL    HW230129   1.659   1.864   5.447
 9744SOL     OW30130   2.153   0.733   1.741
 9744SOL    HW130131   2.237   0.681   1.725
 9744SOL    HW230132   2.099   0.737   1.657
 9745SOL     OW30133   6.829   1.689   4.999
 9745SOL    HW130134   6.771   1.703   4.919
 9745SOL    HW230135   6.924   1.714   4.977
 9746SOL     OW30136   6.137   1.123   3.899
 9746SOL    HW130137   6.177   1.215   3.896
 9746SOL    HW230138   6.210   1.055   3.912
 9747SOL     OW30139   0.424   0.068   6.714
 9747SOL    HW130140   0.333   0.088   6.752
 9747SOL    HW230141   0.432   0.112   6.624
 9748SOL     OW30142   0.886   5.043   4.429
 9748SOL    HW130143   0.888   5.027   4.330
 9748SOL    HW230144   0.978   5.038   4.466
 9749SOL     OW30145   0.555   3.938   4.196
 9749SOL    HW130146   0.622   3.976   4.132
 9749SOL    HW230147   0.490   3.881   4.146
 9750SOL     OW30148   3.528   5.225   3.193
 9750SOL    HW130149   3.439   5.246   3.235
 9750SOL    HW230150   3.596   5.290   3.226
 9751SOL     OW30151   1.940   2.625   0.584
 9751SOL    HW130152   1.888   2.673   0.513
 9751SOL    HW230153   2.035   2.616   0.554
 9752SOL     OW30154   3.446   2.069   6.001
 9752SOL    HW130155   3.488   2.159   6.001
 9752SOL    HW230156   3.512   2.001   5.971
 9753SOL     OW30157   6.895   6.055   5.426
 9753SOL    HW130158   6.916   6.100   5.339
 9753SOL    HW230159   6.924   6.113   5.502
 9754SOL     OW30160   6.829   2.150   6.654
 9754SOL    HW130161   6.893   2.104   6.717
 9754SOL    HW230162   6.742   2.101   6.655
 9755SOL     OW30163   4.044   5.119   5.332
 9755SOL    HW130164   3.978   5.194   5.338
 9755SOL    HW230165   4.001   5.040   5.289
 9756SOL     OW30166   5.060   2.370   5.948
 9756SOL    HW130167   5.100   2.462   5.946
 9756SOL    HW230168   4.991   2.366   6.021
 9757SOL     OW30169   6.054   1.740   3.597
 9757SOL    HW130170   5.961   1.753   3.632
 9757SOL    HW230171   6.117   1.729   3.674
 9758SOL     OW30172   3.048   0.807   0.039
 9758SOL    HW130173   3.019   0.902   0.040
 9758SOL    HW230174   3.005   0.759   6.987
 9759SOL     OW30175   3.157   6.007   1.139
 9759SOL    HW130176   3.217   6.001   1.219
 9759SOL    HW230177   3.143   6.104   1.116
 9760SOL     OW30178   5.788   4.680   5.808
 9760SOL    HW130179   5.764   4.601   5.866
 9760SOL    HW230180   5.738   4.760   5.839
 9761SOL     OW30181   5.188   5.913   2.730
 9761SOL    HW130182   5.123   5.965   2.787
 9761SOL    HW230183   5.226   5.839   2.784
 9762SOL     OW30184   2.836   1.387   3.284
 9762SOL    HW130185   2.805   1.479   3.261
 9762SOL    HW230186   2.910   1.361   3.222
 9763SOL     OW30187   1.694   1.647   1.823
 9763SOL    HW130188   1.616   1.701   1.792
 9763SOL    HW230189   1.683   1.624   1.920
 9764SOL     OW30190   1.180   2.746   1.904
 9764SOL    HW130191   1.132   2.706   1.827
 9764SOL    HW230192   1.164   2.691   1.986
 9765SOL     OW30193   0.171   1.433   5.065
 9765SOL    HW130194   0.188   1.446   5.162
 9765SOL    HW230195   0.225   1.355   5.032
 9766SOL     OW30196   2.404   0.091   2.411
 9766SOL    HW130197   2.412   0.035   2.493
 9766SOL    HW230198   2.310   0.088   2.378
 9767SOL     OW30199   5.106   0.566   5.597
 9767SOL    HW130200   5.051   0.522   5.667
 9767SOL    HW230201   5.168   0.499   5.556
 9768SOL     OW30202   5.027   2.426   3.732
 9768SOL    HW130203   5.092   2.362   3.691
 9768SOL    HW230204   5.041   2.429   3.831
 9769SOL     OW30205   0.614   1.541   1.796
 9769SOL    HW130206   0.568   1.488   1.867
 9769SOL    HW230207   0.568   1.527   1.708
 9770SOL     OW30208   6.544   4.051   6.336
 9770SOL    HW130209   6.513   4.102   6.256
 9770SOL    HW230210   6.480   3.977   6.355
 9771SOL     OW30211   3.025   5.244   4.083
 9771SOL    HW130212   3.009   5.252   3.984
 9771SOL    HW230213   2.939   5.261   4.132
 9772SOL     OW30214   6.850   0.200   1.600
 9772SOL    HW130215   6.876   0.169   1.692
 9772SOL    HW230216   6.774   0.265   1.608
 9773SOL     OW30217   4.972   5.287   3.398
 9773SOL    HW130218   4.945   5.195   3.372
 9773SOL    HW230219   4.991   5.341   3.316
 9774SOL     OW30220   7.023   4.722   3.583
 9774SOL    HW130221   0.042   4.723   3.493
 9774SOL    HW230222   7.018   4.815   3.619
 9775SOL     OW30223   2.881   2.199   5.056
 9775SOL    HW130224   2.848   2.107   5.035
 9775SOL    HW230225   2.972   2.212   5.017
 9776SOL     OW30226   0.457   4.573   4.494
 9776SOL    HW130227   0.362   4.602   4.502
 9776SOL    HW230228   0.515   4.651   4.471
 9777SOL     OW30229   5.963   5.233   6.309
 9777SOL    HW130230   5.927   5.201   6.221
 9777SOL    HW230231   5.912   5.313   6.339
 9778SOL     OW30232   4.149   0.842   3.626
 9778SOL    HW130233   4.176   0.823   3.720
 9778SOL    HW230234   4.218   0.901   3.582
 9779SOL     OW30235   2.788   1.958   6.521
 9779SOL    HW130236   2.762   2.054   6.507
 9779SOL    HW230237   2.762   1.904   6.441
 9780SOL     OW30238   3.381   4.033   0.459
 9780SOL    HW130239   3.421   4.069   0.374
 9780SOL    HW230240   3.448   4.042   0.533
 9781SOL     OW30241   1.689   6.378   4.530
 9781SOL    HW130242   1.639   6.432   4.597
 9781SOL    HW230243   1.681   6.280   4.552
 9782SOL     OW30244   6.130   0.599   1.230
 9782SOL    HW130245   6.190   0.522   1.252
 9782SOL    HW230246   6.069   0.573   1.154
 9783SOL     OW30247   5.755   1.352   2.980
 9783SOL    HW130248   5.760   1.385   3.075
 9783SOL    HW230249   5.675   1.391   2.935
 9784SOL     OW30250   5.841   0.852   4.609
 9784SOL    HW130251   5.753   0.808   4.592
 9784SOL    HW230252   5.825   0.942   4.651
 9785SOL     OW30253   0.328   3.027   0.588
 9785SOL    HW130254   0.241   2.989   0.617
 9785SOL    HW230255   0.388   2.953   0.557
 9786SOL     OW30256   2.154   0.076   5.174
 9786SOL    HW130257   2.174   0.115   5.265
 9786SOL    HW230258   2.058   0.090   5.152
 9787SOL     OW30259   6.231   4.332   1.387
 9787SOL    HW130260   6.135   4.351   1.410
 9787SOL    HW230261   6.248   4.358   1.292
 9788SOL     OW30262   0.122   1.032   5.181
 9788SOL    HW130263   0.040   1.039   5.125
 9788SOL    HW230264   0.186   0.967   5.138
 9789SOL     OW30265   1.424   5.720   4.398
 9789SOL    HW130266   1.413   5.648   4.466
 9789SOL    HW230267   1.353   5.712   4.328
 9790SOL     OW30268   6.820   1.312   4.220
 9790SOL    HW130269   6.902   1.327   4.165
 9790SOL    HW230270   6.795   1.215   4.216
 9791SOL     OW30271   1.170   2.665   1.369
 9791SOL    HW130272   1.205   2.576   1.396
 9791SOL    HW230273   1.092   2.653   1.307
 9792SOL     OW30274   4.076   5.809   1.864
 9792SOL    HW130275   4.060   5.873   1.788
 9792SOL    HW230276   4.038   5.848   1.948
 9793SOL     OW30277   5.337   6.131   2.286
 9793SOL    HW130278   5.381   6.064   2.346
 9793SOL    HW230279   5.340   6.221   2.330
 9794SOL     OW30280   2.949   3.311   6.680
 9794SOL    HW130281   2.860   3.274   6.654
 9794SOL    HW230282   2.935   3.394   6.735
 9795SOL     OW30283   2.382   4.500   4.179
 9795SOL    HW130284   2.348   4.553   4.101
 9795SOL    HW230285   2.387   4.559   4.259
 9796SOL     OW30286   3.753   4.527   0.450
 9796SOL    HW130287   3.715   4.533   0.543
 9796SOL    HW230288   3.684   4.555   0.384
 9797SOL     OW30289   4.863   3.132   4.915
 9797SOL    HW130290   4.873   3.227   4.885
 9797SOL    HW230291   4.953   3.091   4.927
 9798SOL     OW30292   2.035   1.681   1.857
 9798SOL    HW130293   2.099   1.736   1.803
 9798SOL    HW230294   1.942   1.695   1.822
 9799SOL     OW30295   2.931   3.663   2.230
 9799SOL    HW130296   3.020   3.674   2.186
 9799SOL    HW230297   2.868   3.733   2.195
 9800SOL     OW30298   3.337   5.137   0.263
 9800SOL    HW130299   3.342   5.189   0.178
 9800SOL    HW230300   3.242   5.110   0.280
 9801SOL     OW30301   4.866   5.268   0.287
 9801SOL    HW130302   4.947   5.298   0.337
 9801SOL    HW230303   4.890   5.192   0.226
 9802SOL     OW30304   1.064   5.126   1.557
 9802SOL    HW130305   1.078   5.086   1.467
 9802SOL    HW230306   0.976   5.095   1.594
 9803SOL     OW30307   4.960   0.417   6.453
 9803SOL    HW130308   4.935   0.365   6.534
 9803SOL    HW230309   5.051   0.456   6.464
 9804SOL     OW30310   5.493   5.322   4.264
 9804SOL    HW130311   5.427   5.296   4.335
 9804SOL    HW230312   5.577   5.354   4.307
 9805SOL     OW30313   3.584   4.642   1.327
 9805SOL    HW130314   3.542   4.570   1.272
 9805SOL    HW230315   3.560   4.629   1.423
 9806SOL     OW30316   6.783   1.803   2.547
 9806SOL    HW130317   6.867   1.841   2.508
 9806SOL    HW230318   6.806   1.726   2.607
 9807SOL     OW30319   3.035   2.822   0.798
 9807SOL    HW130320   3.059   2.729   0.824
 9807SOL    HW230321   3.116   2.880   0.802
 9808SOL     OW30322   2.124   2.102   5.052
 9808SOL    HW130323   2.076   2.115   4.965
 9808SOL    HW230324   2.198   2.168   5.060
 9809SOL     OW30325   0.702   0.847   4.738
 9809SOL    HW130326   0.658   0.764   4.774
 9809SOL    HW230327   0.778   0.872   4.798
 9810SOL     OW30328   4.444   1.628   2.994
 9810SOL    HW130329   4.405   1.541   2.966
 9810SOL    HW230330   4.463   1.626   3.092
 9811SOL     OW30331   1.172   0.324   2.475
 9811SOL    HW130332   1.150   0.228   2.491
 9811SOL    HW230333   1.142   0.350   2.383
 9812SOL     OW30334   5.305   2.932   5.239
 9812SOL    HW130335   5.311   2.844   5.287
 9812SOL    HW230336   5.390   2.983   5.253
 9813SOL     OW30337   6.345   4.414   0.867
 9813SOL    HW130338   6.335   4.390   0.964
 9813SOL    HW230339   6.441   4.408   0.841
 9814SOL     OW30340   6.780   0.805   5.683
 9814SOL    HW130341   6.797   0.886   5.627
 9814SOL    HW230342   6.863   0.779   5.731
 9815SOL     OW30343   0.122   4.034   2.674
 9815SOL    HW130344   0.066   3.954   2.695
 9815SOL    HW230345   0.158   4.025   2.581
 9816SOL     OW30346   5.989   0.711   6.173
 9816SOL    HW130347   6.026   0.782   6.233
 9816SOL    HW230348   6.041   0.708   6.088
 9817SOL     OW30349   2.222   0.778   0.569
 9817SOL    HW130350   2.226   0.870   0.532
 9817SOL    HW230351   2.223   0.782   0.669
 9818SOL     OW30352   0.309   6.974   3.226
 9818SOL    HW130353   0.323   0.013   3.150
 9818SOL    HW230354   0.231   6.914   3.206
 9819SOL     OW30355   6.951   2.371   4.616
 9819SOL    HW130356   6.883   2.433   4.654
 9819SOL    HW230357   6.972   2.299   4.682
 9820SOL     OW30358   3.503   2.275   6.255
 9820SOL    HW130359   3.510   2.180   6.286
 9820SOL    HW230360   3.520   2.337   6.331
 9821SOL     OW30361   3.923   2.773   0.820
 9821SOL    HW130362   3.905   2.716   0.900
 9821SOL    HW230363   3.930   2.869   0.848
 9822SOL     OW30364   3.290   5.522   4.504
 9822SOL    HW130365   3.224   5.502   4.431
 9822SOL    HW230366   3.350   5.596   4.476
 9823SOL     OW30367   3.810   6.565   3.537
 9823SOL    HW130368   3.787   6.469   3.549
 9823SOL    HW230369   3.823   6.585   3.440
 9824SOL     OW30370   1.477   5.717   5.479
 9824SOL    HW130371   1.466   5.621   5.505
 9824SOL    HW230372   1.480   5.774   5.561
 9825SOL     OW30373   0.311   6.257   5.258
 9825SOL    HW130374   0.337   6.253   5.162
 9825SOL    HW230375   0.293   6.165   5.292
 9826SOL     OW30376   1.671   5.468   5.653
 9826SOL    HW130377   1.650   5.467   5.751
 9826SOL    HW230378   1.741   5.537   5.635
 9827SOL     OW30379   2.226   4.608   1.667
 9827SOL    HW130380   2.322   4.609   1.641
 9827SOL    HW230381   2.205   4.522   1.713
 9828SOL     OW30382   4.435   2.161   4.910
 9828SOL    HW130383   4.471   2.229   4.974
 9828SOL    HW230384   4.424   2.074   4.957
 9829SOL     OW30385   5.241   4.959   5.520
 9829SOL    HW130386   5.300   4.935   5.444
 9829SOL    HW230387   5.145   4.943   5.494
 9830SOL     OW30388   5.803   1.719   3.739
 9830SOL    HW130389   5.792   1.721   3.839
 9830SOL    HW230390   5.713   1.725   3.696
 9831SOL     OW30391   0.727   4.320   2.120
 9831SOL    HW130392   0.715   4.267   2.036
 9831SOL    HW230393   0.673   4.279   2.193
 9832SOL     OW30394   4.919   5.525   4.690
 9832SOL    HW130395   4.826   5.487   4.683
 9832SOL    HW230396   4.970   5.505   4.606
 9833SOL     OW30397   3.893   3.390   4.511
 9833SOL    HW130398   3.828   3.323   4.476
 9833SOL    HW230399   3.947   3.427   4.435
 9834SOL     OW30400   3.245   5.845   5.624
 9834SOL    HW130401   3.154   5.864   5.587
 9834SOL    HW230402   3.240   5.835   5.723
 9835SOL     OW30403   3.940   3.865   3.677
 9835SOL    HW130404   3.861   3.845   3.735
 9835SOL    HW230405   3.929   3.955   3.634
 9836SOL     OW30406   6.852   3.294   5.428
 9836SOL    HW130407   6.910   3.226   5.383
 9836SOL    HW230408   6.759   3.258   5.437
 9837SOL     OW30409   6.198   1.241   3.186
 9837SOL    HW130410   6.258   1.320   3.181
 9837SOL    HW230411   6.210   1.185   3.104
 9838SOL     OW30412   0.477   6.200   0.806
 9838SOL    HW130413   0.494   6.102   0.794
 9838SOL    HW230414   0.400   6.213   0.869
 9839SOL     OW30415   4.757   6.472   3.422
 9839SOL    HW130416   4.798   6.442   3.508
 9839SOL    HW230417   4.753   6.572   3.420
 9840SOL     OW30418   6.542   1.514   6.297
 9840SOL    HW130419   6.641   1.524   6.291
 9840SOL    HW230420   6.502   1.522   6.205
 9841SOL     OW30421   6.865   5.978   2.588
 9841SOL    HW130422   6.865   5.984   2.488
 9841SOL    HW230423   6.949   5.935   2.619
 9842SOL     OW30424   3.521   0.117   6.995
 9842SOL    HW130425   3.501   0.205   0.013
 9842SOL    HW230426   3.438   0.078   6.956
 9843SOL     OW30427   0.284   0.671   1.425
 9843SOL    HW130428   0.254   0.765   1.436
 9843SOL    HW230429   0.221   0.610   1.474
 9844SOL     OW30430   5.029   0.754   5.409
 9844SOL    HW130431   5.057   0.670   5.457
 9844SOL    HW230432   5.105   0.785   5.351
 9845SOL     OW30433   1.057   3.837   2.060
 9845SOL    HW130434   1.028   3.933   2.062
 9845SOL    HW230435   1.032   3.792   2.146
 9846SOL     OW30436   6.116   2.012   1.795
 9846SOL    HW130437   6.105   2.006   1.894
 9846SOL    HW230438   6.070   1.935   1.752
 9847SOL     OW30439   4.105   4.414   6.672
 9847SOL    HW130440   4.145   4.338   6.620
 9847SOL    HW230441   4.053   4.378   6.749
 9848SOL     OW30442   3.222   4.223   5.514
 9848SOL    HW130443   3.132   4.195   5.548
 9848SOL    HW230444   3.210   4.298   5.449
 9849SOL     OW30445   1.959   2.070   4.118
 9849SOL    HW130446   2.046   2.120   4.121
 9849SOL    HW230447   1.952   2.012   4.199
 9850SOL     OW30448   1.295   0.040   4.384
 9850SOL    HW130449   1.353   6.983   4.386
 9850SOL    HW230450   1.339   0.111   4.328
 9851SOL     OW30451   3.774   5.836   3.519
 9851SOL    HW130452   3.818   5.747   3.521
 9851SOL    HW230453   3.710   5.841   3.443
 9852SOL     OW30454   1.826   6.587   0.046
 9852SOL    HW130455   1.783   6.676   0.036
 9852SOL    HW230456   1.843   6.548   6.979
 9853SOL     OW30457   0.475   4.247   3.801
 9853SOL    HW130458   0.547   4.309   3.833
 9853SOL    HW230459   0.387   4.276   3.840
 9854SOL     OW30460   6.638   3.574   6.961
 9854SOL    HW130461   6.616   3.645   0.003
 9854SOL    HW230462   6.737   3.557   6.962
 9855SOL     OW30463   0.405   6.179   0.279
 9855SOL    HW130464   0.359   6.262   0.248
 9855SOL    HW230465   0.466   6.200   0.355
 9856SOL     OW30466   5.172   3.659   2.698
 9856SOL    HW130467   5.224   3.725   2.644
 9856SOL    HW230468   5.133   3.589   2.637
 9857SOL     OW30469   4.722   0.327   5.872
 9857SOL    HW130470   4.726   0.417   5.915
 9857SOL    HW230471   4.659   0.268   5.922
 9858SOL     OW30472   6.242   6.154   2.692
 9858SOL    HW130473   6.227   6.098   2.773
 9858SOL    HW230474   6.204   6.245   2.707
 9859SOL     OW30475   0.749   5.577   2.478
 9859SOL    HW130476   0.737   5.622   2.566
 9859SOL    HW230477   0.702   5.629   2.407
 9860SOL     OW30478   1.645   3.174   3.961
 9860SOL    HW130479   1.718   3.141   4.021
 9860SOL    HW230480   1.684   3.200   3.872
 9861SOL     OW30481   3.864   2.036   3.476
 9861SOL    HW130482   3.924   2.054   3.397
 9861SOL    HW230483   3.900   2.083   3.556
 9862SOL     OW30484   1.701   3.351   6.582
 9862SOL    HW130485   1.625   3.393   6.631
 9862SOL    HW230486   1.693   3.370   6.485
 9863SOL     OW30487   4.389   6.733   2.082
 9863SOL    HW130488   4.461   6.753   2.016
 9863SOL    HW230489   4.307   6.786   2.060
 9864SOL     OW30490   2.324   6.230   5.387
 9864SOL    HW130491   2.337   6.167   5.464
 9864SOL    HW230492   2.260   6.189   5.322
 9865SOL     OW30493   1.893   5.606   5.593
 9865SOL    HW130494   1.950   5.674   5.547
 9865SOL    HW230495   1.940   5.573   5.675
 9866SOL     OW30496   6.356   5.286   5.985
 9866SOL    HW130497   6.367   5.293   5.886
 9866SOL    HW230498   6.287   5.217   6.007
 9867SOL     OW30499   4.381   1.453   1.885
 9867SOL    HW130500   4.363   1.493   1.975
 9867SOL    HW230501   4.324   1.499   1.817
 9868SOL     OW30502   2.276   4.628   3.950
 9868SOL    HW130503   2.338   4.563   3.906
 9868SOL    HW230504   2.322   4.717   3.957
 9869SOL     OW30505   0.001   2.343   2.086
 9869SOL    HW130506   0.003   2.268   2.020
 9869SOL    HW230507   0.028   2.428   2.040
 9870SOL     OW30508   2.046   2.473   3.065
 9870SOL    HW130509   1.995   2.541   3.117
 9870SOL    HW230510   2.132   2.453   3.112
 9871SOL     OW30511   5.556   5.795   3.562
 9871SOL    HW130512   5.641   5.771   3.515
 9871SOL    HW230513   5.566   5.884   3.605
 9872SOL     OW30514   0.780   5.528   5.629
 9872SOL    HW130515   0.813   5.520   5.724
 9872SOL    HW230516   0.691   5.572   5.629
 9873SOL     OW30517   1.005   1.343   5.577
 9873SOL    HW130518   1.097   1.379   5.596
 9873SOL    HW230519   0.974   1.290   5.655
 9874SOL     OW30520   0.433   2.427   3.533
 9874SOL    HW130521   0.449   2.352   3.598
 9874SOL    HW230522   0.358   2.484   3.567
 9875SOL     OW30523   6.321   6.028   0.700
 9875SOL    HW130524   6.350   5.938   0.667
 9875SOL    HW230525   6.307   6.089   0.622
 9876SOL     OW30526   0.052   6.695   3.855
 9876SOL    HW130527   7.009   6.768   3.862
 9876SOL    HW230528   0.005   6.606   3.851
 9877SOL     OW30529   0.973   6.163   4.510
 9877SOL    HW130530   0.950   6.171   4.607
 9877SOL    HW230531   0.917   6.227   4.457
 9878SOL     OW30532   3.608   2.670   6.697
 9878SOL    HW130533   3.660   2.738   6.644
 9878SOL    HW230534   3.513   2.699   6.704
 9879SOL     OW30535   6.400   5.791   4.898
 9879SOL    HW130536   6.302   5.796   4.917
 9879SOL    HW230537   6.439   5.713   4.946
 9880SOL     OW30538   3.156   1.140   1.080
 9880SOL    HW130539   3.243   1.187   1.090
 9880SOL    HW230540   3.107   1.177   1.001
 9881SOL     OW30541   6.022   0.587   2.967
 9881SOL    HW130542   6.101   0.541   3.009
 9881SOL    HW230543   5.972   0.522   2.910
 9882SOL     OW30544   3.283   3.300   4.619
 9882SOL    HW130545   3.340   3.230   4.662
 9882SOL    HW230546   3.198   3.259   4.587
 9883SOL     OW30547   1.875   6.451   2.485
 9883SOL    HW130548   1.873   6.486   2.391
 9883SOL    HW230549   1.801   6.385   2.497
 9884SOL     OW30550   3.156   2.645   5.373
 9884SOL    HW130551   3.150   2.576   5.301
 9884SOL    HW230552   3.129   2.734   5.335
 9885SOL     OW30553   4.501   2.407   5.779
 9885SOL    HW130554   4.510   2.450   5.690
 9885SOL    HW230555   4.425   2.342   5.778
 9886SOL     OW30556   3.033   6.017   1.574
 9886SOL    HW130557   3.046   6.030   1.475
 9886SOL    HW230558   2.946   5.972   1.590
 9887SOL     OW30559   3.409   0.939   0.417
 9887SOL    HW130560   3.471   0.886   0.359
 9887SOL    HW230561   3.336   0.979   0.361
 9888SOL     OW30562   6.154   6.843   3.942
 9888SOL    HW130563   6.063   6.873   3.973
 9888SOL    HW230564   6.213   6.923   3.929
 9889SOL     OW30565   6.841   5.274   2.989
 9889SOL    HW130566   6.886   5.336   2.925
 9889SOL    HW230567   6.908   5.213   3.030
 9890SOL     OW30568   1.081   3.179   2.912
 9890SOL    HW130569   1.174   3.167   2.879
 9890SOL    HW230570   1.074   3.150   3.007
 9891SOL     OW30571   4.859   6.384   2.089
 9891SOL    HW130572   4.909   6.346   2.167
 9891SOL    HW230573   4.872   6.325   2.010
 9892SOL     OW30574   1.517   5.951   3.943
 9892SOL    HW130575   1.561   6.037   3.968
 9892SOL    HW230576   1.434   5.939   3.997
 9893SOL     OW30577   5.758   4.463   5.421
 9893SOL    HW130578   5.731   4.461   5.325
 9893SOL    HW230579   5.856   4.481   5.427
 9894SOL     OW30580   4.223   3.982   5.419
 9894SOL    HW130581   4.205   4.001   5.323
 9894SOL    HW230582   4.242   4.068   5.467
 9895SOL     OW30583   5.195   2.184   6.260
 9895SOL    HW130584   5.248   2.101   6.274
 9895SOL    HW230585   5.239   2.240   6.189
 9896SOL     OW30586   3.895   3.610   6.662
 9896SOL    HW130587   3.941   3.524   6.684
 9896SOL    HW230588   3.872   3.658   6.747
 9897SOL     OW30589   0.599   1.530   2.999
 9897SOL    HW130590   0.587   1.596   3.073
 9897SOL    HW230591   0.673   1.467   3.022
 9898SOL     OW30592   1.097   5.126   0.358
 9898SOL    HW130593   1.008   5.125   0.314
 9898SOL    HW230594   1.086   5.151   0.454
 9899SOL     OW30595   4.350   5.271   2.435
 9899SOL    HW130596   4.292   5.277   2.516
 9899SOL    HW230597   4.328   5.188   2.383
 9900SOL     OW30598   2.033   4.305   4.134
 9900SOL    HW130599   2.039   4.400   4.103
 9900SOL    HW230600   2.126   4.267   4.144
 9901SOL     OW30601   1.979   2.126   6.087
 9901SOL    HW130602   2.047   2.158   6.022
 9901SOL    HW230603   2.024   2.081   6.164
 9902SOL     OW30604   4.463   3.831   6.422
 9902SOL    HW130605   4.519   3.790   6.494
 9902SOL    HW230606   4.518   3.893   6.367
 9903SOL     OW30607   3.124   1.807   1.414
 9903SOL    HW130608   3.119   1.746   1.493
 9903SOL    HW230609   3.093   1.758   1.333
 9904SOL     OW30610   0.006   6.756   2.518
 9904SOL    HW130611   6.965   6.830   2.533
 9904SOL    HW230612   0.097   6.795   2.501
 9905SOL     OW30613   1.833   6.561   5.787
 9905SOL    HW130614   1.817   6.463   5.799
 9905SOL    HW230615   1.828   6.584   5.690
 9906SOL     OW30616   3.389   3.794   6.041
 9906SOL    HW130617   3.449   3.870   6.067
 9906SOL    HW230618   3.424   3.709   6.081
 9907SOL     OW30619   1.442   6.997   2.940
 9907SOL    HW130620   1.382   7.017   2.863
 9907SOL    HW230621   1.433   0.044   3.009
 9908SOL     OW30622   6.550   3.218   5.463
 9908SOL    HW130623   6.546   3.266   5.550
 9908SOL    HW230624   6.457   3.195   5.433
 9909SOL     OW30625   3.331   6.878   2.163
 9909SOL    HW130626   3.419   6.898   2.204
 9909SOL    HW230627   3.276   6.961   2.158
 9910SOL     OW30628   0.960   4.993   1.008
 9910SOL    HW130629   1.059   4.980   0.998
 9910SOL    HW230630   0.912   4.913   0.974
 9911SOL     OW30631   3.653   4.888   3.099
 9911SOL    HW130632   3.556   4.903   3.119
 9911SOL    HW230633   3.702   4.975   3.103
 9912SOL     OW30634   4.470   6.869   1.088
 9912SOL    HW130635   4.429   6.960   1.080
 9912SOL    HW230636   4.413   6.812   1.147
 9913SOL     OW30637   4.858   2.593   2.750
 9913SOL    HW130638   4.774   2.634   2.784
 9913SOL    HW230639   4.925   2.587   2.824
 9914SOL     OW30640   2.328   5.244   4.720
 9914SOL    HW130641   2.364   5.193   4.641
 9914SOL    HW230642   2.231   5.223   4.731
 9915SOL     OW30643   6.284   4.028   4.253
 9915SOL    HW130644   6.324   4.120   4.261
 9915SOL    HW230645   6.337   3.974   4.189
 9916SOL     OW30646   3.088   4.164   0.507
 9916SOL    HW130647   3.182   4.151   0.474
 9916SOL    HW230648   3.091   4.193   0.602
 9917SOL     OW30649   2.171   2.999   4.843
 9917SOL    HW130650   2.245   2.987   4.910
 9917SOL    HW230651   2.109   3.071   4.874
 9918SOL     OW30652   2.652   0.600   4.590
 9918SOL    HW130653   2.730   0.642   4.637
 9918SOL    HW230654   2.683   0.548   4.511
 9919SOL     OW30655   0.934   5.001   2.312
 9919SOL    HW130656   0.857   5.039   2.262
 9919SOL    HW230657   0.932   5.033   2.406
 9920SOL     OW30658   4.203   0.023   2.577
 9920SOL    HW130659   4.160   0.112   2.596
 9920SOL    HW230660   4.301   0.036   2.562
 9921SOL     OW30661   4.942   0.537   2.536
 9921SOL    HW130662   5.022   0.494   2.493
 9921SOL    HW230663   4.971   0.618   2.587
 9922SOL     OW30664   5.392   2.507   2.018
 9922SOL    HW130665   5.426   2.573   2.084
 9922SOL    HW230666   5.354   2.554   1.940
 9923SOL     OW30667   6.069   0.535   6.709
 9923SOL    HW130668   6.003   0.595   6.665
 9923SOL    HW230669   6.024   0.449   6.735
 9924SOL     OW30670   5.268   0.843   4.114
 9924SOL    HW130671   5.202   0.884   4.050
 9924SOL    HW230672   5.219   0.811   4.195
 9925SOL     OW30673   3.969   2.123   4.678
 9925SOL    HW130674   4.011   2.169   4.756
 9925SOL    HW230675   3.946   2.029   4.704
 9926SOL     OW30676   1.804   0.967   5.433
 9926SOL    HW130677   1.891   0.944   5.390
 9926SOL    HW230678   1.750   0.883   5.445
 9927SOL     OW30679   0.984   2.901   2.915
 9927SOL    HW130680   0.957   2.936   2.825
 9927SOL    HW230681   1.083   2.901   2.922
 9928SOL     OW30682   0.133   3.244   2.080
 9928SOL    HW130683   0.049   3.205   2.116
 9928SOL    HW230684   0.155   3.328   2.129
 9929SOL     OW30685   0.812   5.102   5.425
 9929SOL    HW130686   0.865   5.168   5.477
 9929SOL    HW230687   0.738   5.066   5.483
 9930SOL     OW30688   6.829   5.397   6.219
 9930SOL    HW130689   6.775   5.478   6.196
 9930SOL    HW230690   6.858   5.402   6.314
 9931SOL     OW30691   2.401   4.976   6.702
 9931SOL    HW130692   2.315   4.992   6.653
 9931SOL    HW230693   2.463   4.923   6.644
 9932SOL     OW30694   2.616   2.908   0.970
 9932SOL    HW130695   2.689   2.843   0.990
 9932SOL    HW230696   2.654   3.001   0.964
 9933SOL     OW30697   0.954   1.070   2.560
 9933SOL    HW130698   1.048   1.084   2.531
 9933SOL    HW230699   0.892   1.081   2.482
 9934SOL     OW30700   4.891   0.585   6.049
 9934SOL    HW130701   4.910   0.661   6.111
 9934SOL    HW230702   4.881   0.501   6.101
 9935SOL     OW30703   2.535   3.240   0.592
 9935SOL    HW130704   2.492   3.188   0.665
 9935SOL    HW230705   2.632   3.217   0.587
 9936SOL     OW30706   5.208   6.559   6.682
 9936SOL    HW130707   5.297   6.520   6.662
 9936SOL    HW230708   5.176   6.526   6.771
 9937SOL     OW30709   1.649   6.850   3.605
 9937SOL    HW130710   1.612   6.763   3.639
 9937SOL    HW230711   1.741   6.864   3.643
 9938SOL     OW30712   0.224   1.300   3.218
 9938SOL    HW130713   0.238   1.399   3.208
 9938SOL    HW230714   0.274   1.252   3.146
 9939SOL     OW30715   2.453   3.801   1.493
 9939SOL    HW130716   2.464   3.756   1.405
 9939SOL    HW230717   2.497   3.891   1.490
 9940SOL     OW30718   7.018   0.739   3.109
 9940SOL    HW130719   6.982   0.653   3.145
 9940SOL    HW230720   0.093   0.738   3.114
 9941SOL     OW30721   5.550   3.594   0.927
 9941SOL    HW130722   5.531   3.602   1.025
 9941SOL    HW230723   5.612   3.667   0.899
 9942SOL     OW30724   6.618   5.877   2.690
 9942SOL    HW130725   6.703   5.918   2.657
 9942SOL    HW230726   6.599   5.909   2.783
 9943SOL     OW30727   1.901   4.025   5.455
 9943SOL    HW130728   1.991   4.050   5.491
 9943SOL    HW230729   1.864   4.102   5.403
 9944SOL     OW30730   2.033   5.323   6.528
 9944SOL    HW130731   2.039   5.353   6.623
 9944SOL    HW230732   2.015   5.402   6.469
 9945SOL     OW30733   6.340   3.318   6.834
 9945SOL    HW130734   6.406   3.337   6.906
 9945SOL    HW230735   6.324   3.220   6.827
 9946SOL     OW30736   5.009   2.569   1.575
 9946SOL    HW130737   4.983   2.626   1.653
 9946SOL    HW230738   5.040   2.479   1.608
 9947SOL     OW30739   1.296   1.556   2.796
 9947SOL    HW130740   1.275   1.458   2.806
 9947SOL    HW230741   1.320   1.594   2.886
 9948SOL     OW30742   5.850   0.619   5.733
 9948SOL    HW130743   5.759   0.632   5.694
 9948SOL    HW230744   5.919   0.651   5.668
 9949SOL     OW30745   6.636   3.530   3.113
 9949SOL    HW130746   6.618   3.619   3.154
 9949SOL    HW230747   6.735   3.520   3.097
 9950SOL     OW30748   4.650   5.093   5.785
 9950SOL    HW130749   4.599   5.163   5.736
 9950SOL    HW230750   4.743   5.126   5.803
 9951SOL     OW30751   0.281   2.205   2.921
 9951SOL    HW130752   0.236   2.144   2.856
 9951SOL    HW230753   0.347   2.263   2.872
 9952SOL     OW30754   1.794   4.707   1.418
 9952SOL    HW130755   1.835   4.633   1.471
 9952SOL    HW230756   1.704   4.678   1.384
 9953SOL     OW30757   6.569   4.490   4.345
 9953SOL    HW130758   6.640   4.555   4.372
 9953SOL    HW230759   6.604   4.396   4.353
 9954SOL     OW30760   3.792   1.288   1.199
 9954SOL    HW130761   3.821   1.281   1.104
 9954SOL    HW230762   3.845   1.358   1.246
 9955SOL     OW30763   6.027   5.261   1.448
 9955SOL    HW130764   6.100   5.195   1.464
 9955SOL    HW230765   6.056   5.351   1.480
 9956SOL     OW30766   1.626   3.275   3.233
 9956SOL    HW130767   1.580   3.335   3.167
 9956SOL    HW230768   1.620   3.315   3.324
 9957SOL     OW30769   5.331   0.058   0.480
 9957SOL    HW130770   5.268   7.006   0.469
 9957SOL    HW230771   5.391   0.041   0.558
 9958SOL     OW30772   5.856   6.160   5.931
 9958SOL    HW130773   5.933   6.157   5.867
 9958SOL    HW230774   5.770   6.148   5.881
 9959SOL     OW30775   5.901   4.475   6.943
 9959SOL    HW130776   5.908   4.419   0.000
 9959SOL    HW230777   5.963   4.553   6.950
 9960SOL     OW30778   6.580   0.164   6.978
 9960SOL    HW130779   6.481   0.161   6.975
 9960SOL    HW230780   6.611   0.259   6.971
 9961SOL     OW30781   3.019   6.063   0.705
 9961SOL    HW130782   3.047   6.095   0.795
 9961SOL    HW230783   2.953   6.126   0.665
 9962SOL     OW30784   3.326   0.696   1.526
 9962SOL    HW130785   3.418   0.668   1.498
 9962SOL    HW230786   3.268   0.615   1.534
 9963SOL     OW30787   1.096   0.308   6.113
 9963SOL    HW130788   1.182   0.335   6.156
 9963SOL    HW230789   1.109   0.221   6.065
 9964SOL     OW30790   4.565   5.093   4.969
 9964SOL    HW130791   4.616   5.174   4.940
 9964SOL    HW230792   4.502   5.066   4.897
 9965SOL     OW30793   2.862   4.829   4.238
 9965SOL    HW130794   2.837   4.903   4.300
 9965SOL    HW230795   2.786   4.764   4.231
 9966SOL     OW30796   3.617   5.746   2.629
 9966SOL    HW130797   3.629   5.845   2.634
 9966SOL    HW230798   3.545   5.719   2.693
 9967SOL     OW30799   0.266   0.719   3.080
 9967SOL    HW130800   0.353   0.763   3.101
 9967SOL    HW230801   0.275   0.620   3.090
 9968SOL     OW30802   4.397   6.699   6.819
 9968SOL    HW130803   4.342   6.618   6.801
 9968SOL    HW230804   4.474   6.674   6.877
 9969SOL     OW30805   0.018   5.640   3.460
 9969SOL    HW130806   6.965   5.657   3.521
 9969SOL    HW230807   0.043   5.724   3.413
 9970SOL     OW30808   6.503   3.247   2.037
 9970SOL    HW130809   6.438   3.279   1.969
 9970SOL    HW230810   6.585   3.304   2.034
 9971SOL     OW30811   0.273   5.133   4.540
 9971SOL    HW130812   0.271   5.102   4.445
 9971SOL    HW230813   0.337   5.210   4.549
 9972SOL     OW30814   2.811   4.607   5.743
 9972SOL    HW130815   2.749   4.586   5.667
 9972SOL    HW230816   2.795   4.544   5.818
 9973SOL     OW30817   3.335   1.775   2.880
 9973SOL    HW130818   3.247   1.801   2.839
 9973SOL    HW230819   3.409   1.818   2.829
 9974SOL     OW30820   1.108   2.172   3.173
 9974SOL    HW130821   1.070   2.215   3.091
 9974SOL    HW230822   1.062   2.085   3.189
 9975SOL     OW30823   2.646   4.246   6.188
 9975SOL    HW130824   2.728   4.204   6.148
 9975SOL    HW230825   2.565   4.193   6.161
 9976SOL     OW30826   4.039   6.284   5.114
 9976SOL    HW130827   4.069   6.375   5.143
 9976SOL    HW230828   4.085   6.259   5.029
 9977SOL     OW30829   4.100   0.553   5.219
 9977SOL    HW130830   4.184   0.504   5.193
 9977SOL    HW230831   4.123   0.643   5.255
 9978SOL     OW30832   0.534   2.778   0.231
 9978SOL    HW130833   0.626   2.739   0.226
 9978SOL    HW230834   0.511   2.820   0.143
 9979SOL     OW30835   3.712   3.888   4.909
 9979SOL    HW130836   3.629   3.876   4.855
 9979SOL    HW230837   3.706   3.835   4.993
 9980SOL     OW30838   0.901   0.856   0.131
 9980SOL    HW130839   0.936   0.931   0.187
 9980SOL    HW230840   0.920   0.769   0.175
 9981SOL     OW30841   5.357   0.724   0.379
 9981SOL    HW130842   5.449   0.692   0.402
 9981SOL    HW230843   5.301   0.647   0.351
 9982SOL     OW30844   2.752   2.316   4.468
 9982SOL    HW130845   2.816   2.275   4.532
 9982SOL    HW230846   2.802   2.345   4.386
 9983SOL     OW30847   0.678   3.537   2.189
 9983SOL    HW130848   0.710   3.454   2.235
 9983SOL    HW230849   0.713   3.538   2.095
 9984SOL     OW30850   0.611   4.750   1.251
 9984SOL    HW130851   0.526   4.697   1.257
 9984SOL    HW230852   0.602   4.834   1.305
 9985SOL     OW30853   4.775   4.372   0.015
 9985SOL    HW130854   4.872   4.356   0.029
 9985SOL    HW230855   4.723   4.337   0.093
 9986SOL     OW30856   5.550   4.810   0.386
 9986SOL    HW130857   5.559   4.874   0.310
 9986SOL    HW230858   5.453   4.799   0.409
 9987SOL     OW30859   5.123   1.912   1.177
 9987SOL    HW130860   5.032   1.920   1.135
 9987SOL    HW230861   5.123   1.837   1.243
 9988SOL     OW30862   6.014   6.797   3.705
 9988SOL    HW130863   5.990   6.704   3.676
 9988SOL    HW230864   6.060   6.793   3.794
 9989SOL     OW30865   6.836   5.654   2.017
 9989SOL    HW130866   6.779   5.651   2.099
 9989SOL    HW230867   6.928   5.621   2.039
 9990SOL     OW30868   6.924   6.853   2.935
 9990SOL    HW130869   6.958   6.770   2.892
 9990SOL    HW230870   6.866   6.830   3.012
 9991SOL     OW30871   2.178   4.166   2.432
 9991SOL    HW130872   2.223   4.253   2.412
 9991SOL    HW230873   2.208   4.133   2.522
 9992SOL     OW30874   2.599   5.263   0.421
 9992SOL    HW130875   2.501   5.263   0.401
 9992SOL    HW230876   2.624   5.348   0.467
 9993SOL     OW30877   4.235   0.444   4.753
 9993SOL    HW130878   4.182   0.381   4.810
 9993SOL    HW230879   4.187   0.532   4.747
 9994SOL     OW30880   6.342   5.093   5.062
 9994SOL    HW130881   6.380   5.009   5.022
 9994SOL    HW230882   6.300   5.148   4.991
 9995SOL     OW30883   3.943   1.871   6.154
 9995SOL    HW130884   3.978   1.793   6.101
 9995SOL    HW230885   3.946   1.849   6.251
 9996SOL     OW30886   2.907   4.403   1.097
 9996SOL    HW130887   2.949   4.361   1.177
 9996SOL    HW230888   2.865   4.490   1.123
 9997SOL     OW30889   6.796   1.480   2.909
 9997SOL    HW130890   6.812   1.382   2.901
 9997SOL    HW230891   6.699   1.499   2.899
 9998SOL     OW30892   5.475   3.938   2.553
 9998SOL    HW130893   5.393   3.966   2.503
 9998SOL    HW230894   5.467   3.968   2.648
 9999SOL     OW30895   0.560   6.947   4.669
 9999SOL    HW130896   0.493   7.021   4.657
 9999SOL    HW230897   0.647   6.985   4.699
10000SOL     OW30898   4.374   2.133   1.275
10000SOL    HW130899   4.465   2.114   1.240
10000SOL    HW230900   4.308   2.134   1.200
10001SOL     OW30901   3.925   5.966   1.682
10001SOL    HW130902   3.868   6.048   1.673
10001SOL    HW230903   3.870   5.892   1.720
10002SOL     OW30904   2.303   6.821   2.347
10002SOL    HW130905   2.365   6.742   2.349
10002SOL    HW230906   2.356   6.905   2.341
10003SOL     OW30907   1.587   1.231   2.615
10003SOL    HW130908   1.651   1.155   2.607
10003SOL    HW230909   1.549   1.253   2.525
10004SOL     OW30910   0.463   4.012   3.668
10004SOL    HW130911   0.490   4.092   3.722
10004SOL    HW230912   0.383   3.969   3.711
10005SOL     OW30913   2.576   5.874   3.446
10005SOL    HW130914   2.546   5.789   3.403
10005SOL    HW230915   2.630   5.854   3.527
10006SOL     OW30916   5.166   1.329   5.182
10006SOL    HW130917   5.197   1.370   5.268
10006SOL    HW230918   5.143   1.401   5.117
10007SOL     OW30919   1.365   4.953   3.985
10007SOL    HW130920   1.330   4.922   4.074
10007SOL    HW230921   1.451   5.003   3.999
10008SOL     OW30922   4.128   1.149   6.137
10008SOL    HW130923   4.038   1.135   6.178
10008SOL    HW230924   4.125   1.124   6.041
10009SOL     OW30925   0.939   4.736   2.436
10009SOL    HW130926   0.947   4.799   2.358
10009SOL    HW230927   1.030   4.699   2.458
10010SOL     OW30928   2.291   4.102   1.489
10010SOL    HW130929   2.385   4.076   1.467
10010SOL    HW230930   2.285   4.201   1.497
10011SOL     OW30931   2.948   2.961   0.264
10011SOL    HW130932   2.899   3.042   0.296
10011SOL    HW230933   3.047   2.978   0.268
10012SOL     OW30934   5.641   1.857   3.131
10012SOL    HW130935   5.676   1.842   3.039
10012SOL    HW230936   5.595   1.946   3.136
10013SOL     OW30937   0.581   6.581   4.401
10013SOL    HW130938   0.489   6.552   4.431
10013SOL    HW230939   0.580   6.679   4.382
10014SOL     OW30940   1.432   0.747   3.313
10014SOL    HW130941   1.374   0.824   3.340
10014SOL    HW230942   1.508   0.781   3.257
10015SOL     OW30943   3.858   6.704   6.315
10015SOL    HW130944   3.815   6.614   6.317
10015SOL    HW230945   3.850   6.743   6.224
10016SOL     OW30946   2.223   0.709   4.657
10016SOL    HW130947   2.316   0.730   4.625
10016SOL    HW230948   2.180   0.645   4.594
10017SOL     OW30949   3.309   1.511   2.629
10017SOL    HW130950   3.263   1.517   2.540
10017SOL    HW230951   3.394   1.564   2.626
10018SOL     OW30952   0.089   3.805   5.194
10018SOL    HW130953   0.161   3.767   5.135
10018SOL    HW230954   0.014   3.840   5.138
10019SOL     OW30955   0.266   2.093   2.064
10019SOL    HW130956   0.254   2.132   2.155
10019SOL    HW230957   0.340   2.026   2.066
10020SOL     OW30958   6.636   1.364   2.231
10020SOL    HW130959   6.672   1.368   2.324
10020SOL    HW230960   6.594   1.275   2.214
10021SOL     OW30961   0.717   3.086   2.081
10021SOL    HW130962   0.652   3.119   2.149
10021SOL    HW230963   0.747   2.994   2.106
10022SOL     OW30964   1.194   6.173   5.825
10022SOL    HW130965   1.131   6.232   5.875
10022SOL    HW230966   1.288   6.188   5.858
10023SOL     OW30967   0.295   1.895   6.166
10023SOL    HW130968   0.341   1.878   6.253
10023SOL    HW230969   0.212   1.948   6.182
10024SOL     OW30970   2.200   4.445   2.865
10024SOL    HW130971   2.175   4.534   2.828
10024SOL    HW230972   2.272   4.404   2.809
10025SOL     OW30973   1.189   3.573   0.884
10025SOL    HW130974   1.123   3.633   0.929
10025SOL    HW230975   1.244   3.626   0.820
10026SOL     OW30976   5.776   1.065   5.417
10026SOL    HW130977   5.871   1.047   5.392
10026SOL    HW230978   5.770   1.153   5.464
10027SOL     OW30979   3.534   1.612   4.976
10027SOL    HW130980   3.450   1.562   4.956
10027SOL    HW230981   3.511   1.703   5.011
10028SOL     OW30982   4.549   7.025   1.732
10028SOL    HW130983   4.529   7.009   1.636
10028SOL    HW230984   4.583   6.940   1.773
10029SOL     OW30985   0.343   4.168   4.751
10029SOL    HW130986   0.341   4.091   4.687
10029SOL    HW230987   0.361   4.252   4.700
10030SOL     OW30988   2.797   0.216   4.563
10030SOL    HW130989   2.844   0.294   4.521
10030SOL    HW230990   2.702   0.241   4.581
10031SOL     OW30991   2.073   6.240   2.934
10031SOL    HW130992   2.085   6.209   2.840
10031SOL    HW230993   2.144   6.200   2.992
10032SOL     OW30994   3.142   6.070   4.736
10032SOL    HW130995   3.199   6.028   4.806
10032SOL    HW230996   3.071   6.126   4.780
10033SOL     OW30997   3.604   1.149   4.940
10033SOL    HW130998   3.598   1.205   4.857
10033SOL    HW230999   3.638   1.205   5.016
10034SOL     OW31000   2.703   1.105   2.636
10034SOL    HW131001   2.757   1.182   2.603
10034SOL    HW231002   2.680   1.120   2.732
10035SOL     OW31003   6.507   3.077   2.464
10035SOL    HW131004   6.443   3.076   2.387
10035SOL    HW231005   6.460   3.050   2.547
10036SOL     OW31006   1.137   1.210   7.023
10036SOL    HW131007   1.211   1.156   0.039
10036SOL    HW231008   1.172   1.259   6.942
10037SOL     OW31009   5.633   6.486   6.086
10037SOL    HW131010   5.634   6.394   6.124
10037SOL    HW231011   5.569   6.543   6.137
10038SOL     OW31012   4.495   6.459   6.495
10038SOL    HW131013   4.584   6.505   6.493
10038SOL    HW231014   4.439   6.490   6.418
10039SOL     OW31015   0.510   5.845   2.540
10039SOL    HW131016   0.553   5.784   2.607
10039SOL    HW231017   0.547   5.825   2.449
10040SOL     OW31018   2.448   0.297   0.576
10040SOL    HW131019   2.398   0.212   0.589
10040SOL    HW231020   2.385   0.369   0.545
10041SOL     OW31021   5.781   5.397   4.791
10041SOL    HW131022   5.739   5.307   4.802
10041SOL    HW231023   5.710   5.463   4.766
10042SOL     OW31024   6.803   0.275   5.085
10042SOL    HW131025   6.732   0.240   5.023
10042SOL    HW231026   6.807   0.375   5.078
10043SOL     OW31027   0.818   0.717   3.700
10043SOL    HW131028   0.753   0.671   3.639
10043SOL    HW231029   0.834   0.661   3.781
10044SOL     OW31030   3.232   1.687   0.264
10044SOL    HW131031   3.236   1.608   0.202
10044SOL    HW231032   3.137   1.718   0.271
10045SOL     OW31033   4.194   6.763   4.449
10045SOL    HW131034   4.176   6.794   4.543
10045SOL    HW231035   4.280   6.801   4.417
10046SOL     OW31036   6.515   2.536   1.373
10046SOL    HW131037   6.608   2.543   1.337
10046SOL    HW231038   6.450   2.529   1.297
10047SOL     OW31039   0.577   2.007   3.020
10047SOL    HW131040   0.628   2.040   3.099
10047SOL    HW231041   0.479   2.016   3.037
10048SOL     OW31042   3.726   2.669   1.781
10048SOL    HW131043   3.650   2.606   1.791
10048SOL    HW231044   3.806   2.620   1.744
10049SOL     OW31045   1.722   6.672   4.776
10049SOL    HW131046   1.653   6.610   4.740
10049SOL    HW231047   1.792   6.620   4.824
10050SOL     OW31048   5.581   1.326   4.358
10050SOL    HW131049   5.575   1.339   4.457
10050SOL    HW231050   5.531   1.243   4.333
10051SOL     OW31051   6.253   2.087   6.848
10051SOL    HW131052   6.289   2.135   6.927
10051SOL    HW231053   6.245   2.150   6.771
10052SOL     OW31054   1.044   4.122   2.005
10052SOL    HW131055   0.954   4.158   1.981
10052SOL    HW231056   1.098   4.108   1.922
10053SOL     OW31057   2.799   6.564   3.060
10053SOL    HW131058   2.882   6.568   3.004
10053SOL    HW231059   2.721   6.539   3.002
10054SOL     OW31060   4.438   5.667   4.005
10054SOL    HW131061   4.432   5.697   4.100
10054SOL    HW231062   4.534   5.648   3.982
10055SOL     OW31063   6.730   3.161   6.568
10055SOL    HW131064   6.722   3.092   6.640
10055SOL    HW231065   6.757   3.248   6.609
10056SOL     OW31066   6.570   4.971   2.008
10056SOL    HW131067   6.529   4.916   1.936
10056SOL    HW231068   6.508   4.974   2.087
10057SOL     OW31069   2.896   2.299   3.426
10057SOL    HW131070   2.910   2.323   3.522
10057SOL    HW231071   2.803   2.324   3.399
10058SOL     OW31072   0.882   4.178   3.750
10058SOL    HW131073   0.956   4.235   3.785
10058SOL    HW231074   0.794   4.215   3.779
10059SOL     OW31075   5.442   6.844   1.147
10059SOL    HW131076   5.386   6.899   1.209
10059SOL    HW231077   5.530   6.825   1.190
10060SOL     OW31078   2.217   2.871   2.203
10060SOL    HW131079   2.282   2.812   2.251
10060SOL    HW231080   2.193   2.829   2.116
10061SOL     OW31081   6.366   2.174   4.813
10061SOL    HW131082   6.292   2.223   4.768
10061SOL    HW231083   6.441   2.160   4.747
10062SOL     OW31084   6.068   5.264   3.389
10062SOL    HW131085   6.037   5.355   3.363
10062SOL    HW231086   5.989   5.202   3.393
10063SOL     OW31087   1.158   2.638   2.731
10063SOL    HW131088   1.255   2.624   2.713
10063SOL    HW231089   1.146   2.717   2.791
10064SOL     OW31090   5.789   5.972   4.419
10064SOL    HW131091   5.817   6.035   4.347
10064SOL    HW231092   5.758   6.025   4.499
10065SOL     OW31093   0.734   6.736   3.308
10065SOL    HW131094   0.747   6.675   3.230
10065SOL    HW231095   0.760   6.829   3.282
10066SOL     OW31096   0.646   0.363   3.758
10066SOL    HW131097   0.618   0.409   3.842
10066SOL    HW231098   0.746   0.358   3.754
10067SOL     OW31099   4.475   6.499   3.121
10067SOL    HW131100   4.528   6.583   3.137
10067SOL    HW231101   4.510   6.426   3.179
10068SOL     OW31102   5.139   4.045   5.598
10068SOL    HW131103   5.088   4.015   5.678
10068SOL    HW231104   5.136   3.974   5.528
10069SOL     OW31105   4.444   1.164   3.768
10069SOL    HW131106   4.351   1.145   3.799
10069SOL    HW231107   4.496   1.205   3.843
10070SOL     OW31108   0.861   6.838   4.412
10070SOL    HW131109   0.763   6.855   4.424
10070SOL    HW231110   0.897   6.794   4.495
10071SOL     OW31111   5.180   5.071   5.121
10071SOL    HW131112   5.210   5.143   5.059
10071SOL    HW231113   5.140   4.996   5.069
10072SOL     OW31114   0.934   6.867   3.783
10072SOL    HW131115   0.927   6.872   3.883
10072SOL    HW231116   0.960   6.957   3.747
10073SOL     OW31117   0.781   5.384   6.688
10073SOL    HW131118   0.803   5.406   6.783
10073SOL    HW231119   0.801   5.287   6.671
10074SOL     OW31120   2.157   6.584   5.716
10074SOL    HW131121   2.150   6.511   5.784
10074SOL    HW231122   2.131   6.671   5.757
10075SOL     OW31123   1.976   2.313   3.834
10075SOL    HW131124   1.972   2.410   3.808
10075SOL    HW231125   1.898   2.291   3.892
10076SOL     OW31126   5.740   0.210   4.499
10076SOL    HW131127   5.786   0.205   4.588
10076SOL    HW231128   5.673   0.136   4.492
10077SOL     OW31129   3.595   1.294   6.737
10077SOL    HW131130   3.681   1.345   6.731
10077SOL    HW231131   3.544   1.323   6.818
10078SOL     OW31132   5.968   6.448   5.638
10078SOL    HW131133   5.946   6.467   5.734
10078SOL    HW231134   5.961   6.350   5.621
10079SOL     OW31135   6.836   3.779   6.497
10079SOL    HW131136   6.744   3.753   6.526
10079SOL    HW231137   6.841   3.773   6.397
10080SOL     OW31138   1.620   3.029   6.211
10080SOL    HW131139   1.694   3.078   6.165
10080SOL    HW231140   1.647   2.934   6.227
10081SOL     OW31141   0.365   1.015   6.885
10081SOL    HW131142   0.327   0.923   6.875
10081SOL    HW231143   0.451   1.021   6.835
10082SOL     OW31144   6.797   1.279   0.795
10082SOL    HW131145   6.804   1.350   0.865
10082SOL    HW231146   6.842   1.196   0.827
10083SOL     OW31147   5.399   1.103   4.305
10083SOL    HW131148   5.428   1.016   4.344
10083SOL    HW231149   5.371   1.089   4.210
10084SOL     OW31150   2.612   0.969   6.132
10084SOL    HW131151   2.551   1.047   6.142
10084SOL    HW231152   2.700   0.991   6.173
10085SOL     OW31153   0.790   5.699   3.200
10085SOL    HW131154   0.766   5.727   3.293
10085SOL    HW231155   0.843   5.771   3.156
10086SOL     OW31156   6.412   3.570   2.661
10086SOL    HW131157   6.420   3.574   2.760
10086SOL    HW231158   6.357   3.647   2.629
10087SOL     OW31159   1.301   0.591   3.998
10087SOL    HW131160   1.244   0.556   4.072
10087SOL    HW231161   1.243   0.624   3.923
10088SOL     OW31162   7.020   0.594   4.823
10088SOL    HW131163   7.020   0.588   4.923
10088SOL    HW231164   6.966   0.674   4.795
10089SOL     OW31165   1.444   3.082   2.301
10089SOL    HW131166   1.395   3.013   2.248
10089SOL    HW231167   1.471   3.042   2.389
10090SOL     OW31168   0.897   4.786   1.235
10090SOL    HW131169   0.800   4.787   1.211
10090SOL    HW231170   0.948   4.741   1.162
10091SOL     OW31171   0.570   2.369   4.069
10091SOL    HW131172   0.613   2.457   4.089
10091SOL    HW231173   0.470   2.378   4.074
10092SOL     OW31174   1.916   3.705   4.600
10092SOL    HW131175   1.820   3.727   4.613
10092SOL    HW231176   1.968   3.789   4.582
10093SOL     OW31177   6.920   4.977   6.268
10093SOL    HW131178   6.992   5.047   6.267
10093SOL    HW231179   6.833   5.018   6.292
10094SOL     OW31180   1.472   1.216   1.579
10094SOL    HW131181   1.414   1.270   1.517
10094SOL    HW231182   1.428   1.129   1.599
10095SOL     OW31183   0.541   1.027   5.700
10095SOL    HW131184   0.626   1.058   5.657
10095SOL    HW231185   0.560   0.948   5.759
10096SOL     OW31186   0.619   4.744   2.087
10096SOL    HW131187   0.591   4.654   2.054
10096SOL    HW231188   0.584   4.758   2.180
10097SOL     OW31189   1.063   2.006   6.625
10097SOL    HW131190   0.991   2.033   6.689
10097SOL    HW231191   1.091   2.086   6.571
10098SOL     OW31192   3.327   4.702   6.373
10098SOL    HW131193   3.307   4.604   6.376
10098SOL    HW231194   3.421   4.716   6.342
10099SOL     OW31195   6.558   4.866   4.704
10099SOL    HW131196   6.626   4.793   4.692
10099SOL    HW231197   6.534   4.903   4.614
10100SOL     OW31198   5.932   1.066   5.880
10100SOL    HW131199   5.907   1.153   5.923
10100SOL    HW231200   6.031   1.054   5.884
10101SOL     OW31201   0.270   4.530   2.117
10101SOL    HW131202   0.365   4.526   2.087
10101SOL    HW231203   0.266   4.572   2.208
10102SOL     OW31204   3.868   1.125   3.074
10102SOL    HW131205   3.890   1.120   2.976
10102SOL    HW231206   3.858   1.221   3.101
10103SOL     OW31207   2.775   1.660   0.136
10103SOL    HW131208   2.854   1.721   0.139
10103SOL    HW231209   2.725   1.674   0.050
10104SOL     OW31210   1.733   5.824   5.050
10104SOL    HW131211   1.810   5.819   5.114
10104SOL    HW231212   1.743   5.754   4.980
10105SOL     OW31213   2.928   0.394   6.336
10105SOL    HW131214   2.926   0.425   6.431
10105SOL    HW231215   2.840   0.351   6.313
10106SOL     OW31216   5.656   5.613   0.202
10106SOL    HW131217   5.720   5.602   0.278
10106SOL    HW231218   5.682   5.692   0.147
10107SOL     OW31219   5.832   1.297   6.036
10107SOL    HW131220   5.901   1.283   6.108
10107SOL    HW231221   5.759   1.230   6.046
10108SOL     OW31222   6.085   6.630   7.024
10108SOL    HW131223   6.033   6.552   6.990
10108SOL    HW231224   6.028   6.713   7.017
10109SOL     OW31225   4.639   5.287   3.315
10109SOL    HW131226   4.689   5.261   3.398
10109SOL    HW231227   4.640   5.211   3.251
10110SOL     OW31228   3.440   1.496   5.585
10110SOL    HW131229   3.474   1.556   5.513
10110SOL    HW231230   3.363   1.540   5.632
10111SOL     OW31231   0.785   2.560   2.646
10111SOL    HW131232   0.828   2.594   2.729
10111SOL    HW231233   0.819   2.468   2.626
10112SOL     OW31234   4.025   4.180   5.880
10112SOL    HW131235   3.999   4.171   5.784
10112SOL    HW231236   3.964   4.246   5.925
10113SOL     OW31237   3.310   6.303   6.801
10113SOL    HW131238   3.297   6.342   6.892
10113SOL    HW231239   3.306   6.375   6.733
10114SOL     OW31240   4.088   1.517   1.262
10114SOL    HW131241   4.148   1.443   1.232
10114SOL    HW231242   4.139   1.604   1.260
10115SOL     OW31243   1.385   2.118   3.833
10115SOL    HW131244   1.341   2.119   3.923
10115SOL    HW231245   1.330   2.170   3.768
10116SOL     OW31246   0.905   0.997   1.228
10116SOL    HW131247   0.950   1.005   1.139
10116SOL    HW231248   0.824   0.939   1.220
10117SOL     OW31249   5.412   0.970   5.824
10117SOL    HW131250   5.358   0.937   5.747
10117SOL    HW231251   5.508   0.945   5.811
10118SOL     OW31252   6.625   5.125   2.683
10118SOL    HW131253   6.579   5.065   2.749
10118SOL    HW231254   6.557   5.169   2.625
10119SOL     OW31255   2.731   0.048   5.773
10119SOL    HW131256   2.713   0.005   5.861
10119SOL    HW231257   2.774   0.137   5.787
10120SOL     OW31258   6.442   2.489   3.352
10120SOL    HW131259   6.441   2.587   3.332
10120SOL    HW231260   6.436   2.475   3.451
10121SOL     OW31261   6.697   5.162   4.339
10121SOL    HW131262   6.757   5.170   4.418
10121SOL    HW231263   6.699   5.248   4.287
10122SOL     OW31264   5.403   3.100   0.297
10122SOL    HW131265   5.365   3.057   0.379
10122SOL    HW231266   5.426   3.196   0.317
10123SOL     OW31267   6.555   6.975   0.132
10123SOL    HW131268   6.629   6.948   0.193
10123SOL    HW231269   6.578   0.037   0.087
10124SOL     OW31270   3.153   4.408   0.908
10124SOL    HW131271   3.094   4.393   0.987
10124SOL    HW231272   3.117   4.483   0.852
10125SOL     OW31273   1.164   6.849   1.519
10125SOL    HW131274   1.239   6.904   1.555
10125SOL    HW231275   1.085   6.906   1.502
10126SOL     OW31276   6.031   4.933   0.288
10126SOL    HW131277   5.967   4.858   0.304
10126SOL    HW231278   6.110   4.900   0.237
10127SOL     OW31279   3.612   4.712   5.332
10127SOL    HW131280   3.711   4.700   5.321
10127SOL    HW231281   3.584   4.673   5.420
10128SOL     OW31282   0.277   1.874   1.777
10128SOL    HW131283   0.355   1.932   1.755
10128SOL    HW231284   0.307   1.778   1.777
10129SOL     OW31285   5.306   2.235   3.202
10129SOL    HW131286   5.247   2.179   3.260
10129SOL    HW231287   5.302   2.330   3.233
10130SOL     OW31288   6.723   5.194   1.943
10130SOL    HW131289   6.683   5.106   1.966
10130SOL    HW231290   6.661   5.268   1.968
10131SOL     OW31291   6.774   0.810   0.956
10131SOL    HW131292   6.816   0.746   1.019
10131SOL    HW231293   6.764   0.899   1.000
10132SOL     OW31294   2.886   6.984   2.653
10132SOL    HW131295   2.923   0.011   2.731
10132SOL    HW231296   2.939   7.006   2.571
10133SOL     OW31297   4.812   5.805   3.077
10133SOL    HW131298   4.908   5.814   3.103
10133SOL    HW231299   4.806   5.768   2.984
10134SOL     OW31300   0.073   1.400   2.524
10134SOL    HW131301   0.149   1.449   2.566
10134SOL    HW231302   0.047   1.323   2.582
10135SOL     OW31303   3.583   5.689   3.119
10135SOL    HW131304   3.658   5.651   3.066
10135SOL    HW231305   3.525   5.615   3.154
10136SOL     OW31306   6.198   7.021   2.053
10136SOL    HW131307   6.177   0.067   1.985
10136SOL    HW231308   6.184   6.931   2.012
10137SOL     OW31309   5.664   4.820   4.340
10137SOL    HW131310   5.623   4.857   4.257
10137SOL    HW231311   5.591   4.796   4.405
10138SOL     OW31312   5.381   2.634   6.362
10138SOL    HW131313   5.469   2.587   6.350
10138SOL    HW231314   5.309   2.567   6.378
10139SOL     OW31315   4.122   3.379   3.363
10139SOL    HW131316   4.215   3.386   3.397
10139SOL    HW231317   4.073   3.308   3.413
10140SOL     OW31318   0.432   5.065   5.315
10140SOL    HW131319   0.401   5.003   5.242
10140SOL    HW231320   0.404   5.158   5.293
10141SOL     OW31321   2.456   0.392   4.141
10141SOL    HW131322   2.480   0.355   4.230
10141SOL    HW231323   2.488   0.330   4.069
10142SOL     OW31324   5.218   5.925   4.627
10142SOL    HW131325   5.227   5.971   4.538
10142SOL    HW231326   5.154   5.976   4.685
10143SOL     OW31327   5.310   6.223   0.981
10143SOL    HW131328   5.399   6.192   1.015
10143SOL    HW231329   5.239   6.159   1.011
10144SOL     OW31330   2.987   5.504   3.519
10144SOL    HW131331   2.958   5.570   3.449
10144SOL    HW231332   2.984   5.548   3.609
10145SOL     OW31333   3.109   6.104   6.207
10145SOL    HW131334   3.191   6.147   6.168
10145SOL    HW231335   3.094   6.015   6.163
10146SOL     OW31336   4.869   4.830   4.249
10146SOL    HW131337   4.775   4.794   4.245
10146SOL    HW231338   4.873   4.904   4.316
10147SOL     OW31339   5.175   5.292   4.960
10147SOL    HW131340   5.179   5.248   4.871
10147SOL    HW231341   5.135   5.383   4.951
10148SOL     OW31342   5.565   5.218   1.242
10148SOL    HW131343   5.497   5.231   1.314
10148SOL    HW231344   5.525   5.167   1.166
10149SOL     OW31345   3.983   3.405   0.608
10149SOL    HW131346   4.027   3.427   0.521
10149SOL    HW231347   3.953   3.309   0.607
10150SOL     OW31348   5.075   4.523   1.277
10150SOL    HW131349   5.115   4.477   1.356
10150SOL    HW231350   5.015   4.597   1.308
10151SOL     OW31351   1.287   6.726   5.564
10151SOL    HW131352   1.320   6.641   5.605
10151SOL    HW231353   1.227   6.773   5.628
10152SOL     OW31354   0.555   5.171   3.675
10152SOL    HW131355   0.544   5.072   3.689
10152SOL    HW231356   0.631   5.204   3.730
10153SOL     OW31357   5.247   6.574   3.903
10153SOL    HW131358   5.155   6.547   3.932
10153SOL    HW231359   5.302   6.593   3.984
10154SOL     OW31360   6.591   5.521   5.689
10154SOL    HW131361   6.552   5.429   5.678
10154SOL    HW231362   6.689   5.518   5.668
10155SOL     OW31363   3.921   1.705   6.387
10155SOL    HW131364   3.845   1.640   6.393
10155SOL    HW231365   4.002   1.659   6.351
10156SOL     OW31366   6.025   0.397   2.145
10156SOL    HW131367   5.934   0.416   2.108
10156SOL    HW231368   6.095   0.429   2.081
10157SOL     OW31369   5.684   0.813   6.050
10157SOL    HW131370   5.774   0.788   6.087
10157SOL    HW231371   5.614   0.757   6.094
10158SOL     OW31372   4.195   3.772   6.431
10158SOL    HW131373   4.294   3.789   6.434
10158SOL    HW231374   4.146   3.854   6.460
10159SOL     OW31375   1.294   1.096   6.402
10159SOL    HW131376   1.321   1.047   6.485
10159SOL    HW231377   1.206   1.142   6.417
10160SOL     OW31378   0.588   5.779   3.517
10160SOL    HW131379   0.505   5.813   3.472
10160SOL    HW231380   0.638   5.856   3.557
10161SOL     OW31381   2.435   5.808   5.734
10161SOL    HW131382   2.437   5.884   5.799
10161SOL    HW231383   2.455   5.844   5.642
10162SOL     OW31384   3.420   1.843   6.752
10162SOL    HW131385   3.352   1.911   6.723
10162SOL    HW231386   3.450   1.865   6.845
10163SOL     OW31387   6.436   2.941   5.476
10163SOL    HW131388   6.494   3.001   5.532
10163SOL    HW231389   6.340   2.957   5.500
10164SOL     OW31390   0.630   2.752   5.559
10164SOL    HW131391   0.637   2.835   5.504
10164SOL    HW231392   0.546   2.756   5.614
10165SOL     OW31393   6.893   1.985   3.396
10165SOL    HW131394   6.846   1.914   3.449
10165SOL    HW231395   6.867   2.075   3.430
10166SOL     OW31396   1.682   1.261   2.176
10166SOL    HW131397   1.762   1.229   2.124
10166SOL    HW231398   1.599   1.222   2.138
10167SOL     OW31399   4.922   0.590   0.254
10167SOL    HW131400   4.939   0.539   0.170
10167SOL    HW231401   4.950   0.536   0.332
10168SOL     OW31402   6.740   4.668   4.650
10168SOL    HW131403   6.759   4.580   4.694
10168SOL    HW231404   6.736   4.655   4.550
10169SOL     OW31405   6.631   4.510   4.071
10169SOL    HW131406   6.627   4.609   4.053
10169SOL    HW231407   6.612   4.493   4.168
10170SOL     OW31408   1.794   4.300   4.778
10170SOL    HW131409   1.718   4.270   4.721
10170SOL    HW231410   1.880   4.269   4.738
10171SOL     OW31411   5.981   3.698   5.742
10171SOL    HW131412   5.974   3.650   5.654
10171SOL    HW231413   5.890   3.727   5.771
10172SOL     OW31414   4.953   1.588   3.198
10172SOL    HW131415   4.998   1.574   3.286
10172SOL    HW231416   5.003   1.657   3.146
10173SOL     OW31417   2.146   1.710   2.365
10173SOL    HW131418   2.133   1.742   2.271
10173SOL    HW231419   2.168   1.787   2.424
10174SOL     OW31420   6.748   4.663   1.556
10174SOL    HW131421   6.764   4.686   1.461
10174SOL    HW231422   6.793   4.576   1.578
10175SOL     OW31423   6.184   2.502   6.013
10175SOL    HW131424   6.238   2.579   6.046
10175SOL    HW231425   6.242   2.440   5.962
10176SOL     OW31426   2.363   4.154   0.325
10176SOL    HW131427   2.422   4.075   0.341
10176SOL    HW231428   2.271   4.134   0.359
10177SOL     OW31429   1.946   6.778   6.502
10177SOL    HW131430   1.920   6.817   6.590
10177SOL    HW231431   2.022   6.830   6.463
10178SOL     OW31432   5.538   2.364   4.276
10178SOL    HW131433   5.580   2.320   4.197
10178SOL    HW231434   5.607   2.417   4.325
10179SOL     OW31435   1.409   3.304   6.773
10179SOL    HW131436   1.390   3.383   6.715
10179SOL    HW231437   1.340   3.299   6.846
10180SOL     OW31438   2.531   6.313   5.662
10180SOL    HW131439   2.607   6.317   5.596
10180SOL    HW231440   2.482   6.400   5.660
10181SOL     OW31441   5.207   3.208   1.001
10181SOL    HW131442   5.181   3.298   0.967
10181SOL    HW231443   5.160   3.138   0.947
10182SOL     OW31444   5.396   1.238   0.779
10182SOL    HW131445   5.416   1.142   0.795
10182SOL    HW231446   5.370   1.251   0.683
10183SOL     OW31447   1.583   1.794   6.576
10183SOL    HW131448   1.488   1.769   6.555
10183SOL    HW231449   1.616   1.739   6.652
10184SOL     OW31450   4.137   0.861   6.125
10184SOL    HW131451   4.148   0.960   6.135
10184SOL    HW231452   4.103   0.840   6.034
10185SOL     OW31453   5.169   7.007   6.779
10185SOL    HW131454   5.112   0.044   6.725
10185SOL    HW231455   5.245   0.033   6.818
10186SOL     OW31456   4.249   2.308   3.202
10186SOL    HW131457   4.220   2.329   3.109
10186SOL    HW231458   4.315   2.233   3.201
10187SOL     OW31459   0.970   2.305   1.694
10187SOL    HW131460   1.016   2.230   1.743
10187SOL    HW231461   0.877   2.278   1.672
10188SOL     OW31462   3.551   6.023   1.169
10188SOL    HW131463   3.491   6.103   1.173
10188SOL    HW231464   3.500   5.944   1.136
10189SOL     OW31465   1.358   6.526   5.093
10189SOL    HW131466   1.407   6.603   5.134
10189SOL    HW231467   1.342   6.456   5.162
10190SOL     OW31468   5.545   2.679   0.381
10190SOL    HW131469   5.521   2.667   0.284
10190SOL    HW231470   5.478   2.632   0.438
10191SOL     OW31471   6.318   4.535   6.891
10191SOL    HW131472   6.283   4.441   6.892
10191SOL    HW231473   6.241   4.599   6.884
10192SOL     OW31474   3.133   1.379   6.253
10192SOL    HW131475   3.229   1.378   6.282
10192SOL    HW231476   3.125   1.425   6.164
10193SOL     OW31477   4.715   3.926   0.342
10193SOL    HW131478   4.620   3.951   0.362
10193SOL    HW231479   4.764   4.006   0.307
10194SOL     OW31480   5.463   3.585   5.523
10194SOL    HW131481   5.514   3.504   5.496
10194SOL    HW231482   5.527   3.660   5.542
10195SOL     OW31483   6.807   4.239   2.342
10195SOL    HW131484   6.752   4.218   2.262
10195SOL    HW231485   6.755   4.299   2.404
10196SOL     OW31486   0.490   1.718   4.811
10196SOL    HW131487   0.559   1.651   4.782
10196SOL    HW231488   0.456   1.768   4.732
10197SOL     OW31489   5.916   1.276   6.497
10197SOL    HW131490   5.928   1.178   6.513
10197SOL    HW231491   5.869   1.317   6.576
10198SOL     OW31492   3.613   6.854   3.541
10198SOL    HW131493   3.574   6.768   3.509
10198SOL    HW231494   3.581   6.930   3.484
10199SOL     OW31495   1.141   2.326   5.102
10199SOL    HW131496   1.104   2.419   5.097
10199SOL    HW231497   1.235   2.329   5.135
10200SOL     OW31498   5.665   2.522   1.313
10200SOL    HW131499   5.587   2.459   1.306
10200SOL    HW231500   5.736   2.481   1.370
10201SOL     OW31501   1.104   3.337   0.826
10201SOL    HW131502   1.174   3.277   0.864
10201SOL    HW231503   1.124   3.432   0.853
10202SOL     OW31504   3.706   0.545   4.957
10202SOL    HW131505   3.756   0.632   4.962
10202SOL    HW231506   3.608   0.562   4.967
10203SOL     OW31507   6.354   2.625   4.514
10203SOL    HW131508   6.397   2.549   4.465
10203SOL    HW231509   6.333   2.698   4.449
10204SOL     OW31510   5.672   5.581   6.494
10204SOL    HW131511   5.706   5.496   6.455
10204SOL    HW231512   5.670   5.652   6.423
10205SOL     OW31513   1.355   0.680   5.733
10205SOL    HW131514   1.322   0.775   5.735
10205SOL    HW231515   1.361   0.645   5.827
10206SOL     OW31516   1.466   0.717   5.089
10206SOL    HW131517   1.498   0.812   5.096
10206SOL    HW231518   1.476   0.686   4.994
10207SOL     OW31519   2.073   2.484   5.132
10207SOL    HW131520   1.985   2.526   5.110
10207SOL    HW231521   2.073   2.456   5.228
10208SOL     OW31522   6.587   5.086   5.697
10208SOL    HW131523   6.594   5.009   5.634
10208SOL    HW231524   6.678   5.121   5.718
10209SOL     OW31525   6.921   0.257   5.341
10209SOL    HW131526   6.896   0.250   5.244
10209SOL    HW231527   6.945   0.352   5.362
10210SOL     OW31528   3.190   0.071   2.105
10210SOL    HW131529   3.201   0.079   2.006
10210SOL    HW231530   3.093   0.083   2.129
10211SOL     OW31531   5.355   6.036   5.701
10211SOL    HW131532   5.314   6.118   5.663
10211SOL    HW231533   5.297   6.000   5.774
10212SOL     OW31534   0.495   0.439   6.813
10212SOL    HW131535   0.554   0.515   6.785
10212SOL    HW231536   0.407   0.446   6.767
10213SOL     OW31537   6.186   1.638   0.917
10213SOL    HW131538   6.105   1.661   0.971
10213SOL    HW231539   6.160   1.580   0.841
10214SOL     OW31540   0.939   2.036   0.285
10214SOL    HW131541   1.032   2.073   0.277
10214SOL    HW231542   0.902   2.018   0.194
10215SOL     OW31543   3.270   2.985   2.225
10215SOL    HW131544   3.312   3.069   2.261
10215SOL    HW231545   3.339   2.930   2.179
10216SOL     OW31546   0.118   6.165   2.355
10216SOL    HW131547   0.142   6.232   2.425
10216SOL    HW231548   0.119   6.073   2.395
10217SOL     OW31549   3.633   1.502   4.330
10217SOL    HW131550   3.608   1.406   4.339
10217SOL    HW231551   3.664   1.521   4.237
10218SOL     OW31552   1.535   2.915   2.531
10218SOL    HW131553   1.482   2.836   2.562
10218SOL    HW231554   1.624   2.915   2.575
10219SOL     OW31555   6.514   6.906   3.076
10219SOL    HW131556   6.574   6.842   3.125
10219SOL    HW231557   6.551   6.921   2.984
10220SOL     OW31558   3.626   2.499   0.880
10220SOL    HW131559   3.688   2.466   0.808
10220SOL    HW231560   3.680   2.537   0.955
10221SOL     OW31561   1.000   5.085   3.945
10221SOL    HW131562   0.902   5.098   3.960
10221SOL    HW231563   1.014   5.041   3.857
10222SOL     OW31564   3.113   3.725   4.341
10222SOL    HW131565   3.207   3.706   4.369
10222SOL    HW231566   3.069   3.641   4.310
10223SOL     OW31567   0.778   6.323   1.198
10223SOL    HW131568   0.802   6.254   1.267
10223SOL    HW231569   0.841   6.316   1.121
10224SOL     OW31570   6.074   4.129   2.985
10224SOL    HW131571   6.146   4.190   3.016
10224SOL    HW231572   5.997   4.133   3.049
10225SOL     OW31573   2.233   3.883   5.543
10225SOL    HW131574   2.330   3.874   5.564
10225SOL    HW231575   2.207   3.979   5.541
10226SOL     OW31576   5.180   2.735   6.810
10226SOL    HW131577   5.154   2.756   6.716
10226SOL    HW231578   5.098   2.731   6.867
10227SOL     OW31579   5.187   3.541   1.131
10227SOL    HW131580   5.274   3.579   1.162
10227SOL    HW231581   5.144   3.490   1.205
10228SOL     OW31582   5.248   0.780   0.820
10228SOL    HW131583   5.179   0.782   0.748
10228SOL    HW231584   5.204   0.794   0.909
10229SOL     OW31585   0.061   3.476   5.031
10229SOL    HW131586   0.093   3.383   5.049
10229SOL    HW231587   0.140   3.538   5.030
10230SOL     OW31588   0.422   6.521   2.094
10230SOL    HW131589   0.497   6.559   2.041
10230SOL    HW231590   0.339   6.521   2.039
10231SOL     OW31591   0.943   5.445   3.123
10231SOL    HW131592   0.945   5.545   3.122
10231SOL    HW231593   1.003   5.411   3.050
10232SOL     OW31594   4.988   4.384   3.776
10232SOL    HW131595   4.921   4.456   3.755
10232SOL    HW231596   5.071   4.426   3.812
10233SOL     OW31597   3.231   3.408   5.622
10233SOL    HW131598   3.174   3.475   5.670
10233SOL    HW231599   3.241   3.435   5.526
10234SOL     OW31600   0.356   1.032   2.471
10234SOL    HW131601   0.337   1.118   2.518
10234SOL    HW231602   0.322   1.037   2.377
10235SOL     OW31603   1.679   0.490   3.320
10235SOL    HW131604   1.707   0.565   3.261
10235SOL    HW231605   1.642   0.527   3.405
10236SOL     OW31606   2.306   6.587   2.600
10236SOL    HW131607   2.257   6.540   2.527
10236SOL    HW231608   2.404   6.566   2.593
10237SOL     OW31609   0.660   3.290   5.156
10237SOL    HW131610   0.674   3.367   5.093
10237SOL    HW231611   0.712   3.305   5.240
10238SOL     OW31612   3.203   0.072   1.828
10238SOL    HW131613   3.115   0.045   1.789
10238SOL    HW231614   3.230   0.162   1.792
10239SOL     OW31615   0.907   2.489   4.030
10239SOL    HW131616   0.841   2.556   4.065
10239SOL    HW231617   0.889   2.400   4.071
10240SOL     OW31618   2.255   6.409   1.037
10240SOL    HW131619   2.244   6.508   1.040
10240SOL    HW231620   2.207   6.372   0.958
10241SOL     OW31621   4.174   2.780   1.512
10241SOL    HW131622   4.147   2.866   1.469
10241SOL    HW231623   4.201   2.797   1.607
10242SOL     OW31624   0.038   2.687   6.598
10242SOL    HW131625   0.044   2.593   6.630
10242SOL    HW231626   0.008   2.746   6.672
10243SOL     OW31627   2.703   5.390   1.443
10243SOL    HW131628   2.737   5.392   1.349
10243SOL    HW231629   2.731   5.305   1.487
10244SOL     OW31630   2.982   4.774   1.375
10244SOL    HW131631   3.069   4.823   1.376
10244SOL    HW231632   2.990   4.691   1.430
10245SOL     OW31633   4.731   4.295   0.973
10245SOL    HW131634   4.802   4.331   1.033
10245SOL    HW231635   4.663   4.246   1.028
10246SOL     OW31636   3.515   2.889   4.153
10246SOL    HW131637   3.507   2.790   4.138
10246SOL    HW231638   3.493   2.910   4.248
10247SOL     OW31639   0.769   2.579   4.379
10247SOL    HW131640   0.771   2.605   4.282
10247SOL    HW231641   0.861   2.588   4.417
10248SOL     OW31642   1.232   1.168   4.251
10248SOL    HW131643   1.148   1.113   4.256
10248SOL    HW231644   1.264   1.170   4.157
10249SOL     OW31645   2.800   5.052   5.968
10249SOL    HW131646   2.753   5.018   5.887
10249SOL    HW231647   2.891   5.084   5.943
10250SOL     OW31648   4.048   2.385   1.043
10250SOL    HW131649   4.142   2.413   1.023
10250SOL    HW231650   3.986   2.461   1.022
10251SOL     OW31651   1.524   0.614   4.432
10251SOL    HW131652   1.609   0.584   4.475
10251SOL    HW231653   1.454   0.542   4.442
10252SOL     OW31654   5.349   4.712   6.255
10252SOL    HW131655   5.363   4.623   6.214
10252SOL    HW231656   5.424   4.774   6.229
10253SOL     OW31657   3.443   5.898   6.255
10253SOL    HW131658   3.431   5.965   6.328
10253SOL    HW231659   3.429   5.806   6.291
10254SOL     OW31660   5.986   1.713   5.860
10254SOL    HW131661   5.975   1.634   5.800
10254SOL    HW231662   5.904   1.769   5.857
10255SOL     OW31663   4.040   4.486   1.509
10255SOL    HW131664   4.024   4.436   1.425
10255SOL    HW231665   4.077   4.576   1.488
10256SOL     OW31666   3.971   1.338   3.440
10256SOL    HW131667   4.070   1.328   3.453
10256SOL    HW231668   3.926   1.250   3.453
10257SOL     OW31669   3.917   5.873   2.920
10257SOL    HW131670   3.964   5.795   2.880
10257SOL    HW231671   3.940   5.956   2.870
10258SOL     OW31672   1.916   1.457   1.928
10258SOL    HW131673   1.961   1.540   1.897
10258SOL    HW231674   1.846   1.479   1.995
10259SOL     OW31675   2.216   3.996   4.148
10259SOL    HW131676   2.258   4.081   4.181
10259SOL    HW231677   2.183   3.943   4.226
10260SOL     OW31678   0.886   0.705   3.179
10260SOL    HW131679   0.974   0.711   3.227
10260SOL    HW231680   0.853   0.611   3.180
10261SOL     OW31681   0.040   3.876   0.912
10261SOL    HW131682   7.018   3.955   0.872
10261SOL    HW231683   0.086   3.904   0.996
10262SOL     OW31684   4.312   1.565   0.778
10262SOL    HW131685   4.319   1.628   0.856
10262SOL    HW231686   4.240   1.596   0.717
10263SOL     OW31687   5.731   1.099   2.308
10263SOL    HW131688   5.783   1.014   2.322
10263SOL    HW231689   5.794   1.177   2.311
10264SOL     OW31690   6.653   6.648   6.743
10264SOL    HW131691   6.690   6.722   6.800
10264SOL    HW231692   6.562   6.674   6.710
10265SOL     OW31693   2.076   2.038   0.918
10265SOL    HW131694   1.990   2.068   0.876
10265SOL    HW231695   2.056   1.998   1.008
10266SOL     OW31696   2.745   3.499   1.721
10266SOL    HW131697   2.723   3.581   1.668
10266SOL    HW231698   2.840   3.505   1.753
10267SOL     OW31699   5.546   0.825   1.376
10267SOL    HW131700   5.634   0.779   1.385
10267SOL    HW231701   5.551   0.915   1.420
10268SOL     OW31702   3.620   6.499   1.925
10268SOL    HW131703   3.550   6.549   1.874
10268SOL    HW231704   3.677   6.448   1.860
10269SOL     OW31705   2.847   2.338   0.581
10269SOL    HW131706   2.800   2.330   0.493
10269SOL    HW231707   2.787   2.308   0.654
10270SOL     OW31708   2.946   0.460   3.337
10270SOL    HW131709   2.879   0.452   3.263
10270SOL    HW231710   3.029   0.409   3.313
10271SOL     OW31711   1.780   1.831   6.409
10271SOL    HW131712   1.747   1.900   6.344
10271SOL    HW231713   1.711   1.816   6.479
10272SOL     OW31714   6.125   0.212   4.236
10272SOL    HW131715   6.124   0.255   4.326
10272SOL    HW231716   6.158   0.118   4.244
10273SOL     OW31717   2.297   5.199   3.689
10273SOL    HW131718   2.248   5.214   3.775
10273SOL    HW231719   2.312   5.101   3.676
10274SOL     OW31720   0.972   4.816   5.271
10274SOL    HW131721   0.875   4.831   5.255
10274SOL    HW231722   1.006   4.745   5.210
10275SOL     OW31723   6.589   0.701   2.357
10275SOL    HW131724   6.677   0.681   2.314
10275SOL    HW231725   6.598   0.779   2.418
10276SOL     OW31726   3.708   5.517   5.281
10276SOL    HW131727   3.793   5.565   5.301
10276SOL    HW231728   3.725   5.447   5.211
10277SOL     OW31729   0.706   5.973   3.909
10277SOL    HW131730   0.739   5.921   3.988
10277SOL    HW231731   0.781   5.988   3.845
10278SOL     OW31732   6.882   6.864   5.011
10278SOL    HW131733   6.959   6.813   4.976
10278SOL    HW231734   6.909   6.915   5.093
10279SOL     OW31735   2.147   6.673   4.272
10279SOL    HW131736   2.048   6.677   4.288
10279SOL    HW231737   2.166   6.700   4.178
10280SOL     OW31738   6.227   4.457   0.275
10280SOL    HW131739   6.148   4.495   0.321
10280SOL    HW231740   6.218   4.358   0.269
10281SOL     OW31741   6.374   1.248   3.481
10281SOL    HW131742   6.405   1.254   3.576
10281SOL    HW231743   6.276   1.264   3.476
10282SOL     OW31744   5.294   3.366   3.412
10282SOL    HW131745   5.205   3.360   3.456
10282SOL    HW231746   5.296   3.305   3.333
10283SOL     OW31747   0.958   2.791   0.936
10283SOL    HW131748   0.917   2.875   0.900
10283SOL    HW231749   1.000   2.740   0.861
10284SOL     OW31750   0.166   3.712   3.959
10284SOL    HW131751   0.069   3.731   3.975
10284SOL    HW231752   0.218   3.729   4.043
10285SOL     OW31753   6.078   5.845   5.430
10285SOL    HW131754   6.028   5.859   5.516
10285SOL    HW231755   6.125   5.757   5.434
10286SOL     OW31756   3.036   1.239   3.126
10286SOL    HW131757   3.130   1.227   3.096
10286SOL    HW231758   3.009   1.163   3.185
10287SOL     OW31759   2.081   5.549   3.037
10287SOL    HW131760   2.114   5.553   3.132
10287SOL    HW231761   2.092   5.639   2.995
10288SOL     OW31762   3.829   6.635   5.192
10288SOL    HW131763   3.777   6.595   5.267
10288SOL    HW231764   3.775   6.708   5.149
10289SOL     OW31765   3.396   5.403   0.071
10289SOL    HW131766   3.476   5.343   0.073
10289SOL    HW231767   3.386   5.448   0.160
10290SOL     OW31768   3.714   2.830   2.003
10290SOL    HW131769   3.624   2.818   2.045
10290SOL    HW231770   3.713   2.790   1.911
10291SOL     OW31771   2.117   1.785   2.104
10291SOL    HW131772   2.205   1.744   2.080
10291SOL    HW231773   2.051   1.766   2.031
10292SOL     OW31774   6.743   6.947   5.657
10292SOL    HW131775   6.672   6.900   5.604
10292SOL    HW231776   6.822   6.888   5.666
10293SOL     OW31777   1.229   4.116   4.659
10293SOL    HW131778   1.170   4.196   4.649
10293SOL    HW231779   1.270   4.116   4.750
10294SOL     OW31780   3.384   1.405   2.155
10294SOL    HW131781   3.375   1.313   2.193
10294SOL    HW231782   3.442   1.401   2.073
10295SOL     OW31783   1.333   1.739   6.591
10295SOL    HW131784   1.271   1.748   6.513
10295SOL    HW231785   1.284   1.764   6.675
10296SOL     OW31786   6.198   1.198   5.560
10296SOL    HW131787   6.191   1.256   5.642
10296SOL    HW231788   6.295   1.177   5.544
10297SOL     OW31789   3.390   1.134   6.862
10297SOL    HW131790   3.332   1.053   6.868
10297SOL    HW231791   3.481   1.109   6.832
10298SOL     OW31792   0.508   2.281   2.422
10298SOL    HW131793   0.559   2.254   2.504
10298SOL    HW231794   0.505   2.381   2.416
10299SOL     OW31795   4.074   6.566   2.879
10299SOL    HW131796   4.134   6.546   2.801
10299SOL    HW231797   4.014   6.642   2.856
10300SOL     OW31798   1.087   4.037   1.738
10300SOL    HW131799   1.158   3.968   1.738
10300SOL    HW231800   0.998   3.993   1.748
10301SOL     OW31801   3.804   0.483   6.737
10301SOL    HW131802   3.727   0.496   6.799
10301SOL    HW231803   3.819   0.567   6.685
10302SOL     OW31804   3.055   6.295   4.909
10302SOL    HW131805   3.092   6.385   4.932
10302SOL    HW231806   2.955   6.300   4.903
10303SOL     OW31807   0.455   5.567   4.610
10303SOL    HW131808   0.370   5.611   4.639
10303SOL    HW231809   0.518   5.564   4.687
10304SOL     OW31810   6.113   6.425   0.915
10304SOL    HW131811   6.028   6.477   0.928
10304SOL    HW231812   6.190   6.478   0.950
10305SOL     OW31813   3.387   4.401   5.649
10305SOL    HW131814   3.353   4.405   5.743
10305SOL    HW231815   3.340   4.328   5.600
10306SOL     OW31816   4.030   0.421   0.973
10306SOL    HW131817   4.056   0.340   0.921
10306SOL    HW231818   4.046   0.503   0.918
10307SOL     OW31819   2.267   0.259   5.677
10307SOL    HW131820   2.357   0.217   5.667
10307SOL    HW231821   2.243   0.264   5.774
10308SOL     OW31822   2.682   5.069   2.324
10308SOL    HW131823   2.595   5.019   2.316
10308SOL    HW231824   2.717   5.088   2.232
10309SOL     OW31825   0.259   1.432   4.668
10309SOL    HW131826   0.211   1.495   4.729
10309SOL    HW231827   0.342   1.399   4.712
10310SOL     OW31828   1.827   3.826   5.650
10310SOL    HW131829   1.776   3.759   5.595
10310SOL    HW231830   1.846   3.907   5.594
10311SOL     OW31831   4.731   5.624   6.617
10311SOL    HW131832   4.730   5.524   6.628
10311SOL    HW231833   4.779   5.665   6.694
10312SOL     OW31834   4.468   0.471   1.949
10312SOL    HW131835   4.443   0.539   1.881
10312SOL    HW231836   4.512   0.393   1.904
10313SOL     OW31837   5.404   6.842   3.304
10313SOL    HW131838   5.416   6.852   3.403
10313SOL    HW231839   5.312   6.808   3.285
10314SOL     OW31840   0.381   0.350   0.827
10314SOL    HW131841   0.332   0.399   0.899
10314SOL    HW231842   0.380   0.252   0.846
10315SOL     OW31843   5.656   5.124   3.750
10315SOL    HW131844   5.752   5.143   3.771
10315SOL    HW231845   5.597   5.167   3.819
10316SOL     OW31846   0.602   1.893   6.961
10316SOL    HW131847   0.572   1.798   6.974
10316SOL    HW231848   0.524   1.955   6.975
10317SOL     OW31849   3.840   6.031   5.012
10317SOL    HW131850   3.877   6.124   5.012
10317SOL    HW231851   3.828   6.001   4.917
10318SOL     OW31852   6.485   6.794   0.565
10318SOL    HW131853   6.568   6.802   0.619
10318SOL    HW231854   6.495   6.721   0.497
10319SOL     OW31855   0.729   4.032   3.556
10319SOL    HW131856   0.638   4.015   3.595
10319SOL    HW231857   0.778   4.097   3.614
10320SOL     OW31858   0.305   6.241   3.891
10320SOL    HW131859   0.308   6.324   3.836
10320SOL    HW231860   0.389   6.188   3.877
10321SOL     OW31861   5.117   2.808   2.181
10321SOL    HW131862   5.196   2.812   2.119
10321SOL    HW231863   5.148   2.816   2.275
10322SOL     OW31864   4.629   4.458   5.038
10322SOL    HW131865   4.587   4.373   5.071
10322SOL    HW231866   4.560   4.513   4.991
10323SOL     OW31867   0.962   4.286   5.620
10323SOL    HW131868   0.941   4.383   5.607
10323SOL    HW231869   0.968   4.242   5.530
10324SOL     OW31870   3.239   3.293   1.816
10324SOL    HW131871   3.165   3.263   1.876
10324SOL    HW231872   3.327   3.281   1.863
10325SOL     OW31873   6.660   5.487   3.565
10325SOL    HW131874   6.727   5.428   3.519
10325SOL    HW231875   6.568   5.451   3.551
10326SOL     OW31876   5.576   3.513   6.880
10326SOL    HW131877   5.483   3.491   6.909
10326SOL    HW231878   5.577   3.604   6.836
10327SOL     OW31879   2.099   4.329   1.079
10327SOL    HW131880   2.086   4.338   1.178
10327SOL    HW231881   2.179   4.271   1.062
10328SOL     OW31882   5.540   2.302   2.382
10328SOL    HW131883   5.464   2.325   2.323
10328SOL    HW231884   5.615   2.366   2.367
10329SOL     OW31885   3.716   1.615   3.126
10329SOL    HW131886   3.645   1.553   3.093
10329SOL    HW231887   3.774   1.643   3.050
10330SOL     OW31888   4.811   1.382   1.776
10330SOL    HW131889   4.887   1.416   1.720
10330SOL    HW231890   4.736   1.447   1.774
10331SOL     OW31891   6.237   5.266   6.282
10331SOL    HW131892   6.274   5.198   6.220
10331SOL    HW231893   6.137   5.260   6.284
10332SOL     OW31894   1.689   1.032   6.372
10332SOL    HW131895   1.709   1.129   6.355
10332SOL    HW231896   1.628   0.999   6.300
10333SOL     OW31897   1.076   4.269   4.286
10333SOL    HW131898   1.002   4.307   4.230
10333SOL    HW231899   1.048   4.271   4.382
10334SOL     OW31900   3.506   0.607   3.567
10334SOL    HW131901   3.531   0.516   3.601
10334SOL    HW231902   3.570   0.675   3.605
10335SOL     OW31903   0.765   2.216   5.269
10335SOL    HW131904   0.835   2.182   5.206
10335SOL    HW231905   0.791   2.193   5.362
10336SOL     OW31906   5.392   6.737   3.574
10336SOL    HW131907   5.396   6.811   3.642
10336SOL    HW231908   5.302   6.693   3.578
10337SOL     OW31909   6.412   5.538   6.897
10337SOL    HW131910   6.363   5.484   6.829
10337SOL    HW231911   6.473   5.602   6.851
10338SOL     OW31912   1.701   6.324   1.784
10338SOL    HW131913   1.786   6.361   1.747
10338SOL    HW231914   1.683   6.363   1.874
10339SOL     OW31915   6.306   2.656   5.747
10339SOL    HW131916   6.258   2.708   5.818
10339SOL    HW231917   6.284   2.559   5.756
10340SOL     OW31918   2.434   3.431   6.331
10340SOL    HW131919   2.421   3.361   6.261
10340SOL    HW231920   2.525   3.472   6.320
10341SOL     OW31921   2.196   3.145   2.935
10341SOL    HW131922   2.219   3.048   2.943
10341SOL    HW231923   2.229   3.180   2.848
10342SOL     OW31924   0.748   0.997   4.024
10342SOL    HW131925   0.690   1.031   3.950
10342SOL    HW231926   0.844   1.009   3.999
10343SOL     OW31927   3.311   5.507   2.191
10343SOL    HW131928   3.335   5.498   2.094
10343SOL    HW231929   3.381   5.561   2.237
10344SOL     OW31930   4.266   5.835   5.787
10344SOL    HW131931   4.249   5.932   5.771
10344SOL    HW231932   4.288   5.790   5.700
10345SOL     OW31933   2.129   3.523   4.314
10345SOL    HW131934   2.161   3.564   4.399
10345SOL    HW231935   2.142   3.424   4.317
10346SOL     OW31936   6.645   5.776   0.170
10346SOL    HW131937   6.572   5.839   0.193
10346SOL    HW231938   6.617   5.682   0.191
10347SOL     OW31939   5.220   1.823   4.086
10347SOL    HW131940   5.309   1.821   4.131
10347SOL    HW231941   5.181   1.731   4.084
10348SOL     OW31942   6.615   4.333   0.902
10348SOL    HW131943   6.658   4.297   0.819
10348SOL    HW231944   6.608   4.260   0.970
10349SOL     OW31945   1.019   0.059   6.433
10349SOL    HW131946   0.931   0.056   6.480
10349SOL    HW231947   1.090   0.091   6.496
10350SOL     OW31948   3.308   6.824   6.204
10350SOL    HW131949   3.388   6.765   6.194
10350SOL    HW231950   3.290   6.872   6.118
10351SOL     OW31951   4.358   5.413   6.902
10351SOL    HW131952   4.300   5.452   6.830
10351SOL    HW231953   4.403   5.330   6.867
10352SOL     OW31954   3.268   3.566   6.354
10352SOL    HW131955   3.217   3.531   6.432
10352SOL    HW231956   3.337   3.632   6.385
10353SOL     OW31957   1.119   2.538   4.726
10353SOL    HW131958   1.036   2.565   4.773
10353SOL    HW231959   1.189   2.609   4.739
10354SOL     OW31960   5.796   1.590   1.358
10354SOL    HW131961   5.715   1.576   1.414
10354SOL    HW231962   5.841   1.502   1.343
10355SOL     OW31963   1.484   5.075   2.437
10355SOL    HW131964   1.528   5.021   2.509
10355SOL    HW231965   1.417   5.137   2.479
10356SOL     OW31966   0.136   2.710   4.657
10356SOL    HW131967   0.075   2.715   4.578
10356SOL    HW231968   0.211   2.776   4.646
10357SOL     OW31969   2.697   2.399   0.362
10357SOL    HW131970   2.668   2.475   0.420
10357SOL    HW231971   2.619   2.340   0.343
10358SOL     OW31972   0.277   1.495   2.161
10358SOL    HW131973   0.212   1.560   2.201
10358SOL    HW231974   0.227   1.424   2.111
10359SOL     OW31975   0.442   1.244   1.287
10359SOL    HW131976   0.447   1.277   1.381
10359SOL    HW231977   0.346   1.234   1.260
10360SOL     OW31978   6.644   6.248   3.276
10360SOL    HW131979   6.715   6.178   3.274
10360SOL    HW231980   6.614   6.268   3.183
10361SOL     OW31981   1.981   4.914   1.485
10361SOL    HW131982   1.925   4.977   1.539
10361SOL    HW231983   1.923   4.843   1.446
10362SOL     OW31984   1.380   4.994   4.469
10362SOL    HW131985   1.356   5.091   4.466
10362SOL    HW231986   1.474   4.982   4.437
10363SOL     OW31987   5.942   0.193   3.598
10363SOL    HW131988   5.975   0.284   3.573
10363SOL    HW231989   5.857   0.174   3.549
10364SOL     OW31990   1.478   4.452   1.239
10364SOL    HW131991   1.502   4.521   1.307
10364SOL    HW231992   1.386   4.418   1.258
10365SOL     OW31993   4.510   6.085   0.119
10365SOL    HW131994   4.425   6.107   0.167
10365SOL    HW231995   4.511   5.989   0.093
10366SOL     OW31996   3.622   0.089   3.706
10366SOL    HW131997   3.700   0.097   3.768
10366SOL    HW231998   3.632   0.005   3.651
10367SOL     OW31999   6.500   1.980   2.850
10367SOL    HW132000   6.485   2.074   2.879
10367SOL    HW232001   6.464   1.918   2.920
10368SOL     OW32002   2.810   0.210   0.923
10368SOL    HW132003   2.812   0.309   0.940
10368SOL    HW232004   2.903   0.174   0.921
10369SOL     OW32005   4.642   3.083   0.190
10369SOL    HW132006   4.671   2.998   0.233
10369SOL    HW232007   4.549   3.072   0.154
10370SOL     OW32008   3.811   0.585   5.601
10370SOL    HW132009   3.814   0.589   5.501
10370SOL    HW232010   3.785   0.674   5.638
10371SOL     OW32011   5.105   6.549   5.702
10371SOL    HW132012   5.063   6.600   5.777
10371SOL    HW232013   5.090   6.598   5.616
10372SOL     OW32014   1.115   0.531   3.572
10372SOL    HW132015   1.197   0.474   3.569
10372SOL    HW232016   1.097   0.568   3.481
10373SOL     OW32017   1.599   5.402   4.609
10373SOL    HW132018   1.579   5.310   4.642
10373SOL    HW232019   1.513   5.451   4.593
10374SOL     OW32020   2.837   2.137   4.663
10374SOL    HW132021   2.932   2.154   4.691
10374SOL    HW232022   2.775   2.189   4.723
10375SOL     OW32023   7.006   2.175   0.458
10375SOL    HW132024   6.999   2.076   0.466
10375SOL    HW232025   0.067   2.206   0.500
10376SOL     OW32026   6.373   0.926   3.658
10376SOL    HW132027   6.311   0.884   3.592
10376SOL    HW232028   6.453   0.867   3.671
10377SOL     OW32029   0.584   6.857   4.404
10377SOL    HW132030   0.552   6.879   4.496
10377SOL    HW232031   0.515   6.883   4.337
10378SOL     OW32032   6.442   6.860   5.864
10378SOL    HW132033   6.513   6.881   5.932
10378SOL    HW232034   6.461   6.771   5.823
10379SOL     OW32035   5.328   1.693   4.743
10379SOL    HW132036   5.343   1.789   4.721
10379SOL    HW232037   5.416   1.646   4.749
10380SOL     OW32038   4.529   1.023   3.311
10380SOL    HW132039   4.477   0.961   3.253
10380SOL    HW232040   4.624   0.992   3.315
10381SOL     OW32041   4.206   5.122   5.024
10381SOL    HW132042   4.254   5.113   4.937
10381SOL    HW232043   4.210   5.034   5.072
10382SOL     OW32044   1.745   6.328   0.474
10382SOL    HW132045   1.690   6.278   0.407
10382SOL    HW232046   1.722   6.295   0.566
10383SOL     OW32047   5.581   2.596   6.838
10383SOL    HW132048   5.581   2.499   6.862
10383SOL    HW232049   5.675   2.627   6.825
10384SOL     OW32050   6.102   0.367   0.067
10384SOL    HW132051   6.079   0.464   0.062
10384SOL    HW232052   6.073   0.330   0.155
10385SOL     OW32053   5.582   2.141   6.820
10385SOL    HW132054   5.550   2.176   6.908
10385SOL    HW232055   5.656   2.198   6.786
10386SOL     OW32056   6.389   2.134   6.456
10386SOL    HW132057   6.326   2.064   6.423
10386SOL    HW232058   6.419   2.191   6.380
10387SOL     OW32059   2.035   3.869   2.652
10387SOL    HW132060   2.043   3.793   2.588
10387SOL    HW232061   2.012   3.953   2.602
10388SOL     OW32062   1.561   4.570   2.363
10388SOL    HW132063   1.579   4.653   2.311
10388SOL    HW232064   1.646   4.534   2.401
10389SOL     OW32065   0.407   5.471   3.441
10389SOL    HW132066   0.400   5.512   3.350
10389SOL    HW232067   0.501   5.440   3.456
10390SOL     OW32068   2.113   3.151   3.219
10390SOL    HW132069   2.117   3.234   3.275
10390SOL    HW232070   2.166   3.165   3.136
10391SOL     OW32071   3.510   6.166   4.933
10391SOL    HW132072   3.572   6.158   4.855
10391SOL    HW232073   3.448   6.087   4.934
10392SOL     OW32074   6.946   5.169   6.774
10392SOL    HW132075   6.933   5.243   6.840
10392SOL    HW232076   6.866   5.108   6.777
10393SOL     OW32077   1.065   1.264   3.719
10393SOL    HW132078   1.095   1.302   3.807
10393SOL    HW232079   0.970   1.290   3.702
10394SOL     OW32080   2.710   6.666   0.238
10394SOL    HW132081   2.785   6.731   0.241
10394SOL    HW232082   2.745   6.575   0.217
10395SOL     OW32083   1.378   1.445   4.870
10395SOL    HW132084   1.388   1.524   4.808
10395SOL    HW232085   1.370   1.478   4.964
10396SOL     OW32086   0.556   6.840   5.046
10396SOL    HW132087   0.644   6.804   5.076
10396SOL    HW232088   0.534   6.802   4.956
10397SOL     OW32089   3.976   2.146   2.412
10397SOL    HW132090   3.952   2.050   2.425
10397SOL    HW232091   3.904   2.192   2.360
10398SOL     OW32092   6.494   3.448   2.383
10398SOL    HW132093   6.565   3.379   2.392
10398SOL    HW232094   6.464   3.478   2.474
10399SOL     OW32095   6.124   2.924   5.562
10399SOL    HW132096   6.043   2.932   5.621
10399SOL    HW232097   6.104   2.965   5.473
10400SOL     OW32098   1.913   4.530   1.608
10400SOL    HW132099   1.931   4.434   1.587
10400SOL    HW232100   1.999   4.581   1.604
10401SOL     OW32101   0.707   5.693   0.758
10401SOL    HW132102   0.644   5.664   0.686
10401SOL    HW232103   0.716   5.619   0.825
10402SOL     OW32104   0.475   2.226   4.406
10402SOL    HW132105   0.435   2.275   4.483
10402SOL    HW232106   0.500   2.291   4.334
10403SOL     OW32107   4.434   1.191   2.151
10403SOL    HW132108   4.516   1.229   2.108
10403SOL    HW232109   4.361   1.260   2.149
10404SOL     OW32110   0.303   6.786   3.816
10404SOL    HW132111   0.321   6.817   3.723
10404SOL    HW232112   0.213   6.743   3.821
10405SOL     OW32113   2.276   6.642   6.589
10405SOL    HW132114   2.214   6.564   6.575
10405SOL    HW232115   2.253   6.688   6.675
10406SOL     OW32116   1.929   5.990   5.870
10406SOL    HW132117   2.021   6.026   5.858
10406SOL    HW232118   1.898   5.949   5.783
10407SOL     OW32119   1.987   1.520   6.154
10407SOL    HW132120   1.938   1.531   6.240
10407SOL    HW232121   2.042   1.602   6.137
10408SOL     OW32122   3.977   6.281   3.254
10408SOL    HW132123   4.061   6.282   3.308
10408SOL    HW232124   3.917   6.355   3.284
10409SOL     OW32125   6.732   4.520   2.229
10409SOL    HW132126   6.815   4.571   2.206
10409SOL    HW232127   6.727   4.507   2.328
10410SOL     OW32128   5.744   6.376   0.337
10410SOL    HW132129   5.827   6.343   0.292
10410SOL    HW232130   5.735   6.334   0.427
10411SOL     OW32131   1.793   4.398   2.777
10411SOL    HW132132   1.704   4.352   2.773
10411SOL    HW232133   1.800   4.451   2.861
10412SOL     OW32134   0.235   2.021   6.735
10412SOL    HW132135   0.184   1.936   6.723
10412SOL    HW232136   0.229   2.076   6.651
10413SOL     OW32137   0.199   2.219   5.697
10413SOL    HW132138   0.160   2.311   5.702
10413SOL    HW232139   0.250   2.201   5.781
10414SOL     OW32140   5.558   6.340   4.790
10414SOL    HW132141   5.523   6.246   4.787
10414SOL    HW232142   5.502   6.399   4.733
10415SOL     OW32143   0.362   5.597   3.183
10415SOL    HW132144   0.325   5.686   3.210
10415SOL    HW232145   0.424   5.609   3.105
10416SOL     OW32146   4.944   6.906   6.924
10416SOL    HW132147   4.868   6.953   6.879
10416SOL    HW232148   5.031   6.939   6.886
10417SOL     OW32149   4.007   4.910   4.083
10417SOL    HW132150   4.030   4.862   4.168
10417SOL    HW232151   4.041   5.004   4.088
10418SOL     OW32152   6.498   3.785   0.167
10418SOL    HW132153   6.546   3.846   0.103
10418SOL    HW232154   6.433   3.839   0.221
10419SOL     OW32155   1.886   0.521   4.381
10419SOL    HW132156   1.826   0.508   4.460
10419SOL    HW232157   1.981   0.521   4.411
10420SOL     OW32158   5.709   3.313   4.452
10420SOL    HW132159   5.760   3.260   4.520
10420SOL    HW232160   5.627   3.263   4.424
10421SOL     OW32161   1.361   4.434   3.901
10421SOL    HW132162   1.339   4.528   3.927
10421SOL    HW232163   1.329   4.371   3.972
10422SOL     OW32164   5.771   3.215   5.186
10422SOL    HW132165   5.860   3.252   5.211
10422SOL    HW232166   5.741   3.256   5.100
10423SOL     OW32167   2.649   5.453   3.870
10423SOL    HW132168   2.603   5.417   3.788
10423SOL    HW232169   2.580   5.478   3.938
10424SOL     OW32170   3.704   1.226   1.500
10424SOL    HW132171   3.798   1.226   1.533
10424SOL    HW232172   3.696   1.162   1.423
10425SOL     OW32173   1.554   3.740   0.379
10425SOL    HW132174   1.560   3.769   0.475
10425SOL    HW232175   1.627   3.675   0.360
10426SOL     OW32176   5.847   2.459   6.260
10426SOL    HW132177   5.905   2.446   6.340
10426SOL    HW232178   5.845   2.376   6.206
10427SOL     OW32179   5.652   0.873   3.133
10427SOL    HW132180   5.627   0.958   3.087
10427SOL    HW232181   5.749   0.875   3.157
10428SOL     OW32182   1.784   6.536   5.149
10428SOL    HW132183   1.769   6.463   5.216
10428SOL    HW232184   1.711   6.604   5.158
10429SOL     OW32185   1.772   3.876   1.646
10429SOL    HW132186   1.683   3.892   1.689
10429SOL    HW232187   1.838   3.846   1.716
10430SOL     OW32188   3.405   0.377   4.564
10430SOL    HW132189   3.489   0.326   4.544
10430SOL    HW232190   3.333   0.314   4.591
10431SOL     OW32191   4.072   1.258   4.237
10431SOL    HW132192   4.074   1.165   4.275
10431SOL    HW232193   4.099   1.323   4.308
10432SOL     OW32194   0.999   5.438   0.426
10432SOL    HW132195   0.921   5.407   0.480
10432SOL    HW232196   1.004   5.386   0.341
10433SOL     OW32197   3.948   6.265   3.602
10433SOL    HW132198   3.945   6.306   3.694
10433SOL    HW232199   3.857   6.269   3.561
10434SOL     OW32200   3.914   1.059   6.371
10434SOL    HW132201   3.962   1.028   6.452
10434SOL    HW232202   3.884   1.154   6.384
10435SOL     OW32203   2.342   1.675   1.277
10435SOL    HW132204   2.357   1.577   1.291
10435SOL    HW232205   2.338   1.694   1.179
10436SOL     OW32206   1.326   3.386   4.834
10436SOL    HW132207   1.327   3.372   4.735
10436SOL    HW232208   1.313   3.483   4.854
10437SOL     OW32209   6.935   6.278   5.229
10437SOL    HW132210   6.931   6.347   5.156
10437SOL    HW232211   6.890   6.314   5.311
10438SOL     OW32212   6.911   6.018   6.608
10438SOL    HW132213   6.906   6.036   6.706
10438SOL    HW232214   6.859   6.088   6.559
10439SOL     OW32215   6.308   5.413   4.869
10439SOL    HW132216   6.369   5.428   4.947
10439SOL    HW232217   6.213   5.426   4.898
10440SOL     OW32218   5.935   2.316   1.162
10440SOL    HW132219   5.963   2.311   1.066
10440SOL    HW232220   5.959   2.406   1.199
10441SOL     OW32221   4.650   2.051   6.935
10441SOL    HW132222   4.578   2.020   6.872
10441SOL    HW232223   4.739   2.033   6.894
10442SOL     OW32224   2.589   1.400   4.796
10442SOL    HW132225   2.563   1.303   4.791
10442SOL    HW232226   2.689   1.408   4.787
10443SOL     OW32227   0.943   0.516   0.502
10443SOL    HW132228   0.881   0.555   0.434
10443SOL    HW232229   0.909   0.427   0.531
10444SOL     OW32230   4.575   4.832   3.350
10444SOL    HW132231   4.558   4.909   3.411
10444SOL    HW232232   4.538   4.748   3.390
10445SOL     OW32233   1.390   3.244   3.809
10445SOL    HW132234   1.435   3.218   3.894
10445SOL    HW232235   1.292   3.222   3.815
10446SOL     OW32236   2.381   4.745   5.217
10446SOL    HW132237   2.362   4.667   5.277
10446SOL    HW232238   2.298   4.800   5.208
10447SOL     OW32239   1.040   2.037   2.799
10447SOL    HW132240   1.047   2.037   2.700
10447SOL    HW232241   1.045   1.943   2.833
10448SOL     OW32242   1.579   6.040   2.395
10448SOL    HW132243   1.484   6.034   2.363
10448SOL    HW232244   1.594   6.128   2.440
10449SOL     OW32245   3.886   5.202   4.363
10449SOL    HW132246   3.956   5.273   4.368
10449SOL    HW232247   3.861   5.186   4.267
10450SOL     OW32248   0.428   1.501   4.362
10450SOL    HW132249   0.434   1.402   4.357
10450SOL    HW232250   0.518   1.541   4.346
10451SOL     OW32251   3.152   1.979   4.148
10451SOL    HW132252   3.227   2.021   4.097
10451SOL    HW232253   3.158   1.879   4.139
10452SOL     OW32254   6.693   2.810   4.591
10452SOL    HW132255   6.750   2.816   4.509
10452SOL    HW232256   6.709   2.722   4.636
10453SOL     OW32257   4.199   6.038   4.351
10453SOL    HW132258   4.177   6.030   4.254
10453SOL    HW232259   4.124   6.003   4.406
10454SOL     OW32260   6.611   0.833   6.641
10454SOL    HW132261   6.522   0.866   6.672
10454SOL    HW232262   6.645   0.764   6.705
10455SOL     OW32263   0.750   6.201   2.622
10455SOL    HW132264   0.650   6.197   2.627
10455SOL    HW232265   0.784   6.121   2.572
10456SOL     OW32266   0.932   5.727   6.169
10456SOL    HW132267   1.005   5.791   6.193
10456SOL    HW232268   0.947   5.640   6.218
10457SOL     OW32269   4.353   1.567   6.526
10457SOL    HW132270   4.445   1.529   6.526
10457SOL    HW232271   4.316   1.566   6.618
10458SOL     OW32272   1.344   6.385   6.828
10458SOL    HW132273   1.349   6.471   6.880
10458SOL    HW232274   1.301   6.314   6.884
10459SOL     OW32275   6.306   5.683   1.180
10459SOL    HW132276   6.368   5.705   1.255
10459SOL    HW232277   6.227   5.633   1.216
10460SOL     OW32278   6.549   0.847   0.468
10460SOL    HW132279   6.549   0.891   0.558
10460SOL    HW232280   6.587   0.910   0.400
10461SOL     OW32281   6.889   4.290   6.205
10461SOL    HW132282   6.919   4.252   6.293
10461SOL    HW232283   6.954   4.360   6.176
10462SOL     OW32284   3.015   3.974   6.350
10462SOL    HW132285   3.048   4.005   6.261
10462SOL    HW232286   2.957   3.894   6.337
10463SOL     OW32287   5.084   2.944   6.462
10463SOL    HW132288   5.037   2.885   6.527
10463SOL    HW232289   5.183   2.932   6.472
10464SOL     OW32290   6.542   4.542   1.759
10464SOL    HW132291   6.466   4.476   1.754
10464SOL    HW232292   6.589   4.545   1.671
10465SOL     OW32293   5.821   4.830   1.318
10465SOL    HW132294   5.899   4.778   1.353
10465SOL    HW232295   5.765   4.861   1.395
10466SOL     OW32296   5.951   3.943   5.919
10466SOL    HW132297   5.955   3.864   5.979
10466SOL    HW232298   5.866   3.941   5.866
10467SOL     OW32299   6.987   2.424   6.671
10467SOL    HW132300   0.031   2.409   6.741
10467SOL    HW232301   6.904   2.374   6.694
10468SOL     OW32302   1.536   4.442   4.480
10468SOL    HW132303   1.535   4.347   4.511
10468SOL    HW232304   1.596   4.449   4.399
10469SOL     OW32305   0.902   1.647   3.796
10469SOL    HW132306   1.000   1.667   3.800
10469SOL    HW232307   0.859   1.675   3.881
10470SOL     OW32308   2.124   3.916   2.278
10470SOL    HW132309   2.106   4.001   2.328
10470SOL    HW232310   2.067   3.843   2.316
10471SOL     OW32311   2.002   5.710   6.596
10471SOL    HW132312   1.963   5.761   6.673
10471SOL    HW232313   2.090   5.750   6.571
10472SOL     OW32314   3.921   5.334   6.372
10472SOL    HW132315   3.839   5.356   6.424
10472SOL    HW232316   3.991   5.404   6.390
10473SOL     OW32317   6.227   4.601   0.709
10473SOL    HW132318   6.267   4.549   0.784
10473SOL    HW232319   6.274   4.578   0.624
10474SOL     OW32320   6.406   6.783   5.069
10474SOL    HW132321   6.470   6.859   5.083
10474SOL    HW232322   6.329   6.814   5.013
10475SOL     OW32323   0.926   5.505   1.456
10475SOL    HW132324   1.007   5.453   1.428
10475SOL    HW232325   0.921   5.590   1.404
10476SOL     OW32326   5.176   6.360   1.225
10476SOL    HW132327   5.182   6.310   1.139
10476SOL    HW232328   5.164   6.295   1.301
10477SOL     OW32329   0.023   5.714   3.840
10477SOL    HW132330   0.038   5.764   3.926
10477SOL    HW232331   0.109   5.710   3.789
10478SOL     OW32332   0.146   0.954   6.599
10478SOL    HW132333   0.078   0.883   6.579
10478SOL    HW232334   0.119   1.004   6.681
10479SOL     OW32335   0.550   3.209   2.276
10479SOL    HW132336   0.474   3.228   2.214
10479SOL    HW232337   0.518   3.154   2.353
10480SOL     OW32338   2.605   1.053   3.257
10480SOL    HW132339   2.622   0.981   3.325
10480SOL    HW232340   2.572   1.135   3.303
10481SOL     OW32341   6.898   1.581   1.421
10481SOL    HW132342   6.800   1.592   1.439
10481SOL    HW232343   6.946   1.666   1.442
10482SOL     OW32344   5.495   2.756   3.497
10482SOL    HW132345   5.591   2.730   3.499
10482SOL    HW232346   5.483   2.843   3.545
10483SOL     OW32347   6.135   6.853   0.341
10483SOL    HW132348   6.172   6.765   0.308
10483SOL    HW232349   6.194   6.927   0.309
10484SOL     OW32350   6.798   0.995   2.079
10484SOL    HW132351   6.760   0.990   2.172
10484SOL    HW232352   6.878   1.054   2.079
10485SOL     OW32353   5.170   3.356   4.850
10485SOL    HW132354   5.162   3.334   4.947
10485SOL    HW232355   5.227   3.288   4.804
10486SOL     OW32356   5.065   2.897   2.817
10486SOL    HW132357   5.124   2.817   2.805
10486SOL    HW232358   4.970   2.869   2.812
10487SOL     OW32359   4.694   7.018   2.363
10487SOL    HW132360   4.736   6.938   2.321
10487SOL    HW232361   4.751   0.027   2.437
10488SOL     OW32362   3.625   3.805   6.765
10488SOL    HW132363   3.630   3.716   6.812
10488SOL    HW232364   3.656   3.794   6.671
10489SOL     OW32365   1.828   5.435   5.271
10489SOL    HW132366   1.735   5.402   5.251
10489SOL    HW232367   1.833   5.462   5.367
10490SOL     OW32368   6.449   0.580   4.332
10490SOL    HW132369   6.394   0.620   4.406
10490SOL    HW232370   6.455   0.481   4.344
10491SOL     OW32371   0.036   5.059   5.276
10491SOL    HW132372   0.052   4.972   5.230
10491SOL    HW232373   6.992   5.047   5.348
10492SOL     OW32374   3.891   4.380   6.005
10492SOL    HW132375   3.793   4.370   5.987
10492SOL    HW232376   3.917   4.476   5.994
10493SOL     OW32377   3.657   1.346   0.869
10493SOL    HW132378   3.606   1.288   0.805
10493SOL    HW232379   3.634   1.321   0.962
10494SOL     OW32380   5.700   2.082   5.169
10494SOL    HW132381   5.645   2.053   5.247
10494SOL    HW232382   5.653   2.156   5.121
10495SOL     OW32383   1.660   6.959   0.398
10495SOL    HW132384   1.697   6.887   0.457
10495SOL    HW232385   1.565   6.938   0.375
10496SOL     OW32386   6.389   0.470   5.814
10496SOL    HW132387   6.296   0.494   5.787
10496SOL    HW232388   6.449   0.549   5.803
10497SOL     OW32389   0.997   1.759   6.923
10497SOL    HW132390   1.068   1.806   6.870
10497SOL    HW232391   0.937   1.709   6.861
10498SOL     OW32392   3.033   4.783   5.730
10498SOL    HW132393   3.043   4.795   5.829
10498SOL    HW232394   2.953   4.727   5.711
10499SOL     OW32395   2.933   5.223   3.457
10499SOL    HW132396   2.850   5.171   3.477
10499SOL    HW232397   2.917   5.319   3.478
10500SOL     OW32398   2.108   2.259   6.793
10500SOL    HW132399   2.123   2.275   6.695
10500SOL    HW232400   2.009   2.257   6.811
10501SOL     OW32401   1.270   2.542   3.405
10501SOL    HW132402   1.240   2.451   3.375
10501SOL    HW232403   1.299   2.537   3.501
10502SOL     OW32404   3.025   5.875   5.103
10502SOL    HW132405   3.018   5.975   5.108
10502SOL    HW232406   2.992   5.843   5.014
10503SOL     OW32407   2.811   3.239   5.340
10503SOL    HW132408   2.853   3.153   5.368
10503SOL    HW232409   2.718   3.222   5.309
10504SOL     OW32410   2.469   3.373   1.466
10504SOL    HW132411   2.495   3.341   1.557
10504SOL    HW232412   2.402   3.448   1.475
10505SOL     OW32413   0.176   0.417   1.026
10505SOL    HW132414   0.144   0.367   1.106
10505SOL    HW232415   0.101   0.427   0.961
10506SOL     OW32416   0.224   3.854   5.439
10506SOL    HW132417   0.306   3.890   5.395
10506SOL    HW232418   0.157   3.831   5.368
10507SOL     OW32419   1.524   0.455   3.886
10507SOL    HW132420   1.511   0.467   3.984
10507SOL    HW232421   1.440   0.483   3.838
10508SOL     OW32422   5.413   3.467   2.385
10508SOL    HW132423   5.426   3.500   2.291
10508SOL    HW232424   5.437   3.370   2.390
10509SOL     OW32425   1.814   0.799   6.159
10509SOL    HW132426   1.896   0.775   6.106
10509SOL    HW232427   1.832   0.881   6.213
10510SOL     OW32428   5.961   6.578   6.487
10510SOL    HW132429   6.008   6.666   6.473
10510SOL    HW232430   5.944   6.535   6.398
10511SOL     OW32431   0.426   2.027   0.791
10511SOL    HW132432   0.525   2.017   0.786
10511SOL    HW232433   0.402   2.124   0.791
10512SOL     OW32434   3.182   6.586   6.280
10512SOL    HW132435   3.179   6.678   6.242
10512SOL    HW232436   3.269   6.572   6.328
10513SOL     OW32437   0.203   1.728   0.625
10513SOL    HW132438   0.252   1.650   0.664
10513SOL    HW232439   0.184   1.711   0.529
10514SOL     OW32440   6.832   3.463   1.445
10514SOL    HW132441   6.905   3.508   1.497
10514SOL    HW232442   6.744   3.486   1.485
10515SOL     OW32443   6.168   2.562   4.201
10515SOL    HW132444   6.202   2.655   4.218
10515SOL    HW232445   6.071   2.557   4.225
10516SOL     OW32446   3.013   0.162   0.680
10516SOL    HW132447   2.916   0.164   0.653
10516SOL    HW232448   3.049   0.070   0.665
10517SOL     OW32449   6.707   2.310   2.992
10517SOL    HW132450   6.781   2.252   2.958
10517SOL    HW232451   6.731   2.345   3.082
10518SOL     OW32452   0.403   6.770   2.890
10518SOL    HW132453   0.499   6.746   2.903
10518SOL    HW232454   0.369   6.728   2.806
10519SOL     OW32455   3.394   3.528   5.376
10519SOL    HW132456   3.354   3.600   5.432
10519SOL    HW232457   3.362   3.537   5.282
10520SOL     OW32458   3.505   4.330   6.446
10520SOL    HW132459   3.494   4.369   6.537
10520SOL    HW232460   3.433   4.365   6.385
10521SOL     OW32461   6.510   5.348   2.201
10521SOL    HW132462   6.495   5.426   2.262
10521SOL    HW232463   6.583   5.290   2.238
10522SOL     OW32464   6.561   0.241   1.679
10522SOL    HW132465   6.555   0.330   1.634
10522SOL    HW232466   6.496   0.237   1.754
10523SOL     OW32467   0.127   5.775   6.663
10523SOL    HW132468   0.084   5.862   6.688
10523SOL    HW232469   0.118   5.711   6.739
10524SOL     OW32470   4.803   0.577   4.446
10524SOL    HW132471   4.836   0.607   4.356
10524SOL    HW232472   4.873   0.521   4.489
10525SOL     OW32473   3.041   6.125   5.117
10525SOL    HW132474   3.057   6.188   5.193
10525SOL    HW232475   3.064   6.170   5.031
10526SOL     OW32476   5.320   0.332   2.100
10526SOL    HW132477   5.317   0.367   2.007
10526SOL    HW232478   5.227   0.324   2.136
10527SOL     OW32479   1.949   2.459   4.727
10527SOL    HW132480   1.880   2.450   4.799
10527SOL    HW232481   1.908   2.503   4.647
10528SOL     OW32482   6.382   4.512   5.660
10528SOL    HW132483   6.343   4.585   5.604
10528SOL    HW232484   6.387   4.542   5.755
10529SOL     OW32485   0.017   6.404   4.409
10529SOL    HW132486   0.106   6.410   4.454
10529SOL    HW232487   0.024   6.440   4.316
10530SOL     OW32488   2.263   1.831   5.728
10530SOL    HW132489   2.169   1.796   5.730
10530SOL    HW232490   2.284   1.864   5.636
10531SOL     OW32491   1.510   2.260   6.070
10531SOL    HW132492   1.608   2.241   6.071
10531SOL    HW232493   1.494   2.351   6.033
10532SOL     OW32494   3.531   3.029   5.285
10532SOL    HW132495   3.467   2.953   5.285
10532SOL    HW232496   3.581   3.030   5.198
10533SOL     OW32497   2.792   1.337   6.283
10533SOL    HW132498   2.827   1.244   6.273
10533SOL    HW232499   2.788   1.361   6.380
10534SOL     OW32500   5.880   5.837   1.207
10534SOL    HW132501   5.874   5.745   1.167
10534SOL    HW232502   5.789   5.879   1.207
10535SOL     OW32503   0.455   1.352   2.425
10535SOL    HW132504   0.404   1.406   2.358
10535SOL    HW232505   0.403   1.348   2.511
10536SOL     OW32506   5.285   6.064   3.912
10536SOL    HW132507   5.252   6.157   3.930
10536SOL    HW232508   5.378   6.055   3.950
10537SOL     OW32509   0.041   5.728   1.590
10537SOL    HW132510   6.973   5.697   1.566
10537SOL    HW232511   0.070   5.799   1.526
10538SOL     OW32512   4.374   4.318   6.838
10538SOL    HW132513   4.310   4.258   6.790
10538SOL    HW232514   4.465   4.310   6.798
10539SOL     OW32515   0.930   3.478   5.595
10539SOL    HW132516   1.009   3.417   5.603
10539SOL    HW232517   0.934   3.547   5.667
10540SOL     OW32518   2.954   0.899   0.327
10540SOL    HW132519   2.885   0.968   0.308
10540SOL    HW232520   2.932   0.815   0.278
10541SOL     OW32521   4.724   2.255   0.338
10541SOL    HW132522   4.677   2.340   0.313
10541SOL    HW232523   4.708   2.236   0.435
10542SOL     OW32524   1.412   2.591   0.441
10542SOL    HW132525   1.322   2.633   0.455
10542SOL    HW232526   1.405   2.492   0.452
10543SOL     OW32527   2.743   1.053   5.078
10543SOL    HW132528   2.674   1.062   5.149
10543SOL    HW232529   2.761   0.956   5.060
10544SOL     OW32530   6.878   2.702   1.445
10544SOL    HW132531   6.837   2.723   1.534
10544SOL    HW232532   6.978   2.702   1.454
10545SOL     OW32533   5.114   0.882   3.410
10545SOL    HW132534   5.107   0.955   3.342
10545SOL    HW232535   5.203   0.885   3.454
10546SOL     OW32536   3.953   1.251   5.242
10546SOL    HW132537   4.036   1.300   5.218
10546SOL    HW232538   3.974   1.182   5.312
10547SOL     OW32539   3.968   0.076   1.165
10547SOL    HW132540   3.921   0.159   1.135
10547SOL    HW232541   3.973   0.075   1.265
10548SOL     OW32542   4.364   4.694   5.230
10548SOL    HW132543   4.351   4.608   5.180
10548SOL    HW232544   4.432   4.680   5.302
10549SOL     OW32545   1.169   1.352   1.590
10549SOL    HW132546   1.236   1.388   1.525
10549SOL    HW232547   1.125   1.271   1.551
10550SOL     OW32548   5.646   6.948   4.706
10550SOL    HW132549   5.677   0.017   4.724
10550SOL    HW232550   5.662   6.891   4.787
10551SOL     OW32551   1.304   2.738   6.122
10551SOL    HW132552   1.248   2.722   6.040
10551SOL    HW232553   1.302   2.657   6.180
10552SOL     OW32554   3.416   2.093   4.888
10552SOL    HW132555   3.373   2.153   4.821
10552SOL    HW232556   3.365   2.097   4.974
10553SOL     OW32557   3.029   5.187   5.904
10553SOL    HW132558   3.096   5.155   5.837
10553SOL    HW232559   3.075   5.234   5.979
10554SOL     OW32560   6.273   4.222   5.717
10554SOL    HW132561   6.279   4.321   5.702
10554SOL    HW232562   6.187   4.187   5.680
10555SOL     OW32563   3.386   2.375   0.845
10555SOL    HW132564   3.476   2.416   0.861
10555SOL    HW232565   3.351   2.406   0.757
10556SOL     OW32566   1.898   3.539   4.201
10556SOL    HW132567   1.990   3.535   4.241
10556SOL    HW232568   1.906   3.547   4.101
10557SOL     OW32569   5.687   1.292   3.419
10557SOL    HW132570   5.591   1.269   3.407
10557SOL    HW232571   5.712   1.364   3.354
10558SOL     OW32572   5.326   5.672   4.679
10558SOL    HW132573   5.306   5.745   4.615
10558SOL    HW232574   5.296   5.698   4.771
10559SOL     OW32575   4.268   2.529   0.967
10559SOL    HW132576   4.265   2.627   0.947
10559SOL    HW232577   4.303   2.514   1.059
10560SOL     OW32578   0.097   3.086   4.329
10560SOL    HW132579   0.018   3.076   4.390
10560SOL    HW232580   0.143   2.998   4.320
10561SOL     OW32581   3.120   4.358   5.991
10561SOL    HW132582   3.145   4.451   5.965
10561SOL    HW232583   3.202   4.309   6.023
10562SOL     OW32584   3.483   1.510   0.638
10562SOL    HW132585   3.447   1.510   0.544
10562SOL    HW232586   3.408   1.494   0.702
10563SOL     OW32587   1.340   1.871   3.698
10563SOL    HW132588   1.348   1.960   3.743
10563SOL    HW232589   1.430   1.827   3.697
10564SOL     OW32590   0.020   2.329   2.350
10564SOL    HW132591   0.015   2.421   2.388
10564SOL    HW232592   0.005   2.332   2.251
10565SOL     OW32593   5.134   1.572   5.022
10565SOL    HW132594   5.116   1.553   4.925
10565SOL    HW232595   5.219   1.624   5.030
10566SOL     OW32596   4.283   5.357   0.358
10566SOL    HW132597   4.195   5.312   0.343
10566SOL    HW232598   4.284   5.397   0.450
10567SOL     OW32599   2.069   4.950   4.069
10567SOL    HW132600   2.151   4.999   4.099
10567SOL    HW232601   2.042   4.982   3.978
10568SOL     OW32602   3.850   1.706   2.873
10568SOL    HW132603   3.781   1.643   2.836
10568SOL    HW232604   3.894   1.755   2.798
10569SOL     OW32605   5.967   2.971   3.402
10569SOL    HW132606   6.047   3.029   3.386
10569SOL    HW232607   5.996   2.885   3.444
10570SOL     OW32608   1.237   4.278   1.679
10570SOL    HW132609   1.218   4.348   1.747
10570SOL    HW232610   1.205   4.189   1.712
10571SOL     OW32611   6.087   6.512   4.898
10571SOL    HW132612   6.047   6.565   4.973
10571SOL    HW232613   6.115   6.575   4.825
10572SOL     OW32614   6.577   3.271   1.644
10572SOL    HW132615   6.580   3.250   1.546
10572SOL    HW232616   6.503   3.219   1.686
10573SOL     OW32617   6.231   4.279   6.371
10573SOL    HW132618   6.170   4.200   6.383
10573SOL    HW232619   6.278   4.271   6.283
10574SOL     OW32620   0.748   1.870   3.460
10574SOL    HW132621   0.844   1.845   3.455
10574SOL    HW232622   0.702   1.817   3.531
10575SOL     OW32623   0.481   6.714   6.133
10575SOL    HW132624   0.570   6.716   6.178
10575SOL    HW232625   0.425   6.641   6.172
10576SOL     OW32626   1.225   5.273   3.405
10576SOL    HW132627   1.276   5.211   3.465
10576SOL    HW232628   1.159   5.324   3.460
10577SOL     OW32629   0.650   3.452   5.736
10577SOL    HW132630   0.559   3.438   5.776
10577SOL    HW232631   0.693   3.363   5.720
10578SOL     OW32632   5.671   1.260   5.726
10578SOL    HW132633   5.682   1.309   5.813
10578SOL    HW232634   5.737   1.297   5.659
10579SOL     OW32635   4.889   0.041   1.053
10579SOL    HW132636   4.900   0.057   1.151
10579SOL    HW232637   4.846   6.977   1.038
10580SOL     OW32638   6.688   6.346   0.632
10580SOL    HW132639   6.606   6.343   0.689
10580SOL    HW232640   6.686   6.272   0.566
10581SOL     OW32641   4.984   2.110   3.658
10581SOL    HW132642   5.082   2.094   3.675
10581SOL    HW232643   4.966   2.208   3.662
10582SOL     OW32644   3.449   4.823   0.237
10582SOL    HW132645   3.473   4.840   0.141
10582SOL    HW232646   3.458   4.908   0.289
10583SOL     OW32647   4.068   1.003   1.466
10583SOL    HW132648   4.008   0.956   1.402
10583SOL    HW232649   4.015   1.069   1.519
10584SOL     OW32650   5.834   0.094   1.517
10584SOL    HW132651   5.753   0.056   1.473
10584SOL    HW232652   5.807   0.154   1.592
10585SOL     OW32653   2.379   4.331   6.507
10585SOL    HW132654   2.329   4.304   6.425
10585SOL    HW232655   2.450   4.397   6.483
10586SOL     OW32656   4.925   1.417   0.414
10586SOL    HW132657   4.867   1.378   0.485
10586SOL    HW232658   4.912   1.366   0.329
10587SOL     OW32659   5.676   3.428   0.530
10587SOL    HW132660   5.595   3.468   0.574
10587SOL    HW232661   5.695   3.475   0.444
10588SOL     OW32662   1.603   4.991   3.476
10588SOL    HW132663   1.514   5.035   3.493
10588SOL    HW232664   1.633   5.013   3.383
10589SOL     OW32665   6.035   1.302   4.398
10589SOL    HW132666   6.117   1.250   4.375
10589SOL    HW232667   5.957   1.263   4.350
10590SOL     OW32668   1.693   0.475   5.170
10590SOL    HW132669   1.735   0.458   5.080
10590SOL    HW232670   1.707   0.570   5.196
10591SOL     OW32671   1.457   2.350   0.908
10591SOL    HW132672   1.495   2.442   0.917
10591SOL    HW232673   1.529   2.283   0.926
10592SOL     OW32674   6.061   1.556   6.780
10592SOL    HW132675   5.987   1.563   6.714
10592SOL    HW232676   6.112   1.642   6.784
10593SOL     OW32677   1.273   4.910   1.916
10593SOL    HW132678   1.221   4.825   1.930
10593SOL    HW232679   1.370   4.892   1.930
10594SOL     OW32680   0.793   1.485   4.499
10594SOL    HW132681   0.752   1.550   4.435
10594SOL    HW232682   0.839   1.412   4.448
10595SOL     OW32683   2.536   5.305   5.213
10595SOL    HW132684   2.601   5.230   5.220
10595SOL    HW232685   2.443   5.269   5.212
10596SOL     OW32686   3.405   0.791   2.213
10596SOL    HW132687   3.314   0.823   2.189
10596SOL    HW232688   3.472   0.863   2.197
10597SOL     OW32689   2.416   0.559   3.677
10597SOL    HW132690   2.363   0.566   3.762
10597SOL    HW232691   2.392   0.636   3.618
10598SOL     OW32692   2.094   1.522   7.022
10598SOL    HW132693   2.100   1.423   7.005
10598SOL    HW232694   2.150   1.571   6.955
10599SOL     OW32695   4.938   0.368   6.723
10599SOL    HW132696   4.973   0.386   6.815
10599SOL    HW232697   4.839   0.375   6.723
10600SOL     OW32698   1.459   2.084   5.530
10600SOL    HW132699   1.434   2.003   5.476
10600SOL    HW232700   1.514   2.145   5.472
10601SOL     OW32701   3.696   5.761   5.502
10601SOL    HW132702   3.692   5.695   5.577
10601SOL    HW232703   3.623   5.740   5.437
10602SOL     OW32704   4.672   0.964   1.416
10602SOL    HW132705   4.677   0.987   1.318
10602SOL    HW232706   4.580   0.930   1.437
10603SOL     OW32707   0.783   4.746   4.818
10603SOL    HW132708   0.737   4.800   4.747
10603SOL    HW232709   0.814   4.807   4.891
10604SOL     OW32710   6.736   4.293   5.441
10604SOL    HW132711   6.773   4.375   5.485
10604SOL    HW232712   6.808   4.224   5.434
10605SOL     OW32713   2.031   5.088   6.116
10605SOL    HW132714   2.024   5.012   6.181
10605SOL    HW232715   2.080   5.164   6.160
10606SOL     OW32716   0.772   0.841   2.933
10606SOL    HW132717   0.854   0.882   2.893
10606SOL    HW232718   0.798   0.763   2.990
10607SOL     OW32719   5.781   4.833   6.631
10607SOL    HW132720   5.823   4.795   6.549
10607SOL    HW232721   5.742   4.759   6.686
10608SOL     OW32722   5.889   0.755   2.594
10608SOL    HW132723   5.957   0.687   2.621
10608SOL    HW232724   5.899   0.837   2.651
10609SOL     OW32725   3.819   6.711   2.152
10609SOL    HW132726   3.840   6.614   2.166
10609SOL    HW232727   3.726   6.730   2.183
10610SOL     OW32728   2.083   4.370   4.415
10610SOL    HW132729   2.053   4.351   4.322
10610SOL    HW232730   2.040   4.455   4.447
10611SOL     OW32731   5.050   2.653   6.351
10611SOL    HW132732   4.965   2.676   6.303
10611SOL    HW232733   5.052   2.700   6.439
10612SOL     OW32734   1.235   6.662   1.080
10612SOL    HW132735   1.264   6.707   0.996
10612SOL    HW232736   1.315   6.628   1.129
10613SOL     OW32737   0.196   6.833   6.566
10613SOL    HW132738   0.140   6.807   6.488
10613SOL    HW232739   0.147   6.813   6.651
10614SOL     OW32740   6.761   1.053   4.224
10614SOL    HW132741   6.842   1.015   4.268
10614SOL    HW232742   6.683   0.991   4.238
10615SOL     OW32743   6.936   5.791   5.355
10615SOL    HW132744   6.885   5.801   5.270
10615SOL    HW232745   6.933   5.876   5.407
10616SOL     OW32746   2.730   5.914   0.537
10616SOL    HW132747   2.789   5.918   0.457
10616SOL    HW232748   2.647   5.863   0.514
10617SOL     OW32749   0.097   1.798   6.714
10617SOL    HW132750   0.100   1.762   6.808
10617SOL    HW232751   0.104   1.722   6.649
10618SOL     OW32752   6.438   3.871   1.403
10618SOL    HW132753   6.377   3.795   1.423
10618SOL    HW232754   6.532   3.837   1.395
10619SOL     OW32755   0.425   4.224   3.269
10619SOL    HW132756   0.374   4.234   3.355
10619SOL    HW232757   0.363   4.193   3.197
10620SOL     OW32758   1.262   5.263   4.426
10620SOL    HW132759   1.211   5.255   4.340
10620SOL    HW232760   1.199   5.253   4.503
10621SOL     OW32761   2.644   6.489   0.623
10621SOL    HW132762   2.647   6.507   0.721
10621SOL    HW232763   2.554   6.454   0.597
10622SOL     OW32764   4.692   1.843   1.264
10622SOL    HW132765   4.645   1.930   1.253
10622SOL    HW232766   4.750   1.845   1.346
10623SOL     OW32767   6.948   0.825   4.287
10623SOL    HW132768   6.967   0.891   4.360
10623SOL    HW232769   6.867   0.772   4.311
10624SOL     OW32770   2.786   1.216   4.593
10624SOL    HW132771   2.732   1.212   4.510
10624SOL    HW232772   2.796   1.311   4.622
10625SOL     OW32773   0.789   3.000   0.159
10625SOL    HW132774   0.873   2.980   0.109
10625SOL    HW232775   0.743   3.079   0.117
10626SOL     OW32776   5.862   2.229   1.758
10626SOL    HW132777   5.901   2.185   1.839
10626SOL    HW232778   5.859   2.164   1.682
10627SOL     OW32779   5.827   5.536   4.470
10627SOL    HW132780   5.798   5.455   4.419
10627SOL    HW232781   5.913   5.516   4.517
10628SOL     OW32782   0.046   5.948   5.869
10628SOL    HW132783   0.070   5.861   5.913
10628SOL    HW232784   7.011   6.001   5.929
10629SOL     OW32785   2.805   5.083   6.241
10629SOL    HW132786   2.819   5.051   6.147
10629SOL    HW232787   2.893   5.092   6.287
10630SOL     OW32788   6.640   0.947   2.468
10630SOL    HW132789   6.599   1.005   2.398
10630SOL    HW232790   6.631   0.991   2.558
10631SOL     OW32791   0.951   6.686   4.639
10631SOL    HW132792   0.914   6.595   4.656
10631SOL    HW232793   0.990   6.723   4.724
10632SOL     OW32794   0.401   2.996   5.754
10632SOL    HW132795   0.438   3.076   5.707
10632SOL    HW232796   0.475   2.943   5.795
10633SOL     OW32797   0.803   5.089   1.199
10633SOL    HW132798   0.779   5.032   1.278
10633SOL    HW232799   0.876   5.045   1.148
10634SOL     OW32800   4.083   6.490   2.005
10634SOL    HW132801   4.132   6.487   2.092
10634SOL    HW232802   3.998   6.437   2.013
10635SOL     OW32803   1.358   0.991   1.671
10635SOL    HW132804   1.367   0.908   1.616
10635SOL    HW232805   1.263   1.001   1.701
10636SOL     OW32806   6.077   1.220   0.764
10636SOL    HW132807   6.099   1.124   0.746
10636SOL    HW232808   6.160   1.275   0.754
10637SOL     OW32809   3.595   4.329   5.875
10637SOL    HW132810   3.527   4.257   5.861
10637SOL    HW232811   3.617   4.372   5.788
10638SOL     OW32812   6.877   0.310   5.816
10638SOL    HW132813   6.801   0.246   5.804
10638SOL    HW232814   6.951   0.286   5.752
10639SOL     OW32815   3.462   1.849   5.148
10639SOL    HW132816   3.376   1.898   5.129
10639SOL    HW232817   3.529   1.914   5.185
10640SOL     OW32818   4.192   6.133   0.964
10640SOL    HW132819   4.113   6.126   1.026
10640SOL    HW232820   4.262   6.190   1.007
10641SOL     OW32821   4.054   1.041   6.602
10641SOL    HW132822   4.018   1.072   6.690
10641SOL    HW232823   4.133   0.981   6.617
10642SOL     OW32824   0.003   4.493   0.508
10642SOL    HW132825   0.061   4.527   0.582
10642SOL    HW232826   6.932   4.492   0.539
10643SOL     OW32827   4.003   3.472   5.682
10643SOL    HW132828   4.077   3.438   5.739
10643SOL    HW232829   4.041   3.514   5.599
10644SOL     OW32830   3.772   1.235   4.647
10644SOL    HW132831   3.687   1.286   4.663
10644SOL    HW232832   3.850   1.288   4.679
10645SOL     OW32833   2.125   6.835   5.018
10645SOL    HW132834   2.132   6.899   4.942
10645SOL    HW232835   2.073   6.754   4.989
10646SOL     OW32836   1.255   4.319   6.649
10646SOL    HW132837   1.317   4.337   6.726
10646SOL    HW232838   1.219   4.406   6.615
10647SOL     OW32839   0.271   5.729   0.811
10647SOL    HW132840   0.177   5.697   0.802
10647SOL    HW232841   0.334   5.651   0.802
10648SOL     OW32842   4.552   5.293   6.729
10648SOL    HW132843   4.481   5.339   6.675
10648SOL    HW232844   4.638   5.294   6.678
10649SOL     OW32845   0.047   4.504   6.138
10649SOL    HW132846   0.062   4.592   6.183
10649SOL    HW232847   0.134   4.471   6.100
10650SOL     OW32848   3.349   0.877   5.116
10650SOL    HW132849   3.338   0.806   5.186
10650SOL    HW232850   3.263   0.928   5.107
10651SOL     OW32851   2.836   0.327   5.538
10651SOL    HW132852   2.841   0.331   5.638
10651SOL    HW232853   2.917   0.372   5.500
10652SOL     OW32854   3.997   1.150   0.759
10652SOL    HW132855   4.091   1.155   0.726
10652SOL    HW232856   3.936   1.131   0.682
10653SOL     OW32857   5.668   3.115   3.993
10653SOL    HW132858   5.653   3.058   4.074
10653SOL    HW232859   5.675   3.211   4.020
10654SOL     OW32860   4.442   0.742   1.664
10654SOL    HW132861   4.351   0.768   1.696
10654SOL    HW232862   4.456   0.777   1.571
10655SOL     OW32863   3.009   5.497   1.169
10655SOL    HW132864   3.064   5.508   1.087
10655SOL    HW232865   2.934   5.433   1.151
10656SOL     OW32866   6.467   2.685   6.683
10656SOL    HW132867   6.544   2.621   6.676
10656SOL    HW232868   6.385   2.635   6.713
10657SOL     OW32869   6.230   0.045   1.405
10657SOL    HW132870   6.162   0.016   1.473
10657SOL    HW232871   6.294   0.109   1.448
10658SOL     OW32872   0.485   6.730   4.810
10658SOL    HW132873   0.504   6.799   4.741
10658SOL    HW232874   0.522   6.642   4.781
10659SOL     OW32875   5.052   0.662   0.615
10659SOL    HW132876   5.020   0.585   0.560
10659SOL    HW232877   5.066   0.742   0.556
10660SOL     OW32878   5.436   5.607   5.635
10660SOL    HW132879   5.363   5.649   5.688
10660SOL    HW232880   5.431   5.507   5.645
10661SOL     OW32881   0.458   0.561   2.274
10661SOL    HW132882   0.507   0.525   2.353
10661SOL    HW232883   0.513   0.632   2.230
10662SOL     OW32884   6.459   1.666   0.055
10662SOL    HW132885   6.363   1.661   0.029
10662SOL    HW232886   6.467   1.700   0.149
10663SOL     OW32887   0.526   1.484   0.589
10663SOL    HW132888   0.621   1.489   0.619
10663SOL    HW232889   0.483   1.574   0.600
10664SOL     OW32890   2.222   5.334   6.247
10664SOL    HW132891   2.240   5.425   6.209
10664SOL    HW232892   2.150   5.341   6.317
10665SOL     OW32893   5.567   1.192   6.752
10665SOL    HW132894   5.565   1.119   6.821
10665SOL    HW232895   5.476   1.232   6.744
10666SOL     OW32896   0.253   6.880   0.429
10666SOL    HW132897   0.178   6.923   0.380
10666SOL    HW232898   0.324   6.948   0.448
10667SOL     OW32899   3.262   2.417   5.763
10667SOL    HW132900   3.185   2.356   5.744
10667SOL    HW232901   3.250   2.502   5.712
10668SOL     OW32902   2.493   0.810   6.564
10668SOL    HW132903   2.591   0.808   6.543
10668SOL    HW232904   2.449   0.884   6.515
10669SOL     OW32905   0.928   6.705   6.665
10669SOL    HW132906   0.923   6.778   6.734
10669SOL    HW232907   1.015   6.711   6.616
10670SOL     OW32908   6.620   4.358   4.642
10670SOL    HW132909   6.540   4.417   4.657
10670SOL    HW232910   6.617   4.282   4.706
10671SOL     OW32911   1.685   1.976   3.181
10671SOL    HW132912   1.784   1.970   3.165
10671SOL    HW232913   1.652   1.890   3.220
10672SOL     OW32914   6.821   2.771   0.974
10672SOL    HW132915   6.906   2.824   0.978
10672SOL    HW232916   6.746   2.826   1.009
10673SOL     OW32917   3.409   3.613   4.665
10673SOL    HW132918   3.459   3.528   4.681
10673SOL    HW232919   3.403   3.631   4.567
10674SOL     OW32920   3.846   1.364   2.637
10674SOL    HW132921   3.779   1.291   2.634
10674SOL    HW232922   3.885   1.377   2.545
10675SOL     OW32923   0.770   1.048   6.054
10675SOL    HW132924   0.794   1.088   5.966
10675SOL    HW232925   0.854   1.031   6.106
10676SOL     OW32926   6.863   0.094   6.978
10676SOL    HW132927   6.919   0.132   6.904
10676SOL    HW232928   6.770   0.132   6.971
10677SOL     OW32929   6.248   1.089   0.515
10677SOL    HW132930   6.271   1.053   0.425
10677SOL    HW232931   6.320   1.151   0.546
10678SOL     OW32932   1.768   5.342   3.653
10678SOL    HW132933   1.781   5.442   3.656
10678SOL    HW232934   1.697   5.316   3.719
10679SOL     OW32935   5.490   4.960   3.564
10679SOL    HW132936   5.559   5.015   3.611
10679SOL    HW232937   5.530   4.918   3.482
10680SOL     OW32938   1.293   2.444   3.872
10680SOL    HW132939   1.369   2.472   3.813
10680SOL    HW232940   1.231   2.386   3.820
10681SOL     OW32941   0.361   2.520   6.490
10681SOL    HW132942   0.373   2.595   6.555
10681SOL    HW232943   0.369   2.555   6.396
10682SOL     OW32944   6.367   1.892   2.618
10682SOL    HW132945   6.438   1.922   2.683
10682SOL    HW232946   6.353   1.794   2.628
10683SOL     OW32947   1.317   0.409   4.377
10683SOL    HW132948   1.235   0.432   4.325
10683SOL    HW232949   1.381   0.359   4.318
10684SOL     OW32950   5.459   5.896   0.101
10684SOL    HW132951   5.383   5.961   0.094
10684SOL    HW232952   5.426   5.811   0.143
10685SOL     OW32953   6.126   2.593   2.211
10685SOL    HW132954   6.085   2.537   2.139
10685SOL    HW232955   6.226   2.589   2.203
10686SOL     OW32956   4.467   4.808   0.550
10686SOL    HW132957   4.504   4.717   0.571
10686SOL    HW232958   4.377   4.799   0.507
10687SOL     OW32959   6.461   5.393   1.074
10687SOL    HW132960   6.474   5.483   1.033
10687SOL    HW232961   6.421   5.331   1.006
10688SOL     OW32962   0.196   5.118   1.028
10688SOL    HW132963   0.173   5.134   1.124
10688SOL    HW232964   0.114   5.093   0.978
10689SOL     OW32965   0.787   0.159   1.372
10689SOL    HW132966   0.857   0.128   1.437
10689SOL    HW232967   0.817   0.244   1.329
10690SOL     OW32968   4.504   6.377   2.866
10690SOL    HW132969   4.500   6.419   2.957
10690SOL    HW232970   4.446   6.295   2.864
10691SOL     OW32971   6.194   1.578   1.703
10691SOL    HW132972   6.096   1.579   1.727
10691SOL    HW232973   6.204   1.577   1.604
10692SOL     OW32974   6.066   6.388   3.747
10692SOL    HW132975   5.978   6.378   3.793
10692SOL    HW232976   6.101   6.298   3.722
10693SOL     OW32977   5.270   2.733   3.632
10693SOL    HW132978   5.362   2.747   3.597
10693SOL    HW232979   5.270   2.739   3.732
10694SOL     OW32980   2.911   6.833   0.306
10694SOL    HW132981   2.948   6.868   0.391
10694SOL    HW232982   2.971   6.859   0.230
10695SOL     OW32983   5.582   3.108   5.350
10695SOL    HW132984   5.563   3.147   5.440
10695SOL    HW232985   5.636   3.174   5.296
10696SOL     OW32986   6.127   6.929   1.646
10696SOL    HW132987   6.196   6.856   1.645
10696SOL    HW232988   6.041   6.894   1.610
10697SOL     OW32989   1.583   6.527   2.819
10697SOL    HW132990   1.587   6.534   2.919
10697SOL    HW232991   1.625   6.441   2.790
10698SOL     OW32992   3.227   0.285   4.295
10698SOL    HW132993   3.191   0.233   4.374
10698SOL    HW232994   3.153   0.339   4.255
10699SOL     OW32995   1.983   2.275   3.361
10699SOL    HW132996   2.022   2.252   3.272
10699SOL    HW232997   1.889   2.242   3.366
10700SOL     OW32998   0.907   1.989   2.508
10700SOL    HW132999   0.851   1.967   2.428
10700SOL    HW233000   0.905   2.087   2.525
10701SOL     OW33001   3.098   0.296   1.705
10701SOL    HW133002   3.075   0.261   1.614
10701SOL    HW233003   3.042   0.377   1.724
10702SOL     OW33004   5.003   2.430   0.860
10702SOL    HW133005   5.068   2.484   0.913
10702SOL    HW233006   5.047   2.401   0.775
10703SOL     OW33007   3.855   3.033   4.114
10703SOL    HW133008   3.810   2.972   4.179
10703SOL    HW233009   3.904   3.104   4.164
10704SOL     OW33010   5.677   6.109   2.094
10704SOL    HW133011   5.736   6.040   2.052
10704SOL    HW233012   5.702   6.121   2.190
10705SOL     OW33013   1.436   3.249   6.181
10705SOL    HW133014   1.464   3.154   6.195
10705SOL    HW233015   1.364   3.272   6.246
10706SOL     OW33016   3.364   2.860   0.996
10706SOL    HW133017   3.327   2.767   1.001
10706SOL    HW233018   3.463   2.856   0.982
10707SOL     OW33019   6.269   6.859   6.248
10707SOL    HW133020   6.220   6.882   6.164
10707SOL    HW233021   6.319   6.938   6.280
10708SOL     OW33022   4.894   1.254   1.296
10708SOL    HW133023   4.848   1.343   1.297
10708SOL    HW233024   4.917   1.227   1.389
10709SOL     OW33025   0.638   0.258   6.124
10709SOL    HW133026   0.701   0.299   6.058
10709SOL    HW233027   0.642   0.310   6.210
10710SOL     OW33028   6.790   6.009   3.712
10710SOL    HW133029   6.873   5.998   3.657
10710SOL    HW233030   6.709   6.000   3.654
10711SOL     OW33031   2.467   5.023   5.409
10711SOL    HW133032   2.552   5.041   5.359
10711SOL    HW233033   2.389   5.042   5.350
10712SOL     OW33034   3.628   1.429   6.092
10712SOL    HW133035   3.637   1.511   6.035
10712SOL    HW233036   3.601   1.352   6.035
10713SOL     OW33037   2.001   6.635   1.005
10713SOL    HW133038   2.082   6.648   1.062
10713SOL    HW233039   1.958   6.547   1.028
10714SOL     OW33040   6.133   5.778   4.925
10714SOL    HW133041   6.122   5.686   4.963
10714SOL    HW233042   6.067   5.792   4.852
10715SOL     OW33043   5.583   0.981   2.700
10715SOL    HW133044   5.579   0.976   2.600
10715SOL    HW233045   5.519   0.915   2.739
10716SOL     OW33046   0.106   0.977   1.879
10716SOL    HW133047   0.087   0.912   1.952
10716SOL    HW233048   0.023   0.994   1.827
10717SOL     OW33049   6.873   6.747   2.185
10717SOL    HW133050   6.907   6.685   2.256
10717SOL    HW233051   6.773   6.753   2.191
10718SOL     OW33052   1.054   4.137   5.369
10718SOL    HW133053   1.137   4.153   5.422
10718SOL    HW233054   1.077   4.137   5.272
10719SOL     OW33055   3.507   6.206   1.998
10719SOL    HW133056   3.438   6.153   1.949
10719SOL    HW233057   3.516   6.296   1.957
10720SOL     OW33058   6.985   3.442   6.412
10720SOL    HW133059   6.902   3.393   6.439
10720SOL    HW233060   0.009   3.389   6.343
10721SOL     OW33061   5.326   2.390   4.482
10721SOL    HW133062   5.254   2.332   4.443
10721SOL    HW233063   5.409   2.382   4.428
10722SOL     OW33064   0.092   5.178   0.447
10722SOL    HW133065   0.125   5.116   0.518
10722SOL    HW233066   0.159   5.184   0.374
10723SOL     OW33067   6.230   4.309   6.820
10723SOL    HW133068   6.134   4.291   6.799
10723SOL    HW233069   6.281   4.317   6.735
10724SOL     OW33070   3.576   6.860   5.543
10724SOL    HW133071   3.646   6.794   5.573
10724SOL    HW233072   3.616   6.951   5.539
10725SOL     OW33073   0.041   0.133   5.101
10725SOL    HW133074   6.984   0.183   5.073
10725SOL    HW233075   0.015   0.061   5.165
10726SOL     OW33076   6.566   0.498   3.587
10726SOL    HW133077   6.602   0.460   3.672
10726SOL    HW233078   6.601   0.445   3.510
10727SOL     OW33079   4.225   6.920   6.392
10727SOL    HW133080   4.153   6.889   6.453
10727SOL    HW233081   4.312   6.924   6.441
10728SOL     OW33082   5.936   5.185   3.762
10728SOL    HW133083   6.024   5.151   3.731
10728SOL    HW233084   5.944   5.216   3.857
10729SOL     OW33085   6.156   3.198   4.006
10729SOL    HW133086   6.127   3.114   4.052
10729SOL    HW233087   6.243   3.229   4.046
10730SOL     OW33088   1.076   6.401   4.280
10730SOL    HW133089   1.146   6.466   4.309
10730SOL    HW233090   0.987   6.428   4.318
10731SOL     OW33091   5.210   5.821   6.119
10731SOL    HW133092   5.276   5.847   6.190
10731SOL    HW233093   5.164   5.737   6.145
10732SOL     OW33094   6.879   6.046   2.302
10732SOL    HW133095   6.834   6.130   2.273
10732SOL    HW233096   6.949   6.020   2.235
10733SOL     OW33097   0.521   1.866   6.017
10733SOL    HW133098   0.440   1.899   6.066
10733SOL    HW233099   0.504   1.868   5.918
10734SOL     OW33100   0.820   0.663   4.362
10734SOL    HW133101   0.839   0.623   4.451
10734SOL    HW233102   0.756   0.739   4.371
10735SOL     OW33103   0.070   0.633   2.103
10735SOL    HW133104   0.140   0.595   2.042
10735SOL    HW233105   0.104   0.632   2.197
10736SOL     OW33106   6.029   5.742   3.822
10736SOL    HW133107   6.024   5.651   3.782
10736SOL    HW233108   6.105   5.792   3.780
10737SOL     OW33109   6.748   0.835   1.583
10737SOL    HW133110   6.682   0.794   1.646
10737SOL    HW233111   6.728   0.806   1.490
10738SOL     OW33112   2.701   0.251   1.410
10738SOL    HW133113   2.667   0.250   1.504
10738SOL    HW233114   2.746   0.338   1.392
10739SOL     OW33115   4.701   2.842   4.201
10739SOL    HW133116   4.611   2.836   4.243
10739SOL    HW233117   4.698   2.907   4.125
10740SOL     OW33118   3.199   0.306   5.977
10740SOL    HW133119   3.238   0.215   5.964
10740SOL    HW233120   3.246   0.353   6.051
10741SOL     OW33121   1.359   2.605   3.645
10741SOL    HW133122   1.448   2.607   3.600
10741SOL    HW233123   1.342   2.692   3.690
10742SOL     OW33124   6.839   0.477   2.157
10742SOL    HW133125   6.780   0.398   2.177
10742SOL    HW233126   6.931   0.444   2.135
10743SOL     OW33127   3.538   1.835   5.608
10743SOL    HW133128   3.623   1.792   5.579
10743SOL    HW233129   3.549   1.935   5.604
10744SOL     OW33130   2.434   1.791   1.521
10744SOL    HW133131   2.521   1.823   1.484
10744SOL    HW233132   2.368   1.780   1.446
10745SOL     OW33133   2.435   5.495   1.459
10745SOL    HW133134   2.528   5.477   1.491
10745SOL    HW233135   2.436   5.502   1.359
10746SOL     OW33136   2.287   5.550   6.102
10746SOL    HW133137   2.252   5.612   6.032
10746SOL    HW233138   2.387   5.553   6.102
10747SOL     OW33139   0.356   1.049   4.704
10747SOL    HW133140   0.325   1.122   4.642
10747SOL    HW233141   0.277   0.999   4.739
10748SOL     OW33142   2.748   6.232   2.576
10748SOL    HW133143   2.723   6.223   2.673
10748SOL    HW233144   2.839   6.273   2.570
10749SOL     OW33145   5.954   4.411   2.160
10749SOL    HW133146   5.981   4.477   2.090
10749SOL    HW233147   6.026   4.343   2.172
10750SOL     OW33148   4.166   2.202   4.348
10750SOL    HW133149   4.158   2.213   4.249
10750SOL    HW233150   4.209   2.114   4.368
10751SOL     OW33151   6.367   6.259   4.157
10751SOL    HW133152   6.391   6.240   4.253
10751SOL    HW233153   6.279   6.306   4.154
10752SOL     OW33154   6.871   6.511   6.851
10752SOL    HW133155   6.800   6.558   6.798
10752SOL    HW233156   6.961   6.540   6.820
10753SOL     OW33157   5.466   6.880   5.081
10753SOL    HW133158   5.451   6.958   5.142
10753SOL    HW233159   5.467   6.796   5.134
10754SOL     OW33160   0.588   5.733   2.295
10754SOL    HW133161   0.489   5.726   2.283
10754SOL    HW233162   0.629   5.770   2.212
10755SOL     OW33163   0.386   2.179   1.498
10755SOL    HW133164   0.427   2.271   1.499
10755SOL    HW233165   0.425   2.125   1.573
10756SOL     OW33166   1.155   0.269   0.083
10756SOL    HW133167   1.185   0.259   7.013
10756SOL    HW233168   1.063   0.233   0.093
10757SOL     OW33169   6.805   2.982   1.956
10757SOL    HW133170   6.881   2.929   1.919
10757SOL    HW233171   6.721   2.960   1.907
10758SOL     OW33172   1.544   1.117   0.209
10758SOL    HW133173   1.608   1.051   0.248
10758SOL    HW233174   1.570   1.209   0.237
10759SOL     OW33175   2.937   3.256   4.765
10759SOL    HW133176   3.017   3.207   4.731
10759SOL    HW233177   2.865   3.255   4.696
10760SOL     OW33178   0.655   4.992   0.385
10760SOL    HW133179   0.578   4.958   0.331
10760SOL    HW233180   0.644   4.964   0.481
10761SOL     OW33181   1.444   1.392   5.801
10761SOL    HW133182   1.538   1.392   5.837
10761SOL    HW233183   1.401   1.480   5.821
10762SOL     OW33184   1.725   6.744   0.577
10762SOL    HW133185   1.786   6.666   0.562
10762SOL    HW233186   1.630   6.713   0.578
10763SOL     OW33187   4.778   0.959   3.234
10763SOL    HW133188   4.767   0.868   3.193
10763SOL    HW233189   4.868   0.965   3.277
10764SOL     OW33190   5.054   6.077   4.807
10764SOL    HW133191   4.986   6.056   4.737
10764SOL    HW233192   5.027   6.034   4.893
10765SOL     OW33193   0.760   2.185   0.892
10765SOL    HW133194   0.709   2.243   0.957
10765SOL    HW233195   0.767   2.233   0.804
10766SOL     OW33196   2.556   5.188   6.347
10766SOL    HW133197   2.482   5.175   6.281
10766SOL    HW233198   2.644   5.169   6.302
10767SOL     OW33199   1.345   5.086   6.651
10767SOL    HW133200   1.318   5.020   6.721
10767SOL    HW233201   1.263   5.126   6.610
10768SOL     OW33202   5.464   6.457   6.672
10768SOL    HW133203   5.543   6.518   6.679
10768SOL    HW233204   5.479   6.391   6.598
10769SOL     OW33205   2.874   3.391   4.501
10769SOL    HW133206   2.871   3.440   4.414
10769SOL    HW233207   2.916   3.449   4.571
10770SOL     OW33208   5.055   0.282   3.162
10770SOL    HW133209   5.149   0.301   3.134
10770SOL    HW233210   5.012   0.367   3.193
10771SOL     OW33211   4.412   6.086   6.006
10771SOL    HW133212   4.436   6.052   6.097
10771SOL    HW233213   4.327   6.138   6.011
10772SOL     OW33214   5.302   4.297   2.361
10772SOL    HW133215   5.245   4.372   2.329
10772SOL    HW233216   5.289   4.286   2.460
10773SOL     OW33217   0.751   3.777   0.381
10773SOL    HW133218   0.799   3.716   0.443
10773SOL    HW233219   0.653   3.771   0.397
10774SOL     OW33220   0.297   3.340   0.738
10774SOL    HW133221   0.275   3.243   0.729
10774SOL    HW233222   0.335   3.357   0.829
10775SOL     OW33223   1.853   3.920   0.373
10775SOL    HW133224   1.834   3.823   0.360
10775SOL    HW233225   1.779   3.962   0.426
10776SOL     OW33226   0.873   2.876   3.369
10776SOL    HW133227   0.954   2.817   3.369
10776SOL    HW233228   0.799   2.831   3.419
10777SOL     OW33229   1.106   6.950   1.092
10777SOL    HW133230   1.042   6.953   1.169
10777SOL    HW233231   1.165   6.871   1.102
10778SOL     OW33232   4.587   0.258   3.612
10778SOL    HW133233   4.632   0.319   3.677
10778SOL    HW233234   4.495   0.237   3.645
10779SOL     OW33235   5.686   2.901   5.710
10779SOL    HW133236   5.664   2.887   5.614
10779SOL    HW233237   5.616   2.857   5.767
10780SOL     OW33238   1.506   4.893   5.048
10780SOL    HW133239   1.470   4.808   5.009
10780SOL    HW233240   1.550   4.873   5.136
10781SOL     OW33241   5.745   2.159   5.831
10781SOL    HW133242   5.767   2.078   5.776
10781SOL    HW233243   5.801   2.236   5.799
10782SOL     OW33244   1.329   2.735   5.087
10782SOL    HW133245   1.314   2.714   4.990
10782SOL    HW233246   1.417   2.781   5.098
10783SOL     OW33247   1.496   3.480   3.020
10783SOL    HW133248   1.400   3.507   3.019
10783SOL    HW233249   1.549   3.542   2.963
10784SOL     OW33250   4.894   5.408   3.742
10784SOL    HW133251   4.977   5.386   3.692
10784SOL    HW233252   4.821   5.345   3.716
10785SOL     OW33253   2.147   5.266   1.477
10785SOL    HW133254   2.055   5.241   1.508
10785SOL    HW233255   2.211   5.259   1.553
10786SOL     OW33256   4.705   1.560   2.524
10786SOL    HW133257   4.675   1.653   2.507
10786SOL    HW233258   4.637   1.496   2.488
10787SOL     OW33259   3.940   1.835   3.659
10787SOL    HW133260   3.973   1.748   3.624
10787SOL    HW233261   3.909   1.892   3.583
10788SOL     OW33262   1.755   3.176   6.948
10788SOL    HW133263   1.709   3.259   6.979
10788SOL    HW233264   1.693   3.123   6.890
10789SOL     OW33265   0.026   1.624   2.306
10789SOL    HW133266   0.049   1.572   2.388
10789SOL    HW233267   7.023   1.717   2.331
10790SOL     OW33268   6.989   1.966   5.548
10790SOL    HW133269   6.899   2.008   5.536
10790SOL    HW233270   7.009   1.957   5.645
10791SOL     OW33271   1.939   2.580   3.772
10791SOL    HW133272   1.988   2.658   3.734
10791SOL    HW233273   1.877   2.611   3.844
10792SOL     OW33274   3.672   0.999   2.445
10792SOL    HW133275   3.682   1.062   2.522
10792SOL    HW233276   3.606   0.928   2.469
10793SOL     OW33277   3.419   1.931   4.494
10793SOL    HW133278   3.429   1.861   4.564
10793SOL    HW233279   3.343   1.992   4.518
10794SOL     OW33280   4.721   2.753   6.755
10794SOL    HW133281   4.695   2.843   6.718
10794SOL    HW233282   4.776   2.766   6.837
10795SOL     OW33283   6.578   3.230   3.174
10795SOL    HW133284   6.627   3.317   3.165
10795SOL    HW233285   6.482   3.243   3.149
10796SOL     OW33286   0.502   1.599   6.084
10796SOL    HW133287   0.579   1.579   6.145
10796SOL    HW233288   0.500   1.698   6.066
10797SOL     OW33289   5.098   4.430   6.872
10797SOL    HW133290   5.107   4.380   6.958
10797SOL    HW233291   5.083   4.366   6.797
10798SOL     OW33292   1.896   6.526   0.569
10798SOL    HW133293   1.842   6.442   0.565
10798SOL    HW233294   1.968   6.524   0.500
10799SOL     OW33295   3.530   0.347   2.356
10799SOL    HW133296   3.546   0.266   2.299
10799SOL    HW233297   3.618   0.380   2.391
10800SOL     OW33298   2.000   6.674   5.295
10800SOL    HW133299   2.096   6.649   5.279
10800SOL    HW233300   1.940   6.606   5.251
10801SOL     OW33301   2.889   6.087   6.630
10801SOL    HW133302   2.904   5.999   6.585
10801SOL    HW233303   2.819   6.138   6.582
10802SOL     OW33304   0.575   4.590   4.125
10802SOL    HW133305   0.674   4.597   4.118
10802SOL    HW233306   0.541   4.657   4.192
10803SOL     OW33307   6.592   3.823   4.664
10803SOL    HW133308   6.527   3.869   4.724
10803SOL    HW233309   6.623   3.738   4.705
10804SOL     OW33310   3.809   4.516   0.926
10804SOL    HW133311   3.823   4.553   1.018
10804SOL    HW233312   3.752   4.434   0.931
10805SOL     OW33313   3.887   6.037   0.834
10805SOL    HW133314   3.802   6.062   0.787
10805SOL    HW233315   3.865   5.992   0.921
10806SOL     OW33316   5.807   3.778   6.578
10806SOL    HW133317   5.881   3.712   6.590
10806SOL    HW233318   5.787   3.789   6.480
10807SOL     OW33319   4.767   2.298   4.367
10807SOL    HW133320   4.760   2.214   4.313
10807SOL    HW233321   4.807   2.277   4.457
10808SOL     OW33322   0.859   2.092   6.757
10808SOL    HW133323   0.795   2.110   6.682
10808SOL    HW233324   0.854   2.167   6.824
10809SOL     OW33325   1.845   1.127   2.428
10809SOL    HW133326   1.760   1.157   2.386
10809SOL    HW233327   1.917   1.124   2.358
10810SOL     OW33328   2.003   1.025   6.211
10810SOL    HW133329   2.079   1.011   6.148
10810SOL    HW233330   1.935   1.084   6.168
10811SOL     OW33331   4.316   5.795   6.862
10811SOL    HW133332   4.377   5.748   6.925
10811SOL    HW233333   4.281   5.879   6.903
10812SOL     OW33334   6.681   2.876   2.320
10812SOL    HW133335   6.713   2.798   2.373
10812SOL    HW233336   6.641   2.945   2.381
10813SOL     OW33337   3.285   6.257   2.384
10813SOL    HW133338   3.326   6.276   2.473
10813SOL    HW233339   3.348   6.203   2.329
10814SOL     OW33340   1.593   6.703   4.259
10814SOL    HW133341   1.533   6.626   4.283
10814SOL    HW233342   1.556   6.750   4.178
10815SOL     OW33343   5.040   1.775   5.219
10815SOL    HW133344   5.031   1.741   5.125
10815SOL    HW233345   5.002   1.707   5.283
10816SOL     OW33346   1.805   1.770   1.492
10816SOL    HW133347   1.891   1.811   1.522
10816SOL    HW233348   1.777   1.700   1.557
10817SOL     OW33349   3.864   1.606   1.745
10817SOL    HW133350   3.921   1.536   1.788
10817SOL    HW233351   3.878   1.693   1.792
10818SOL     OW33352   4.431   3.504   6.256
10818SOL    HW133353   4.451   3.430   6.192
10818SOL    HW233354   4.484   3.585   6.230
10819SOL     OW33355   1.393   3.781   5.517
10819SOL    HW133356   1.477   3.727   5.518
10819SOL    HW233357   1.324   3.734   5.461
10820SOL     OW33358   0.581   6.060   4.535
10820SOL    HW133359   0.658   6.003   4.564
10820SOL    HW233360   0.517   6.006   4.480
10821SOL     OW33361   0.677   0.914   6.817
10821SOL    HW133362   0.641   0.911   6.910
10821SOL    HW233363   0.777   0.912   6.819
10822SOL     OW33364   0.437   4.492   6.901
10822SOL    HW133365   0.426   4.397   6.873
10822SOL    HW233366   0.506   4.536   6.844
10823SOL     OW33367   2.145   2.530   1.060
10823SOL    HW133368   2.079   2.468   1.103
10823SOL    HW233369   2.238   2.504   1.089
10824SOL     OW33370   5.521   1.094   4.010
10824SOL    HW133371   5.496   1.180   3.964
10824SOL    HW233372   5.599   1.111   4.071
10825SOL     OW33373   3.072   1.153   2.588
10825SOL    HW133374   3.047   1.242   2.627
10825SOL    HW233375   3.094   1.090   2.663
10826SOL     OW33376   0.257   3.514   1.141
10826SOL    HW133377   0.243   3.416   1.124
10826SOL    HW233378   0.238   3.534   1.237
10827SOL     OW33379   0.509   2.553   4.495
10827SOL    HW133380   0.602   2.549   4.457
10827SOL    HW233381   0.515   2.566   4.594
10828SOL     OW33382   2.361   5.362   0.317
10828SOL    HW133383   2.293   5.406   0.376
10828SOL    HW233384   2.406   5.432   0.261
10829SOL     OW33385   2.322   4.132   2.176
10829SOL    HW133386   2.247   4.174   2.225
10829SOL    HW233387   2.316   4.032   2.184
10830SOL     OW33388   6.049   0.633   3.300
10830SOL    HW133389   5.961   0.674   3.324
10830SOL    HW233390   6.044   0.596   3.208
10831SOL     OW33391   5.548   2.706   1.757
10831SOL    HW133392   5.452   2.712   1.727
10831SOL    HW233393   5.582   2.614   1.737
10832SOL     OW33394   0.748   3.085   2.870
10832SOL    HW133395   0.760   3.182   2.888
10832SOL    HW233396   0.814   3.055   2.801
10833SOL     OW33397   3.092   6.729   4.058
10833SOL    HW133398   3.171   6.743   3.998
10833SOL    HW233399   3.018   6.790   4.030
10834SOL     OW33400   6.855   1.009   6.214
10834SOL    HW133401   6.846   0.995   6.313
10834SOL    HW233402   6.928   1.075   6.196
10835SOL     OW33403   0.750   1.944   0.694
10835SOL    HW133404   0.781   2.010   0.762
10835SOL    HW233405   0.803   1.955   0.610
10836SOL     OW33406   0.866   2.949   1.230
10836SOL    HW133407   0.880   2.856   1.263
10836SOL    HW233408   0.950   2.982   1.187
10837SOL     OW33409   0.725   6.005   0.948
10837SOL    HW133410   0.633   5.967   0.932
10837SOL    HW233411   0.782   5.989   0.867
10838SOL     OW33412   6.534   6.549   0.457
10838SOL    HW133413   6.587   6.471   0.490
10838SOL    HW233414   6.438   6.522   0.447
10839SOL     OW33415   1.629   1.646   6.791
10839SOL    HW133416   1.711   1.640   6.848
10839SOL    HW233417   1.550   1.610   6.841
10840SOL     OW33418   2.455   6.966   2.674
10840SOL    HW133419   2.501   6.883   2.644
10840SOL    HW233420   2.504   7.006   2.752
10841SOL     OW33421   4.501   3.635   0.620
10841SOL    HW133422   4.437   3.709   0.638
10841SOL    HW233423   4.587   3.673   0.584
10842SOL     OW33424   5.882   2.411   1.473
10842SOL    HW133425   5.931   2.350   1.536
10842SOL    HW233426   5.947   2.454   1.411
10843SOL     OW33427   0.625   1.825   1.847
10843SOL    HW133428   0.721   1.855   1.851
10843SOL    HW233429   0.622   1.726   1.830
10844SOL     OW33430   4.775   0.452   3.772
10844SOL    HW133431   4.838   0.398   3.715
10844SOL    HW233432   4.784   0.424   3.868
10845SOL     OW33433   2.327   3.124   1.052
10845SOL    HW133434   2.373   3.115   0.964
10845SOL    HW233435   2.395   3.140   1.124
10846SOL     OW33436   3.433   2.532   1.498
10846SOL    HW133437   3.374   2.452   1.487
10846SOL    HW233438   3.450   2.548   1.595
10847SOL     OW33439   4.925   2.226   5.367
10847SOL    HW133440   4.886   2.290   5.300
10847SOL    HW233441   5.014   2.259   5.397
10848SOL     OW33442   1.650   0.799   6.839
10848SOL    HW133443   1.601   0.806   6.751
10848SOL    HW233444   1.595   0.746   6.903
10849SOL     OW33445   1.636   4.939   4.220
10849SOL    HW133446   1.600   4.884   4.295
10849SOL    HW233447   1.681   4.879   4.153
10850SOL     OW33448   5.197   1.474   1.904
10850SOL    HW133449   5.166   1.415   1.978
10850SOL    HW233450   5.296   1.483   1.908
10851SOL     OW33451   4.429   2.996   0.060
10851SOL    HW133452   4.438   2.909   0.011
10851SOL    HW233453   4.340   3.000   0.105
10852SOL     OW33454   6.459   0.101   6.208
10852SOL    HW133455   6.370   0.146   6.198
10852SOL    HW233456   6.468   0.067   6.302
10853SOL     OW33457   3.339   0.819   4.291
10853SOL    HW133458   3.429   0.789   4.323
10853SOL    HW233459   3.268   0.785   4.353
10854SOL     OW33460   6.456   6.889   0.874
10854SOL    HW133461   6.514   6.941   0.937
10854SOL    HW233462   6.437   6.945   0.793
10855SOL     OW33463   0.326   5.859   1.609
10855SOL    HW133464   0.402   5.819   1.558
10855SOL    HW233465   0.254   5.885   1.544
10856SOL     OW33466   5.377   6.921   6.603
10856SOL    HW133467   5.431   6.847   6.645
10856SOL    HW233468   5.295   6.937   6.658
10857SOL     OW33469   6.442   6.956   4.649
10857SOL    HW133470   6.474   6.862   4.644
10857SOL    HW233471   6.377   6.974   4.575
10858SOL     OW33472   2.165   2.137   0.011
10858SOL    HW133473   2.172   2.169   6.941
10858SOL    HW233474   2.252   2.155   0.058
10859SOL     OW33475   1.917   5.216   2.786
10859SOL    HW133476   1.973   5.165   2.720
10859SOL    HW233477   1.879   5.297   2.742
10860SOL     OW33478   5.967   2.063   1.240
10860SOL    HW133479   5.899   2.016   1.184
10860SOL    HW233480   5.987   2.152   1.199
10861SOL     OW33481   1.827   3.933   1.369
10861SOL    HW133482   1.834   3.920   1.468
10861SOL    HW233483   1.736   3.969   1.347
10862SOL     OW33484   3.864   4.586   5.332
10862SOL    HW133485   3.823   4.495   5.319
10862SOL    HW233486   3.947   4.577   5.386
10863SOL     OW33487   1.995   0.009   3.346
10863SOL    HW133488   1.950   6.945   3.336
10863SOL    HW233489   1.995   0.057   3.257
10864SOL     OW33490   2.994   3.507   1.853
10864SOL    HW133491   2.984   3.492   1.952
10864SOL    HW233492   3.060   3.441   1.816
10865SOL     OW33493   3.107   1.912   2.726
10865SOL    HW133494   3.083   1.852   2.650
10865SOL    HW233495   3.051   1.994   2.724
10866SOL     OW33496   0.950   3.237   4.466
10866SOL    HW133497   1.029   3.268   4.413
10866SOL    HW233498   0.981   3.182   4.543
10867SOL     OW33499   4.450   3.331   6.941
10867SOL    HW133500   4.453   3.282   6.854
10867SOL    HW233501   4.435   3.266   7.016
10868SOL     OW33502   1.262   6.850   5.336
10868SOL    HW133503   1.333   6.834   5.267
10868SOL    HW233504   1.278   6.790   5.414
10869NA      NA33505   0.205   1.116   6.429
10870NA      NA33506   4.605   4.881   5.147
10871NA      NA33507   1.049   4.801   2.852
10872NA      NA33508   6.022   3.471   3.338
10873NA      NA33509   3.830   2.742   5.383
10874NA      NA33510   2.509   4.387   6.966
10875NA      NA33511   1.560   5.516   0.281
10876NA      NA33512   4.089   4.895   1.717
10877NA      NA33513   5.004   4.047   1.170
10878NA      NA33514   3.720   1.543   0.711
10879NA      NA33515   5.424   6.637   1.578
10880NA      NA33516   2.283   6.902   5.162
10881NA      NA33517   4.115   4.949   2.799
10882NA      NA33518   4.183   4.607   6.507
   7.02461   7.02461   7.02461
