Generated by trjconv : CNT in water t=  96.00000
33518
    1C        C    1   2.842   2.767   4.746
    1C        C    2   2.895   2.716   4.867
    1C        C    3   2.842   2.773   4.984
    1C        C    4   2.849   2.771   4.260
    1C        C    5   2.897   2.720   4.383
    1C        C    6   2.847   2.772   4.504
    1C        C    7   3.011   2.635   4.624
    1C        C    8   2.896   2.718   4.625
    1C        C    9   3.074   2.603   4.746
    1C        C   10   3.009   2.632   4.868
    1C        C   11   3.181   2.492   4.977
    1C        C   12   3.063   2.567   4.980
    1C        C   13   2.850   2.770   3.771
    1C        C   14   2.901   2.721   3.893
    1C        C   15   2.851   2.771   4.016
    1C        C   16   3.012   2.636   4.137
    1C        C   17   2.899   2.720   4.138
    1C        C   18   3.077   2.608   4.260
    1C        C   19   3.014   2.640   4.382
    1C        C   20   3.207   2.555   4.502
    1C        C   21   3.073   2.598   4.503
    1C        C   22   3.275   2.534   4.625
    1C        C   23   3.205   2.548   4.747
    1C        C   24   3.410   2.480   4.863
    1C        C   25   3.267   2.496   4.864
    1C        C   26   3.488   2.482   4.979
    1C        C   27   2.853   2.767   3.280
    1C        C   28   2.909   2.726   3.403
    1C        C   29   2.858   2.773   3.526
    1C        C   30   3.018   2.638   3.648
    1C        C   31   2.903   2.722   3.649
    1C        C   32   3.076   2.600   3.771
    1C        C   33   3.015   2.638   3.892
    1C        C   34   3.205   2.548   4.016
    1C        C   35   3.073   2.598   4.015
    1C        C   36   3.276   2.529   4.137
    1C        C   37   3.208   2.554   4.258
    1C        C   38   3.415   2.510   4.381
    1C        C   39   3.276   2.536   4.380
    1C        C   40   3.485   2.499   4.503
    1C        C   41   3.412   2.504   4.624
    1C        C   42   3.627   2.482   4.746
    1C        C   43   3.485   2.481   4.743
    1C        C   44   3.705   2.482   4.864
    1C        C   45   3.627   2.478   4.980
    1C        C   46   2.835   2.752   2.795
    1C        C   47   2.894   2.707   2.915
    1C        C   48   2.841   2.758   3.036
    1C        C   49   3.013   2.633   3.160
    1C        C   50   2.897   2.713   3.157
    1C        C   51   3.078   2.597   3.280
    1C        C   52   3.018   2.637   3.402
    1C        C   53   3.207   2.545   3.524
    1C        C   54   3.078   2.603   3.526
    1C        C   55   3.271   2.524   3.648
    1C        C   56   3.207   2.546   3.772
    1C        C   57   3.414   2.505   3.893
    1C        C   58   3.274   2.527   3.895
    1C        C   59   3.484   2.500   4.015
    1C        C   60   3.415   2.505   4.139
    1C        C   61   3.628   2.501   4.259
    1C        C   62   3.487   2.500   4.260
    1C        C   63   3.700   2.507   4.381
    1C        C   64   3.627   2.502   4.501
    1C        C   65   3.831   2.544   4.623
    1C        C   66   3.695   2.508   4.625
    1C        C   67   3.905   2.565   4.742
    1C        C   68   3.839   2.528   4.861
    1C        C   69   4.053   2.583   4.977
    1C        C   70   3.922   2.532   4.973
    1C        C   71   2.822   2.737   2.307
    1C        C   72   2.884   2.696   2.427
    1C        C   73   2.829   2.742   2.549
    1C        C   74   3.001   2.622   2.673
    1C        C   75   2.884   2.701   2.673
    1C        C   76   3.071   2.594   2.793
    1C        C   77   3.012   2.630   2.917
    1C        C   78   3.208   2.546   3.036
    1C        C   79   3.077   2.599   3.038
    1C        C   80   3.275   2.520   3.158
    1C        C   81   3.210   2.547   3.280
    1C        C   82   3.413   2.493   3.405
    1C        C   83   3.274   2.519   3.403
    1C        C   84   3.483   2.491   3.527
    1C        C   85   3.410   2.498   3.648
    1C        C   86   3.623   2.498   3.770
    1C        C   87   3.482   2.494   3.770
    1C        C   88   3.696   2.507   3.891
    1C        C   89   3.625   2.503   4.014
    1C        C   90   3.832   2.551   4.136
    1C        C   91   3.696   2.514   4.136
    1C        C   92   3.900   2.574   4.258
    1C        C   93   3.835   2.551   4.381
    1C        C   94   4.024   2.641   4.500
    1C        C   95   3.901   2.572   4.504
    1C        C   96   4.091   2.675   4.620
    1C        C   97   4.033   2.626   4.739
    1C        C   98   4.192   2.763   4.864
    1C        C   99   4.100   2.654   4.862
    1C        C  100   4.214   2.844   4.976
    1C        C  101   2.819   2.727   2.068
    1C        C  102   2.987   2.591   2.190
    1C        C  103   2.875   2.680   2.187
    1C        C  104   3.060   2.572   2.311
    1C        C  105   3.000   2.616   2.431
    1C        C  106   3.197   2.534   2.550
    1C        C  107   3.067   2.590   2.552
    1C        C  108   3.268   2.515   2.670
    1C        C  109   3.202   2.543   2.792
    1C        C  110   3.412   2.497   2.915
    1C        C  111   3.273   2.523   2.913
    1C        C  112   3.483   2.491   3.037
    1C        C  113   3.414   2.494   3.160
    1C        C  114   3.625   2.500   3.280
    1C        C  115   3.484   2.489   3.283
    1C        C  116   3.693   2.510   3.403
    1C        C  117   3.624   2.500   3.526
    1C        C  118   3.829   2.552   3.647
    1C        C  119   3.694   2.510   3.648
    1C        C  120   3.897   2.576   3.769
    1C        C  121   3.832   2.546   3.891
    1C        C  122   4.022   2.639   4.016
    1C        C  123   3.897   2.573   4.013
    1C        C  124   4.089   2.674   4.136
    1C        C  125   4.028   2.634   4.257
    1C        C  126   4.197   2.765   4.378
    1C        C  127   4.090   2.672   4.378
    1C        C  128   4.246   2.818   4.499
    1C        C  129   4.196   2.769   4.622
    1C        C  130   4.328   2.935   4.742
    1C        C  131   4.243   2.821   4.744
    1C        C  132   4.356   3.004   4.862
    1C        C  133   4.285   2.964   4.976
    1C        C  134   3.170   2.467   2.084
    1C        C  135   3.035   2.505   2.087
    1C        C  136   3.260   2.483   2.190
    1C        C  137   3.192   2.519   2.309
    1C        C  138   3.405   2.484   2.426
    1C        C  139   3.265   2.507   2.429
    1C        C  140   3.476   2.482   2.548
    1C        C  141   3.408   2.495   2.670
    1C        C  142   3.622   2.499   2.788
    1C        C  143   3.481   2.492   2.791
    1C        C  144   3.692   2.504   2.911
    1C        C  145   3.625   2.490   3.034
    1C        C  146   3.828   2.547   3.155
    1C        C  147   3.693   2.505   3.157
    1C        C  148   3.895   2.571   3.277
    1C        C  149   3.829   2.548   3.400
    1C        C  150   4.023   2.630   3.526
    1C        C  151   3.894   2.574   3.523
    1C        C  152   4.082   2.672   3.648
    1C        C  153   4.022   2.642   3.772
    1C        C  154   4.195   2.763   3.887
    1C        C  155   4.082   2.678   3.894
    1C        C  156   4.243   2.813   4.010
    1C        C  157   4.200   2.761   4.134
    1C        C  158   4.338   2.923   4.253
    1C        C  159   4.252   2.810   4.256
    1C        C  160   4.373   2.986   4.374
    1C        C  161   4.336   2.926   4.497
    1C        C  162   4.435   3.115   4.614
    1C        C  163   4.366   2.992   4.618
    1C        C  164   4.466   3.182   4.735
    1C        C  165   4.430   3.124   4.858
    1C        C  166   4.509   3.325   4.973
    1C        C  167   4.476   3.190   4.973
    1C        C  168   3.475   2.433   2.074
    1C        C  169   3.398   2.457   2.189
    1C        C  170   3.619   2.468   2.309
    1C        C  171   3.476   2.462   2.307
    1C        C  172   3.693   2.491   2.427
    1C        C  173   3.617   2.494   2.546
    1C        C  174   3.827   2.545   2.666
    1C        C  175   3.690   2.511   2.666
    1C        C  176   3.895   2.561   2.789
    1C        C  177   3.829   2.540   2.912
    1C        C  178   4.025   2.623   3.032
    1C        C  179   3.896   2.564   3.033
    1C        C  180   4.083   2.663   3.154
    1C        C  181   4.021   2.635   3.278
    1C        C  182   4.193   2.752   3.399
    1C        C  183   4.079   2.668   3.402
    1C        C  184   4.247   2.802   3.520
    1C        C  185   4.194   2.759   3.644
    1C        C  186   4.341   2.914   3.764
    1C        C  187   4.249   2.807   3.765
    1C        C  188   4.384   2.971   3.887
    1C        C  189   4.338   2.919   4.009
    1C        C  190   4.443   3.105   4.130
    1C        C  191   4.376   2.981   4.130
    1C        C  192   4.473   3.173   4.250
    1C        C  193   4.443   3.109   4.372
    1C        C  194   4.505   3.315   4.493
    1C        C  195   4.464   3.180   4.492
    1C        C  196   4.525   3.387   4.613
    1C        C  197   4.511   3.317   4.735
    1C        C  198   4.561   3.534   4.849
    1C        C  199   4.531   3.394   4.853
    1C        C  200   4.585   3.620   4.961
    1C        C  201   3.614   2.418   2.074
    1C        C  202   3.827   2.505   2.185
    1C        C  203   3.692   2.457   2.187
    1C        C  204   3.901   2.539   2.301
    1C        C  205   3.831   2.521   2.422
    1C        C  206   4.019   2.625   2.542
    1C        C  207   3.896   2.555   2.543
    1C        C  208   4.079   2.663   2.664
    1C        C  209   4.020   2.628   2.787
    1C        C  210   4.195   2.746   2.908
    1C        C  211   4.084   2.659   2.909
    1C        C  212   4.247   2.796   3.030
    1C        C  213   4.196   2.748   3.153
    1C        C  214   4.332   2.909   3.271
    1C        C  215   4.246   2.797   3.275
    1C        C  216   4.371   2.968   3.393
    1C        C  217   4.338   2.910   3.517
    1C        C  218   4.426   3.103   3.638
    1C        C  219   4.374   2.971   3.639
    1C        C  220   4.453   3.168   3.761
    1C        C  221   4.438   3.101   3.885
    1C        C  222   4.502   3.305   4.002
    1C        C  223   4.467   3.168   4.006
    1C        C  224   4.508   3.379   4.123
    1C        C  225   4.503   3.311   4.247
    1C        C  226   4.523   3.523   4.365
    1C        C  227   4.516   3.382   4.369
    1C        C  228   4.522   3.598   4.485
    1C        C  229   4.534   3.528   4.607
    1C        C  230   4.497   3.738   4.727
    1C        C  231   4.539   3.603   4.726
    1C        C  232   4.493   3.817   4.844
    1C        C  233   4.546   3.755   4.958
    1C        C  234   4.016   2.608   2.062
    1C        C  235   3.891   2.547   2.067
    1C        C  236   4.083   2.651   2.177
    1C        C  237   4.023   2.612   2.299
    1C        C  238   4.202   2.733   2.420
    1C        C  239   4.083   2.655   2.420
    1C        C  240   4.252   2.786   2.541
    1C        C  241   4.195   2.744   2.663
    1C        C  242   4.336   2.903   2.784
    1C        C  243   4.244   2.796   2.785
    1C        C  244   4.378   2.961   2.906
    1C        C  245   4.338   2.904   3.029
    1C        C  246   4.440   3.091   3.148
    1C        C  247   4.379   2.964   3.150
    1C        C  248   4.459   3.160   3.270
    1C        C  249   4.434   3.095   3.393
    1C        C  250   4.493   3.300   3.512
    1C        C  251   4.448   3.166   3.514
    1C        C  252   4.509   3.370   3.634
    1C        C  253   4.494   3.303   3.758
    1C        C  254   4.525   3.514   3.874
    1C        C  255   4.514   3.373   3.879
    1C        C  256   4.517   3.588   3.994
    1C        C  257   4.518   3.520   4.117
    1C        C  258   4.485   3.727   4.241
    1C        C  259   4.515   3.589   4.241
    1C        C  260   4.469   3.801   4.360
    1C        C  261   4.493   3.737   4.483
    1C        C  262   4.423   3.937   4.603
    1C        C  263   4.475   3.806   4.605
    1C        C  264   4.399   4.007   4.723
    1C        C  265   4.437   3.947   4.845
    1C        C  266   4.320   4.127   4.955
    1C        C  267   4.396   4.011   4.962
    1C        C  268   4.261   2.771   2.062
    1C        C  269   4.201   2.729   2.182
    1C        C  270   4.345   2.894   2.298
    1C        C  271   4.256   2.783   2.300
    1C        C  272   4.381   2.959   2.418
    1C        C  273   4.338   2.899   2.538
    1C        C  274   4.447   3.081   2.662
    1C        C  275   4.375   2.960   2.660
    1C        C  276   4.472   3.150   2.783
    1C        C  277   4.440   3.088   2.905
    1C        C  278   4.510   3.290   3.024
    1C        C  279   4.471   3.155   3.026
    1C        C  280   4.517   3.363   3.145
    1C        C  281   4.495   3.297   3.268
    1C        C  282   4.518   3.509   3.389
    1C        C  283   4.507   3.368   3.389
    1C        C  284   4.513   3.582   3.510
    1C        C  285   4.512   3.511   3.632
    1C        C  286   4.491   3.724   3.752
    1C        C  287   4.516   3.585   3.752
    1C        C  288   4.475   3.794   3.874
    1C        C  289   4.493   3.727   3.997
    1C        C  290   4.433   3.932   4.116
    1C        C  291   4.473   3.797   4.119
    1C        C  292   4.400   4.000   4.235
    1C        C  293   4.426   3.936   4.358
    1C        C  294   4.322   4.122   4.479
    1C        C  295   4.396   4.001   4.480
    1C        C  296   4.282   4.185   4.599
    1C        C  297   4.331   4.132   4.720
    1C        C  298   4.199   4.310   4.837
    1C        C  299   4.288   4.198   4.839
    1C        C  300   4.167   4.394   4.948
    1C        C  301   4.343   2.883   2.061
    1C        C  302   4.471   3.067   2.176
    1C        C  303   4.386   2.952   2.175
    1C        C  304   4.484   3.143   2.295
    1C        C  305   4.448   3.083   2.417
    1C        C  306   4.509   3.284   2.535
    1C        C  307   4.478   3.146   2.540
    1C        C  308   4.517   3.356   2.656
    1C        C  309   4.507   3.287   2.778
    1C        C  310   4.518   3.499   2.898
    1C        C  311   4.518   3.358   2.900
    1C        C  312   4.522   3.573   3.019
    1C        C  313   4.519   3.504   3.142
    1C        C  314   4.492   3.715   3.265
    1C        C  315   4.515   3.575   3.265
    1C        C  316   4.475   3.788   3.384
    1C        C  317   4.489   3.722   3.509
    1C        C  318   4.427   3.927   3.627
    1C        C  319   4.472   3.793   3.630
    1C        C  320   4.398   3.993   3.749
    1C        C  321   4.426   3.926   3.870
    1C        C  322   4.321   4.110   3.991
    1C        C  323   4.397   3.991   3.992
    1C        C  324   4.278   4.170   4.111
    1C        C  325   4.322   4.118   4.235
    1C        C  326   4.187   4.283   4.351
    1C        C  327   4.283   4.179   4.356
    1C        C  328   4.134   4.332   4.472
    1C        C  329   4.187   4.289   4.596
    1C        C  330   4.023   4.433   4.711
    1C        C  331   4.137   4.347   4.715
    1C        C  332   3.970   4.487   4.830
    1C        C  333   4.054   4.478   4.942
    1C        C  334   4.546   3.271   2.057
    1C        C  335   4.526   3.132   2.061
    1C        C  336   4.540   3.351   2.172
    1C        C  337   4.516   3.282   2.293
    1C        C  338   4.524   3.496   2.409
    1C        C  339   4.522   3.355   2.414
    1C        C  340   4.521   3.568   2.530
    1C        C  341   4.525   3.498   2.653
    1C        C  342   4.497   3.708   2.775
    1C        C  343   4.517   3.568   2.775
    1C        C  344   4.484   3.779   2.896
    1C        C  345   4.496   3.712   3.019
    1C        C  346   4.423   3.912   3.136
    1C        C  347   4.477   3.781   3.141
    1C        C  348   4.393   3.979   3.256
    1C        C  349   4.427   3.921   3.380
    1C        C  350   4.320   4.103   3.500
    1C        C  351   4.397   3.985   3.502
    1C        C  352   4.276   4.163   3.620
    1C        C  353   4.315   4.107   3.744
    1C        C  354   4.183   4.270   3.867
    1C        C  355   4.274   4.162   3.868
    1C        C  356   4.123   4.316   3.986
    1C        C  357   4.179   4.271   4.108
    1C        C  358   4.012   4.402   4.230
    1C        C  359   4.129   4.324   4.229
    1C        C  360   3.950   4.443   4.351
    1C        C  361   4.020   4.415   4.470
    1C        C  362   3.829   4.519   4.591
    1C        C  363   3.959   4.462   4.589
    1C        C  364   3.763   4.544   4.713
    1C        C  365   3.838   4.535   4.832
    1C        C  366   3.629   4.585   4.949
    1C        C  367   3.767   4.570   4.949
    1C        C  368   4.508   3.565   2.050
    1C        C  369   4.526   3.491   2.168
    1C        C  370   4.508   3.707   2.285
    1C        C  371   4.525   3.567   2.286
    1C        C  372   4.489   3.777   2.406
    1C        C  373   4.503   3.708   2.529
    1C        C  374   4.421   3.904   2.646
    1C        C  375   4.475   3.773   2.651
    1C        C  376   4.394   3.968   2.769
    1C        C  377   4.428   3.909   2.893
    1C        C  378   4.319   4.095   3.010
    1C        C  379   4.391   3.974   3.013
    1C        C  380   4.276   4.153   3.131
    1C        C  381   4.318   4.099   3.255
    1C        C  382   4.177   4.258   3.377
    1C        C  383   4.274   4.155   3.377
    1C        C  384   4.123   4.306   3.498
    1C        C  385   4.176   4.263   3.622
    1C        C  386   4.008   4.389   3.744
    1C        C  387   4.126   4.311   3.744
    1C        C  388   3.945   4.431   3.863
    1C        C  389   4.008   4.397   3.985
    1C        C  390   3.816   4.483   4.106
    1C        C  391   3.950   4.437   4.108
    1C        C  392   3.750   4.515   4.227
    1C        C  393   3.822   4.502   4.347
    1C        C  394   3.617   4.549   4.473
    1C        C  395   3.757   4.526   4.470
    1C        C  396   3.546   4.558   4.595
    1C        C  397   3.622   4.558   4.714
    1C        C  398   3.410   4.549   4.839
    1C        C  399   3.550   4.569   4.834
    1C        C  400   3.341   4.517   4.956
    1C        C  401   4.509   3.704   2.048
    1C        C  402   4.450   3.914   2.165
    1C        C  403   4.498   3.781   2.165
    1C        C  404   4.403   3.972   2.285
    1C        C  405   4.436   3.908   2.406
    1C        C  406   4.327   4.095   2.524
    1C        C  407   4.400   3.974   2.526
    1C        C  408   4.273   4.143   2.645
    1C        C  409   4.313   4.084   2.766
    1C        C  410   4.176   4.249   2.886
    1C        C  411   4.274   4.147   2.886
    1C        C  412   4.120   4.294   3.008
    1C        C  413   4.174   4.250   3.132
    1C        C  414   4.006   4.380   3.253
    1C        C  415   4.122   4.300   3.254
    1C        C  416   3.945   4.414   3.376
    1C        C  417   4.005   4.384   3.500
    1C        C  418   3.813   4.474   3.616
    1C        C  419   3.944   4.421   3.622
    1C        C  420   3.746   4.500   3.738
    1C        C  421   3.813   4.480   3.861
    1C        C  422   3.611   4.537   3.984
    1C        C  423   3.748   4.503   3.984
    1C        C  424   3.542   4.537   4.108
    1C        C  425   3.610   4.533   4.231
    1C        C  426   3.400   4.549   4.356
    1C        C  427   3.541   4.547   4.354
    1C        C  428   3.331   4.539   4.478
    1C        C  429   3.405   4.550   4.598
    1C        C  430   3.195   4.517   4.725
    1C        C  431   3.334   4.546   4.720
    1C        C  432   3.123   4.496   4.846
    1C        C  433   3.203   4.499   4.961
    1C        C  434   4.390   4.127   2.052
    1C        C  435   4.450   4.000   2.055
    1C        C  436   4.306   4.165   2.162
    1C        C  437   4.329   4.093   2.283
    1C        C  438   4.176   4.246   2.398
    1C        C  439   4.280   4.151   2.402
    1C        C  440   4.123   4.293   2.520
    1C        C  441   4.175   4.245   2.643
    1C        C  442   4.004   4.374   2.763
    1C        C  443   4.119   4.292   2.764
    1C        C  444   3.941   4.409   2.885
    1C        C  445   4.003   4.373   3.007
    1C        C  446   3.813   4.464   3.127
    1C        C  447   3.943   4.409   3.129
    1C        C  448   3.748   4.487   3.250
    1C        C  449   3.814   4.466   3.373
    1C        C  450   3.606   4.519   3.496
    1C        C  451   3.745   4.495   3.493
    1C        C  452   3.538   4.536   3.619
    1C        C  453   3.609   4.534   3.741
    1C        C  454   3.398   4.538   3.866
    1C        C  455   3.539   4.547   3.863
    1C        C  456   3.328   4.528   3.989
    1C        C  457   3.401   4.539   4.110
    1C        C  458   3.194   4.503   4.237
    1C        C  459   3.331   4.535   4.233
    1C        C  460   3.126   4.481   4.359
    1C        C  461   3.194   4.506   4.481
    1C        C  462   2.998   4.433   4.603
    1C        C  463   3.127   4.490   4.604
    1C        C  464   2.933   4.397   4.723
    1C        C  465   2.991   4.439   4.845
    1C        C  466   2.803   4.331   4.960
    1C        C  467   2.904   4.429   4.958
    1C        C  468   4.125   4.290   2.041
    1C        C  469   4.190   4.248   2.158
    1C        C  470   4.004   4.370   2.277
    1C        C  471   4.123   4.292   2.276
    1C        C  472   3.943   4.408   2.398
    1C        C  473   4.004   4.368   2.520
    1C        C  474   3.813   4.466   2.642
    1C        C  475   3.941   4.405   2.641
    1C        C  476   3.743   4.492   2.762
    1C        C  477   3.812   4.467   2.883
    1C        C  478   3.607   4.516   3.009
    1C        C  479   3.745   4.486   3.005
    1C        C  480   3.536   4.525   3.131
    1C        C  481   3.609   4.514   3.251
    1C        C  482   3.396   4.526   3.376
    1C        C  483   3.538   4.523   3.373
    1C        C  484   3.327   4.521   3.499
    1C        C  485   3.397   4.536   3.620
    1C        C  486   3.190   4.503   3.746
    1C        C  487   3.328   4.530   3.744
    1C        C  488   3.124   4.477   3.868
    1C        C  489   3.191   4.495   3.991
    1C        C  490   2.999   4.417   4.114
    1C        C  491   3.126   4.479   4.116
    1C        C  492   2.937   4.389   4.238
    1C        C  493   2.997   4.423   4.361
    1C        C  494   2.823   4.304   4.482
    1C        C  495   2.936   4.389   4.484
    1C        C  496   2.770   4.258   4.605
    1C        C  497   2.819   4.311   4.726
    1C        C  498   2.662   4.162   4.845
    1C        C  499   2.753   4.270   4.844
    1C        C  500   2.594   4.116   4.958
    1C        C  501   4.002   4.355   2.039
    1C        C  502   3.810   4.459   2.154
    1C        C  503   3.937   4.396   2.155
    1C        C  504   3.741   4.471   2.277
    1C        C  505   3.811   4.456   2.399
    1C        C  506   3.606   4.513   2.520
    1C        C  507   3.745   4.486   2.520
    1C        C  508   3.534   4.514   2.641
    1C        C  509   3.603   4.509   2.764
    1C        C  510   3.394   4.521   2.886
    1C        C  511   3.535   4.519   2.888
    1C        C  512   3.324   4.522   3.009
    1C        C  513   3.395   4.526   3.131
    1C        C  514   3.187   4.489   3.254
    1C        C  515   3.325   4.522   3.254
    1C        C  516   3.121   4.466   3.377
    1C        C  517   3.189   4.488   3.499
    1C        C  518   3.000   4.409   3.625
    1C        C  519   3.125   4.473   3.624
    1C        C  520   2.939   4.373   3.747
    1C        C  521   3.000   4.410   3.869
    1C        C  522   2.832   4.285   3.997
    1C        C  523   2.943   4.372   3.993
    1C        C  524   2.782   4.239   4.120
    1C        C  525   2.834   4.292   4.240
    1C        C  526   2.691   4.135   4.364
    1C        C  527   2.778   4.246   4.362
    1C        C  528   2.648   4.078   4.486
    1C        C  529   2.686   4.144   4.605
    1C        C  530   2.581   3.961   4.730
    1C        C  531   2.633   4.094   4.725
    1C        C  532   2.539   3.903   4.852
    1C        C  533   2.526   3.993   4.962
    1C        C  534   3.615   4.550   2.042
    1C        C  535   3.748   4.506   2.038
    1C        C  536   3.533   4.534   2.158
    1C        C  537   3.605   4.511   2.278
    1C        C  538   3.392   4.512   2.400
    1C        C  539   3.533   4.520   2.400
    1C        C  540   3.319   4.509   2.521
    1C        C  541   3.392   4.515   2.641
    1C        C  542   3.185   4.482   2.765
    1C        C  543   3.324   4.508   2.764
    1C        C  544   3.119   4.464   2.889
    1C        C  545   3.186   4.490   3.010
    1C        C  546   2.994   4.399   3.135
    1C        C  547   3.121   4.463   3.132
    1C        C  548   2.935   4.364   3.257
    1C        C  549   2.994   4.404   3.379
    1C        C  550   2.831   4.277   3.506
    1C        C  551   2.937   4.370   3.504
    1C        C  552   2.780   4.231   3.629
    1C        C  553   2.829   4.285   3.751
    1C        C  554   2.692   4.127   3.876
    1C        C  555   2.780   4.237   3.874
    1C        C  556   2.652   4.070   3.999
    1C        C  557   2.691   4.130   4.120
    1C        C  558   2.599   3.942   4.244
    1C        C  559   2.653   4.072   4.243
    1C        C  560   2.566   3.881   4.367
    1C        C  561   2.587   3.951   4.488
    1C        C  562   2.528   3.750   4.617
    1C        C  563   2.564   3.886   4.611
    1C        C  564   2.516   3.681   4.739
    1C        C  565   2.521   3.761   4.857
    1C        C  566   2.538   3.546   4.977
    1C        C  567   2.531   3.685   4.974
    1C        C  568   3.326   4.472   2.046
    1C        C  569   3.391   4.522   2.160
    1C        C  570   3.179   4.478   2.279
    1C        C  571   3.317   4.514   2.281
    1C        C  572   3.115   4.448   2.401
    1C        C  573   3.181   4.478   2.522
    1C        C  574   2.985   4.403   2.647
    1C        C  575   3.113   4.463   2.645
    1C        C  576   2.927   4.364   2.770
    1C        C  577   2.994   4.397   2.890
    1C        C  578   2.825   4.271   3.016
    1C        C  579   2.936   4.359   3.013
    1C        C  580   2.777   4.221   3.139
    1C        C  581   2.826   4.273   3.261
    1C        C  582   2.692   4.115   3.387
    1C        C  583   2.782   4.223   3.385
    1C        C  584   2.653   4.061   3.512
    1C        C  585   2.693   4.120   3.634
    1C        C  586   2.587   3.938   3.755
    1C        C  587   2.655   4.062   3.756
    1C        C  588   2.565   3.874   3.879
    1C        C  589   2.588   3.944   4.000
    1C        C  590   2.536   3.738   4.129
    1C        C  591   2.573   3.874   4.122
    1C        C  592   2.527   3.670   4.252
    1C        C  593   2.530   3.744   4.372
    1C        C  594   2.511   3.537   4.496
    1C        C  595   2.517   3.678   4.496
    1C        C  596   2.519   3.466   4.618
    1C        C  597   2.516   3.539   4.739
    1C        C  598   2.537   3.328   4.861
    1C        C  599   2.533   3.469   4.860
    1C        C  600   2.532   3.251   4.978
    1C        C  601   3.192   4.440   2.043
    1C        C  602   2.978   4.399   2.160
    1C        C  603   3.112   4.450   2.157
    1C        C  604   2.918   4.362   2.283
    1C        C  605   2.984   4.394   2.403
    1C        C  606   2.815   4.273   2.528
    1C        C  607   2.923   4.363   2.527
    1C        C  608   2.767   4.223   2.652
    1C        C  609   2.819   4.273   2.773
    1C        C  610   2.684   4.110   2.897
    1C        C  611   2.770   4.222   2.895
    1C        C  612   2.642   4.057   3.021
    1C        C  613   2.686   4.113   3.143
    1C        C  614   2.584   3.929   3.266
    1C        C  615   2.647   4.056   3.266
    1C        C  616   2.560   3.868   3.391
    1C        C  617   2.595   3.932   3.512
    1C        C  618   2.527   3.732   3.639
    1C        C  619   2.565   3.868   3.634
    1C        C  620   2.518   3.664   3.762
    1C        C  621   2.536   3.736   3.882
    1C        C  622   2.512   3.529   4.009
    1C        C  623   2.519   3.670   4.006
    1C        C  624   2.517   3.458   4.130
    1C        C  625   2.510   3.530   4.252
    1C        C  626   2.539   3.323   4.379
    1C        C  627   2.515   3.462   4.376
    1C        C  628   2.559   3.253   4.500
    1C        C  629   2.544   3.327   4.620
    1C        C  630   2.601   3.120   4.743
    1C        C  631   2.561   3.256   4.741
    1C        C  632   2.617   3.050   4.866
    1C        C  633   2.567   3.115   4.983
    1C        C  634   2.778   4.306   2.051
    1C        C  635   2.888   4.392   2.048
    1C        C  636   2.741   4.234   2.166
    1C        C  637   2.804   4.277   2.285
    1C        C  638   2.673   4.112   2.410
    1C        C  639   2.758   4.225   2.408
    1C        C  640   2.649   4.045   2.532
    1C        C  641   2.686   4.107   2.653
    1C        C  642   2.583   3.922   2.775
    1C        C  643   2.643   4.050   2.775
    1C        C  644   2.557   3.860   2.900
    1C        C  645   2.582   3.929   3.021
    1C        C  646   2.522   3.727   3.149
    1C        C  647   2.561   3.863   3.143
    1C        C  648   2.509   3.659   3.272
    1C        C  649   2.525   3.732   3.392
    1C        C  650   2.512   3.522   3.518
    1C        C  651   2.516   3.663   3.515
    1C        C  652   2.524   3.453   3.641
    1C        C  653   2.517   3.522   3.763
    1C        C  654   2.540   3.317   3.889
    1C        C  655   2.516   3.456   3.888
    1C        C  656   2.562   3.251   4.012
    1C        C  657   2.546   3.320   4.134
    1C        C  658   2.607   3.120   4.257
    1C        C  659   2.561   3.254   4.258
    1C        C  660   2.635   3.055   4.379
    1C        C  661   2.606   3.120   4.501
    1C        C  662   2.713   2.937   4.625
    1C        C  663   2.634   3.054   4.623
    1C        C  664   2.753   2.878   4.747
    1C        C  665   2.697   2.931   4.866
    1C        C  666   2.739   2.865   4.983
    1C        C  667   2.671   4.027   2.054
    1C        C  668   2.680   4.107   2.169
    1C        C  669   2.588   3.914   2.291
    1C        C  670   2.638   4.047   2.289
    1C        C  671   2.560   3.851   2.414
    1C        C  672   2.585   3.920   2.535
    1C        C  673   2.517   3.717   2.658
    1C        C  674   2.558   3.852   2.656
    1C        C  675   2.507   3.650   2.782
    1C        C  676   2.524   3.723   2.902
    1C        C  677   2.506   3.516   3.033
    1C        C  678   2.512   3.657   3.026
    1C        C  679   2.510   3.444   3.154
    1C        C  680   2.503   3.518   3.275
    1C        C  681   2.531   3.309   3.400
    1C        C  682   2.507   3.449   3.398
    1C        C  683   2.551   3.243   3.523
    1C        C  684   2.538   3.312   3.645
    1C        C  685   2.607   3.113   3.770
    1C        C  686   2.554   3.244   3.768
    1C        C  687   2.642   3.051   3.892
    1C        C  688   2.609   3.118   4.012
    1C        C  689   2.720   2.940   4.139
    1C        C  690   2.641   3.057   4.136
    1C        C  691   2.757   2.879   4.261
    1C        C  692   2.713   2.937   4.382
    1C        C  693   2.753   2.877   4.504
    1C        C  694   2.622   3.896   2.054
    1C        C  695   2.527   3.706   2.177
    1C        C  696   2.573   3.839   2.172
    1C        C  697   2.510   3.637   2.299
    1C        C  698   2.523   3.714   2.417
    1C        C  699   2.496   3.503   2.545
    1C        C  700   2.503   3.644   2.538
    1C        C  701   2.509   3.435   2.668
    1C        C  702   2.505   3.509   2.788
    1C        C  703   2.530   3.303   2.909
    1C        C  704   2.508   3.442   2.912
    1C        C  705   2.545   3.235   3.032
    1C        C  706   2.532   3.305   3.154
    1C        C  707   2.600   3.107   3.280
    1C        C  708   2.552   3.240   3.278
    1C        C  709   2.634   3.046   3.403
    1C        C  710   2.608   3.114   3.524
    1C        C  711   2.715   2.933   3.648
    1C        C  712   2.636   3.050   3.647
    1C        C  713   2.757   2.876   3.770
    1C        C  714   2.720   2.933   3.894
    1C        C  715   2.758   2.878   4.019
    1C        C  716   2.453   3.501   2.063
    1C        C  717   2.499   3.633   2.060
    1C        C  718   2.460   3.424   2.183
    1C        C  719   2.486   3.497   2.302
    1C        C  720   2.517   3.291   2.426
    1C        C  721   2.488   3.429   2.425
    1C        C  722   2.539   3.222   2.547
    1C        C  723   2.523   3.294   2.668
    1C        C  724   2.593   3.096   2.791
    1C        C  725   2.539   3.226   2.790
    1C        C  726   2.626   3.038   2.916
    1C        C  727   2.599   3.104   3.037
    1C        C  728   2.710   2.923   3.160
    1C        C  729   2.635   3.043   3.159
    1C        C  730   2.760   2.874   3.283
    1C        C  731   2.716   2.931   3.404
    1C        C  732   2.760   2.876   3.527
    1C        C  733   2.490   3.200   2.072
    1C        C  734   2.484   3.282   2.186
    1C        C  735   2.576   3.085   2.306
    1C        C  736   2.524   3.217   2.305
    1C        C  737   2.615   3.021   2.426
    1C        C  738   2.592   3.091   2.546
    1C        C  739   2.698   2.910   2.670
    1C        C  740   2.625   3.031   2.670
    1C        C  741   2.743   2.859   2.793
    1C        C  742   2.704   2.920   2.915
    1C        C  743   2.748   2.865   3.037
    1C        C  744   2.536   3.069   2.074
    1C        C  745   2.683   2.900   2.183
    1C        C  746   2.603   3.017   2.185
    1C        C  747   2.725   2.840   2.303
    1C        C  748   2.686   2.899   2.426
    1C        C  749   2.737   2.849   2.548
    1C        C  750   2.732   2.836   2.068
    1C        C  751   3.659   2.308   1.986
    1C        O  752   3.695   2.199   2.037
    1C        O  753   3.676   2.308   1.847
    1C        C  754   4.607   3.048   1.969
    1C        O  755   4.583   3.051   1.846
    1C        O  756   4.745   3.050   1.992
    1C        C  757   4.463   4.230   1.976
    1C        O  758   4.540   4.313   2.032
    1C        O  759   4.417   4.260   1.847
    1C        C  760   3.588   4.666   1.953
    1C        O  761   3.536   4.773   1.995
    1C        O  762   3.622   4.660   1.818
    1C        C  763   2.849   4.522   1.988
    1C        O  764   2.871   4.538   1.865
    1C        O  765   2.842   4.641   2.061
    1C        C  766   2.348   3.473   1.962
    1C        O  767   2.387   3.430   1.850
    1C        O  768   2.235   3.555   1.957
    1C        C  769   4.674   3.583   5.073
    1C        O  770   4.620   3.565   5.186
    1C        O  771   4.803   3.636   5.082
    1C        C  772   4.271   4.438   5.044
    1C        O  773   4.235   4.466   5.161
    1C        O  774   4.383   4.510   5.001
    1C        C  775   4.127   2.540   5.098
    1C        O  776   4.241   2.489   5.080
    1C        O  777   4.076   2.585   5.220
    1C        C  778   2.895   4.532   5.064
    1C        O  779   2.822   4.635   5.064
    1C        O  780   2.943   4.495   5.189
    1C        C  781   2.470   3.048   5.073
    1C        O  782   2.381   2.966   5.039
    1C        O  783   2.471   3.071   5.210
    1C        C  784   2.408   3.994   5.053
    1C        O  785   2.307   3.926   5.022
    1C        O  786   2.442   3.982   5.188
    1C        C  787   2.954   2.450   1.975
    1C        O  788   2.975   2.480   1.855
    1C        O  789   2.864   2.350   2.012
    1C        C  790   3.191   2.380   5.073
    1C        O  791   3.176   2.266   5.020
    1C        O  792   3.129   2.382   5.199
    1C        H  793   4.293   3.023   5.065
    1C        H  794   4.154   2.826   5.062
    1C        H  795   4.533   3.135   5.045
    1C        H  796   4.468   3.386   5.050
    1C        H  797   4.590   3.819   5.031
    1C        H  798   4.372   3.945   5.043
    1C        H  799   4.255   4.139   5.040
    1C        H  800   4.044   4.548   5.022
    1C        H  801   3.816   4.609   5.036
    1C        H  802   3.586   4.630   5.036
    1C        H  803   3.394   4.460   5.029
    1C        H  804   3.153   4.499   5.055
    1C        H  805   3.875   2.511   5.067
    1C        H  806   3.673   2.437   5.068
    1C        H  807   2.988   2.537   5.051
    1C        H  808   3.442   2.506   5.073
    1C        H  809   2.888   2.760   5.080
    1C        H  810   2.671   2.851   5.065
    1C        H  811   2.545   3.300   5.072
    1C        H  812   2.547   3.497   5.072
    1C        H  813   2.552   3.733   5.067
    1C        H  814   2.612   4.161   5.054
    1C        H  815   2.748   4.319   5.051
    1C        H  816   2.689   2.860   1.974
    1C        H  817   2.862   2.692   1.977
    1C        H  818   3.217   2.479   1.988
    1C        H  819   3.421   2.394   1.990
    1C        H  820   3.836   2.530   1.977
    1C        H  821   4.046   2.638   1.964
    1C        H  822   4.265   2.703   1.980
    1C        H  823   4.373   2.920   1.965
    1C        H  824   4.615   3.310   1.985
    1C        H  825   4.467   3.522   1.961
    1C        H  826   4.539   3.756   1.959
    1C        H  827   3.806   4.540   1.955
    1C        H  828   3.970   4.392   1.944
    1C        H  829   4.185   4.296   1.953
    1C        H  830   4.524   3.987   1.978
    1C        H  831   2.653   3.835   1.971
    1C        H  832   2.714   4.059   1.962
    1C        H  833   2.766   4.254   1.959
    1C        H  834   3.367   4.492   1.949
    1C        H  835   3.160   4.379   1.961
    1C        H  836   2.505   3.000   1.999
    1C        H  837   2.408   3.213   2.004
    1C        H  838   2.459   3.693   1.981
    2V3OU   H29  839   2.802   3.550   1.516
    2V3OU   C27  840   2.776   3.503   1.615
    2V3OU   H27  841   2.717   3.572   1.681
    2V3OU   H28  842   2.724   3.404   1.607
    2V3OU   O11  843   2.903   3.482   1.676
    2V3OU   C15  844   2.916   3.396   1.783
    2V3OU   C13  845   3.050   3.372   1.821
    2V3OU   C14  846   3.072   3.265   1.909
    2V3OU   C16  847   2.970   3.185   1.958
    2V3OU    H6  848   2.991   3.099   2.025
    2V3OU   C12  849   3.214   3.226   1.928
    2V3OU    O2  850   3.236   3.123   1.996
    2V3OU   C10  851   3.326   3.302   1.872
    2V3OU    C8  852   3.456   3.264   1.903
    2V3OU   O10  853   3.488   3.147   1.965
    2V3OU   H26  854   3.402   3.110   1.991
    2V3OU    C6  855   3.565   3.348   1.863
    2V3OU    C5  856   3.535   3.464   1.793
    2V3OU    C4  857   3.702   3.292   1.880
    2V3OU    H4  858   3.722   3.228   1.971
    2V3OU    H5  859   3.712   3.222   1.791
    2V3OU    C2  860   3.814   3.396   1.869
    2V3OU    O6  861   3.801   3.472   1.990
    2V3OU   H21  862   3.768   3.559   1.960
    2V3OU    C3  863   3.782   3.493   1.756
    2V3OU    H2  864   3.863   3.571   1.751
    2V3OU    H3  865   3.784   3.438   1.658
    2V3OU   C25  866   3.951   3.330   1.853
    2V3OU    O7  867   4.003   3.300   1.746
    2V3OU   C26  868   4.024   3.291   1.981
    2V3OU   H22  869   4.069   3.380   2.032
    2V3OU   H23  870   4.110   3.224   1.955
    2V3OU    O8  871   3.958   3.205   2.071
    2V3OU   H24  872   3.928   3.261   2.144
    2V3OU    C1  873   3.646   3.560   1.765
    2V3OU    H1  874   3.626   3.616   1.669
    2V3OU    O3  875   3.658   3.654   1.873
    2V3OU   C19  876   3.618   3.791   1.872
    2V3OU    H9  877   3.517   3.808   1.825
    2V3OU    O4  878   3.712   3.850   1.785
    2V3OU   C20  879   3.844   3.872   1.835
    2V3OU   H10  880   3.892   3.771   1.854
    2V3OU   C24  881   3.609   3.857   2.010
    2V3OU   H16  882   3.548   3.795   2.080
    2V3OU   H17  883   3.560   3.956   1.995
    2V3OU   C23  884   3.749   3.876   2.069
    2V3OU   H15  885   3.792   3.772   2.091
    2V3OU    N1  886   3.736   3.954   2.191
    2V3OU   H19  887   3.813   3.925   2.247
    2V3OU   H20  888   3.656   3.939   2.249
    2V3OU   C21  889   3.848   3.943   1.970
    2V3OU   H11  890   3.951   3.931   2.017
    2V3OU    O5  891   3.824   4.083   1.964
    2V3OU   H18  892   3.781   4.096   2.051
    2V3OU   C22  893   3.911   3.950   1.724
    2V3OU   H12  894   3.861   4.050   1.712
    2V3OU   H13  895   3.905   3.892   1.628
    2V3OU   H14  896   4.021   3.962   1.742
    2V3OU   C11  897   3.157   3.467   1.789
    2V3OU    O1  898   3.130   3.589   1.778
    2V3OU    C9  899   3.297   3.419   1.797
    2V3OU    C7  900   3.401   3.503   1.760
    2V3OU    O9  901   3.384   3.611   1.677
    2V3OU   H25  902   3.289   3.630   1.673
    2V3OU   C17  903   2.812   3.318   1.836
    2V3OU    H7  904   2.712   3.338   1.796
    2V3OU   C18  905   2.839   3.210   1.919
    2V3OU    H8  906   2.757   3.139   1.939
    3SOL     OW  907   1.275   3.564   1.523
    3SOL    HW1  908   1.230   3.553   1.434
    3SOL    HW2  909   1.300   3.660   1.535
    4SOL     OW  910   5.632   0.549   1.850
    4SOL    HW1  911   5.595   0.526   1.941
    4SOL    HW2  912   5.638   0.466   1.795
    5SOL     OW  913   4.232   1.873   0.654
    5SOL    HW1  914   4.232   1.815   0.735
    5SOL    HW2  915   4.139   1.902   0.633
    6SOL     OW  916   2.920   1.922   1.890
    6SOL    HW1  917   2.908   1.887   1.983
    6SOL    HW2  918   2.877   2.012   1.883
    7SOL     OW  919   5.461   1.812   2.133
    7SOL    HW1  920   5.483   1.808   2.035
    7SOL    HW2  921   5.451   1.908   2.161
    8SOL     OW  922   2.627   0.453   3.948
    8SOL    HW1  923   2.726   0.462   3.941
    8SOL    HW2  924   2.587   0.541   3.975
    9SOL     OW  925   1.933   4.738   6.047
    9SOL    HW1  926   1.853   4.773   6.096
    9SOL    HW2  927   1.947   4.792   5.964
   10SOL     OW  928   1.196   4.375   6.290
   10SOL    HW1  929   1.141   4.330   6.360
   10SOL    HW2  930   1.211   4.471   6.317
   11SOL     OW  931   4.546   6.448   0.149
   11SOL    HW1  932   4.646   6.442   0.158
   11SOL    HW2  933   4.519   6.545   0.148
   12SOL     OW  934   5.512   5.875   2.652
   12SOL    HW1  935   5.487   5.971   2.659
   12SOL    HW2  936   5.447   5.820   2.705
   13SOL     OW  937   2.902   6.070   3.725
   13SOL    HW1  938   2.904   6.094   3.628
   13SOL    HW2  939   2.992   6.088   3.765
   14SOL     OW  940   3.663   6.343   0.206
   14SOL    HW1  941   3.690   6.424   0.154
   14SOL    HW2  942   3.643   6.268   0.143
   15SOL     OW  943   1.257   6.531   7.003
   15SOL    HW1  944   1.232   6.487   0.067
   15SOL    HW2  945   1.319   6.608   7.020
   16SOL     OW  946   6.566   2.511   6.195
   16SOL    HW1  947   6.498   2.585   6.194
   16SOL    HW2  948   6.652   2.546   6.231
   17SOL     OW  949   5.148   6.551   4.012
   17SOL    HW1  950   5.060   6.596   4.026
   17SOL    HW2  951   5.134   6.468   3.958
   18SOL     OW  952   1.873   1.611   5.612
   18SOL    HW1  953   1.809   1.675   5.570
   18SOL    HW2  954   1.823   1.530   5.643
   19SOL     OW  955   0.607   6.947   2.385
   19SOL    HW1  956   0.527   6.969   2.442
   19SOL    HW2  957   0.684   6.924   2.445
   20SOL     OW  958   3.562   1.714   4.013
   20SOL    HW1  959   3.463   1.715   3.999
   20SOL    HW2  960   3.587   1.781   4.083
   21SOL     OW  961   3.118   1.284   1.383
   21SOL    HW1  962   3.025   1.316   1.364
   21SOL    HW2  963   3.155   1.238   1.303
   22SOL     OW  964   2.194   6.111   5.975
   22SOL    HW1  965   2.098   6.107   6.002
   22SOL    HW2  966   2.203   6.172   5.896
   23SOL     OW  967   4.527   6.564   4.538
   23SOL    HW1  968   4.530   6.465   4.549
   23SOL    HW2  969   4.492   6.605   4.623
   24SOL     OW  970   5.460   1.304   5.148
   24SOL    HW1  971   5.393   1.313   5.075
   24SOL    HW2  972   5.490   1.395   5.177
   25SOL     OW  973   4.037   5.710   0.556
   25SOL    HW1  974   4.050   5.655   0.473
   25SOL    HW2  975   3.941   5.710   0.581
   26SOL     OW  976   6.464   1.077   1.910
   26SOL    HW1  977   6.406   1.021   1.969
   26SOL    HW2  978   6.482   1.164   1.956
   27SOL     OW  979   6.154   0.490   2.852
   27SOL    HW1  980   6.204   0.409   2.881
   27SOL    HW2  981   6.146   0.553   2.929
   28SOL     OW  982   3.989   0.418   7.007
   28SOL    HW1  983   3.933   0.493   6.972
   28SOL    HW2  984   3.931   0.357   0.039
   29SOL     OW  985   4.643   2.477   1.338
   29SOL    HW1  986   4.657   2.492   1.240
   29SOL    HW2  987   4.603   2.559   1.379
   30SOL     OW  988   3.353   1.084   4.965
   30SOL    HW1  989   3.294   1.150   4.921
   30SOL    HW2  990   3.448   1.115   4.961
   31SOL     OW  991   0.647   1.146   4.950
   31SOL    HW1  992   0.682   1.220   4.893
   31SOL    HW2  993   0.572   1.179   5.006
   32SOL     OW  994   0.853   1.969   1.905
   32SOL    HW1  995   0.794   1.907   1.854
   32SOL    HW2  996   0.942   1.975   1.861
   33SOL     OW  997   1.848   2.773   6.520
   33SOL    HW1  998   1.875   2.694   6.576
   33SOL    HW2  999   1.751   2.765   6.496
   34SOL     OW 1000   2.224   0.333   4.795
   34SOL    HW1 1001   2.136   0.344   4.749
   34SOL    HW2 1002   2.220   0.252   4.855
   35SOL     OW 1003   4.994   1.689   0.251
   35SOL    HW1 1004   4.997   1.779   0.207
   35SOL    HW2 1005   4.972   1.620   0.183
   36SOL     OW 1006   1.619   1.319   5.542
   36SOL    HW1 1007   1.691   1.297   5.607
   36SOL    HW2 1008   1.530   1.292   5.580
   37SOL     OW 1009   3.077   6.489   1.411
   37SOL    HW1 1010   3.022   6.457   1.333
   37SOL    HW2 1011   3.170   6.506   1.381
   38SOL     OW 1012   6.996   6.627   3.358
   38SOL    HW1 1013   7.003   6.725   3.339
   38SOL    HW2 1014   6.947   6.581   3.284
   39SOL     OW 1015   6.756   3.154   5.194
   39SOL    HW1 1016   6.776   3.252   5.191
   39SOL    HW2 1017   6.676   3.134   5.139
   40SOL     OW 1018   6.040   0.884   2.558
   40SOL    HW1 1019   5.991   0.887   2.645
   40SOL    HW2 1020   6.087   0.796   2.549
   41SOL     OW 1021   1.437   6.693   4.906
   41SOL    HW1 1022   1.474   6.666   4.995
   41SOL    HW2 1023   1.368   6.765   4.919
   42SOL     OW 1024   3.711   0.194   6.681
   42SOL    HW1 1025   3.649   0.220   6.756
   42SOL    HW2 1026   3.795   0.247   6.688
   43SOL     OW 1027   5.416   6.447   5.340
   43SOL    HW1 1028   5.476   6.404   5.272
   43SOL    HW2 1029   5.397   6.382   5.413
   44SOL     OW 1030   0.357   2.490   6.378
   44SOL    HW1 1031   0.386   2.498   6.283
   44SOL    HW2 1032   0.330   2.580   6.413
   45SOL     OW 1033   2.609   1.058   1.970
   45SOL    HW1 1034   2.666   1.140   1.966
   45SOL    HW2 1035   2.515   1.081   1.943
   46SOL     OW 1036   1.558   3.871   4.634
   46SOL    HW1 1037   1.621   3.938   4.595
   46SOL    HW2 1038   1.586   3.779   4.606
   47SOL     OW 1039   6.906   4.429   3.461
   47SOL    HW1 1040   6.830   4.471   3.412
   47SOL    HW2 1041   6.873   4.382   3.543
   48SOL     OW 1042   0.228   2.147   5.336
   48SOL    HW1 1043   0.238   2.238   5.296
   48SOL    HW2 1044   0.170   2.091   5.278
   49SOL     OW 1045   4.488   3.094   0.842
   49SOL    HW1 1046   4.585   3.068   0.839
   49SOL    HW2 1047   4.437   3.029   0.898
   50SOL     OW 1048   6.414   3.917   4.566
   50SOL    HW1 1049   6.513   3.914   4.577
   50SOL    HW2 1050   6.388   3.866   4.484
   51SOL     OW 1051   3.396   4.905   3.209
   51SOL    HW1 1052   3.478   4.895   3.264
   51SOL    HW2 1053   3.421   4.909   3.112
   52SOL     OW 1054   2.713   1.517   2.345
   52SOL    HW1 1055   2.801   1.471   2.344
   52SOL    HW2 1056   2.691   1.545   2.439
   53SOL     OW 1057   5.058   6.822   4.547
   53SOL    HW1 1058   5.108   6.850   4.629
   53SOL    HW2 1059   5.079   6.885   4.472
   54SOL     OW 1060   3.602   5.047   5.576
   54SOL    HW1 1061   3.572   4.958   5.612
   54SOL    HW2 1062   3.547   5.069   5.495
   55SOL     OW 1063   3.907   1.969   6.433
   55SOL    HW1 1064   3.987   1.969   6.372
   55SOL    HW2 1065   3.917   2.042   6.501
   56SOL     OW 1066   0.930   0.429   2.256
   56SOL    HW1 1067   1.002   0.360   2.251
   56SOL    HW2 1068   0.846   0.392   2.215
   57SOL     OW 1069   5.179   1.113   0.439
   57SOL    HW1 1070   5.134   1.156   0.361
   57SOL    HW2 1071   5.143   1.021   0.452
   58SOL     OW 1072   0.088   6.028   6.627
   58SOL    HW1 1073   0.149   5.952   6.648
   58SOL    HW2 1074   7.017   6.003   6.653
   59SOL     OW 1075   1.130   0.527   6.202
   59SOL    HW1 1076   1.184   0.611   6.210
   59SOL    HW2 1077   1.191   0.448   6.209
   60SOL     OW 1078   4.500   0.116   5.397
   60SOL    HW1 1079   4.449   0.198   5.426
   60SOL    HW2 1080   4.494   0.108   5.297
   61SOL     OW 1081   5.090   0.206   3.973
   61SOL    HW1 1082   5.185   0.225   3.996
   61SOL    HW2 1083   5.077   0.107   3.967
   62SOL     OW 1084   1.650   0.216   4.102
   62SOL    HW1 1085   1.684   0.260   4.185
   62SOL    HW2 1086   1.550   0.210   4.105
   63SOL     OW 1087   6.607   2.743   3.002
   63SOL    HW1 1088   6.681   2.677   3.014
   63SOL    HW2 1089   6.577   2.743   2.907
   64SOL     OW 1090   6.085   3.951   6.527
   64SOL    HW1 1091   6.026   3.873   6.502
   64SOL    HW2 1092   6.181   3.923   6.521
   65SOL     OW 1093   0.024   4.511   4.987
   65SOL    HW1 1094   6.964   4.529   4.934
   65SOL    HW2 1095   0.102   4.556   4.943
   66SOL     OW 1096   3.176   0.363   0.149
   66SOL    HW1 1097   3.096   0.350   0.208
   66SOL    HW2 1098   3.191   0.279   0.096
   67SOL     OW 1099   5.670   5.836   4.807
   67SOL    HW1 1100   5.596   5.823   4.873
   67SOL    HW2 1101   5.643   5.797   4.719
   68SOL     OW 1102   6.097   2.075   6.076
   68SOL    HW1 1103   6.111   2.034   6.166
   68SOL    HW2 1104   6.085   2.174   6.086
   69SOL     OW 1105   2.912   4.234   6.326
   69SOL    HW1 1106   2.879   4.311   6.271
   69SOL    HW2 1107   3.007   4.251   6.352
   70SOL     OW 1108   7.008   5.670   2.764
   70SOL    HW1 1109   6.970   5.578   2.757
   70SOL    HW2 1110   0.006   5.690   2.860
   71SOL     OW 1111   1.859   2.789   3.356
   71SOL    HW1 1112   1.837   2.693   3.370
   71SOL    HW2 1113   1.916   2.822   3.432
   72SOL     OW 1114   2.874   5.358   3.734
   72SOL    HW1 1115   2.836   5.445   3.765
   72SOL    HW2 1116   2.835   5.334   3.645
   73SOL     OW 1117   3.812   1.846   0.409
   73SOL    HW1 1118   3.850   1.903   0.481
   73SOL    HW2 1119   3.727   1.886   0.376
   74SOL     OW 1120   5.292   6.600   6.483
   74SOL    HW1 1121   5.279   6.501   6.483
   74SOL    HW2 1122   5.353   6.626   6.408
   75SOL     OW 1123   3.736   5.806   5.853
   75SOL    HW1 1124   3.700   5.892   5.818
   75SOL    HW2 1125   3.824   5.786   5.809
   76SOL     OW 1126   1.847   2.630   1.300
   76SOL    HW1 1127   1.941   2.665   1.296
   76SOL    HW2 1128   1.801   2.650   1.213
   77SOL     OW 1129   6.181   5.033   5.181
   77SOL    HW1 1130   6.096   5.014   5.133
   77SOL    HW2 1131   6.201   5.131   5.177
   78SOL     OW 1132   6.312   6.083   5.609
   78SOL    HW1 1133   6.284   5.989   5.586
   78SOL    HW2 1134   6.330   6.134   5.525
   79SOL     OW 1135   3.551   6.779   0.597
   79SOL    HW1 1136   3.543   6.722   0.679
   79SOL    HW2 1137   3.547   6.721   0.516
   80SOL     OW 1138   0.295   1.708   4.361
   80SOL    HW1 1139   0.240   1.647   4.418
   80SOL    HW2 1140   0.299   1.799   4.404
   81SOL     OW 1141   1.706   0.999   3.039
   81SOL    HW1 1142   1.672   1.066   3.105
   81SOL    HW2 1143   1.650   0.916   3.043
   82SOL     OW 1144   6.463   5.045   6.409
   82SOL    HW1 1145   6.497   4.974   6.470
   82SOL    HW2 1146   6.398   5.004   6.344
   83SOL     OW 1147   0.115   6.214   0.438
   83SOL    HW1 1148   0.121   6.238   0.535
   83SOL    HW2 1149   0.021   6.222   0.407
   84SOL     OW 1150   5.132   3.726   2.042
   84SOL    HW1 1151   5.069   3.683   1.977
   84SOL    HW2 1152   5.080   3.787   2.102
   85SOL     OW 1153   0.922   1.710   5.454
   85SOL    HW1 1154   0.902   1.714   5.356
   85SOL    HW2 1155   0.884   1.790   5.500
   86SOL     OW 1156   0.639   0.345   5.724
   86SOL    HW1 1157   0.608   0.429   5.768
   86SOL    HW2 1158   0.650   0.361   5.626
   87SOL     OW 1159   4.687   2.133   0.530
   87SOL    HW1 1160   4.707   2.117   0.433
   87SOL    HW2 1161   4.632   2.057   0.565
   88SOL     OW 1162   5.445   1.075   0.762
   88SOL    HW1 1163   5.348   1.087   0.743
   88SOL    HW2 1164   5.463   1.100   0.857
   89SOL     OW 1165   1.604   3.072   6.483
   89SOL    HW1 1166   1.626   3.167   6.461
   89SOL    HW2 1167   1.615   3.057   6.581
   90SOL     OW 1168   5.720   6.137   3.803
   90SOL    HW1 1169   5.665   6.207   3.848
   90SOL    HW2 1170   5.712   6.147   3.704
   91SOL     OW 1171   4.717   4.793   4.529
   91SOL    HW1 1172   4.666   4.735   4.593
   91SOL    HW2 1173   4.765   4.865   4.579
   92SOL     OW 1174   3.207   4.320   1.071
   92SOL    HW1 1175   3.158   4.270   1.143
   92SOL    HW2 1176   3.198   4.418   1.086
   93SOL     OW 1177   3.923   4.982   5.789
   93SOL    HW1 1178   3.951   5.069   5.748
   93SOL    HW2 1179   3.977   4.966   5.872
   94SOL     OW 1180   2.907   6.030   7.022
   94SOL    HW1 1181   2.859   6.088   6.956
   94SOL    HW2 1182   2.973   5.972   6.973
   95SOL     OW 1183   0.295   0.082   3.997
   95SOL    HW1 1184   0.202   0.116   4.012
   95SOL    HW2 1185   0.314   0.077   3.899
   96SOL     OW 1186   2.345   0.012   5.171
   96SOL    HW1 1187   2.313   0.013   5.265
   96SOL    HW2 1188   2.306   0.090   5.121
   97SOL     OW 1189   6.058   3.541   4.235
   97SOL    HW1 1190   5.976   3.551   4.179
   97SOL    HW2 1191   6.033   3.543   4.331
   98SOL     OW 1192   5.180   2.461   6.107
   98SOL    HW1 1193   5.149   2.374   6.146
   98SOL    HW2 1194   5.170   2.457   6.007
   99SOL     OW 1195   4.065   2.642   0.614
   99SOL    HW1 1196   4.012   2.574   0.663
   99SOL    HW2 1197   4.155   2.604   0.591
  100SOL     OW 1198   0.421   6.017   6.335
  100SOL    HW1 1199   0.326   5.988   6.347
  100SOL    HW2 1200   0.449   6.072   6.414
  101SOL     OW 1201   0.931   5.984   4.330
  101SOL    HW1 1202   0.832   5.978   4.316
  101SOL    HW2 1203   0.973   6.027   4.250
  102SOL     OW 1204   3.535   0.749   3.149
  102SOL    HW1 1205   3.579   0.775   3.064
  102SOL    HW2 1206   3.469   0.819   3.176
  103SOL     OW 1207   4.145   2.225   1.565
  103SOL    HW1 1208   4.112   2.154   1.627
  103SOL    HW2 1209   4.075   2.297   1.557
  104SOL     OW 1210   6.663   5.529   2.270
  104SOL    HW1 1211   6.755   5.528   2.230
  104SOL    HW2 1212   6.661   5.592   2.347
  105SOL     OW 1213   6.254   1.092   6.919
  105SOL    HW1 1214   6.309   1.107   6.837
  105SOL    HW2 1215   6.218   0.999   6.917
  106SOL     OW 1216   2.838   6.324   6.601
  106SOL    HW1 1217   2.754   6.326   6.546
  106SOL    HW2 1218   2.917   6.334   6.541
  107SOL     OW 1219   1.306   2.537   0.856
  107SOL    HW1 1220   1.332   2.536   0.952
  107SOL    HW2 1221   1.380   2.575   0.801
  108SOL     OW 1222   4.701   4.817   6.499
  108SOL    HW1 1223   4.684   4.908   6.538
  108SOL    HW2 1224   4.793   4.813   6.460
  109SOL     OW 1225   0.567   0.275   0.787
  109SOL    HW1 1226   0.493   0.340   0.801
  109SOL    HW2 1227   0.649   0.307   0.835
  110SOL     OW 1228   3.700   6.039   5.707
  110SOL    HW1 1229   3.626   6.082   5.758
  110SOL    HW2 1230   3.670   6.021   5.614
  111SOL     OW 1231   3.790   0.777   3.340
  111SOL    HW1 1232   3.707   0.722   3.343
  111SOL    HW2 1233   3.836   0.773   3.429
  112SOL     OW 1234   6.177   5.828   5.813
  112SOL    HW1 1235   6.153   5.920   5.844
  112SOL    HW2 1236   6.094   5.774   5.801
  113SOL     OW 1237   0.014   4.405   3.813
  113SOL    HW1 1238   6.955   4.368   3.769
  113SOL    HW2 1239   7.011   4.451   3.898
  114SOL     OW 1240   0.600   6.769   0.425
  114SOL    HW1 1241   0.667   6.763   0.351
  114SOL    HW2 1242   0.631   6.712   0.502
  115SOL     OW 1243   4.667   1.574   4.039
  115SOL    HW1 1244   4.589   1.634   4.021
  115SOL    HW2 1245   4.700   1.590   4.132
  116SOL     OW 1246   6.067   4.960   2.101
  116SOL    HW1 1247   6.138   4.977   2.169
  116SOL    HW2 1248   5.984   4.929   2.146
  117SOL     OW 1249   1.085   0.298   6.538
  117SOL    HW1 1250   1.173   0.335   6.567
  117SOL    HW2 1251   1.097   0.243   6.456
  118SOL     OW 1252   0.368   0.730   2.117
  118SOL    HW1 1253   0.340   0.685   2.201
  118SOL    HW2 1254   0.293   0.729   2.051
  119SOL     OW 1255   6.710   2.694   6.318
  119SOL    HW1 1256   6.648   2.722   6.391
  119SOL    HW2 1257   6.798   2.667   6.358
  120SOL     OW 1258   6.353   6.520   1.170
  120SOL    HW1 1259   6.447   6.534   1.139
  120SOL    HW2 1260   6.350   6.446   1.237
  121SOL     OW 1261   2.232   3.599   6.423
  121SOL    HW1 1262   2.219   3.556   6.334
  121SOL    HW2 1263   2.291   3.680   6.412
  122SOL     OW 1264   0.768   3.535   4.969
  122SOL    HW1 1265   0.867   3.532   4.954
  122SOL    HW2 1266   0.722   3.554   4.883
  123SOL     OW 1267   0.131   1.762   1.447
  123SOL    HW1 1268   0.080   1.719   1.372
  123SOL    HW2 1269   0.154   1.692   1.515
  124SOL     OW 1270   5.192   3.289   0.178
  124SOL    HW1 1271   5.118   3.247   0.125
  124SOL    HW2 1272   5.231   3.220   0.240
  125SOL     OW 1273   1.609   2.391   1.977
  125SOL    HW1 1274   1.571   2.351   2.060
  125SOL    HW2 1275   1.567   2.480   1.960
  126SOL     OW 1276   2.770   4.578   0.968
  126SOL    HW1 1277   2.686   4.525   0.959
  126SOL    HW2 1278   2.782   4.606   1.064
  127SOL     OW 1279   0.243   5.274   6.014
  127SOL    HW1 1280   0.248   5.252   5.917
  127SOL    HW2 1281   0.158   5.237   6.052
  128SOL     OW 1282   4.544   2.997   1.476
  128SOL    HW1 1283   4.506   3.051   1.551
  128SOL    HW2 1284   4.636   2.967   1.499
  129SOL     OW 1285   3.381   3.901   6.322
  129SOL    HW1 1286   3.384   3.827   6.255
  129SOL    HW2 1287   3.360   3.865   6.412
  130SOL     OW 1288   0.670   0.938   4.058
  130SOL    HW1 1289   0.727   0.865   4.020
  130SOL    HW2 1290   0.712   0.972   4.142
  131SOL     OW 1291   4.593   1.607   2.530
  131SOL    HW1 1292   4.512   1.554   2.507
  131SOL    HW2 1293   4.586   1.698   2.489
  132SOL     OW 1294   0.664   2.972   1.635
  132SOL    HW1 1295   0.714   2.990   1.720
  132SOL    HW2 1296   0.729   2.960   1.560
  133SOL     OW 1297   6.242   6.021   2.487
  133SOL    HW1 1298   6.267   5.963   2.410
  133SOL    HW2 1299   6.275   6.114   2.472
  134SOL     OW 1300   6.758   3.322   3.079
  134SOL    HW1 1301   6.669   3.323   3.034
  134SOL    HW2 1302   6.753   3.375   3.164
  135SOL     OW 1303   5.187   1.807   3.858
  135SOL    HW1 1304   5.110   1.760   3.901
  135SOL    HW2 1305   5.257   1.740   3.833
  136SOL     OW 1306   5.382   4.133   5.446
  136SOL    HW1 1307   5.471   4.151   5.485
  136SOL    HW2 1308   5.357   4.207   5.384
  137SOL     OW 1309   5.315   0.141   5.910
  137SOL    HW1 1310   5.324   0.101   6.002
  137SOL    HW2 1311   5.287   0.236   5.918
  138SOL     OW 1312   6.855   4.785   4.414
  138SOL    HW1 1313   6.860   4.884   4.402
  138SOL    HW2 1314   6.813   4.743   4.334
  139SOL     OW 1315   3.075   4.973   5.422
  139SOL    HW1 1316   3.143   4.919   5.472
  139SOL    HW2 1317   2.989   4.972   5.472
  140SOL     OW 1318   5.305   5.129   4.006
  140SOL    HW1 1319   5.398   5.099   4.027
  140SOL    HW2 1320   5.248   5.122   4.088
  141SOL     OW 1321   1.073   1.897   4.801
  141SOL    HW1 1322   0.994   1.847   4.765
  141SOL    HW2 1323   1.156   1.862   4.757
  142SOL     OW 1324   1.553   6.216   1.461
  142SOL    HW1 1325   1.617   6.210   1.538
  142SOL    HW2 1326   1.602   6.241   1.378
  143SOL     OW 1327   5.110   4.922   2.374
  143SOL    HW1 1328   5.050   4.940   2.296
  143SOL    HW2 1329   5.065   4.951   2.459
  144SOL     OW 1330   1.702   6.487   6.787
  144SOL    HW1 1331   1.607   6.501   6.814
  144SOL    HW2 1332   1.705   6.462   6.690
  145SOL     OW 1333   0.609   5.232   0.881
  145SOL    HW1 1334   0.604   5.237   0.981
  145SOL    HW2 1335   0.548   5.302   0.842
  146SOL     OW 1336   5.124   6.547   0.698
  146SOL    HW1 1337   5.143   6.457   0.739
  146SOL    HW2 1338   5.210   6.590   0.672
  147SOL     OW 1339   6.647   2.813   0.607
  147SOL    HW1 1340   6.624   2.910   0.615
  147SOL    HW2 1341   6.737   2.804   0.566
  148SOL     OW 1342   0.916   5.141   5.722
  148SOL    HW1 1343   0.836   5.143   5.783
  148SOL    HW2 1344   0.990   5.195   5.762
  149SOL     OW 1345   2.945   1.186   4.634
  149SOL    HW1 1346   3.003   1.105   4.645
  149SOL    HW2 1347   2.849   1.158   4.632
  150SOL     OW 1348   6.912   4.906   6.760
  150SOL    HW1 1349   6.970   4.912   6.679
  150SOL    HW2 1350   6.829   4.855   6.738
  151SOL     OW 1351   3.923   1.427   1.315
  151SOL    HW1 1352   3.986   1.427   1.237
  151SOL    HW2 1353   3.845   1.368   1.294
  152SOL     OW 1354   2.855   0.705   4.656
  152SOL    HW1 1355   2.787   0.736   4.590
  152SOL    HW2 1356   2.909   0.782   4.688
  153SOL     OW 1357   2.071   0.976   2.814
  153SOL    HW1 1358   2.033   1.057   2.858
  153SOL    HW2 1359   2.164   0.996   2.781
  154SOL     OW 1360   6.814   2.196   2.184
  154SOL    HW1 1361   6.840   2.163   2.093
  154SOL    HW2 1362   6.726   2.243   2.178
  155SOL     OW 1363   0.037   0.619   2.899
  155SOL    HW1 1364   0.070   0.634   2.992
  155SOL    HW2 1365   0.101   0.660   2.834
  156SOL     OW 1366   6.194   1.486   1.369
  156SOL    HW1 1367   6.169   1.578   1.397
  156SOL    HW2 1368   6.281   1.489   1.319
  157SOL     OW 1369   5.884   3.529   2.851
  157SOL    HW1 1370   5.910   3.602   2.915
  157SOL    HW2 1371   5.926   3.443   2.880
  158SOL     OW 1372   2.809   0.715   2.820
  158SOL    HW1 1373   2.755   0.731   2.903
  158SOL    HW2 1374   2.789   0.786   2.753
  159SOL     OW 1375   4.701   4.541   1.927
  159SOL    HW1 1376   4.662   4.455   1.960
  159SOL    HW2 1377   4.766   4.522   1.853
  160SOL     OW 1378   6.449   4.217   5.853
  160SOL    HW1 1379   6.448   4.118   5.862
  160SOL    HW2 1380   6.531   4.246   5.803
  161SOL     OW 1381   2.120   5.012   5.116
  161SOL    HW1 1382   2.129   4.945   5.189
  161SOL    HW2 1383   2.211   5.039   5.083
  162SOL     OW 1384   4.694   5.990   0.924
  162SOL    HW1 1385   4.715   5.922   0.853
  162SOL    HW2 1386   4.622   6.051   0.891
  163SOL     OW 1387   4.507   6.823   1.862
  163SOL    HW1 1388   4.531   6.920   1.858
  163SOL    HW2 1389   4.456   6.798   1.780
  164SOL     OW 1390   6.283   3.486   0.662
  164SOL    HW1 1391   6.255   3.582   0.663
  164SOL    HW2 1392   6.382   3.480   0.676
  165SOL     OW 1393   4.874   3.577   6.495
  165SOL    HW1 1394   4.783   3.558   6.459
  165SOL    HW2 1395   4.940   3.583   6.419
  166SOL     OW 1396   0.324   6.259   2.706
  166SOL    HW1 1397   0.392   6.330   2.726
  166SOL    HW2 1398   0.264   6.247   2.784
  167SOL     OW 1399   6.483   2.454   6.837
  167SOL    HW1 1400   6.476   2.390   6.913
  167SOL    HW2 1401   6.500   2.403   6.752
  168SOL     OW 1402   2.314   5.137   0.938
  168SOL    HW1 1403   2.310   5.037   0.934
  168SOL    HW2 1404   2.281   5.168   1.027
  169SOL     OW 1405   2.122   0.273   2.228
  169SOL    HW1 1406   2.199   0.299   2.287
  169SOL    HW2 1407   2.142   0.298   2.134
  170SOL     OW 1408   7.021   2.002   3.516
  170SOL    HW1 1409   6.997   2.089   3.560
  170SOL    HW2 1410   0.070   1.957   3.569
  171SOL     OW 1411   4.007   3.489   0.510
  171SOL    HW1 1412   4.043   3.398   0.487
  171SOL    HW2 1413   4.021   3.550   0.433
  172SOL     OW 1414   6.719   2.121   5.453
  172SOL    HW1 1415   6.753   2.064   5.379
  172SOL    HW2 1416   6.792   2.138   5.519
  173SOL     OW 1417   6.876   6.723   4.727
  173SOL    HW1 1418   6.939   6.782   4.676
  173SOL    HW2 1419   6.925   6.643   4.762
  174SOL     OW 1420   2.635   5.227   3.582
  174SOL    HW1 1421   2.618   5.133   3.611
  174SOL    HW2 1422   2.651   5.229   3.483
  175SOL     OW 1423   2.141   6.124   2.112
  175SOL    HW1 1424   2.169   6.050   2.174
  175SOL    HW2 1425   2.096   6.196   2.165
  176SOL     OW 1426   2.114   4.197   1.292
  176SOL    HW1 1427   2.118   4.235   1.385
  176SOL    HW2 1428   2.167   4.255   1.230
  177SOL     OW 1429   4.761   2.414   3.042
  177SOL    HW1 1430   4.823   2.443   2.969
  177SOL    HW2 1431   4.781   2.320   3.068
  178SOL     OW 1432   4.645   4.645   6.704
  178SOL    HW1 1433   4.547   4.627   6.707
  178SOL    HW2 1434   4.664   4.709   6.630
  179SOL     OW 1435   3.275   0.377   0.547
  179SOL    HW1 1436   3.198   0.387   0.484
  179SOL    HW2 1437   3.348   0.441   0.521
  180SOL     OW 1438   0.995   0.763   6.792
  180SOL    HW1 1439   0.906   0.718   6.791
  180SOL    HW2 1440   0.987   0.852   6.837
  181SOL     OW 1441   3.415   2.204   5.954
  181SOL    HW1 1442   3.412   2.255   6.040
  181SOL    HW2 1443   3.495   2.233   5.901
  182SOL     OW 1444   3.863   2.105   4.454
  182SOL    HW1 1445   3.886   2.008   4.462
  182SOL    HW2 1446   3.944   2.157   4.429
  183SOL     OW 1447   4.490   1.477   1.672
  183SOL    HW1 1448   4.490   1.577   1.673
  183SOL    HW2 1449   4.582   1.443   1.653
  184SOL     OW 1450   1.435   4.877   3.317
  184SOL    HW1 1451   1.387   4.952   3.271
  184SOL    HW2 1452   1.458   4.904   3.410
  185SOL     OW 1453   1.871   3.501   6.693
  185SOL    HW1 1454   1.900   3.563   6.766
  185SOL    HW2 1455   1.887   3.544   6.604
  186SOL     OW 1456   5.921   0.278   3.121
  186SOL    HW1 1457   5.845   0.215   3.132
  186SOL    HW2 1458   6.007   0.227   3.114
  187SOL     OW 1459   5.653   0.838   4.097
  187SOL    HW1 1460   5.600   0.754   4.091
  187SOL    HW2 1461   5.611   0.908   4.039
  188SOL     OW 1462   5.816   2.556   3.156
  188SOL    HW1 1463   5.814   2.643   3.205
  188SOL    HW2 1464   5.796   2.482   3.220
  189SOL     OW 1465   2.214   4.810   2.993
  189SOL    HW1 1466   2.236   4.756   3.075
  189SOL    HW2 1467   2.164   4.891   3.020
  190SOL     OW 1468   4.015   1.223   5.348
  190SOL    HW1 1469   3.916   1.211   5.359
  190SOL    HW2 1470   4.034   1.307   5.298
  191SOL     OW 1471   5.862   5.902   6.505
  191SOL    HW1 1472   5.877   5.902   6.406
  191SOL    HW2 1473   5.941   5.942   6.551
  192SOL     OW 1474   6.648   0.232   1.875
  192SOL    HW1 1475   6.661   0.214   1.777
  192SOL    HW2 1476   6.568   0.290   1.888
  193SOL     OW 1477   5.273   3.448   6.999
  193SOL    HW1 1478   5.188   3.426   6.951
  193SOL    HW2 1479   5.267   3.417   0.071
  194SOL     OW 1480   3.096   0.750   3.380
  194SOL    HW1 1481   3.170   0.688   3.354
  194SOL    HW2 1482   3.008   0.710   3.355
  195SOL     OW 1483   1.844   5.656   3.617
  195SOL    HW1 1484   1.827   5.567   3.658
  195SOL    HW2 1485   1.827   5.728   3.684
  196SOL     OW 1486   1.670   1.926   6.702
  196SOL    HW1 1487   1.580   1.915   6.660
  196SOL    HW2 1488   1.695   2.023   6.700
  197SOL     OW 1489   2.138   1.051   1.406
  197SOL    HW1 1490   2.125   1.146   1.376
  197SOL    HW2 1491   2.235   1.030   1.407
  198SOL     OW 1492   3.685   1.357   3.116
  198SOL    HW1 1493   3.593   1.394   3.110
  198SOL    HW2 1494   3.743   1.418   3.171
  199SOL     OW 1495   1.041   2.268   3.841
  199SOL    HW1 1496   1.059   2.182   3.889
  199SOL    HW2 1497   1.027   2.341   3.908
  200SOL     OW 1498   0.333   2.439   0.404
  200SOL    HW1 1499   0.296   2.531   0.410
  200SOL    HW2 1500   0.378   2.416   0.491
  201SOL     OW 1501   0.724   0.489   6.147
  201SOL    HW1 1502   0.813   0.444   6.158
  201SOL    HW2 1503   0.732   0.585   6.173
  202SOL     OW 1504   4.710   0.299   6.098
  202SOL    HW1 1505   4.639   0.285   6.167
  202SOL    HW2 1506   4.681   0.373   6.036
  203SOL     OW 1507   5.321   3.168   5.576
  203SOL    HW1 1508   5.405   3.118   5.598
  203SOL    HW2 1509   5.293   3.145   5.483
  204SOL     OW 1510   6.939   0.534   6.022
  204SOL    HW1 1511   6.986   0.620   6.001
  204SOL    HW2 1512   6.998   0.477   6.079
  205SOL     OW 1513   0.758   2.981   2.319
  205SOL    HW1 1514   0.758   2.886   2.349
  205SOL    HW2 1515   0.677   3.027   2.355
  206SOL     OW 1516   0.288   3.134   0.640
  206SOL    HW1 1517   0.367   3.147   0.698
  206SOL    HW2 1518   0.205   3.136   0.695
  207SOL     OW 1519   5.086   1.937   3.655
  207SOL    HW1 1520   5.134   1.903   3.735
  207SOL    HW2 1521   4.998   1.977   3.682
  208SOL     OW 1522   1.003   4.096   4.841
  208SOL    HW1 1523   1.093   4.091   4.798
  208SOL    HW2 1524   0.943   4.026   4.802
  209SOL     OW 1525   6.593   4.683   2.367
  209SOL    HW1 1526   6.675   4.666   2.312
  209SOL    HW2 1527   6.562   4.777   2.354
  210SOL     OW 1528   4.636   2.078   0.071
  210SOL    HW1 1529   4.601   2.061   7.001
  210SOL    HW2 1530   4.559   2.101   0.132
  211SOL     OW 1531   1.171   0.375   3.237
  211SOL    HW1 1532   1.250   0.313   3.241
  211SOL    HW2 1533   1.188   0.446   3.170
  212SOL     OW 1534   1.915   4.014   3.449
  212SOL    HW1 1535   1.885   3.926   3.411
  212SOL    HW2 1536   1.838   4.060   3.493
  213SOL     OW 1537   2.184   5.135   1.177
  213SOL    HW1 1538   2.134   5.050   1.193
  213SOL    HW2 1539   2.260   5.142   1.243
  214SOL     OW 1540   4.535   5.752   2.346
  214SOL    HW1 1541   4.535   5.845   2.310
  214SOL    HW2 1542   4.579   5.751   2.436
  215SOL     OW 1543   2.482   4.873   2.135
  215SOL    HW1 1544   2.568   4.890   2.087
  215SOL    HW2 1545   2.410   4.931   2.097
  216SOL     OW 1546   1.319   0.006   2.052
  216SOL    HW1 1547   1.277   0.019   2.141
  216SOL    HW2 1548   1.417   7.009   2.063
  217SOL     OW 1549   1.671   3.819   6.737
  217SOL    HW1 1550   1.575   3.822   6.764
  217SOL    HW2 1551   1.678   3.816   6.637
  218SOL     OW 1552   0.694   2.404   5.569
  218SOL    HW1 1553   0.720   2.442   5.480
  218SOL    HW2 1554   0.769   2.417   5.634
  219SOL     OW 1555   3.790   1.354   0.848
  219SOL    HW1 1556   3.849   1.282   0.886
  219SOL    HW2 1557   3.758   1.413   0.922
  220SOL     OW 1558   3.287   6.884   0.616
  220SOL    HW1 1559   3.372   6.831   0.618
  220SOL    HW2 1560   3.233   6.863   0.698
  221SOL     OW 1561   5.372   5.626   1.300
  221SOL    HW1 1562   5.391   5.529   1.283
  221SOL    HW2 1563   5.336   5.668   1.216
  222SOL     OW 1564   2.281   4.433   6.203
  222SOL    HW1 1565   2.366   4.402   6.161
  222SOL    HW2 1566   2.213   4.360   6.201
  223SOL     OW 1567   6.378   2.406   5.309
  223SOL    HW1 1568   6.416   2.444   5.394
  223SOL    HW2 1569   6.431   2.326   5.282
  224SOL     OW 1570   2.077   1.623   6.005
  224SOL    HW1 1571   2.112   1.711   5.974
  224SOL    HW2 1572   2.153   1.562   6.026
  225SOL     OW 1573   4.882   4.107   6.195
  225SOL    HW1 1574   4.846   4.102   6.102
  225SOL    HW2 1575   4.827   4.171   6.249
  226SOL     OW 1576   1.089   1.825   6.582
  226SOL    HW1 1577   1.042   1.907   6.615
  226SOL    HW2 1578   1.062   1.807   6.488
  227SOL     OW 1579   1.941   3.708   2.103
  227SOL    HW1 1580   1.846   3.730   2.127
  227SOL    HW2 1581   1.967   3.622   2.146
  228SOL     OW 1582   1.716   0.399   2.925
  228SOL    HW1 1583   1.776   0.364   2.853
  228SOL    HW2 1584   1.621   0.395   2.894
  229SOL     OW 1585   5.050   4.951   6.677
  229SOL    HW1 1586   5.105   4.885   6.728
  229SOL    HW2 1587   5.057   4.932   6.579
  230SOL     OW 1588   4.647   5.944   4.664
  230SOL    HW1 1589   4.607   6.025   4.622
  230SOL    HW2 1590   4.597   5.921   4.748
  231SOL     OW 1591   4.898   1.451   0.149
  231SOL    HW1 1592   4.906   1.415   0.056
  231SOL    HW2 1593   4.802   1.445   0.178
  232SOL     OW 1594   1.268   2.276   6.181
  232SOL    HW1 1595   1.366   2.279   6.160
  232SOL    HW2 1596   1.249   2.338   6.258
  233SOL     OW 1597   2.547   1.429   3.483
  233SOL    HW1 1598   2.453   1.460   3.499
  233SOL    HW2 1599   2.567   1.351   3.543
  234SOL     OW 1600   4.815   1.328   6.467
  234SOL    HW1 1601   4.737   1.267   6.451
  234SOL    HW2 1602   4.781   1.421   6.485
  235SOL     OW 1603   4.892   3.114   2.218
  235SOL    HW1 1604   4.804   3.118   2.170
  235SOL    HW2 1605   4.911   3.019   2.244
  236SOL     OW 1606   4.374   3.880   6.226
  236SOL    HW1 1607   4.350   3.783   6.219
  236SOL    HW2 1608   4.291   3.934   6.238
  237SOL     OW 1609   5.778   3.923   2.400
  237SOL    HW1 1610   5.823   4.001   2.357
  237SOL    HW2 1611   5.682   3.921   2.373
  238SOL     OW 1612   6.272   1.549   0.369
  238SOL    HW1 1613   6.232   1.566   0.279
  238SOL    HW2 1614   6.204   1.568   0.440
  239SOL     OW 1615   1.632   3.915   0.380
  239SOL    HW1 1616   1.615   4.006   0.344
  239SOL    HW2 1617   1.625   3.916   0.480
  240SOL     OW 1618   5.918   3.511   3.269
  240SOL    HW1 1619   6.001   3.567   3.274
  240SOL    HW2 1620   5.861   3.529   3.349
  241SOL     OW 1621   2.815   1.145   3.981
  241SOL    HW1 1622   2.912   1.168   3.989
  241SOL    HW2 1623   2.769   1.159   4.068
  242SOL     OW 1624   3.618   4.136   3.717
  242SOL    HW1 1625   3.670   4.183   3.645
  242SOL    HW2 1626   3.522   4.132   3.691
  243SOL     OW 1627   4.714   2.683   6.320
  243SOL    HW1 1628   4.752   2.663   6.410
  243SOL    HW2 1629   4.651   2.759   6.326
  244SOL     OW 1630   6.175   3.595   6.116
  244SOL    HW1 1631   6.208   3.615   6.024
  244SOL    HW2 1632   6.176   3.496   6.132
  245SOL     OW 1633   3.386   1.764   2.804
  245SOL    HW1 1634   3.302   1.720   2.836
  245SOL    HW2 1635   3.390   1.758   2.705
  246SOL     OW 1636   5.966   1.456   3.565
  246SOL    HW1 1637   5.922   1.523   3.505
  246SOL    HW2 1638   5.991   1.501   3.651
  247SOL     OW 1639   2.251   1.655   0.739
  247SOL    HW1 1640   2.333   1.597   0.743
  247SOL    HW2 1641   2.216   1.655   0.646
  248SOL     OW 1642   1.840   1.311   2.236
  248SOL    HW1 1643   1.811   1.297   2.141
  248SOL    HW2 1644   1.935   1.282   2.246
  249SOL     OW 1645   5.533   6.718   4.920
  249SOL    HW1 1646   5.489   6.637   4.882
  249SOL    HW2 1647   5.464   6.778   4.960
  250SOL     OW 1648   3.338   2.963   0.119
  250SOL    HW1 1649   3.244   2.946   0.149
  250SOL    HW2 1650   3.351   2.923   0.028
  251SOL     OW 1651   4.371   3.785   5.480
  251SOL    HW1 1652   4.373   3.883   5.460
  251SOL    HW2 1653   4.454   3.742   5.445
  252SOL     OW 1654   6.158   6.529   5.798
  252SOL    HW1 1655   6.171   6.499   5.892
  252SOL    HW2 1656   6.103   6.462   5.749
  253SOL     OW 1657   4.300   5.425   5.836
  253SOL    HW1 1658   4.283   5.331   5.865
  253SOL    HW2 1659   4.270   5.437   5.742
  254SOL     OW 1660   6.063   2.870   4.318
  254SOL    HW1 1661   6.153   2.838   4.289
  254SOL    HW2 1662   6.027   2.809   4.389
  255SOL     OW 1663   2.128   4.685   6.260
  255SOL    HW1 1664   2.166   4.592   6.265
  255SOL    HW2 1665   2.058   4.689   6.189
  256SOL     OW 1666   4.661   3.089   5.656
  256SOL    HW1 1667   4.746   3.044   5.627
  256SOL    HW2 1668   4.624   3.142   5.580
  257SOL     OW 1669   4.982   6.241   3.142
  257SOL    HW1 1670   4.952   6.292   3.062
  257SOL    HW2 1671   4.908   6.238   3.210
  258SOL     OW 1672   2.659   3.721   6.112
  258SOL    HW1 1673   2.570   3.686   6.085
  258SOL    HW2 1674   2.714   3.740   6.031
  259SOL     OW 1675   4.134   0.209   2.719
  259SOL    HW1 1676   4.060   0.142   2.714
  259SOL    HW2 1677   4.122   0.277   2.647
  260SOL     OW 1678   4.173   5.120   3.714
  260SOL    HW1 1679   4.073   5.113   3.725
  260SOL    HW2 1680   4.199   5.083   3.625
  261SOL     OW 1681   4.515   4.986   0.453
  261SOL    HW1 1682   4.502   5.029   0.542
  261SOL    HW2 1683   4.429   4.989   0.402
  262SOL     OW 1684   2.112   4.209   0.662
  262SOL    HW1 1685   2.080   4.223   0.755
  262SOL    HW2 1686   2.148   4.117   0.652
  263SOL     OW 1687   1.157   6.761   4.014
  263SOL    HW1 1688   1.195   6.734   3.926
  263SOL    HW2 1689   1.219   6.826   4.059
  264SOL     OW 1690   0.065   3.134   6.598
  264SOL    HW1 1691   0.035   3.189   6.676
  264SOL    HW2 1692   7.022   3.061   6.582
  265SOL     OW 1693   5.761   0.084   3.996
  265SOL    HW1 1694   5.737   0.063   3.902
  265SOL    HW2 1695   5.860   0.083   4.007
  266SOL     OW 1696   4.793   2.062   5.490
  266SOL    HW1 1697   4.862   2.021   5.548
  266SOL    HW2 1698   4.834   2.085   5.401
  267SOL     OW 1699   1.354   0.723   5.150
  267SOL    HW1 1700   1.409   0.741   5.068
  267SOL    HW2 1701   1.356   0.803   5.210
  268SOL     OW 1702   3.730   1.255   1.242
  268SOL    HW1 1703   3.632   1.240   1.243
  268SOL    HW2 1704   3.773   1.193   1.176
  269SOL     OW 1705   3.508   2.288   0.183
  269SOL    HW1 1706   3.437   2.223   0.206
  269SOL    HW2 1707   3.499   2.316   0.087
  270SOL     OW 1708   0.080   6.569   0.074
  270SOL    HW1 1709   0.003   6.507   0.087
  270SOL    HW2 1710   0.165   6.517   0.069
  271SOL     OW 1711   0.103   2.091   6.412
  271SOL    HW1 1712   0.134   2.033   6.336
  271SOL    HW2 1713   0.134   2.185   6.397
  272SOL     OW 1714   3.194   6.182   3.725
  272SOL    HW1 1715   3.269   6.210   3.786
  272SOL    HW2 1716   3.223   6.102   3.672
  273SOL     OW 1717   1.912   5.205   5.300
  273SOL    HW1 1718   1.927   5.152   5.216
  273SOL    HW2 1719   1.968   5.287   5.298
  274SOL     OW 1720   4.169   0.775   4.297
  274SOL    HW1 1721   4.077   0.770   4.336
  274SOL    HW2 1722   4.183   0.866   4.256
  275SOL     OW 1723   0.221   6.592   3.071
  275SOL    HW1 1724   0.168   6.611   2.988
  275SOL    HW2 1725   0.207   6.665   3.138
  276SOL     OW 1726   0.067   0.122   4.438
  276SOL    HW1 1727   0.141   0.187   4.422
  276SOL    HW2 1728   0.072   0.088   4.532
  277SOL     OW 1729   2.060   2.948   0.777
  277SOL    HW1 1730   2.069   2.977   0.872
  277SOL    HW2 1731   2.112   2.864   0.763
  278SOL     OW 1732   0.062   2.479   2.590
  278SOL    HW1 1733   0.030   2.574   2.598
  278SOL    HW2 1734   7.006   2.417   2.591
  279SOL     OW 1735   5.694   2.707   4.121
  279SOL    HW1 1736   5.764   2.778   4.114
  279SOL    HW2 1737   5.712   2.651   4.202
  280SOL     OW 1738   1.949   4.966   2.098
  280SOL    HW1 1739   2.029   4.937   2.151
  280SOL    HW2 1740   1.902   4.885   2.063
  281SOL     OW 1741   2.248   3.736   0.954
  281SOL    HW1 1742   2.154   3.702   0.962
  281SOL    HW2 1743   2.249   3.835   0.970
  282SOL     OW 1744   3.220   1.619   5.946
  282SOL    HW1 1745   3.219   1.631   6.046
  282SOL    HW2 1746   3.240   1.524   5.924
  283SOL     OW 1747   5.230   2.895   6.517
  283SOL    HW1 1748   5.330   2.883   6.517
  283SOL    HW2 1749   5.192   2.852   6.435
  284SOL     OW 1750   0.556   3.366   3.868
  284SOL    HW1 1751   0.554   3.286   3.929
  284SOL    HW2 1752   0.463   3.401   3.857
  285SOL     OW 1753   5.888   4.509   3.707
  285SOL    HW1 1754   5.828   4.505   3.627
  285SOL    HW2 1755   5.958   4.578   3.692
  286SOL     OW 1756   3.415   3.842   6.825
  286SOL    HW1 1757   3.476   3.763   6.827
  286SOL    HW2 1758   3.327   3.817   6.865
  287SOL     OW 1759   1.967   3.701   0.925
  287SOL    HW1 1760   1.916   3.730   1.005
  287SOL    HW2 1761   1.905   3.688   0.848
  288SOL     OW 1762   4.695   1.693   7.003
  288SOL    HW1 1763   4.743   1.695   6.915
  288SOL    HW2 1764   4.719   1.610   0.030
  289SOL     OW 1765   2.735   4.650   6.065
  289SOL    HW1 1766   2.734   4.632   5.967
  289SOL    HW2 1767   2.648   4.621   6.106
  290SOL     OW 1768   0.165   2.126   5.914
  290SOL    HW1 1769   0.249   2.118   5.861
  290SOL    HW2 1770   0.153   2.222   5.942
  291SOL     OW 1771   6.812   1.894   2.570
  291SOL    HW1 1772   6.896   1.880   2.622
  291SOL    HW2 1773   6.835   1.929   2.479
  292SOL     OW 1774   1.981   0.748   3.558
  292SOL    HW1 1775   1.976   0.686   3.636
  292SOL    HW2 1776   2.039   0.709   3.487
  293SOL     OW 1777   4.231   5.130   4.346
  293SOL    HW1 1778   4.232   5.035   4.378
  293SOL    HW2 1779   4.324   5.165   4.342
  294SOL     OW 1780   5.210   6.556   6.765
  294SOL    HW1 1781   5.276   6.557   6.690
  294SOL    HW2 1782   5.156   6.641   6.763
  295SOL     OW 1783   4.886   0.846   4.009
  295SOL    HW1 1784   4.794   0.808   4.007
  295SOL    HW2 1785   4.888   0.931   3.956
  296SOL     OW 1786   2.941   2.231   3.585
  296SOL    HW1 1787   2.857   2.281   3.606
  296SOL    HW2 1788   2.939   2.199   3.490
  297SOL     OW 1789   1.337   4.100   3.199
  297SOL    HW1 1790   1.407   4.170   3.182
  297SOL    HW2 1791   1.381   4.016   3.232
  298SOL     OW 1792   6.518   4.801   1.024
  298SOL    HW1 1793   6.476   4.878   1.071
  298SOL    HW2 1794   6.530   4.725   1.088
  299SOL     OW 1795   6.753   2.388   4.815
  299SOL    HW1 1796   6.695   2.358   4.891
  299SOL    HW2 1797   6.834   2.434   4.852
  300SOL     OW 1798   6.016   0.498   3.287
  300SOL    HW1 1799   5.946   0.564   3.315
  300SOL    HW2 1800   5.973   0.411   3.265
  301SOL     OW 1801   5.712   3.925   6.217
  301SOL    HW1 1802   5.678   4.003   6.164
  301SOL    HW2 1803   5.781   3.876   6.164
  302SOL     OW 1804   0.755   6.910   3.595
  302SOL    HW1 1805   0.844   6.890   3.637
  302SOL    HW2 1806   0.702   6.968   3.657
  303SOL     OW 1807   5.006   0.750   3.674
  303SOL    HW1 1808   4.957   0.824   3.629
  303SOL    HW2 1809   5.083   0.787   3.726
  304SOL     OW 1810   2.347   0.181   3.667
  304SOL    HW1 1811   2.315   0.086   3.661
  304SOL    HW2 1812   2.447   0.183   3.669
  305SOL     OW 1813   1.455   3.303   0.685
  305SOL    HW1 1814   1.496   3.223   0.641
  305SOL    HW2 1815   1.443   3.285   0.782
  306SOL     OW 1816   2.040   1.054   3.921
  306SOL    HW1 1817   1.949   1.044   3.961
  306SOL    HW2 1818   2.035   1.111   3.839
  307SOL     OW 1819   3.875   0.150   1.263
  307SOL    HW1 1820   3.951   0.086   1.255
  307SOL    HW2 1821   3.838   0.170   1.173
  308SOL     OW 1822   0.865   5.806   3.888
  308SOL    HW1 1823   0.785   5.864   3.870
  308SOL    HW2 1824   0.862   5.727   3.826
  309SOL     OW 1825   3.296   5.303   4.898
  309SOL    HW1 1826   3.336   5.394   4.889
  309SOL    HW2 1827   3.305   5.253   4.812
  310SOL     OW 1828   0.361   6.553   5.941
  310SOL    HW1 1829   0.448   6.505   5.959
  310SOL    HW2 1830   0.286   6.488   5.948
  311SOL     OW 1831   0.476   6.459   0.972
  311SOL    HW1 1832   0.561   6.481   0.923
  311SOL    HW2 1833   0.404   6.439   0.906
  312SOL     OW 1834   4.721   2.134   4.955
  312SOL    HW1 1835   4.715   2.183   5.042
  312SOL    HW2 1836   4.642   2.156   4.899
  313SOL     OW 1837   1.396   4.141   1.610
  313SOL    HW1 1838   1.300   4.120   1.595
  313SOL    HW2 1839   1.429   4.091   1.690
  314SOL     OW 1840   3.848   6.490   0.753
  314SOL    HW1 1841   3.813   6.396   0.757
  314SOL    HW2 1842   3.817   6.541   0.832
  315SOL     OW 1843   0.523   1.986   3.181
  315SOL    HW1 1844   0.539   2.039   3.264
  315SOL    HW2 1845   0.586   1.908   3.178
  316SOL     OW 1846   2.670   2.388   3.935
  316SOL    HW1 1847   2.610   2.320   3.976
  316SOL    HW2 1848   2.763   2.351   3.928
  317SOL     OW 1849   0.045   1.515   6.710
  317SOL    HW1 1850   0.055   1.476   6.618
  317SOL    HW2 1851   0.134   1.524   6.753
  318SOL     OW 1852   2.399   4.540   0.549
  318SOL    HW1 1853   2.386   4.553   0.647
  318SOL    HW2 1854   2.427   4.446   0.530
  319SOL     OW 1855   1.578   6.167   0.735
  319SOL    HW1 1856   1.652   6.136   0.676
  319SOL    HW2 1857   1.502   6.199   0.678
  320SOL     OW 1858   5.898   3.550   0.678
  320SOL    HW1 1859   5.801   3.548   0.701
  320SOL    HW2 1860   5.916   3.484   0.605
  321SOL     OW 1861   2.101   2.776   1.374
  321SOL    HW1 1862   2.066   2.869   1.390
  321SOL    HW2 1863   2.144   2.742   1.458
  322SOL     OW 1864   3.553   2.808   5.129
  322SOL    HW1 1865   3.533   2.808   5.031
  322SOL    HW2 1866   3.652   2.814   5.143
  323SOL     OW 1867   0.502   4.149   1.819
  323SOL    HW1 1868   0.418   4.176   1.772
  323SOL    HW2 1869   0.502   4.186   1.912
  324SOL     OW 1870   0.807   2.363   4.877
  324SOL    HW1 1871   0.766   2.421   4.806
  324SOL    HW2 1872   0.893   2.402   4.908
  325SOL     OW 1873   2.250   2.478   2.066
  325SOL    HW1 1874   2.314   2.536   2.015
  325SOL    HW2 1875   2.280   2.382   2.059
  326SOL     OW 1876   1.498   5.094   6.434
  326SOL    HW1 1877   1.450   5.009   6.458
  326SOL    HW2 1878   1.470   5.167   6.497
  327SOL     OW 1879   6.352   5.353   5.052
  327SOL    HW1 1880   6.321   5.442   5.021
  327SOL    HW2 1881   6.425   5.364   5.119
  328SOL     OW 1882   3.913   5.566   2.442
  328SOL    HW1 1883   3.871   5.607   2.361
  328SOL    HW2 1884   3.841   5.540   2.507
  329SOL     OW 1885   3.438   3.793   3.046
  329SOL    HW1 1886   3.390   3.771   3.131
  329SOL    HW2 1887   3.418   3.887   3.020
  330SOL     OW 1888   3.551   0.440   1.852
  330SOL    HW1 1889   3.532   0.531   1.816
  330SOL    HW2 1890   3.468   0.401   1.891
  331SOL     OW 1891   4.987   5.422   5.979
  331SOL    HW1 1892   4.938   5.489   5.924
  331SOL    HW2 1893   5.075   5.460   6.007
  332SOL     OW 1894   3.767   1.770   2.679
  332SOL    HW1 1895   3.803   1.807   2.765
  332SOL    HW2 1896   3.689   1.825   2.650
  333SOL     OW 1897   4.086   6.095   6.464
  333SOL    HW1 1898   4.131   6.106   6.375
  333SOL    HW2 1899   4.109   6.172   6.523
  334SOL     OW 1900   4.338   6.843   2.460
  334SOL    HW1 1901   4.375   6.859   2.552
  334SOL    HW2 1902   4.407   6.866   2.391
  335SOL     OW 1903   2.764   6.894   3.340
  335SOL    HW1 1904   2.818   6.963   3.291
  335SOL    HW2 1905   2.729   6.827   3.275
  336SOL     OW 1906   2.720   0.935   3.821
  336SOL    HW1 1907   2.765   0.979   3.898
  336SOL    HW2 1908   2.622   0.954   3.825
  337SOL     OW 1909   6.702   3.777   1.213
  337SOL    HW1 1910   6.645   3.846   1.167
  337SOL    HW2 1911   6.679   3.686   1.178
  338SOL     OW 1912   3.306   3.013   1.305
  338SOL    HW1 1913   3.344   3.086   1.248
  338SOL    HW2 1914   3.237   3.052   1.367
  339SOL     OW 1915   4.361   6.370   3.116
  339SOL    HW1 1916   4.455   6.363   3.152
  339SOL    HW2 1917   4.362   6.354   3.017
  340SOL     OW 1918   4.835   3.875   4.403
  340SOL    HW1 1919   4.812   3.809   4.332
  340SOL    HW2 1920   4.926   3.853   4.440
  341SOL     OW 1921   5.309   5.297   4.546
  341SOL    HW1 1922   5.356   5.235   4.609
  341SOL    HW2 1923   5.361   5.303   4.461
  342SOL     OW 1924   6.307   4.081   0.773
  342SOL    HW1 1925   6.355   4.081   0.861
  342SOL    HW2 1926   6.344   4.009   0.715
  343SOL     OW 1927   2.809   0.211   2.495
  343SOL    HW1 1928   2.894   0.227   2.445
  343SOL    HW2 1929   2.793   0.287   2.558
  344SOL     OW 1930   3.026   5.290   0.818
  344SOL    HW1 1931   3.013   5.220   0.748
  344SOL    HW2 1932   2.937   5.332   0.839
  345SOL     OW 1933   0.796   6.811   5.134
  345SOL    HW1 1934   0.799   6.893   5.191
  345SOL    HW2 1935   0.728   6.823   5.062
  346SOL     OW 1936   1.271   0.217   2.945
  346SOL    HW1 1937   1.304   0.189   3.035
  346SOL    HW2 1938   1.300   0.310   2.925
  347SOL     OW 1939   5.008   6.810   6.465
  347SOL    HW1 1940   5.043   6.790   6.557
  347SOL    HW2 1941   4.911   6.785   6.461
  348SOL     OW 1942   3.757   5.305   1.748
  348SOL    HW1 1943   3.793   5.278   1.659
  348SOL    HW2 1944   3.706   5.390   1.739
  349SOL     OW 1945   1.413   4.640   1.989
  349SOL    HW1 1946   1.319   4.649   2.021
  349SOL    HW2 1947   1.450   4.731   1.968
  350SOL     OW 1948   4.584   3.369   1.120
  350SOL    HW1 1949   4.485   3.356   1.125
  350SOL    HW2 1950   4.629   3.302   1.179
  351SOL     OW 1951   3.546   1.968   0.372
  351SOL    HW1 1952   3.518   1.973   0.468
  351SOL    HW2 1953   3.527   2.056   0.327
  352SOL     OW 1954   3.020   0.679   6.822
  352SOL    HW1 1955   2.985   0.590   6.853
  352SOL    HW2 1956   2.946   0.730   6.778
  353SOL     OW 1957   2.295   6.311   1.454
  353SOL    HW1 1958   2.250   6.240   1.509
  353SOL    HW2 1959   2.311   6.391   1.511
  354SOL     OW 1960   4.929   1.612   1.282
  354SOL    HW1 1961   4.913   1.673   1.204
  354SOL    HW2 1962   4.847   1.611   1.340
  355SOL     OW 1963   0.190   2.344   2.391
  355SOL    HW1 1964   0.257   2.418   2.383
  355SOL    HW2 1965   0.113   2.375   2.447
  356SOL     OW 1966   4.312   5.349   3.655
  356SOL    HW1 1967   4.386   5.375   3.717
  356SOL    HW2 1968   4.260   5.273   3.695
  357SOL     OW 1969   0.402   5.173   5.432
  357SOL    HW1 1970   0.447   5.229   5.363
  357SOL    HW2 1971   0.352   5.099   5.387
  358SOL     OW 1972   5.565   0.784   1.726
  358SOL    HW1 1973   5.594   0.696   1.765
  358SOL    HW2 1974   5.624   0.807   1.648
  359SOL     OW 1975   1.265   1.547   2.105
  359SOL    HW1 1976   1.255   1.638   2.144
  359SOL    HW2 1977   1.175   1.514   2.075
  360SOL     OW 1978   4.123   6.580   0.381
  360SOL    HW1 1979   4.182   6.522   0.438
  360SOL    HW2 1980   4.172   6.663   0.357
  361SOL     OW 1981   4.617   0.221   2.787
  361SOL    HW1 1982   4.530   0.176   2.808
  361SOL    HW2 1983   4.602   0.293   2.720
  362SOL     OW 1984   3.204   3.377   0.851
  362SOL    HW1 1985   3.106   3.380   0.870
  362SOL    HW2 1986   3.253   3.428   0.921
  363SOL     OW 1987   4.277   4.668   4.063
  363SOL    HW1 1988   4.190   4.716   4.074
  363SOL    HW2 1989   4.324   4.662   4.151
  364SOL     OW 1990   1.328   5.457   5.779
  364SOL    HW1 1991   1.360   5.487   5.690
  364SOL    HW2 1992   1.313   5.536   5.838
  365SOL     OW 1993   4.756   6.460   2.056
  365SOL    HW1 1994   4.806   6.439   1.971
  365SOL    HW2 1995   4.685   6.392   2.070
  366SOL     OW 1996   5.797   0.554   6.986
  366SOL    HW1 1997   5.855   0.537   0.044
  366SOL    HW2 1998   5.705   0.519   7.005
  367SOL     OW 1999   5.343   2.990   0.890
  367SOL    HW1 2000   5.271   2.923   0.874
  367SOL    HW2 2001   5.395   2.964   0.971
  368SOL     OW 2002   1.086   4.765   5.251
  368SOL    HW1 2003   1.129   4.851   5.222
  368SOL    HW2 2004   1.153   4.708   5.298
  369SOL     OW 2005   0.922   3.939   2.164
  369SOL    HW1 2006   0.947   4.035   2.180
  369SOL    HW2 2007   0.824   3.934   2.142
  370SOL     OW 2008   3.684   1.523   6.206
  370SOL    HW1 2009   3.756   1.578   6.249
  370SOL    HW2 2010   3.658   1.564   6.118
  371SOL     OW 2011   4.135   2.774   6.411
  371SOL    HW1 2012   4.232   2.759   6.426
  371SOL    HW2 2013   4.117   2.872   6.400
  372SOL     OW 2014   1.001   6.059   6.175
  372SOL    HW1 2015   0.922   6.113   6.206
  372SOL    HW2 2016   0.982   5.961   6.190
  373SOL     OW 2017   0.088   6.696   0.327
  373SOL    HW1 2018   0.096   6.660   0.234
  373SOL    HW2 2019   0.175   6.684   0.375
  374SOL     OW 2020   3.435   0.828   1.363
  374SOL    HW1 2021   3.383   0.910   1.389
  374SOL    HW2 2022   3.523   0.855   1.324
  375SOL     OW 2023   0.086   4.559   2.956
  375SOL    HW1 2024   0.175   4.585   2.918
  375SOL    HW2 2025   0.091   4.467   2.993
  376SOL     OW 2026   2.160   2.724   3.717
  376SOL    HW1 2027   2.213   2.640   3.710
  376SOL    HW2 2028   2.202   2.786   3.783
  377SOL     OW 2029   4.913   1.759   4.008
  377SOL    HW1 2030   4.825   1.729   3.971
  377SOL    HW2 2031   4.909   1.857   4.028
  378SOL     OW 2032   5.051   2.989   4.940
  378SOL    HW1 2033   5.056   2.966   5.038
  378SOL    HW2 2034   5.143   2.985   4.901
  379SOL     OW 2035   6.419   3.414   1.023
  379SOL    HW1 2036   6.368   3.336   1.060
  379SOL    HW2 2037   6.360   3.495   1.021
  380SOL     OW 2038   0.727   2.203   0.713
  380SOL    HW1 2039   0.761   2.159   0.796
  380SOL    HW2 2040   0.803   2.224   0.652
  381SOL     OW 2041   3.680   3.530   0.814
  381SOL    HW1 2042   3.649   3.439   0.788
  381SOL    HW2 2043   3.684   3.536   0.914
  382SOL     OW 2044   2.789   6.044   0.502
  382SOL    HW1 2045   2.840   6.121   0.465
  382SOL    HW2 2046   2.853   5.976   0.539
  383SOL     OW 2047   6.276   2.607   6.934
  383SOL    HW1 2048   6.335   2.537   6.895
  383SOL    HW2 2049   6.332   2.677   6.978
  384SOL     OW 2050   1.686   5.570   5.411
  384SOL    HW1 2051   1.682   5.472   5.393
  384SOL    HW2 2052   1.643   5.619   5.335
  385SOL     OW 2053   4.635   5.351   0.650
  385SOL    HW1 2054   4.554   5.294   0.667
  385SOL    HW2 2055   4.665   5.390   0.737
  386SOL     OW 2056   3.300   6.521   5.725
  386SOL    HW1 2057   3.277   6.611   5.761
  386SOL    HW2 2058   3.399   6.515   5.712
  387SOL     OW 2059   0.377   0.387   5.302
  387SOL    HW1 2060   0.467   0.386   5.260
  387SOL    HW2 2061   0.370   0.313   5.370
  388SOL     OW 2062   0.077   2.247   4.805
  388SOL    HW1 2063   0.121   2.201   4.728
  388SOL    HW2 2064   7.019   2.196   4.833
  389SOL     OW 2065   4.189   4.420   1.532
  389SOL    HW1 2066   4.288   4.434   1.527
  389SOL    HW2 2067   4.169   4.328   1.565
  390SOL     OW 2068   3.803   2.258   0.257
  390SOL    HW1 2069   3.743   2.339   0.261
  390SOL    HW2 2070   3.796   2.217   0.166
  391SOL     OW 2071   3.335   4.213   5.382
  391SOL    HW1 2072   3.259   4.182   5.326
  391SOL    HW2 2073   3.378   4.292   5.339
  392SOL     OW 2074   1.476   3.778   1.881
  392SOL    HW1 2075   1.449   3.874   1.891
  392SOL    HW2 2076   1.405   3.729   1.832
  393SOL     OW 2077   1.092   4.401   1.578
  393SOL    HW1 2078   1.190   4.421   1.577
  393SOL    HW2 2079   1.057   4.408   1.671
  394SOL     OW 2080   6.794   0.958   6.689
  394SOL    HW1 2081   6.705   0.929   6.653
  394SOL    HW2 2082   6.818   0.900   6.767
  395SOL     OW 2083   5.506   4.750   0.806
  395SOL    HW1 2084   5.458   4.685   0.748
  395SOL    HW2 2085   5.598   4.714   0.827
  396SOL     OW 2086   2.063   0.998   1.683
  396SOL    HW1 2087   1.964   1.001   1.697
  396SOL    HW2 2088   2.082   0.996   1.585
  397SOL     OW 2089   4.390   2.021   5.199
  397SOL    HW1 2090   4.388   1.956   5.123
  397SOL    HW2 2091   4.380   2.114   5.163
  398SOL     OW 2092   1.265   1.369   4.148
  398SOL    HW1 2093   1.323   1.432   4.200
  398SOL    HW2 2094   1.264   1.397   4.052
  399SOL     OW 2095   5.645   6.407   3.909
  399SOL    HW1 2096   5.732   6.388   3.865
  399SOL    HW2 2097   5.617   6.501   3.890
  400SOL     OW 2098   5.852   0.358   4.308
  400SOL    HW1 2099   5.861   0.264   4.276
  400SOL    HW2 2100   5.937   0.386   4.353
  401SOL     OW 2101   0.377   5.008   5.840
  401SOL    HW1 2102   0.308   4.942   5.868
  401SOL    HW2 2103   0.334   5.084   5.792
  402SOL     OW 2104   5.930   1.425   3.140
  402SOL    HW1 2105   5.979   1.470   3.065
  402SOL    HW2 2106   5.985   1.428   3.223
  403SOL     OW 2107   3.211   1.220   5.343
  403SOL    HW1 2108   3.198   1.130   5.300
  403SOL    HW2 2109   3.128   1.275   5.330
  404SOL     OW 2110   3.465   5.367   3.836
  404SOL    HW1 2111   3.417   5.291   3.878
  404SOL    HW2 2112   3.553   5.335   3.799
  405SOL     OW 2113   2.061   4.894   4.238
  405SOL    HW1 2114   2.039   4.796   4.236
  405SOL    HW2 2115   2.088   4.924   4.147
  406SOL     OW 2116   0.132   6.026   5.670
  406SOL    HW1 2117   0.201   6.012   5.598
  406SOL    HW2 2118   0.160   6.103   5.728
  407SOL     OW 2119   1.910   3.109   4.154
  407SOL    HW1 2120   1.972   3.047   4.201
  407SOL    HW2 2121   1.816   3.089   4.182
  408SOL     OW 2122   2.356   1.747   3.666
  408SOL    HW1 2123   2.393   1.660   3.632
  408SOL    HW2 2124   2.302   1.790   3.593
  409SOL     OW 2125   0.377   3.694   2.594
  409SOL    HW1 2126   0.469   3.656   2.592
  409SOL    HW2 2127   0.360   3.734   2.685
  410SOL     OW 2128   1.349   1.227   1.132
  410SOL    HW1 2129   1.348   1.187   1.224
  410SOL    HW2 2130   1.444   1.242   1.103
  411SOL     OW 2131   0.115   2.906   1.483
  411SOL    HW1 2132   0.168   2.825   1.508
  411SOL    HW2 2133   0.084   2.953   1.565
  412SOL     OW 2134   1.304   5.225   2.489
  412SOL    HW1 2135   1.332   5.130   2.484
  412SOL    HW2 2136   1.233   5.235   2.559
  413SOL     OW 2137   5.880   6.032   2.429
  413SOL    HW1 2138   5.892   5.942   2.469
  413SOL    HW2 2139   5.838   6.093   2.496
  414SOL     OW 2140   1.730   6.482   2.856
  414SOL    HW1 2141   1.681   6.565   2.880
  414SOL    HW2 2142   1.723   6.465   2.758
  415SOL     OW 2143   6.323   1.057   0.592
  415SOL    HW1 2144   6.409   1.095   0.557
  415SOL    HW2 2145   6.317   0.960   0.569
  416SOL     OW 2146   5.241   3.664   5.100
  416SOL    HW1 2147   5.152   3.620   5.113
  416SOL    HW2 2148   5.276   3.695   5.189
  417SOL     OW 2149   2.102   1.897   6.444
  417SOL    HW1 2150   2.031   1.862   6.504
  417SOL    HW2 2151   2.082   1.870   6.350
  418SOL     OW 2152   4.058   6.872   4.669
  418SOL    HW1 2153   3.997   6.906   4.598
  418SOL    HW2 2154   4.014   6.882   4.759
  419SOL     OW 2155   0.245   0.011   0.712
  419SOL    HW1 2156   0.153   7.002   0.734
  419SOL    HW2 2157   0.245   0.049   0.619
  420SOL     OW 2158   4.172   0.642   6.752
  420SOL    HW1 2159   4.260   0.686   6.738
  420SOL    HW2 2160   4.112   0.702   6.804
  421SOL     OW 2161   4.793   4.013   2.391
  421SOL    HW1 2162   4.887   4.040   2.413
  421SOL    HW2 2163   4.763   4.061   2.309
  422SOL     OW 2164   5.271   2.719   1.438
  422SOL    HW1 2165   5.201   2.777   1.479
  422SOL    HW2 2166   5.350   2.713   1.499
  423SOL     OW 2167   3.555   0.886   6.409
  423SOL    HW1 2168   3.526   0.797   6.373
  423SOL    HW2 2169   3.621   0.927   6.347
  424SOL     OW 2170   1.135   3.696   4.178
  424SOL    HW1 2171   1.106   3.664   4.269
  424SOL    HW2 2172   1.223   3.742   4.186
  425SOL     OW 2173   3.084   0.867   6.591
  425SOL    HW1 2174   3.061   0.781   6.544
  425SOL    HW2 2175   3.171   0.856   6.639
  426SOL     OW 2176   2.498   2.217   4.106
  426SOL    HW1 2177   2.437   2.168   4.168
  426SOL    HW2 2178   2.570   2.261   4.159
  427SOL     OW 2179   4.182   2.326   3.033
  427SOL    HW1 2180   4.247   2.258   3.067
  427SOL    HW2 2181   4.090   2.286   3.029
  428SOL     OW 2182   2.525   2.150   5.726
  428SOL    HW1 2183   2.608   2.199   5.699
  428SOL    HW2 2184   2.550   2.066   5.775
  429SOL     OW 2185   0.009   5.292   4.327
  429SOL    HW1 2186   0.061   5.283   4.412
  429SOL    HW2 2187   7.004   5.388   4.316
  430SOL     OW 2188   1.554   0.221   3.525
  430SOL    HW1 2189   1.578   0.290   3.458
  430SOL    HW2 2190   1.634   0.164   3.546
  431SOL     OW 2191   2.377   1.939   1.706
  431SOL    HW1 2192   2.464   1.921   1.661
  431SOL    HW2 2193   2.311   1.973   1.640
  432SOL     OW 2194   5.089   1.944   1.232
  432SOL    HW1 2195   4.995   1.914   1.219
  432SOL    HW2 2196   5.130   1.892   1.307
  433SOL     OW 2197   1.495   5.318   1.060
  433SOL    HW1 2198   1.506   5.370   1.145
  433SOL    HW2 2199   1.577   5.262   1.044
  434SOL     OW 2200   4.839   5.641   3.644
  434SOL    HW1 2201   4.832   5.542   3.652
  434SOL    HW2 2202   4.749   5.679   3.621
  435SOL     OW 2203   3.764   1.796   5.675
  435SOL    HW1 2204   3.813   1.859   5.736
  435SOL    HW2 2205   3.809   1.707   5.676
  436SOL     OW 2206   4.872   6.933   3.060
  436SOL    HW1 2207   4.856   6.997   2.986
  436SOL    HW2 2208   4.791   6.929   3.119
  437SOL     OW 2209   6.362   0.961   5.072
  437SOL    HW1 2210   6.439   0.995   5.125
  437SOL    HW2 2211   6.346   0.865   5.096
  438SOL     OW 2212   0.342   4.575   2.363
  438SOL    HW1 2213   0.373   4.510   2.432
  438SOL    HW2 2214   0.266   4.536   2.311
  439SOL     OW 2215   0.014   0.679   4.749
  439SOL    HW1 2216   0.022   0.779   4.748
  439SOL    HW2 2217   6.983   0.650   4.829
  440SOL     OW 2218   4.096   1.652   0.436
  440SOL    HW1 2219   4.043   1.623   0.515
  440SOL    HW2 2220   4.110   1.751   0.439
  441SOL     OW 2221   0.357   4.480   2.639
  441SOL    HW1 2222   0.353   4.567   2.689
  441SOL    HW2 2223   0.420   4.418   2.687
  442SOL     OW 2224   5.487   2.656   5.539
  442SOL    HW1 2225   5.544   2.729   5.502
  442SOL    HW2 2226   5.409   2.697   5.587
  443SOL     OW 2227   5.115   2.947   2.054
  443SOL    HW1 2228   5.070   3.000   2.126
  443SOL    HW2 2229   5.163   3.009   1.992
  444SOL     OW 2230   4.489   1.756   1.705
  444SOL    HW1 2231   4.407   1.812   1.700
  444SOL    HW2 2232   4.501   1.722   1.798
  445SOL     OW 2233   1.520   5.086   2.719
  445SOL    HW1 2234   1.497   5.068   2.623
  445SOL    HW2 2235   1.552   5.002   2.762
  446SOL     OW 2236   5.774   0.040   1.419
  446SOL    HW1 2237   5.748   0.020   1.514
  446SOL    HW2 2238   5.819   6.982   1.379
  447SOL     OW 2239   5.890   4.687   0.622
  447SOL    HW1 2240   5.910   4.707   0.526
  447SOL    HW2 2241   5.857   4.771   0.667
  448SOL     OW 2242   3.165   6.784   3.286
  448SOL    HW1 2243   3.179   6.699   3.336
  448SOL    HW2 2244   3.193   6.861   3.343
  449SOL     OW 2245   1.470   3.580   4.944
  449SOL    HW1 2246   1.558   3.627   4.938
  449SOL    HW2 2247   1.440   3.578   5.040
  450SOL     OW 2248   0.047   4.989   3.591
  450SOL    HW1 2249   6.987   4.933   3.600
  450SOL    HW2 2250   0.123   4.944   3.639
  451SOL     OW 2251   1.034   1.981   1.348
  451SOL    HW1 2252   1.023   2.059   1.286
  451SOL    HW2 2253   1.060   1.900   1.295
  452SOL     OW 2254   4.871   5.563   2.264
  452SOL    HW1 2255   4.929   5.491   2.227
  452SOL    HW2 2256   4.815   5.603   2.191
  453SOL     OW 2257   3.442   0.940   6.654
  453SOL    HW1 2258   3.399   0.850   6.661
  453SOL    HW2 2259   3.478   0.953   6.561
  454SOL     OW 2260   6.619   3.470   6.181
  454SOL    HW1 2261   6.548   3.444   6.246
  454SOL    HW2 2262   6.661   3.557   6.210
  455SOL     OW 2263   5.287   4.966   5.681
  455SOL    HW1 2264   5.281   4.986   5.584
  455SOL    HW2 2265   5.252   4.874   5.698
  456SOL     OW 2266   2.615   1.192   2.835
  456SOL    HW1 2267   2.564   1.106   2.829
  456SOL    HW2 2268   2.601   1.245   2.751
  457SOL     OW 2269   2.328   6.678   0.353
  457SOL    HW1 2270   2.293   6.769   0.331
  457SOL    HW2 2271   2.256   6.624   0.395
  458SOL     OW 2272   3.052   1.720   3.160
  458SOL    HW1 2273   3.095   1.696   3.073
  458SOL    HW2 2274   2.955   1.739   3.145
  459SOL     OW 2275   3.811   0.256   3.237
  459SOL    HW1 2276   3.846   0.164   3.225
  459SOL    HW2 2277   3.883   0.323   3.216
  460SOL     OW 2278   0.728   1.626   6.303
  460SOL    HW1 2279   0.747   1.698   6.237
  460SOL    HW2 2280   0.640   1.643   6.347
  461SOL     OW 2281   1.346   4.947   5.615
  461SOL    HW1 2282   1.375   4.959   5.710
  461SOL    HW2 2283   1.262   4.894   5.613
  462SOL     OW 2284   3.764   3.988   4.749
  462SOL    HW1 2285   3.802   4.048   4.819
  462SOL    HW2 2286   3.704   4.041   4.689
  463SOL     OW 2287   5.115   6.262   3.610
  463SOL    HW1 2288   5.191   6.307   3.565
  463SOL    HW2 2289   5.082   6.186   3.553
  464SOL     OW 2290   3.965   5.220   6.540
  464SOL    HW1 2291   4.020   5.171   6.473
  464SOL    HW2 2292   3.997   5.314   6.547
  465SOL     OW 2293   0.760   3.985   1.177
  465SOL    HW1 2294   0.701   4.060   1.208
  465SOL    HW2 2295   0.818   3.954   1.252
  466SOL     OW 2296   3.937   5.196   4.788
  466SOL    HW1 2297   3.954   5.100   4.767
  466SOL    HW2 2298   3.841   5.219   4.768
  467SOL     OW 2299   6.173   0.054   2.171
  467SOL    HW1 2300   6.076   0.044   2.189
  467SOL    HW2 2301   6.206   0.141   2.207
  468SOL     OW 2302   3.058   6.427   6.405
  468SOL    HW1 2303   3.152   6.398   6.387
  468SOL    HW2 2304   2.998   6.394   6.331
  469SOL     OW 2305   3.008   4.913   4.669
  469SOL    HW1 2306   2.924   4.882   4.625
  469SOL    HW2 2307   3.008   5.012   4.676
  470SOL     OW 2308   2.343   4.414   2.820
  470SOL    HW1 2309   2.320   4.322   2.791
  470SOL    HW2 2310   2.372   4.413   2.915
  471SOL     OW 2311   1.553   2.549   4.177
  471SOL    HW1 2312   1.610   2.596   4.245
  471SOL    HW2 2313   1.525   2.615   4.108
  472SOL     OW 2314   5.459   3.663   6.503
  472SOL    HW1 2315   5.434   3.566   6.500
  472SOL    HW2 2316   5.394   3.711   6.562
  473SOL     OW 2317   6.101   2.628   1.985
  473SOL    HW1 2318   6.016   2.669   1.952
  473SOL    HW2 2319   6.133   2.560   1.919
  474SOL     OW 2320   4.869   5.972   4.353
  474SOL    HW1 2321   4.910   6.045   4.408
  474SOL    HW2 2322   4.922   5.888   4.364
  475SOL     OW 2323   5.870   1.559   0.400
  475SOL    HW1 2324   5.862   1.591   0.495
  475SOL    HW2 2325   5.935   1.617   0.351
  476SOL     OW 2326   1.205   3.902   0.504
  476SOL    HW1 2327   1.269   3.976   0.483
  476SOL    HW2 2328   1.112   3.939   0.508
  477SOL     OW 2329   1.588   4.869   3.970
  477SOL    HW1 2330   1.584   4.831   4.062
  477SOL    HW2 2331   1.505   4.923   3.952
  478SOL     OW 2332   4.842   6.107   2.383
  478SOL    HW1 2333   4.900   6.094   2.464
  478SOL    HW2 2334   4.897   6.090   2.301
  479SOL     OW 2335   3.531   4.066   3.442
  479SOL    HW1 2336   3.578   3.998   3.497
  479SOL    HW2 2337   3.458   4.108   3.496
  480SOL     OW 2338   0.926   0.619   2.709
  480SOL    HW1 2339   0.965   0.527   2.712
  480SOL    HW2 2340   0.907   0.644   2.615
  481SOL     OW 2341   0.433   6.838   0.646
  481SOL    HW1 2342   0.416   6.921   0.700
  481SOL    HW2 2343   0.486   6.862   0.565
  482SOL     OW 2344   4.126   4.888   2.087
  482SOL    HW1 2345   4.032   4.886   2.053
  482SOL    HW2 2346   4.159   4.794   2.100
  483SOL     OW 2347   5.951   2.416   4.036
  483SOL    HW1 2348   5.860   2.412   4.076
  483SOL    HW2 2349   5.975   2.327   3.997
  484SOL     OW 2350   2.584   4.923   3.681
  484SOL    HW1 2351   2.615   4.833   3.653
  484SOL    HW2 2352   2.502   4.914   3.737
  485SOL     OW 2353   5.743   3.012   1.192
  485SOL    HW1 2354   5.738   3.017   1.292
  485SOL    HW2 2355   5.833   2.979   1.165
  486SOL     OW 2356   5.843   6.214   6.297
  486SOL    HW1 2357   5.834   6.295   6.239
  486SOL    HW2 2358   5.798   6.137   6.252
  487SOL     OW 2359   0.170   6.812   5.736
  487SOL    HW1 2360   0.252   6.756   5.741
  487SOL    HW2 2361   0.117   6.786   5.655
  488SOL     OW 2362   2.058   5.516   3.451
  488SOL    HW1 2363   1.982   5.572   3.484
  488SOL    HW2 2364   2.023   5.444   3.391
  489SOL     OW 2365   2.115   5.590   6.066
  489SOL    HW1 2366   2.049   5.528   6.024
  489SOL    HW2 2367   2.114   5.579   6.165
  490SOL     OW 2368   0.837   4.016   4.565
  490SOL    HW1 2369   0.764   4.073   4.603
  490SOL    HW2 2370   0.855   3.939   4.627
  491SOL     OW 2371   0.299   2.724   0.352
  491SOL    HW1 2372   0.384   2.759   0.391
  491SOL    HW2 2373   0.226   2.791   0.366
  492SOL     OW 2374   1.398   2.594   5.941
  492SOL    HW1 2375   1.371   2.669   6.002
  492SOL    HW2 2376   1.317   2.557   5.896
  493SOL     OW 2377   1.814   5.312   4.996
  493SOL    HW1 2378   1.910   5.282   5.001
  493SOL    HW2 2379   1.806   5.385   4.928
  494SOL     OW 2380   2.665   6.962   4.322
  494SOL    HW1 2381   2.745   6.937   4.376
  494SOL    HW2 2382   2.678   6.932   4.228
  495SOL     OW 2383   3.757   3.961   6.484
  495SOL    HW1 2384   3.842   4.013   6.494
  495SOL    HW2 2385   3.706   3.963   6.569
  496SOL     OW 2386   4.736   1.657   3.159
  496SOL    HW1 2387   4.797   1.578   3.154
  496SOL    HW2 2388   4.773   1.731   3.103
  497SOL     OW 2389   4.881   1.579   0.476
  497SOL    HW1 2390   4.926   1.619   0.396
  497SOL    HW2 2391   4.874   1.480   0.463
  498SOL     OW 2392   0.043   6.775   1.202
  498SOL    HW1 2393   0.115   6.772   1.131
  498SOL    HW2 2394   0.080   6.817   1.284
  499SOL     OW 2395   2.921   6.238   0.362
  499SOL    HW1 2396   2.994   6.224   0.296
  499SOL    HW2 2397   2.857   6.306   0.327
  500SOL     OW 2398   5.689   1.973   6.860
  500SOL    HW1 2399   5.717   2.068   6.850
  500SOL    HW2 2400   5.660   1.937   6.772
  501SOL     OW 2401   0.951   1.402   4.565
  501SOL    HW1 2402   1.006   1.344   4.505
  501SOL    HW2 2403   0.988   1.400   4.658
  502SOL     OW 2404   2.700   4.179   6.902
  502SOL    HW1 2405   2.644   4.109   6.945
  502SOL    HW2 2406   2.661   4.269   6.919
  503SOL     OW 2407   3.834   5.044   0.655
  503SOL    HW1 2408   3.738   5.069   0.651
  503SOL    HW2 2409   3.887   5.119   0.696
  504SOL     OW 2410   6.729   5.775   1.413
  504SOL    HW1 2411   6.787   5.702   1.376
  504SOL    HW2 2412   6.749   5.788   1.510
  505SOL     OW 2413   5.085   5.775   5.351
  505SOL    HW1 2414   5.039   5.862   5.366
  505SOL    HW2 2415   5.047   5.732   5.268
  506SOL     OW 2416   4.118   5.128   2.681
  506SOL    HW1 2417   4.201   5.084   2.648
  506SOL    HW2 2418   4.038   5.080   2.645
  507SOL     OW 2419   3.241   0.652   1.499
  507SOL    HW1 2420   3.172   0.725   1.496
  507SOL    HW2 2421   3.325   0.685   1.456
  508SOL     OW 2422   0.298   4.087   2.925
  508SOL    HW1 2423   0.202   4.058   2.916
  508SOL    HW2 2424   0.311   4.133   3.013
  509SOL     OW 2425   4.437   0.380   5.918
  509SOL    HW1 2426   4.521   0.378   5.862
  509SOL    HW2 2427   4.398   0.472   5.915
  510SOL     OW 2428   6.582   3.847   6.814
  510SOL    HW1 2429   6.641   3.772   6.785
  510SOL    HW2 2430   6.611   3.879   6.904
  511SOL     OW 2431   0.377   1.966   0.533
  511SOL    HW1 2432   0.282   1.992   0.520
  511SOL    HW2 2433   0.390   1.934   0.627
  512SOL     OW 2434   0.751   2.413   3.897
  512SOL    HW1 2435   0.766   2.388   3.801
  512SOL    HW2 2436   0.705   2.502   3.902
  513SOL     OW 2437   4.927   0.903   3.246
  513SOL    HW1 2438   4.962   0.832   3.307
  513SOL    HW2 2439   4.967   0.991   3.270
  514SOL     OW 2440   5.432   0.874   4.860
  514SOL    HW1 2441   5.524   0.835   4.865
  514SOL    HW2 2442   5.371   0.808   4.815
  515SOL     OW 2443   4.080   0.310   5.887
  515SOL    HW1 2444   4.014   0.382   5.867
  515SOL    HW2 2445   4.131   0.288   5.804
  516SOL     OW 2446   2.093   5.894   2.356
  516SOL    HW1 2447   2.080   5.795   2.349
  516SOL    HW2 2448   2.160   5.915   2.428
  517SOL     OW 2449   2.993   5.793   1.593
  517SOL    HW1 2450   2.941   5.752   1.518
  517SOL    HW2 2451   2.934   5.855   1.645
  518SOL     OW 2452   2.014   4.008   4.422
  518SOL    HW1 2453   2.071   4.083   4.455
  518SOL    HW2 2454   2.067   3.923   4.425
  519SOL     OW 2455   6.932   0.559   2.083
  519SOL    HW1 2456   6.908   0.652   2.109
  519SOL    HW2 2457   6.910   0.545   1.986
  520SOL     OW 2458   1.931   4.008   0.897
  520SOL    HW1 2459   1.961   3.975   0.807
  520SOL    HW2 2460   1.961   3.944   0.968
  521SOL     OW 2461   6.600   6.305   4.730
  521SOL    HW1 2462   6.642   6.234   4.674
  521SOL    HW2 2463   6.627   6.395   4.696
  522SOL     OW 2464   3.631   4.491   1.261
  522SOL    HW1 2465   3.700   4.454   1.323
  522SOL    HW2 2466   3.561   4.421   1.243
  523SOL     OW 2467   0.881   0.108   0.679
  523SOL    HW1 2468   0.869   0.071   0.771
  523SOL    HW2 2469   0.793   0.139   0.643
  524SOL     OW 2470   6.432   1.988   1.533
  524SOL    HW1 2471   6.333   1.987   1.523
  524SOL    HW2 2472   6.470   2.063   1.479
  525SOL     OW 2473   0.653   3.373   4.399
  525SOL    HW1 2474   0.582   3.386   4.469
  525SOL    HW2 2475   0.659   3.276   4.376
  526SOL     OW 2476   3.760   0.275   3.830
  526SOL    HW1 2477   3.790   0.363   3.792
  526SOL    HW2 2478   3.830   0.240   3.892
  527SOL     OW 2479   0.375   1.484   0.445
  527SOL    HW1 2480   0.275   1.481   0.447
  527SOL    HW2 2481   0.411   1.404   0.494
  528SOL     OW 2482   6.740   2.876   4.708
  528SOL    HW1 2483   6.700   2.952   4.657
  528SOL    HW2 2484   6.770   2.805   4.644
  529SOL     OW 2485   1.860   6.953   6.915
  529SOL    HW1 2486   1.789   7.021   6.932
  529SOL    HW2 2487   1.857   6.884   6.987
  530SOL     OW 2488   3.408   4.678   1.021
  530SOL    HW1 2489   3.321   4.671   1.069
  530SOL    HW2 2490   3.412   4.609   0.949
  531SOL     OW 2491   1.928   0.276   0.515
  531SOL    HW1 2492   1.980   0.266   0.431
  531SOL    HW2 2493   1.884   0.189   0.537
  532SOL     OW 2494   1.360   2.527   6.361
  532SOL    HW1 2495   1.322   2.619   6.364
  532SOL    HW2 2496   1.291   2.461   6.391
  533SOL     OW 2497   4.025   0.260   4.020
  533SOL    HW1 2498   4.033   0.319   4.101
  533SOL    HW2 2499   4.083   0.180   4.031
  534SOL     OW 2500   1.998   4.092   2.102
  534SOL    HW1 2501   1.914   4.049   2.070
  534SOL    HW2 2502   2.072   4.077   2.036
  535SOL     OW 2503   5.050   3.539   3.891
  535SOL    HW1 2504   5.059   3.522   3.989
  535SOL    HW2 2505   5.120   3.487   3.841
  536SOL     OW 2506   6.482   6.997   2.029
  536SOL    HW1 2507   6.476   0.002   2.125
  536SOL    HW2 2508   6.423   0.034   1.974
  537SOL     OW 2509   2.959   1.836   3.646
  537SOL    HW1 2510   3.033   1.770   3.637
  537SOL    HW2 2511   2.974   1.913   3.584
  538SOL     OW 2512   3.505   4.868   5.217
  538SOL    HW1 2513   3.431   4.902   5.159
  538SOL    HW2 2514   3.516   4.927   5.296
  539SOL     OW 2515   0.794   6.936   0.084
  539SOL    HW1 2516   0.879   6.961   0.040
  539SOL    HW2 2517   0.800   6.955   0.182
  540SOL     OW 2518   1.015   0.637   4.081
  540SOL    HW1 2519   1.038   0.549   4.039
  540SOL    HW2 2520   1.070   0.649   4.163
  541SOL     OW 2521   4.752   5.766   3.865
  541SOL    HW1 2522   4.810   5.709   3.922
  541SOL    HW2 2523   4.756   5.733   3.770
  542SOL     OW 2524   3.521   0.466   5.206
  542SOL    HW1 2525   3.572   0.513   5.134
  542SOL    HW2 2526   3.542   0.368   5.205
  543SOL     OW 2527   6.452   2.156   3.945
  543SOL    HW1 2528   6.506   2.137   4.027
  543SOL    HW2 2529   6.406   2.244   3.956
  544SOL     OW 2530   1.642   3.390   1.513
  544SOL    HW1 2531   1.622   3.477   1.467
  544SOL    HW2 2532   1.624   3.315   1.449
  545SOL     OW 2533   6.165   6.941   1.632
  545SOL    HW1 2534   6.253   6.896   1.616
  545SOL    HW2 2535   6.134   6.984   1.547
  546SOL     OW 2536   0.108   4.452   2.504
  546SOL    HW1 2537   0.105   4.424   2.408
  546SOL    HW2 2538   0.203   4.454   2.535
  547SOL     OW 2539   5.000   0.899   6.386
  547SOL    HW1 2540   5.008   0.830   6.457
  547SOL    HW2 2541   5.090   0.922   6.350
  548SOL     OW 2542   4.158   2.083   0.092
  548SOL    HW1 2543   4.064   2.118   0.093
  548SOL    HW2 2544   4.210   2.130   0.020
  549SOL     OW 2545   5.670   1.135   1.560
  549SOL    HW1 2546   5.594   1.155   1.498
  549SOL    HW2 2547   5.720   1.220   1.579
  550SOL     OW 2548   0.226   6.015   3.285
  550SOL    HW1 2549   0.151   6.018   3.219
  550SOL    HW2 2550   0.311   5.994   3.238
  551SOL     OW 2551   6.184   0.438   0.331
  551SOL    HW1 2552   6.241   0.395   0.261
  551SOL    HW2 2553   6.227   0.426   0.420
  552SOL     OW 2554   0.348   6.000   5.456
  552SOL    HW1 2555   0.419   6.067   5.439
  552SOL    HW2 2556   0.386   5.908   5.452
  553SOL     OW 2557   3.283   1.473   7.003
  553SOL    HW1 2558   3.207   1.513   6.952
  553SOL    HW2 2559   3.276   1.500   0.077
  554SOL     OW 2560   5.365   6.487   1.081
  554SOL    HW1 2561   5.332   6.416   1.019
  554SOL    HW2 2562   5.320   6.574   1.061
  555SOL     OW 2563   1.449   3.766   5.732
  555SOL    HW1 2564   1.508   3.687   5.748
  555SOL    HW2 2565   1.369   3.760   5.792
  556SOL     OW 2566   6.035   0.586   3.991
  556SOL    HW1 2567   6.099   0.538   4.051
  556SOL    HW2 2568   5.942   0.573   4.022
  557SOL     OW 2569   6.755   4.203   6.472
  557SOL    HW1 2570   6.660   4.179   6.449
  557SOL    HW2 2571   6.784   4.280   6.416
  558SOL     OW 2572   3.072   3.870   2.413
  558SOL    HW1 2573   2.999   3.805   2.435
  558SOL    HW2 2574   3.135   3.829   2.347
  559SOL     OW 2575   6.710   6.360   5.799
  559SOL    HW1 2576   6.649   6.386   5.873
  559SOL    HW2 2577   6.686   6.411   5.716
  560SOL     OW 2578   6.853   3.199   4.017
  560SOL    HW1 2579   6.786   3.253   3.967
  560SOL    HW2 2580   6.847   3.104   3.989
  561SOL     OW 2581   0.803   2.884   0.499
  561SOL    HW1 2582   0.899   2.886   0.524
  561SOL    HW2 2583   0.787   2.944   0.421
  562SOL     OW 2584   4.096   0.151   4.935
  562SOL    HW1 2585   4.108   0.218   5.008
  562SOL    HW2 2586   4.131   0.189   4.849
  563SOL     OW 2587   1.528   0.679   4.077
  563SOL    HW1 2588   1.581   0.610   4.027
  563SOL    HW2 2589   1.536   0.767   4.030
  564SOL     OW 2590   6.677   1.561   6.542
  564SOL    HW1 2591   6.715   1.588   6.630
  564SOL    HW2 2592   6.704   1.467   6.521
  565SOL     OW 2593   3.314   3.327   3.698
  565SOL    HW1 2594   3.226   3.338   3.652
  565SOL    HW2 2595   3.376   3.276   3.639
  566SOL     OW 2596   2.999   0.748   3.778
  566SOL    HW1 2597   3.042   0.836   3.760
  566SOL    HW2 2598   2.907   0.747   3.740
  567SOL     OW 2599   2.313   2.497   5.500
  567SOL    HW1 2600   2.377   2.449   5.440
  567SOL    HW2 2601   2.332   2.595   5.498
  568SOL     OW 2602   0.710   6.167   6.920
  568SOL    HW1 2603   0.724   6.125   6.830
  568SOL    HW2 2604   0.741   6.262   6.918
  569SOL     OW 2605   6.087   2.507   0.082
  569SOL    HW1 2606   6.128   2.428   0.128
  569SOL    HW2 2607   6.146   2.535   0.006
  570SOL     OW 2608   2.408   0.300   6.232
  570SOL    HW1 2609   2.455   0.341   6.154
  570SOL    HW2 2610   2.410   0.363   6.309
  571SOL     OW 2611   2.174   4.940   1.512
  571SOL    HW1 2612   2.171   5.038   1.495
  571SOL    HW2 2613   2.269   4.910   1.520
  572SOL     OW 2614   2.842   0.538   4.215
  572SOL    HW1 2615   2.838   0.444   4.249
  572SOL    HW2 2616   2.935   0.558   4.186
  573SOL     OW 2617   0.280   0.826   5.478
  573SOL    HW1 2618   0.351   0.895   5.491
  573SOL    HW2 2619   0.297   0.749   5.540
  574SOL     OW 2620   2.371   1.796   5.522
  574SOL    HW1 2621   2.388   1.872   5.460
  574SOL    HW2 2622   2.273   1.782   5.532
  575SOL     OW 2623   4.092   2.999   0.322
  575SOL    HW1 2624   4.064   3.015   0.417
  575SOL    HW2 2625   4.164   2.929   0.320
  576SOL     OW 2626   2.384   2.732   2.656
  576SOL    HW1 2627   2.409   2.717   2.751
  576SOL    HW2 2628   2.297   2.687   2.637
  577SOL     OW 2629   0.758   1.022   1.668
  577SOL    HW1 2630   0.783   0.970   1.750
  577SOL    HW2 2631   0.681   0.977   1.623
  578SOL     OW 2632   2.739   6.837   6.536
  578SOL    HW1 2633   2.703   6.749   6.568
  578SOL    HW2 2634   2.664   6.902   6.525
  579SOL     OW 2635   2.110   3.783   1.931
  579SOL    HW1 2636   2.045   3.772   2.006
  579SOL    HW2 2637   2.180   3.713   1.938
  580SOL     OW 2638   4.608   5.704   4.496
  580SOL    HW1 2639   4.619   5.741   4.404
  580SOL    HW2 2640   4.581   5.777   4.558
  581SOL     OW 2641   1.591   2.718   4.473
  581SOL    HW1 2642   1.495   2.695   4.457
  581SOL    HW2 2643   1.608   2.721   4.572
  582SOL     OW 2644   4.778   5.330   4.163
  582SOL    HW1 2645   4.837   5.348   4.085
  582SOL    HW2 2646   4.708   5.262   4.138
  583SOL     OW 2647   4.220   6.041   5.685
  583SOL    HW1 2648   4.139   6.093   5.714
  583SOL    HW2 2649   4.208   5.945   5.709
  584SOL     OW 2650   5.034   0.825   4.892
  584SOL    HW1 2651   5.005   0.786   4.979
  584SOL    HW2 2652   5.025   0.925   4.896
  585SOL     OW 2653   2.990   0.605   1.958
  585SOL    HW1 2654   3.061   0.676   1.960
  585SOL    HW2 2655   3.032   0.516   1.974
  586SOL     OW 2656   3.967   0.710   0.844
  586SOL    HW1 2657   3.919   0.627   0.817
  586SOL    HW2 2658   3.901   0.779   0.875
  587SOL     OW 2659   5.009   1.844   1.804
  587SOL    HW1 2660   5.076   1.811   1.870
  587SOL    HW2 2661   4.947   1.908   1.848
  588SOL     OW 2662   2.086   5.490   3.061
  588SOL    HW1 2663   2.081   5.588   3.078
  588SOL    HW2 2664   1.995   5.449   3.075
  589SOL     OW 2665   3.053   5.590   1.280
  589SOL    HW1 2666   2.979   5.526   1.263
  589SOL    HW2 2667   3.017   5.684   1.280
  590SOL     OW 2668   4.517   1.934   0.639
  590SOL    HW1 2669   4.589   1.906   0.703
  590SOL    HW2 2670   4.428   1.927   0.684
  591SOL     OW 2671   3.287   6.160   4.297
  591SOL    HW1 2672   3.362   6.192   4.239
  591SOL    HW2 2673   3.282   6.218   4.379
  592SOL     OW 2674   3.594   1.951   4.152
  592SOL    HW1 2675   3.602   2.007   4.235
  592SOL    HW2 2676   3.604   2.010   4.072
  593SOL     OW 2677   2.816   2.274   6.580
  593SOL    HW1 2678   2.847   2.193   6.530
  593SOL    HW2 2679   2.861   2.355   6.543
  594SOL     OW 2680   4.741   1.280   1.687
  594SOL    HW1 2681   4.793   1.274   1.602
  594SOL    HW2 2682   4.804   1.302   1.762
  595SOL     OW 2683   5.887   5.781   2.559
  595SOL    HW1 2684   5.810   5.752   2.615
  595SOL    HW2 2685   5.971   5.779   2.615
  596SOL     OW 2686   6.027   4.916   4.226
  596SOL    HW1 2687   5.931   4.940   4.212
  596SOL    HW2 2688   6.063   4.965   4.305
  597SOL     OW 2689   2.405   0.501   6.454
  597SOL    HW1 2690   2.490   0.552   6.444
  597SOL    HW2 2691   2.332   0.562   6.483
  598SOL     OW 2692   2.970   3.663   4.113
  598SOL    HW1 2693   2.965   3.583   4.054
  598SOL    HW2 2694   2.925   3.644   4.200
  599SOL     OW 2695   1.204   4.773   1.617
  599SOL    HW1 2696   1.223   4.686   1.572
  599SOL    HW2 2697   1.280   4.796   1.678
  600SOL     OW 2698   6.438   3.676   4.986
  600SOL    HW1 2699   6.395   3.727   4.911
  600SOL    HW2 2700   6.536   3.697   4.988
  601SOL     OW 2701   1.547   6.390   5.536
  601SOL    HW1 2702   1.476   6.426   5.597
  601SOL    HW2 2703   1.529   6.293   5.519
  602SOL     OW 2704   2.023   6.838   3.880
  602SOL    HW1 2705   2.067   6.807   3.964
  602SOL    HW2 2706   2.063   6.924   3.850
  603SOL     OW 2707   1.239   1.592   4.915
  603SOL    HW1 2708   1.166   1.548   4.968
  603SOL    HW2 2709   1.269   1.674   4.963
  604SOL     OW 2710   6.496   2.167   2.175
  604SOL    HW1 2711   6.495   2.251   2.230
  604SOL    HW2 2712   6.498   2.088   2.236
  605SOL     OW 2713   6.734   6.616   1.444
  605SOL    HW1 2714   6.797   6.576   1.511
  605SOL    HW2 2715   6.712   6.710   1.470
  606SOL     OW 2716   3.896   6.976   4.469
  606SOL    HW1 2717   3.883   0.052   4.458
  606SOL    HW2 2718   3.821   6.928   4.423
  607SOL     OW 2719   1.612   4.104   6.168
  607SOL    HW1 2720   1.574   4.044   6.098
  607SOL    HW2 2721   1.620   4.197   6.131
  608SOL     OW 2722   2.835   1.225   5.579
  608SOL    HW1 2723   2.840   1.134   5.537
  608SOL    HW2 2724   2.820   1.215   5.677
  609SOL     OW 2725   3.399   2.812   1.973
  609SOL    HW1 2726   3.402   2.725   1.922
  609SOL    HW2 2727   3.326   2.869   1.937
  610SOL     OW 2728   4.804   3.494   1.617
  610SOL    HW1 2729   4.875   3.529   1.556
  610SOL    HW2 2730   4.835   3.408   1.658
  611SOL     OW 2731   3.087   0.406   2.675
  611SOL    HW1 2732   3.114   0.334   2.739
  611SOL    HW2 2733   3.164   0.466   2.656
  612SOL     OW 2734   4.114   4.842   4.942
  612SOL    HW1 2735   4.198   4.802   4.906
  612SOL    HW2 2736   4.041   4.833   4.874
  613SOL     OW 2737   4.528   4.971   5.414
  613SOL    HW1 2738   4.466   5.037   5.372
  613SOL    HW2 2739   4.583   5.018   5.484
  614SOL     OW 2740   3.556   5.771   6.046
  614SOL    HW1 2741   3.465   5.790   6.009
  614SOL    HW2 2742   3.624   5.783   5.975
  615SOL     OW 2743   1.079   5.037   2.172
  615SOL    HW1 2744   0.999   4.978   2.161
  615SOL    HW2 2745   1.052   5.122   2.218
  616SOL     OW 2746   6.248   3.593   3.413
  616SOL    HW1 2747   6.234   3.646   3.497
  616SOL    HW2 2748   6.303   3.512   3.434
  617SOL     OW 2749   3.341   6.374   6.395
  617SOL    HW1 2750   3.365   6.436   6.321
  617SOL    HW2 2751   3.397   6.291   6.390
  618SOL     OW 2752   1.374   1.053   2.791
  618SOL    HW1 2753   1.356   1.091   2.701
  618SOL    HW2 2754   1.386   0.954   2.785
  619SOL     OW 2755   0.444   0.993   0.001
  619SOL    HW1 2756   0.500   1.068   6.988
  619SOL    HW2 2757   0.441   0.998   0.101
  620SOL     OW 2758   4.574   3.733   1.338
  620SOL    HW1 2759   4.638   3.695   1.273
  620SOL    HW2 2760   4.537   3.819   1.303
  621SOL     OW 2761   0.604   4.855   1.470
  621SOL    HW1 2762   0.635   4.800   1.547
  621SOL    HW2 2763   0.683   4.901   1.428
  622SOL     OW 2764   1.238   0.346   0.039
  622SOL    HW1 2765   1.144   0.378   0.029
  622SOL    HW2 2766   1.241   0.247   0.024
  623SOL     OW 2767   0.502   4.741   6.227
  623SOL    HW1 2768   0.403   4.755   6.219
  623SOL    HW2 2769   0.543   4.818   6.275
  624SOL     OW 2770   0.849   2.276   1.951
  624SOL    HW1 2771   0.815   2.359   1.995
  624SOL    HW2 2772   0.933   2.246   1.997
  625SOL     OW 2773   2.024   1.227   1.862
  625SOL    HW1 2774   2.067   1.206   1.775
  625SOL    HW2 2775   2.030   1.326   1.879
  626SOL     OW 2776   3.501   6.626   4.491
  626SOL    HW1 2777   3.466   6.595   4.402
  626SOL    HW2 2778   3.583   6.681   4.477
  627SOL     OW 2779   4.513   0.809   6.981
  627SOL    HW1 2780   4.561   0.762   6.907
  627SOL    HW2 2781   4.415   0.813   6.960
  628SOL     OW 2782   5.179   4.026   3.808
  628SOL    HW1 2783   5.167   3.948   3.870
  628SOL    HW2 2784   5.223   4.101   3.857
  629SOL     OW 2785   1.714   6.143   0.428
  629SOL    HW1 2786   1.686   6.236   0.403
  629SOL    HW2 2787   1.792   6.149   0.492
  630SOL     OW 2788   3.805   2.024   1.221
  630SOL    HW1 2789   3.812   2.034   1.122
  630SOL    HW2 2790   3.770   1.933   1.243
  631SOL     OW 2791   2.514   6.776   4.885
  631SOL    HW1 2792   2.492   6.717   4.963
  631SOL    HW2 2793   2.431   6.820   4.852
  632SOL     OW 2794   2.023   1.277   1.017
  632SOL    HW1 2795   1.931   1.315   1.028
  632SOL    HW2 2796   2.018   1.196   0.958
  633SOL     OW 2797   2.224   0.093   5.939
  633SOL    HW1 2798   2.271   0.116   5.854
  633SOL    HW2 2799   2.137   0.048   5.918
  634SOL     OW 2800   3.432   6.151   0.397
  634SOL    HW1 2801   3.416   6.201   0.312
  634SOL    HW2 2802   3.529   6.155   0.421
  635SOL     OW 2803   2.726   0.801   3.068
  635SOL    HW1 2804   2.745   0.755   3.155
  635SOL    HW2 2805   2.731   0.900   3.081
  636SOL     OW 2806   5.342   5.472   0.171
  636SOL    HW1 2807   5.361   5.389   0.224
  636SOL    HW2 2808   5.398   5.472   0.088
  637SOL     OW 2809   5.311   4.607   0.674
  637SOL    HW1 2810   5.254   4.525   0.668
  637SOL    HW2 2811   5.312   4.653   0.585
  638SOL     OW 2812   5.465   1.465   2.641
  638SOL    HW1 2813   5.374   1.440   2.608
  638SOL    HW2 2814   5.464   1.472   2.741
  639SOL     OW 2815   4.239   4.651   2.135
  639SOL    HW1 2816   4.336   4.626   2.139
  639SOL    HW2 2817   4.198   4.610   2.054
  640SOL     OW 2818   3.053   4.397   6.032
  640SOL    HW1 2819   3.011   4.414   5.943
  640SOL    HW2 2820   3.011   4.456   6.100
  641SOL     OW 2821   6.727   5.817   4.929
  641SOL    HW1 2822   6.727   5.831   4.830
  641SOL    HW2 2823   6.795   5.748   4.953
  642SOL     OW 2824   1.699   4.736   5.809
  642SOL    HW1 2825   1.696   4.692   5.719
  642SOL    HW2 2826   1.745   4.824   5.802
  643SOL     OW 2827   5.571   6.217   4.702
  643SOL    HW1 2828   5.485   6.222   4.753
  643SOL    HW2 2829   5.560   6.152   4.626
  644SOL     OW 2830   1.894   6.341   2.066
  644SOL    HW1 2831   1.917   6.256   2.017
  644SOL    HW2 2832   1.939   6.341   2.156
  645SOL     OW 2833   5.789   3.610   3.558
  645SOL    HW1 2834   5.756   3.516   3.543
  645SOL    HW2 2835   5.872   3.607   3.613
  646SOL     OW 2836   1.429   1.627   4.599
  646SOL    HW1 2837   1.339   1.669   4.610
  646SOL    HW2 2838   1.495   1.697   4.572
  647SOL     OW 2839   5.457   3.328   0.465
  647SOL    HW1 2840   5.391   3.401   0.445
  647SOL    HW2 2841   5.429   3.244   0.420
  648SOL     OW 2842   5.641   2.243   2.807
  648SOL    HW1 2843   5.674   2.337   2.795
  648SOL    HW2 2844   5.642   2.219   2.904
  649SOL     OW 2845   4.149   4.584   1.738
  649SOL    HW1 2846   4.152   4.519   1.662
  649SOL    HW2 2847   4.214   4.557   1.809
  650SOL     OW 2848   3.802   4.087   1.013
  650SOL    HW1 2849   3.733   4.015   1.016
  650SOL    HW2 2850   3.880   4.057   0.958
  651SOL     OW 2851   0.889   5.404   6.185
  651SOL    HW1 2852   0.884   5.488   6.130
  651SOL    HW2 2853   0.799   5.360   6.186
  652SOL     OW 2854   4.076   1.324   2.415
  652SOL    HW1 2855   4.084   1.423   2.421
  652SOL    HW2 2856   4.142   1.281   2.477
  653SOL     OW 2857   3.970   5.153   3.337
  653SOL    HW1 2858   4.063   5.138   3.370
  653SOL    HW2 2859   3.974   5.201   3.249
  654SOL     OW 2860   6.483   5.029   0.439
  654SOL    HW1 2861   6.531   5.059   0.356
  654SOL    HW2 2862   6.510   4.935   0.461
  655SOL     OW 2863   0.569   0.581   0.253
  655SOL    HW1 2864   0.494   0.516   0.254
  655SOL    HW2 2865   0.632   0.562   0.328
  656SOL     OW 2866   2.671   6.386   2.105
  656SOL    HW1 2867   2.736   6.387   2.182
  656SOL    HW2 2868   2.610   6.464   2.112
  657SOL     OW 2869   3.915   1.473   6.891
  657SOL    HW1 2870   3.973   1.392   6.901
  657SOL    HW2 2871   3.850   1.459   6.816
  658SOL     OW 2872   3.824   5.146   6.131
  658SOL    HW1 2873   3.747   5.158   6.068
  658SOL    HW2 2874   3.845   5.049   6.141
  659SOL     OW 2875   2.567   0.104   6.575
  659SOL    HW1 2876   2.529   0.038   6.639
  659SOL    HW2 2877   2.655   0.136   6.609
  660SOL     OW 2878   4.004   5.419   3.172
  660SOL    HW1 2879   4.006   5.512   3.135
  660SOL    HW2 2880   4.024   5.422   3.270
  661SOL     OW 2881   5.625   5.488   2.785
  661SOL    HW1 2882   5.688   5.523   2.854
  661SOL    HW2 2883   5.649   5.525   2.695
  662SOL     OW 2884   3.582   1.243   0.425
  662SOL    HW1 2885   3.585   1.293   0.512
  662SOL    HW2 2886   3.668   1.192   0.413
  663SOL     OW 2887   2.288   4.718   4.918
  663SOL    HW1 2888   2.314   4.812   4.937
  663SOL    HW2 2889   2.342   4.656   4.975
  664SOL     OW 2890   6.171   0.877   0.154
  664SOL    HW1 2891   6.209   0.964   0.185
  664SOL    HW2 2892   6.084   0.860   0.199
  665SOL     OW 2893   2.272   5.185   2.603
  665SOL    HW1 2894   2.292   5.125   2.680
  665SOL    HW2 2895   2.172   5.192   2.592
  666SOL     OW 2896   4.019   0.897   1.809
  666SOL    HW1 2897   3.963   0.979   1.800
  666SOL    HW2 2898   3.980   0.823   1.753
  667SOL     OW 2899   1.044   6.642   2.279
  667SOL    HW1 2900   1.044   6.543   2.289
  667SOL    HW2 2901   1.116   6.669   2.214
  668SOL     OW 2902   5.322   3.573   0.358
  668SOL    HW1 2903   5.324   3.616   0.267
  668SOL    HW2 2904   5.400   3.606   0.412
  669SOL     OW 2905   4.850   1.504   2.518
  669SOL    HW1 2906   4.893   1.513   2.429
  669SOL    HW2 2907   4.759   1.544   2.516
  670SOL     OW 2908   2.792   1.888   2.908
  670SOL    HW1 2909   2.879   1.856   2.870
  670SOL    HW2 2910   2.736   1.809   2.933
  671SOL     OW 2911   3.463   6.784   0.989
  671SOL    HW1 2912   3.430   6.718   0.923
  671SOL    HW2 2913   3.493   6.867   0.941
  672SOL     OW 2914   1.203   6.717   2.056
  672SOL    HW1 2915   1.292   6.738   2.015
  672SOL    HW2 2916   1.131   6.751   1.996
  673SOL     OW 2917   5.759   6.670   0.540
  673SOL    HW1 2918   5.765   6.644   0.443
  673SOL    HW2 2919   5.745   6.587   0.595
  674SOL     OW 2920   6.664   1.322   4.393
  674SOL    HW1 2921   6.578   1.273   4.402
  674SOL    HW2 2922   6.730   1.287   4.460
  675SOL     OW 2923   6.965   2.759   2.643
  675SOL    HW1 2924   6.915   2.835   2.685
  675SOL    HW2 2925   0.037   2.788   2.625
  676SOL     OW 2926   2.575   5.812   5.825
  676SOL    HW1 2927   2.553   5.904   5.795
  676SOL    HW2 2928   2.671   5.809   5.854
  677SOL     OW 2929   5.097   1.290   0.903
  677SOL    HW1 2930   5.187   1.299   0.861
  677SOL    HW2 2931   5.089   1.201   0.947
  678SOL     OW 2932   1.754   5.067   4.841
  678SOL    HW1 2933   1.809   5.009   4.901
  678SOL    HW2 2934   1.735   5.154   4.886
  679SOL     OW 2935   5.229   1.965   5.037
  679SOL    HW1 2936   5.130   1.956   5.047
  679SOL    HW2 2937   5.274   1.919   5.114
  680SOL     OW 2938   5.363   0.063   4.360
  680SOL    HW1 2939   5.397   0.061   4.454
  680SOL    HW2 2940   5.333   0.156   4.339
  681SOL     OW 2941   4.338   5.025   2.558
  681SOL    HW1 2942   4.363   4.937   2.518
  681SOL    HW2 2943   4.419   5.068   2.598
  682SOL     OW 2944   0.503   0.858   3.196
  682SOL    HW1 2945   0.469   0.939   3.149
  682SOL    HW2 2946   0.514   0.783   3.130
  683SOL     OW 2947   4.143   3.782   1.469
  683SOL    HW1 2948   4.123   3.686   1.489
  683SOL    HW2 2949   4.217   3.814   1.529
  684SOL     OW 2950   6.579   0.869   6.560
  684SOL    HW1 2951   6.513   0.882   6.487
  684SOL    HW2 2952   6.546   0.797   6.622
  685SOL     OW 2953   3.426   0.353   2.893
  685SOL    HW1 2954   3.484   0.418   2.843
  685SOL    HW2 2955   3.421   0.267   2.842
  686SOL     OW 2956   4.891   0.534   4.813
  686SOL    HW1 2957   4.800   0.571   4.794
  686SOL    HW2 2958   4.941   0.598   4.872
  687SOL     OW 2959   0.774   1.995   3.902
  687SOL    HW1 2960   0.849   1.978   3.839
  687SOL    HW2 2961   0.702   1.926   3.889
  688SOL     OW 2962   6.594   1.093   0.053
  688SOL    HW1 2963   6.563   1.012   0.002
  688SOL    HW2 2964   6.682   1.073   0.097
  689SOL     OW 2965   1.539   5.572   5.634
  689SOL    HW1 2966   1.594   5.582   5.552
  689SOL    HW2 2967   1.466   5.640   5.634
  690SOL     OW 2968   5.623   3.546   2.418
  690SOL    HW1 2969   5.633   3.531   2.517
  690SOL    HW2 2970   5.577   3.633   2.402
  691SOL     OW 2971   5.374   1.572   0.869
  691SOL    HW1 2972   5.326   1.547   0.785
  691SOL    HW2 2973   5.309   1.606   0.936
  692SOL     OW 2974   2.223   0.615   4.798
  692SOL    HW1 2975   2.322   0.627   4.790
  692SOL    HW2 2976   2.201   0.518   4.805
  693SOL     OW 2977   5.331   6.298   3.461
  693SOL    HW1 2978   5.386   6.224   3.420
  693SOL    HW2 2979   5.391   6.375   3.482
  694SOL     OW 2980   4.542   6.716   5.281
  694SOL    HW1 2981   4.456   6.762   5.260
  694SOL    HW2 2982   4.617   6.782   5.275
  695SOL     OW 2983   3.549   0.201   4.104
  695SOL    HW1 2984   3.624   0.140   4.130
  695SOL    HW2 2985   3.586   0.284   4.062
  696SOL     OW 2986   5.429   4.440   3.220
  696SOL    HW1 2987   5.470   4.466   3.307
  696SOL    HW2 2988   5.399   4.345   3.223
  697SOL     OW 2989   1.091   5.929   2.044
  697SOL    HW1 2990   1.018   5.991   2.014
  697SOL    HW2 2991   1.180   5.969   2.020
  698SOL     OW 2992   5.985   6.481   0.404
  698SOL    HW1 2993   5.996   6.543   0.326
  698SOL    HW2 2994   5.900   6.430   0.396
  699SOL     OW 2995   2.565   2.838   1.022
  699SOL    HW1 2996   2.633   2.817   0.951
  699SOL    HW2 2997   2.580   2.778   1.101
  700SOL     OW 2998   3.381   0.385   3.823
  700SOL    HW1 2999   3.329   0.307   3.857
  700SOL    HW2 3000   3.318   0.455   3.789
  701SOL     OW 3001   5.286   4.996   1.561
  701SOL    HW1 3002   5.206   4.946   1.529
  701SOL    HW2 3003   5.369   4.947   1.533
  702SOL     OW 3004   3.212   0.987   4.605
  702SOL    HW1 3005   3.309   0.995   4.629
  702SOL    HW2 3006   3.198   1.017   4.511
  703SOL     OW 3007   3.006   2.053   6.168
  703SOL    HW1 3008   3.086   2.039   6.110
  703SOL    HW2 3009   2.933   1.991   6.139
  704SOL     OW 3010   1.668   2.584   5.538
  704SOL    HW1 3011   1.673   2.600   5.637
  704SOL    HW2 3012   1.645   2.670   5.492
  705SOL     OW 3013   0.266   6.678   5.187
  705SOL    HW1 3014   0.223   6.718   5.268
  705SOL    HW2 3015   0.220   6.592   5.164
  706SOL     OW 3016   4.454   1.203   5.119
  706SOL    HW1 3017   4.413   1.294   5.118
  706SOL    HW2 3018   4.464   1.169   5.025
  707SOL     OW 3019   3.366   5.367   4.233
  707SOL    HW1 3020   3.374   5.464   4.254
  707SOL    HW2 3021   3.303   5.355   4.156
  708SOL     OW 3022   4.053   6.521   4.054
  708SOL    HW1 3023   4.070   6.520   4.153
  708SOL    HW2 3024   3.998   6.442   4.029
  709SOL     OW 3025   2.958   6.939   1.338
  709SOL    HW1 3026   2.911   6.970   1.421
  709SOL    HW2 3027   2.930   6.995   1.261
  710SOL     OW 3028   4.606   2.783   1.768
  710SOL    HW1 3029   4.705   2.791   1.773
  710SOL    HW2 3030   4.565   2.874   1.770
  711SOL     OW 3031   0.183   2.226   6.755
  711SOL    HW1 3032   0.241   2.242   6.676
  711SOL    HW2 3033   0.096   2.187   6.726
  712SOL     OW 3034   5.161   4.340   0.634
  712SOL    HW1 3035   5.113   4.398   0.568
  712SOL    HW2 3036   5.105   4.262   0.658
  713SOL     OW 3037   3.845   2.673   5.299
  713SOL    HW1 3038   3.825   2.768   5.273
  713SOL    HW2 3039   3.921   2.639   5.245
  714SOL     OW 3040   5.614   5.580   3.206
  714SOL    HW1 3041   5.683   5.584   3.278
  714SOL    HW2 3042   5.638   5.510   3.139
  715SOL     OW 3043   6.287   5.245   5.423
  715SOL    HW1 3044   6.341   5.161   5.423
  715SOL    HW2 3045   6.347   5.324   5.433
  716SOL     OW 3046   1.696   2.069   3.164
  716SOL    HW1 3047   1.684   2.123   3.080
  716SOL    HW2 3048   1.762   2.115   3.224
  717SOL     OW 3049   5.179   3.965   4.263
  717SOL    HW1 3050   5.117   4.036   4.229
  717SOL    HW2 3051   5.214   3.912   4.185
  718SOL     OW 3052   5.863   1.600   5.293
  718SOL    HW1 3053   5.883   1.654   5.375
  718SOL    HW2 3054   5.912   1.639   5.215
  719SOL     OW 3055   5.288   0.371   3.322
  719SOL    HW1 3056   5.222   0.329   3.385
  719SOL    HW2 3057   5.295   0.316   3.240
  720SOL     OW 3058   3.029   1.357   0.697
  720SOL    HW1 3059   3.008   1.267   0.659
  720SOL    HW2 3060   3.128   1.363   0.714
  721SOL     OW 3061   6.907   1.698   3.225
  721SOL    HW1 3062   6.851   1.616   3.216
  721SOL    HW2 3063   6.991   1.676   3.274
  722SOL     OW 3064   4.713   6.663   0.679
  722SOL    HW1 3065   4.773   6.611   0.618
  722SOL    HW2 3066   4.768   6.715   0.744
  723SOL     OW 3067   2.700   5.546   3.826
  723SOL    HW1 3068   2.702   5.568   3.923
  723SOL    HW2 3069   2.613   5.501   3.804
  724SOL     OW 3070   0.798   1.322   4.306
  724SOL    HW1 3071   0.844   1.311   4.218
  724SOL    HW2 3072   0.864   1.356   4.374
  725SOL     OW 3073   1.439   4.025   2.774
  725SOL    HW1 3074   1.349   4.069   2.768
  725SOL    HW2 3075   1.434   3.935   2.732
  726SOL     OW 3076   1.678   4.051   0.663
  726SOL    HW1 3077   1.767   4.073   0.702
  726SOL    HW2 3078   1.648   3.961   0.696
  727SOL     OW 3079   4.480   5.865   5.326
  727SOL    HW1 3080   4.500   5.962   5.344
  727SOL    HW2 3081   4.394   5.857   5.276
  728SOL     OW 3082   6.744   3.691   3.705
  728SOL    HW1 3083   6.793   3.762   3.755
  728SOL    HW2 3084   6.794   3.604   3.713
  729SOL     OW 3085   0.370   4.353   1.436
  729SOL    HW1 3086   0.293   4.360   1.373
  729SOL    HW2 3087   0.393   4.444   1.470
  730SOL     OW 3088   4.495   0.837   3.339
  730SOL    HW1 3089   4.580   0.882   3.311
  730SOL    HW2 3090   4.463   0.776   3.266
  731SOL     OW 3091   4.605   5.027   5.839
  731SOL    HW1 3092   4.578   5.122   5.857
  731SOL    HW2 3093   4.534   4.965   5.871
  732SOL     OW 3094   4.849   1.837   4.680
  732SOL    HW1 3095   4.930   1.790   4.714
  732SOL    HW2 3096   4.818   1.795   4.595
  733SOL     OW 3097   6.164   6.175   3.054
  733SOL    HW1 3098   6.160   6.123   3.140
  733SOL    HW2 3099   6.128   6.120   2.979
  734SOL     OW 3100   5.968   6.495   2.326
  734SOL    HW1 3101   5.917   6.517   2.408
  734SOL    HW2 3102   5.911   6.442   2.263
  735SOL     OW 3103   4.534   0.529   2.429
  735SOL    HW1 3104   4.468   0.603   2.442
  735SOL    HW2 3105   4.627   0.566   2.432
  736SOL     OW 3106   1.607   1.591   3.888
  736SOL    HW1 3107   1.518   1.637   3.879
  736SOL    HW2 3108   1.656   1.628   3.967
  737SOL     OW 3109   4.567   1.204   6.114
  737SOL    HW1 3110   4.515   1.222   6.198
  737SOL    HW2 3111   4.643   1.269   6.107
  738SOL     OW 3112   1.583   4.574   0.764
  738SOL    HW1 3113   1.590   4.482   0.725
  738SOL    HW2 3114   1.553   4.567   0.859
  739SOL     OW 3115   3.065   0.129   4.182
  739SOL    HW1 3116   3.009   0.065   4.128
  739SOL    HW2 3117   3.007   0.204   4.214
  740SOL     OW 3118   5.274   3.754   2.655
  740SOL    HW1 3119   5.275   3.664   2.612
  740SOL    HW2 3120   5.284   3.744   2.754
  741SOL     OW 3121   2.330   1.036   3.066
  741SOL    HW1 3122   2.277   0.992   3.139
  741SOL    HW2 3123   2.302   1.131   3.057
  742SOL     OW 3124   2.080   6.907   1.702
  742SOL    HW1 3125   2.089   6.985   1.763
  742SOL    HW2 3126   1.987   6.905   1.664
  743SOL     OW 3127   1.069   5.963   3.623
  743SOL    HW1 3128   1.085   6.036   3.689
  743SOL    HW2 3129   1.129   5.976   3.544
  744SOL     OW 3130   4.938   1.899   0.091
  744SOL    HW1 3131   4.984   1.981   0.057
  744SOL    HW2 3132   4.848   1.891   0.047
  745SOL     OW 3133   2.755   6.730   5.212
  745SOL    HW1 3134   2.834   6.692   5.164
  745SOL    HW2 3135   2.779   6.820   5.249
  746SOL     OW 3136   6.853   4.755   5.849
  746SOL    HW1 3137   6.876   4.775   5.944
  746SOL    HW2 3138   6.813   4.664   5.843
  747SOL     OW 3139   5.019   5.946   3.212
  747SOL    HW1 3140   5.038   6.043   3.196
  747SOL    HW2 3141   5.037   5.895   3.128
  748SOL     OW 3142   5.515   5.506   2.138
  748SOL    HW1 3143   5.464   5.571   2.080
  748SOL    HW2 3144   5.561   5.556   2.211
  749SOL     OW 3145   4.845   3.740   3.882
  749SOL    HW1 3146   4.911   3.665   3.878
  749SOL    HW2 3147   4.832   3.778   3.790
  750SOL     OW 3148   2.334   1.826   1.973
  750SOL    HW1 3149   2.421   1.865   2.002
  750SOL    HW2 3150   2.332   1.820   1.873
  751SOL     OW 3151   3.852   0.466   0.718
  751SOL    HW1 3152   3.799   0.472   0.634
  751SOL    HW2 3153   3.894   0.375   0.725
  752SOL     OW 3154   3.469   2.251   5.398
  752SOL    HW1 3155   3.450   2.178   5.332
  752SOL    HW2 3156   3.382   2.286   5.434
  753SOL     OW 3157   3.745   3.721   4.657
  753SOL    HW1 3158   3.809   3.677   4.719
  753SOL    HW2 3159   3.747   3.820   4.671
  754SOL     OW 3160   5.944   0.520   0.198
  754SOL    HW1 3161   6.037   0.500   0.229
  754SOL    HW2 3162   5.879   0.497   0.271
  755SOL     OW 3163   4.041   4.533   5.347
  755SOL    HW1 3164   4.086   4.494   5.266
  755SOL    HW2 3165   4.050   4.633   5.345
  756SOL     OW 3166   1.743   5.267   6.162
  756SOL    HW1 3167   1.669   5.224   6.109
  756SOL    HW2 3168   1.756   5.216   6.247
  757SOL     OW 3169   2.701   5.971   2.829
  757SOL    HW1 3170   2.659   6.028   2.900
  757SOL    HW2 3171   2.629   5.928   2.774
  758SOL     OW 3172   3.544   1.079   4.281
  758SOL    HW1 3173   3.492   1.005   4.323
  758SOL    HW2 3174   3.577   1.141   4.352
  759SOL     OW 3175   0.333   2.904   3.961
  759SOL    HW1 3176   0.243   2.936   3.990
  759SOL    HW2 3177   0.325   2.853   3.875
  760SOL     OW 3178   6.228   5.530   3.109
  760SOL    HW1 3179   6.186   5.603   3.056
  760SOL    HW2 3180   6.271   5.568   3.191
  761SOL     OW 3181   4.027   3.499   6.294
  761SOL    HW1 3182   4.019   3.433   6.219
  761SOL    HW2 3183   3.987   3.460   6.376
  762SOL     OW 3184   3.302   5.703   4.155
  762SOL    HW1 3185   3.205   5.706   4.130
  762SOL    HW2 3186   3.343   5.794   4.140
  763SOL     OW 3187   5.555   0.675   0.230
  763SOL    HW1 3188   5.481   0.608   0.219
  763SOL    HW2 3189   5.588   0.672   0.325
  764SOL     OW 3190   5.774   0.456   5.740
  764SOL    HW1 3191   5.821   0.467   5.652
  764SOL    HW2 3192   5.678   0.483   5.730
  765SOL     OW 3193   6.763   6.257   0.738
  765SOL    HW1 3194   6.714   6.190   0.795
  765SOL    HW2 3195   6.699   6.329   0.710
  766SOL     OW 3196   2.288   2.365   4.979
  766SOL    HW1 3197   2.375   2.413   4.971
  766SOL    HW2 3198   2.212   2.427   4.959
  767SOL     OW 3199   6.308   5.914   4.381
  767SOL    HW1 3200   6.248   5.917   4.460
  767SOL    HW2 3201   6.254   5.907   4.297
  768SOL     OW 3202   2.391   5.194   2.347
  768SOL    HW1 3203   2.384   5.161   2.441
  768SOL    HW2 3204   2.299   5.203   2.307
  769SOL     OW 3205   2.706   2.265   4.556
  769SOL    HW1 3206   2.759   2.291   4.636
  769SOL    HW2 3207   2.718   2.167   4.537
  770SOL     OW 3208   1.636   4.331   5.566
  770SOL    HW1 3209   1.719   4.380   5.542
  770SOL    HW2 3210   1.573   4.392   5.614
  771SOL     OW 3211   1.447   5.643   2.973
  771SOL    HW1 3212   1.522   5.671   3.032
  771SOL    HW2 3213   1.387   5.721   2.955
  772SOL     OW 3214   5.513   4.323   0.441
  772SOL    HW1 3215   5.500   4.267   0.523
  772SOL    HW2 3216   5.581   4.394   0.460
  773SOL     OW 3217   0.840   3.592   3.350
  773SOL    HW1 3218   0.852   3.645   3.266
  773SOL    HW2 3219   0.917   3.610   3.411
  774SOL     OW 3220   2.174   0.305   3.390
  774SOL    HW1 3221   2.148   0.212   3.365
  774SOL    HW2 3222   2.273   0.311   3.398
  775SOL     OW 3223   1.697   4.381   2.614
  775SOL    HW1 3224   1.796   4.379   2.598
  775SOL    HW2 3225   1.650   4.377   2.526
  776SOL     OW 3226   2.985   5.104   6.813
  776SOL    HW1 3227   2.961   5.060   6.726
  776SOL    HW2 3228   3.026   5.193   6.795
  777SOL     OW 3229   2.310   4.087   0.151
  777SOL    HW1 3230   2.274   3.995   0.167
  777SOL    HW2 3231   2.395   4.100   0.202
  778SOL     OW 3232   2.980   6.536   0.474
  778SOL    HW1 3233   2.925   6.614   0.506
  778SOL    HW2 3234   2.950   6.453   0.520
  779SOL     OW 3235   6.879   2.215   3.302
  779SOL    HW1 3236   6.911   2.282   3.236
  779SOL    HW2 3237   6.876   2.125   3.259
  780SOL     OW 3238   0.515   2.116   3.902
  780SOL    HW1 3239   0.503   2.054   3.980
  780SOL    HW2 3240   0.612   2.127   3.882
  781SOL     OW 3241   0.697   4.547   0.222
  781SOL    HW1 3242   0.598   4.557   0.209
  781SOL    HW2 3243   0.728   4.463   0.178
  782SOL     OW 3244   1.785   3.525   4.707
  782SOL    HW1 3245   1.860   3.468   4.677
  782SOL    HW2 3246   1.819   3.616   4.729
  783SOL     OW 3247   6.006   4.738   6.477
  783SOL    HW1 3248   6.087   4.782   6.515
  783SOL    HW2 3249   5.951   4.805   6.427
  784SOL     OW 3250   2.539   5.996   0.699
  784SOL    HW1 3251   2.465   5.929   0.696
  784SOL    HW2 3252   2.603   5.978   0.624
  785SOL     OW 3253   1.300   6.880   5.053
  785SOL    HW1 3254   1.283   6.977   5.039
  785SOL    HW2 3255   1.301   6.860   5.151
  786SOL     OW 3256   6.525   1.105   3.756
  786SOL    HW1 3257   6.586   1.035   3.793
  786SOL    HW2 3258   6.431   1.071   3.754
  787SOL     OW 3259   2.354   0.164   0.655
  787SOL    HW1 3260   2.423   0.190   0.723
  787SOL    HW2 3261   2.276   0.226   0.660
  788SOL     OW 3262   2.255   2.240   1.589
  788SOL    HW1 3263   2.216   2.167   1.532
  788SOL    HW2 3264   2.233   2.329   1.549
  789SOL     OW 3265   4.483   4.993   2.208
  789SOL    HW1 3266   4.489   4.904   2.253
  789SOL    HW2 3267   4.497   5.066   2.274
  790SOL     OW 3268   0.932   2.233   2.596
  790SOL    HW1 3269   1.024   2.241   2.557
  790SOL    HW2 3270   0.933   2.269   2.690
  791SOL     OW 3271   2.977   5.717   4.387
  791SOL    HW1 3272   2.889   5.763   4.399
  791SOL    HW2 3273   3.051   5.784   4.393
  792SOL     OW 3274   1.520   0.711   0.474
  792SOL    HW1 3275   1.566   0.749   0.394
  792SOL    HW2 3276   1.584   0.653   0.525
  793SOL     OW 3277   3.068   6.056   4.066
  793SOL    HW1 3278   3.025   5.993   4.002
  793SOL    HW2 3279   3.046   6.030   4.159
  794SOL     OW 3280   3.335   3.197   2.881
  794SOL    HW1 3281   3.416   3.172   2.934
  794SOL    HW2 3282   3.306   3.289   2.905
  795SOL     OW 3283   3.782   0.316   6.166
  795SOL    HW1 3284   3.698   0.269   6.140
  795SOL    HW2 3285   3.780   0.338   6.263
  796SOL     OW 3286   1.027   3.189   0.508
  796SOL    HW1 3287   1.035   3.285   0.484
  796SOL    HW2 3288   1.072   3.172   0.595
  797SOL     OW 3289   4.549   6.957   0.784
  797SOL    HW1 3290   4.505   6.869   0.798
  797SOL    HW2 3291   4.529   7.017   0.862
  798SOL     OW 3292   4.374   6.763   0.803
  798SOL    HW1 3293   4.312   6.713   0.863
  798SOL    HW2 3294   4.394   6.707   0.722
  799SOL     OW 3295   2.175   2.352   5.951
  799SOL    HW1 3296   2.260   2.378   5.904
  799SOL    HW2 3297   2.197   2.305   6.036
  800SOL     OW 3298   6.040   3.649   2.593
  800SOL    HW1 3299   6.030   3.619   2.688
  800SOL    HW2 3300   6.081   3.575   2.539
  801SOL     OW 3301   2.403   5.613   5.750
  801SOL    HW1 3302   2.391   5.586   5.846
  801SOL    HW2 3303   2.466   5.690   5.744
  802SOL     OW 3304   4.995   2.585   6.513
  802SOL    HW1 3305   4.989   2.487   6.532
  802SOL    HW2 3306   5.047   2.599   6.429
  803SOL     OW 3307   2.490   1.229   5.053
  803SOL    HW1 3308   2.533   1.213   5.143
  803SOL    HW2 3309   2.414   1.165   5.041
  804SOL     OW 3310   5.589   0.710   2.875
  804SOL    HW1 3311   5.671   0.687   2.927
  804SOL    HW2 3312   5.616   0.742   2.784
  805SOL     OW 3313   3.623   1.054   3.345
  805SOL    HW1 3314   3.660   0.962   3.333
  805SOL    HW2 3315   3.526   1.047   3.370
  806SOL     OW 3316   2.415   6.071   5.662
  806SOL    HW1 3317   2.478   6.091   5.736
  806SOL    HW2 3318   2.350   6.001   5.691
  807SOL     OW 3319   0.859   5.903   5.940
  807SOL    HW1 3320   0.816   5.990   5.962
  807SOL    HW2 3321   0.943   5.920   5.887
  808SOL     OW 3322   5.490   2.797   6.538
  808SOL    HW1 3323   5.503   2.871   6.604
  808SOL    HW2 3324   5.579   2.760   6.512
  809SOL     OW 3325   2.366   4.624   0.048
  809SOL    HW1 3326   2.402   4.698   7.013
  809SOL    HW2 3327   2.381   4.536   0.002
  810SOL     OW 3328   3.537   3.169   6.754
  810SOL    HW1 3329   3.477   3.215   6.689
  810SOL    HW2 3330   3.526   3.070   6.745
  811SOL     OW 3331   6.029   4.811   4.717
  811SOL    HW1 3332   6.013   4.909   4.706
  811SOL    HW2 3333   5.951   4.760   4.680
  812SOL     OW 3334   0.456   3.057   1.860
  812SOL    HW1 3335   0.516   2.989   1.902
  812SOL    HW2 3336   0.503   3.100   1.783
  813SOL     OW 3337   1.236   1.839   4.566
  813SOL    HW1 3338   1.254   1.934   4.543
  813SOL    HW2 3339   1.151   1.809   4.522
  814SOL     OW 3340   0.521   5.394   2.829
  814SOL    HW1 3341   0.497   5.486   2.859
  814SOL    HW2 3342   0.520   5.391   2.729
  815SOL     OW 3343   4.947   2.023   4.422
  815SOL    HW1 3344   5.007   1.961   4.370
  815SOL    HW2 3345   5.003   2.086   4.475
  816SOL     OW 3346   5.413   5.006   6.453
  816SOL    HW1 3347   5.351   5.084   6.441
  816SOL    HW2 3348   5.433   4.995   6.550
  817SOL     OW 3349   1.127   4.150   6.905
  817SOL    HW1 3350   1.207   4.204   6.932
  817SOL    HW2 3351   1.048   4.180   6.959
  818SOL     OW 3352   6.629   2.291   5.056
  818SOL    HW1 3353   6.550   2.264   5.112
  818SOL    HW2 3354   6.712   2.253   5.095
  819SOL     OW 3355   4.916   2.670   1.514
  819SOL    HW1 3356   4.854   2.602   1.552
  819SOL    HW2 3357   4.934   2.649   1.418
  820SOL     OW 3358   2.240   2.080   4.985
  820SOL    HW1 3359   2.223   2.014   5.058
  820SOL    HW2 3360   2.239   2.173   5.024
  821SOL     OW 3361   4.766   3.690   5.890
  821SOL    HW1 3362   4.829   3.756   5.849
  821SOL    HW2 3363   4.701   3.739   5.949
  822SOL     OW 3364   0.988   4.700   3.383
  822SOL    HW1 3365   1.061   4.634   3.362
  822SOL    HW2 3366   0.935   4.667   3.461
  823SOL     OW 3367   1.118   3.128   5.440
  823SOL    HW1 3368   1.062   3.151   5.360
  823SOL    HW2 3369   1.164   3.210   5.473
  824SOL     OW 3370   5.481   1.164   6.318
  824SOL    HW1 3371   5.507   1.182   6.413
  824SOL    HW2 3372   5.555   1.193   6.257
  825SOL     OW 3373   5.469   5.321   1.058
  825SOL    HW1 3374   5.493   5.252   0.990
  825SOL    HW2 3375   5.544   5.386   1.067
  826SOL     OW 3376   4.119   2.240   6.662
  826SOL    HW1 3377   4.118   2.327   6.612
  826SOL    HW2 3378   4.147   2.167   6.599
  827SOL     OW 3379   3.789   4.115   4.994
  827SOL    HW1 3380   3.690   4.119   5.004
  827SOL    HW2 3381   3.827   4.207   4.988
  828SOL     OW 3382   6.620   5.885   6.135
  828SOL    HW1 3383   6.685   5.814   6.163
  828SOL    HW2 3384   6.548   5.844   6.078
  829SOL     OW 3385   3.306   3.608   2.598
  829SOL    HW1 3386   3.337   3.675   2.666
  829SOL    HW2 3387   3.370   3.531   2.597
  830SOL     OW 3388   6.313   4.688   0.128
  830SOL    HW1 3389   6.273   4.740   0.204
  830SOL    HW2 3390   6.380   4.623   0.164
  831SOL     OW 3391   4.306   0.135   1.914
  831SOL    HW1 3392   4.254   0.065   1.962
  831SOL    HW2 3393   4.247   0.214   1.898
  832SOL     OW 3394   2.526   1.715   4.687
  832SOL    HW1 3395   2.575   1.801   4.699
  832SOL    HW2 3396   2.481   1.689   4.773
  833SOL     OW 3397   2.823   1.923   0.086
  833SOL    HW1 3398   2.731   1.938   0.051
  833SOL    HW2 3399   2.820   1.915   0.186
  834SOL     OW 3400   5.387   2.984   6.971
  834SOL    HW1 3401   5.301   3.036   6.968
  834SOL    HW2 3402   5.373   2.895   6.927
  835SOL     OW 3403   0.529   6.880   3.888
  835SOL    HW1 3404   0.500   6.792   3.926
  835SOL    HW2 3405   0.557   6.940   3.963
  836SOL     OW 3406   4.017   1.027   4.167
  836SOL    HW1 3407   4.034   1.059   4.074
  836SOL    HW2 3408   3.919   1.024   4.185
  837SOL     OW 3409   1.848   0.669   1.038
  837SOL    HW1 3410   1.900   0.726   1.101
  837SOL    HW2 3411   1.890   0.578   1.033
  838SOL     OW 3412   1.779   5.395   3.782
  838SOL    HW1 3413   1.827   5.327   3.836
  838SOL    HW2 3414   1.765   5.478   3.837
  839SOL     OW 3415   1.371   1.861   0.463
  839SOL    HW1 3416   1.386   1.769   0.500
  839SOL    HW2 3417   1.436   1.879   0.390
  840SOL     OW 3418   5.354   5.196   6.751
  840SOL    HW1 3419   5.394   5.105   6.736
  840SOL    HW2 3420   5.426   5.265   6.751
  841SOL     OW 3421   3.506   5.051   6.805
  841SOL    HW1 3422   3.416   5.024   6.840
  841SOL    HW2 3423   3.534   4.988   6.732
  842SOL     OW 3424   3.993   6.346   0.185
  842SOL    HW1 3425   4.032   6.397   0.262
  842SOL    HW2 3426   3.894   6.338   0.197
  843SOL     OW 3427   1.082   1.155   2.361
  843SOL    HW1 3428   1.141   1.087   2.316
  843SOL    HW2 3429   0.987   1.140   2.333
  844SOL     OW 3430   6.854   0.796   1.627
  844SOL    HW1 3431   6.757   0.818   1.639
  844SOL    HW2 3432   6.862   0.700   1.597
  845SOL     OW 3433   3.415   0.833   2.493
  845SOL    HW1 3434   3.329   0.883   2.500
  845SOL    HW2 3435   3.476   0.881   2.430
  846SOL     OW 3436   2.797   1.439   0.555
  846SOL    HW1 3437   2.887   1.431   0.598
  846SOL    HW2 3438   2.735   1.489   0.615
  847SOL     OW 3439   2.742   4.066   1.617
  847SOL    HW1 3440   2.719   3.987   1.561
  847SOL    HW2 3441   2.821   4.045   1.674
  848SOL     OW 3442   6.848   5.669   0.557
  848SOL    HW1 3443   6.827   5.605   0.484
  848SOL    HW2 3444   6.935   5.643   0.600
  849SOL     OW 3445   5.933   3.763   6.392
  849SOL    HW1 3446   5.867   3.690   6.408
  849SOL    HW2 3447   5.893   3.832   6.332
  850SOL     OW 3448   1.126   0.663   5.031
  850SOL    HW1 3449   1.192   0.678   5.104
  850SOL    HW2 3450   1.164   0.599   4.964
  851SOL     OW 3451   6.090   3.349   6.117
  851SOL    HW1 3452   6.119   3.281   6.184
  851SOL    HW2 3453   6.052   3.303   6.037
  852SOL     OW 3454   0.240   3.929   2.271
  852SOL    HW1 3455   0.173   3.983   2.221
  852SOL    HW2 3456   0.216   3.928   2.368
  853SOL     OW 3457   2.626   2.540   0.017
  853SOL    HW1 3458   2.696   2.602   0.053
  853SOL    HW2 3459   2.557   2.523   0.088
  854SOL     OW 3460   5.562   6.734   6.342
  854SOL    HW1 3461   5.590   6.801   6.274
  854SOL    HW2 3462   5.588   6.642   6.312
  855SOL     OW 3463   5.724   1.337   0.414
  855SOL    HW1 3464   5.780   1.419   0.406
  855SOL    HW2 3465   5.744   1.277   0.336
  856SOL     OW 3466   2.323   5.474   1.057
  856SOL    HW1 3467   2.259   5.460   1.133
  856SOL    HW2 3468   2.402   5.526   1.090
  857SOL     OW 3469   6.282   5.478   5.624
  857SOL    HW1 3470   6.183   5.491   5.628
  857SOL    HW2 3471   6.307   5.395   5.674
  858SOL     OW 3472   4.752   3.255   0.541
  858SOL    HW1 3473   4.812   3.319   0.589
  858SOL    HW2 3474   4.779   3.247   0.446
  859SOL     OW 3475   4.802   6.840   5.273
  859SOL    HW1 3476   4.888   6.790   5.258
  859SOL    HW2 3477   4.817   6.937   5.254
  860SOL     OW 3478   5.183   3.550   5.850
  860SOL    HW1 3479   5.179   3.503   5.939
  860SOL    HW2 3480   5.208   3.646   5.865
  861SOL     OW 3481   2.020   5.800   1.924
  861SOL    HW1 3482   2.064   5.732   1.866
  861SOL    HW2 3483   2.025   5.890   1.881
  862SOL     OW 3484   0.454   3.904   3.298
  862SOL    HW1 3485   0.440   3.886   3.201
  862SOL    HW2 3486   0.367   3.899   3.346
  863SOL     OW 3487   6.624   0.541   0.400
  863SOL    HW1 3488   6.683   0.606   0.449
  863SOL    HW2 3489   6.649   0.541   0.303
  864SOL     OW 3490   5.667   0.026   4.941
  864SOL    HW1 3491   5.578   7.011   4.969
  864SOL    HW2 3492   5.734   0.010   5.013
  865SOL     OW 3493   1.575   6.206   4.995
  865SOL    HW1 3494   1.505   6.138   4.971
  865SOL    HW2 3495   1.620   6.178   5.079
  866SOL     OW 3496   3.222   6.578   1.981
  866SOL    HW1 3497   3.269   6.663   2.003
  866SOL    HW2 3498   3.230   6.560   1.883
  867SOL     OW 3499   5.891   2.509   6.841
  867SOL    HW1 3500   5.906   2.607   6.828
  867SOL    HW2 3501   5.934   2.459   6.766
  868SOL     OW 3502   0.031   1.852   2.721
  868SOL    HW1 3503   6.999   1.910   2.782
  868SOL    HW2 3504   0.095   1.797   2.775
  869SOL     OW 3505   6.827   4.055   3.539
  869SOL    HW1 3506   6.733   4.035   3.512
  869SOL    HW2 3507   6.888   3.984   3.504
  870SOL     OW 3508   3.771   5.220   2.255
  870SOL    HW1 3509   3.702   5.147   2.260
  870SOL    HW2 3510   3.758   5.283   2.331
  871SOL     OW 3511   4.520   1.641   2.920
  871SOL    HW1 3512   4.491   1.642   3.016
  871SOL    HW2 3513   4.582   1.565   2.905
  872SOL     OW 3514   0.062   2.891   5.180
  872SOL    HW1 3515   0.096   2.886   5.274
  872SOL    HW2 3516   6.996   2.843   5.173
  873SOL     OW 3517   4.981   6.742   6.213
  873SOL    HW1 3518   5.010   6.795   6.292
  873SOL    HW2 3519   5.000   6.793   6.129
  874SOL     OW 3520   4.476   4.408   0.703
  874SOL    HW1 3521   4.399   4.351   0.674
  874SOL    HW2 3522   4.456   4.449   0.792
  875SOL     OW 3523   5.131   5.572   0.864
  875SOL    HW1 3524   5.184   5.487   0.853
  875SOL    HW2 3525   5.073   5.585   0.784
  876SOL     OW 3526   0.025   6.519   1.323
  876SOL    HW1 3527   0.037   6.618   1.312
  876SOL    HW2 3528   0.058   6.491   1.413
  877SOL     OW 3529   2.361   3.216   6.330
  877SOL    HW1 3530   2.272   3.223   6.286
  877SOL    HW2 3531   2.434   3.227   6.262
  878SOL     OW 3532   4.085   6.809   4.009
  878SOL    HW1 3533   4.066   6.854   4.097
  878SOL    HW2 3534   4.081   6.710   4.020
  879SOL     OW 3535   5.904   0.462   0.618
  879SOL    HW1 3536   5.992   0.497   0.651
  879SOL    HW2 3537   5.915   0.367   0.589
  880SOL     OW 3538   2.951   3.444   3.045
  880SOL    HW1 3539   2.980   3.433   2.950
  880SOL    HW2 3540   2.932   3.541   3.063
  881SOL     OW 3541   4.165   1.594   6.794
  881SOL    HW1 3542   4.074   1.566   6.825
  881SOL    HW2 3543   4.167   1.693   6.779
  882SOL     OW 3544   1.052   3.670   4.469
  882SOL    HW1 3545   1.024   3.591   4.524
  882SOL    HW2 3546   1.127   3.717   4.514
  883SOL     OW 3547   2.840   0.050   2.718
  883SOL    HW1 3548   2.824   0.109   2.639
  883SOL    HW2 3549   2.905   7.000   2.693
  884SOL     OW 3550   4.570   3.167   5.401
  884SOL    HW1 3551   4.566   3.264   5.375
  884SOL    HW2 3552   4.484   3.123   5.376
  885SOL     OW 3553   3.556   2.724   6.061
  885SOL    HW1 3554   3.547   2.823   6.059
  885SOL    HW2 3555   3.466   2.683   6.079
  886SOL     OW 3556   3.601   6.948   6.781
  886SOL    HW1 3557   3.544   7.011   6.728
  886SOL    HW2 3558   3.569   6.945   6.875
  887SOL     OW 3559   4.711   2.053   4.299
  887SOL    HW1 3560   4.795   2.056   4.353
  887SOL    HW2 3561   4.695   2.142   4.257
  888SOL     OW 3562   6.887   6.875   3.237
  888SOL    HW1 3563   6.871   6.955   3.180
  888SOL    HW2 3564   6.854   6.793   3.190
  889SOL     OW 3565   0.683   3.429   0.117
  889SOL    HW1 3566   0.751   3.381   0.061
  889SOL    HW2 3567   0.591   3.409   0.082
  890SOL     OW 3568   2.899   5.430   4.067
  890SOL    HW1 3569   2.872   5.371   3.991
  890SOL    HW2 3570   2.997   5.449   4.061
  891SOL     OW 3571   5.554   5.595   1.060
  891SOL    HW1 3572   5.598   5.640   1.137
  891SOL    HW2 3573   5.455   5.611   1.063
  892SOL     OW 3574   3.253   4.940   6.844
  892SOL    HW1 3575   3.198   4.938   6.927
  892SOL    HW2 3576   3.219   5.012   6.783
  893SOL     OW 3577   2.480   6.478   2.609
  893SOL    HW1 3578   2.525   6.565   2.632
  893SOL    HW2 3579   2.543   6.421   2.556
  894SOL     OW 3580   1.573   3.716   1.443
  894SOL    HW1 3581   1.522   3.753   1.520
  894SOL    HW2 3582   1.512   3.702   1.365
  895SOL     OW 3583   0.705   6.033   3.850
  895SOL    HW1 3584   0.608   6.022   3.871
  895SOL    HW2 3585   0.734   6.126   3.873
  896SOL     OW 3586   6.322   6.245   5.337
  896SOL    HW1 3587   6.399   6.270   5.396
  896SOL    HW2 3588   6.237   6.245   5.390
  897SOL     OW 3589   5.273   0.885   6.725
  897SOL    HW1 3590   5.198   0.949   6.708
  897SOL    HW2 3591   5.244   0.816   6.791
  898SOL     OW 3592   4.131   5.984   3.260
  898SOL    HW1 3593   4.079   6.063   3.293
  898SOL    HW2 3594   4.109   5.968   3.164
  899SOL     OW 3595   6.692   4.747   6.764
  899SOL    HW1 3596   6.700   4.722   6.668
  899SOL    HW2 3597   6.596   4.761   6.787
  900SOL     OW 3598   4.996   5.953   0.548
  900SOL    HW1 3599   4.897   5.936   0.549
  900SOL    HW2 3600   5.044   5.865   0.545
  901SOL     OW 3601   1.512   0.952   2.187
  901SOL    HW1 3602   1.480   1.041   2.156
  901SOL    HW2 3603   1.548   0.960   2.280
  902SOL     OW 3604   6.201   4.224   1.889
  902SOL    HW1 3605   6.219   4.314   1.848
  902SOL    HW2 3606   6.198   4.232   1.988
  903SOL     OW 3607   6.864   2.795   0.168
  903SOL    HW1 3608   6.931   2.792   0.094
  903SOL    HW2 3609   6.830   2.889   0.178
  904SOL     OW 3610   3.083   1.452   2.503
  904SOL    HW1 3611   3.050   1.543   2.528
  904SOL    HW2 3612   3.168   1.460   2.450
  905SOL     OW 3613   6.046   2.360   6.687
  905SOL    HW1 3614   6.079   2.321   6.772
  905SOL    HW2 3615   6.113   2.425   6.651
  906SOL     OW 3616   6.423   3.330   6.300
  906SOL    HW1 3617   6.461   3.295   6.386
  906SOL    HW2 3618   6.338   3.379   6.318
  907SOL     OW 3619   4.913   3.555   6.762
  907SOL    HW1 3620   4.886   3.556   6.666
  907SOL    HW2 3621   4.929   3.649   6.793
  908SOL     OW 3622   2.161   4.628   2.767
  908SOL    HW1 3623   2.194   4.699   2.830
  908SOL    HW2 3624   2.230   4.557   2.757
  909SOL     OW 3625   5.264   5.201   6.367
  909SOL    HW1 3626   5.294   5.196   6.272
  909SOL    HW2 3627   5.241   5.296   6.390
  910SOL     OW 3628   2.479   3.388   1.465
  910SOL    HW1 3629   2.440   3.439   1.542
  910SOL    HW2 3630   2.407   3.365   1.400
  911SOL     OW 3631   0.930   5.395   6.631
  911SOL    HW1 3632   0.927   5.376   6.533
  911SOL    HW2 3633   0.851   5.452   6.656
  912SOL     OW 3634   4.742   2.113   2.722
  912SOL    HW1 3635   4.671   2.072   2.779
  912SOL    HW2 3636   4.830   2.107   2.768
  913SOL     OW 3637   4.937   0.086   3.571
  913SOL    HW1 3638   4.852   0.139   3.566
  913SOL    HW2 3639   4.949   0.035   3.486
  914SOL     OW 3640   2.766   6.742   0.300
  914SOL    HW1 3641   2.706   6.681   0.248
  914SOL    HW2 3642   2.742   6.738   0.397
  915SOL     OW 3643   6.175   5.627   0.636
  915SOL    HW1 3644   6.189   5.657   0.730
  915SOL    HW2 3645   6.227   5.684   0.573
  916SOL     OW 3646   0.737   2.427   2.315
  916SOL    HW1 3647   0.799   2.454   2.389
  916SOL    HW2 3648   0.756   2.332   2.289
  917SOL     OW 3649   6.836   6.738   0.872
  917SOL    HW1 3650   6.774   6.816   0.877
  917SOL    HW2 3651   6.786   6.654   0.895
  918SOL     OW 3652   1.627   5.516   0.290
  918SOL    HW1 3653   1.659   5.538   0.198
  918SOL    HW2 3654   1.576   5.594   0.327
  919SOL     OW 3655   5.802   2.085   4.764
  919SOL    HW1 3656   5.789   2.181   4.787
  919SOL    HW2 3657   5.713   2.041   4.751
  920SOL     OW 3658   2.784   4.752   2.326
  920SOL    HW1 3659   2.804   4.698   2.244
  920SOL    HW2 3660   2.777   4.691   2.405
  921SOL     OW 3661   5.029   5.474   4.738
  921SOL    HW1 3662   5.006   5.462   4.641
  921SOL    HW2 3663   5.008   5.567   4.766
  922SOL     OW 3664   3.932   3.390   3.908
  922SOL    HW1 3665   3.925   3.418   3.812
  922SOL    HW2 3666   3.986   3.458   3.958
  923SOL     OW 3667   2.220   3.563   5.622
  923SOL    HW1 3668   2.160   3.486   5.644
  923SOL    HW2 3669   2.182   3.615   5.545
  924SOL     OW 3670   0.257   3.619   2.899
  924SOL    HW1 3671   0.172   3.571   2.877
  924SOL    HW2 3672   0.314   3.560   2.956
  925SOL     OW 3673   6.428   1.907   0.351
  925SOL    HW1 3674   6.476   1.995   0.349
  925SOL    HW2 3675   6.330   1.922   0.357
  926SOL     OW 3676   0.809   1.574   2.009
  926SOL    HW1 3677   0.781   1.559   1.914
  926SOL    HW2 3678   0.892   1.630   2.010
  927SOL     OW 3679   5.825   3.944   3.277
  927SOL    HW1 3680   5.908   3.902   3.239
  927SOL    HW2 3681   5.827   3.939   3.376
  928SOL     OW 3682   2.821   4.837   6.897
  928SOL    HW1 3683   2.879   4.810   6.820
  928SOL    HW2 3684   2.879   4.872   6.971
  929SOL     OW 3685   6.873   1.281   5.595
  929SOL    HW1 3686   6.862   1.379   5.610
  929SOL    HW2 3687   6.913   1.266   5.504
  930SOL     OW 3688   5.655   5.450   5.676
  930SOL    HW1 3689   5.679   5.508   5.598
  930SOL    HW2 3690   5.686   5.357   5.659
  931SOL     OW 3691   6.242   2.366   2.895
  931SOL    HW1 3692   6.289   2.305   2.958
  931SOL    HW2 3693   6.156   2.397   2.937
  932SOL     OW 3694   3.547   0.246   3.655
  932SOL    HW1 3695   3.480   0.310   3.691
  932SOL    HW2 3696   3.622   0.235   3.720
  933SOL     OW 3697   1.409   4.879   1.761
  933SOL    HW1 3698   1.462   4.932   1.827
  933SOL    HW2 3699   1.461   4.870   1.676
  934SOL     OW 3700   1.665   4.294   6.894
  934SOL    HW1 3701   1.731   4.229   6.932
  934SOL    HW2 3702   1.663   4.376   6.951
  935SOL     OW 3703   5.884   3.269   3.790
  935SOL    HW1 3704   5.789   3.239   3.800
  935SOL    HW2 3705   5.932   3.258   3.877
  936SOL     OW 3706   1.694   6.971   6.111
  936SOL    HW1 3707   1.711   6.970   6.012
  936SOL    HW2 3708   1.745   0.025   6.152
  937SOL     OW 3709   4.362   1.539   5.477
  937SOL    HW1 3710   4.434   1.472   5.496
  937SOL    HW2 3711   4.352   1.601   5.554
  938SOL     OW 3712   5.610   5.699   4.269
  938SOL    HW1 3713   5.667   5.628   4.229
  938SOL    HW2 3714   5.543   5.730   4.201
  939SOL     OW 3715   0.551   6.699   5.657
  939SOL    HW1 3716   0.531   6.637   5.733
  939SOL    HW2 3717   0.604   6.777   5.691
  940SOL     OW 3718   2.110   5.314   7.000
  940SOL    HW1 3719   2.175   5.260   6.946
  940SOL    HW2 3720   2.150   5.335   0.067
  941SOL     OW 3721   3.284   0.273   6.777
  941SOL    HW1 3722   3.348   0.339   6.816
  941SOL    HW2 3723   3.207   0.321   6.736
  942SOL     OW 3724   0.532   5.262   0.540
  942SOL    HW1 3725   0.498   5.174   0.509
  942SOL    HW2 3726   0.531   5.327   0.464
  943SOL     OW 3727   3.064   5.559   2.838
  943SOL    HW1 3728   3.145   5.618   2.832
  943SOL    HW2 3729   3.076   5.494   2.913
  944SOL     OW 3730   6.944   6.397   4.468
  944SOL    HW1 3731   6.855   6.356   4.487
  944SOL    HW2 3732   6.936   6.461   4.392
  945SOL     OW 3733   0.729   5.344   0.011
  945SOL    HW1 3734   0.632   5.324   7.020
  945SOL    HW2 3735   0.778   5.332   6.947
  946SOL     OW 3736   4.882   3.309   3.851
  946SOL    HW1 3737   4.928   3.391   3.885
  946SOL    HW2 3738   4.855   3.322   3.756
  947SOL     OW 3739   3.637   4.115   4.181
  947SOL    HW1 3740   3.558   4.144   4.127
  947SOL    HW2 3741   3.607   4.078   4.268
  948SOL     OW 3742   4.006   0.670   2.773
  948SOL    HW1 3743   3.963   0.749   2.730
  948SOL    HW2 3744   3.965   0.586   2.738
  949SOL     OW 3745   2.597   6.867   6.170
  949SOL    HW1 3746   2.563   6.938   6.231
  949SOL    HW2 3747   2.522   6.807   6.143
  950SOL     OW 3748   0.142   0.150   1.834
  950SOL    HW1 3749   0.230   0.149   1.785
  950SOL    HW2 3750   0.148   0.211   1.913
  951SOL     OW 3751   1.947   6.533   3.597
  951SOL    HW1 3752   1.971   6.541   3.501
  951SOL    HW2 3753   1.992   6.452   3.636
  952SOL     OW 3754   3.322   1.051   2.048
  952SOL    HW1 3755   3.312   1.020   1.954
  952SOL    HW2 3756   3.415   1.083   2.064
  953SOL     OW 3757   6.147   4.708   5.922
  953SOL    HW1 3758   6.134   4.632   5.858
  953SOL    HW2 3759   6.063   4.761   5.929
  954SOL     OW 3760   4.649   6.067   2.547
  954SOL    HW1 3761   4.702   6.102   2.469
  954SOL    HW2 3762   4.707   6.007   2.602
  955SOL     OW 3763   1.380   4.929   6.832
  955SOL    HW1 3764   1.295   4.960   6.788
  955SOL    HW2 3765   1.449   5.000   6.824
  956SOL     OW 3766   5.673   0.338   1.443
  956SOL    HW1 3767   5.639   0.292   1.361
  956SOL    HW2 3768   5.621   0.423   1.457
  957SOL     OW 3769   5.712   1.272   3.127
  957SOL    HW1 3770   5.711   1.250   3.225
  957SOL    HW2 3771   5.803   1.306   3.101
  958SOL     OW 3772   5.146   0.039   2.002
  958SOL    HW1 3773   5.170   0.133   1.976
  958SOL    HW2 3774   5.106   0.039   2.093
  959SOL     OW 3775   4.126   6.610   4.601
  959SOL    HW1 3776   4.161   6.557   4.678
  959SOL    HW2 3777   4.075   6.689   4.635
  960SOL     OW 3778   1.009   0.146   6.788
  960SOL    HW1 3779   1.034   0.178   6.696
  960SOL    HW2 3780   0.954   0.215   6.834
  961SOL     OW 3781   3.378   6.957   3.147
  961SOL    HW1 3782   3.312   6.903   3.198
  961SOL    HW2 3783   3.429   7.016   3.209
  962SOL     OW 3784   6.231   0.606   5.015
  962SOL    HW1 3785   6.258   0.651   4.930
  962SOL    HW2 3786   6.263   0.659   5.093
  963SOL     OW 3787   5.748   3.132   0.752
  963SOL    HW1 3788   5.810   3.164   0.680
  963SOL    HW2 3789   5.792   3.141   0.841
  964SOL     OW 3790   4.812   4.652   5.386
  964SOL    HW1 3791   4.803   4.747   5.418
  964SOL    HW2 3792   4.786   4.590   5.460
  965SOL     OW 3793   6.010   3.194   3.550
  965SOL    HW1 3794   5.985   3.240   3.635
  965SOL    HW2 3795   6.015   3.095   3.565
  966SOL     OW 3796   4.720   2.269   4.569
  966SOL    HW1 3797   4.778   2.290   4.490
  966SOL    HW2 3798   4.690   2.354   4.613
  967SOL     OW 3799   5.170   4.031   6.121
  967SOL    HW1 3800   5.078   4.059   6.150
  967SOL    HW2 3801   5.222   4.001   6.200
  968SOL     OW 3802   3.915   0.288   1.746
  968SOL    HW1 3803   3.876   0.196   1.747
  968SOL    HW2 3804   3.918   0.322   1.652
  969SOL     OW 3805   3.465   4.190   6.285
  969SOL    HW1 3806   3.429   4.098   6.302
  969SOL    HW2 3807   3.565   4.187   6.287
  970SOL     OW 3808   6.340   0.190   6.176
  970SOL    HW1 3809   6.288   0.129   6.237
  970SOL    HW2 3810   6.416   0.230   6.226
  971SOL     OW 3811   5.719   4.458   3.041
  971SOL    HW1 3812   5.633   4.430   3.085
  971SOL    HW2 3813   5.785   4.383   3.047
  972SOL     OW 3814   0.253   2.991   0.414
  972SOL    HW1 3815   0.243   3.042   0.329
  972SOL    HW2 3816   0.259   3.055   0.491
  973SOL     OW 3817   7.003   3.593   6.143
  973SOL    HW1 3818   0.079   3.585   6.126
  973SOL    HW2 3819   6.984   3.682   6.184
  974SOL     OW 3820   6.792   4.904   3.566
  974SOL    HW1 3821   6.694   4.884   3.567
  974SOL    HW2 3822   6.805   5.003   3.572
  975SOL     OW 3823   2.629   0.375   2.175
  975SOL    HW1 3824   2.584   0.337   2.094
  975SOL    HW2 3825   2.561   0.385   2.248
  976SOL     OW 3826   6.321   3.121   2.831
  976SOL    HW1 3827   6.246   3.054   2.828
  976SOL    HW2 3828   6.356   3.127   2.925
  977SOL     OW 3829   0.150   0.735   2.476
  977SOL    HW1 3830   0.176   0.671   2.548
  977SOL    HW2 3831   0.174   0.828   2.505
  978SOL     OW 3832   5.303   3.134   1.958
  978SOL    HW1 3833   5.298   3.220   1.907
  978SOL    HW2 3834   5.324   3.059   1.895
  979SOL     OW 3835   0.756   4.027   6.819
  979SOL    HW1 3836   0.812   4.097   6.775
  979SOL    HW2 3837   0.687   3.994   6.755
  980SOL     OW 3838   3.260   1.512   4.484
  980SOL    HW1 3839   3.335   1.459   4.525
  980SOL    HW2 3840   3.284   1.536   4.390
  981SOL     OW 3841   6.670   6.621   5.248
  981SOL    HW1 3842   6.661   6.696   5.313
  981SOL    HW2 3843   6.718   6.653   5.167
  982SOL     OW 3844   6.060   1.017   5.647
  982SOL    HW1 3845   6.141   1.060   5.689
  982SOL    HW2 3846   6.042   0.930   5.692
  983SOL     OW 3847   0.245   4.625   4.839
  983SOL    HW1 3848   0.282   4.612   4.747
  983SOL    HW2 3849   0.206   4.716   4.846
  984SOL     OW 3850   0.375   2.754   3.471
  984SOL    HW1 3851   0.399   2.849   3.448
  984SOL    HW2 3852   0.427   2.692   3.413
  985SOL     OW 3853   6.448   4.636   5.318
  985SOL    HW1 3854   6.546   4.654   5.310
  985SOL    HW2 3855   6.398   4.690   5.251
  986SOL     OW 3856   5.436   4.884   1.049
  986SOL    HW1 3857   5.478   4.821   0.984
  986SOL    HW2 3858   5.502   4.905   1.122
  987SOL     OW 3859   4.891   4.681   4.284
  987SOL    HW1 3860   4.849   4.770   4.303
  987SOL    HW2 3861   4.840   4.610   4.331
  988SOL     OW 3862   2.741   4.350   1.513
  988SOL    HW1 3863   2.704   4.433   1.555
  988SOL    HW2 3864   2.713   4.271   1.567
  989SOL     OW 3865   0.527   1.801   1.165
  989SOL    HW1 3866   0.462   1.876   1.157
  989SOL    HW2 3867   0.477   1.715   1.176
  990SOL     OW 3868   3.873   0.035   3.543
  990SOL    HW1 3869   3.952   7.011   3.584
  990SOL    HW2 3870   3.906   0.106   3.481
  991SOL     OW 3871   0.044   5.070   3.319
  991SOL    HW1 3872   0.018   5.033   3.408
  991SOL    HW2 3873   0.125   5.128   3.329
  992SOL     OW 3874   0.465   2.605   1.089
  992SOL    HW1 3875   0.390   2.668   1.109
  992SOL    HW2 3876   0.427   2.518   1.057
  993SOL     OW 3877   1.076   5.117   0.126
  993SOL    HW1 3878   0.986   5.140   0.162
  993SOL    HW2 3879   1.071   5.032   0.074
  994SOL     OW 3880   3.168   6.473   0.042
  994SOL    HW1 3881   3.147   6.380   0.071
  994SOL    HW2 3882   3.092   6.533   0.066
  995SOL     OW 3883   6.075   3.662   5.573
  995SOL    HW1 3884   5.996   3.626   5.622
  995SOL    HW2 3885   6.073   3.630   5.478
  996SOL     OW 3886   3.558   6.476   5.651
  996SOL    HW1 3887   3.599   6.565   5.667
  996SOL    HW2 3888   3.630   6.407   5.638
  997SOL     OW 3889   1.690   6.275   3.721
  997SOL    HW1 3890   1.742   6.268   3.806
  997SOL    HW2 3891   1.645   6.364   3.716
  998SOL     OW 3892   6.319   0.532   6.381
  998SOL    HW1 3893   6.225   0.564   6.392
  998SOL    HW2 3894   6.348   0.546   6.286
  999SOL     OW 3895   4.726   4.515   2.530
  999SOL    HW1 3896   4.673   4.479   2.606
  999SOL    HW2 3897   4.815   4.469   2.527
 1000SOL     OW 3898   4.834   2.231   1.139
 1000SOL    HW1 3899   4.791   2.141   1.144
 1000SOL    HW2 3900   4.824   2.267   1.046
 1001SOL     OW 3901   3.284   6.412   2.724
 1001SOL    HW1 3902   3.257   6.401   2.820
 1001SOL    HW2 3903   3.349   6.487   2.717
 1002SOL     OW 3904   5.174   2.626   0.965
 1002SOL    HW1 3905   5.189   2.528   0.951
 1002SOL    HW2 3906   5.093   2.640   1.022
 1003SOL     OW 3907   0.593   0.250   3.197
 1003SOL    HW1 3908   0.503   0.213   3.222
 1003SOL    HW2 3909   0.665   0.190   3.232
 1004SOL     OW 3910   5.617   1.640   3.694
 1004SOL    HW1 3911   5.696   1.622   3.753
 1004SOL    HW2 3912   5.646   1.638   3.598
 1005SOL     OW 3913   1.306   4.664   2.888
 1005SOL    HW1 3914   1.344   4.628   2.802
 1005SOL    HW2 3915   1.242   4.738   2.868
 1006SOL     OW 3916   2.672   3.598   1.111
 1006SOL    HW1 3917   2.643   3.687   1.076
 1006SOL    HW2 3918   2.657   3.528   1.040
 1007SOL     OW 3919   4.733   0.749   6.681
 1007SOL    HW1 3920   4.736   0.705   6.770
 1007SOL    HW2 3921   4.681   0.692   6.617
 1008SOL     OW 3922   0.009   4.533   5.611
 1008SOL    HW1 3923   0.080   4.472   5.577
 1008SOL    HW2 3924   0.046   4.625   5.621
 1009SOL     OW 3925   0.031   5.166   6.265
 1009SOL    HW1 3926   7.005   5.253   6.270
 1009SOL    HW2 3927   7.012   5.108   6.195
 1010SOL     OW 3928   2.472   3.083   0.947
 1010SOL    HW1 3929   2.504   3.004   0.895
 1010SOL    HW2 3930   2.514   3.082   1.038
 1011SOL     OW 3931   6.663   5.259   2.304
 1011SOL    HW1 3932   6.717   5.265   2.388
 1011SOL    HW2 3933   6.658   5.349   2.261
 1012SOL     OW 3934   4.572   0.093   3.345
 1012SOL    HW1 3935   4.652   0.116   3.401
 1012SOL    HW2 3936   4.566   0.156   3.268
 1013SOL     OW 3937   0.188   6.260   6.590
 1013SOL    HW1 3938   0.178   6.302   6.681
 1013SOL    HW2 3939   0.133   6.176   6.586
 1014SOL     OW 3940   1.097   4.790   5.548
 1014SOL    HW1 3941   1.011   4.837   5.567
 1014SOL    HW2 3942   1.122   4.804   5.452
 1015SOL     OW 3943   2.874   6.507   6.808
 1015SOL    HW1 3944   2.833   6.467   6.890
 1015SOL    HW2 3945   2.868   6.442   6.733
 1016SOL     OW 3946   5.957   4.231   1.745
 1016SOL    HW1 3947   5.917   4.309   1.792
 1016SOL    HW2 3948   6.038   4.199   1.795
 1017SOL     OW 3949   2.214   1.582   2.041
 1017SOL    HW1 3950   2.117   1.599   2.055
 1017SOL    HW2 3951   2.260   1.668   2.018
 1018SOL     OW 3952   6.928   5.890   3.603
 1018SOL    HW1 3953   6.879   5.815   3.558
 1018SOL    HW2 3954   7.018   5.900   3.562
 1019SOL     OW 3955   6.423   4.412   0.857
 1019SOL    HW1 3956   6.458   4.321   0.839
 1019SOL    HW2 3957   6.467   4.478   0.794
 1020SOL     OW 3958   6.048   0.915   0.998
 1020SOL    HW1 3959   6.002   0.851   0.936
 1020SOL    HW2 3960   6.126   0.957   0.951
 1021SOL     OW 3961   0.143   6.145   1.062
 1021SOL    HW1 3962   0.091   6.223   1.099
 1021SOL    HW2 3963   0.231   6.178   1.027
 1022SOL     OW 3964   2.741   5.579   6.900
 1022SOL    HW1 3965   2.708   5.595   6.807
 1022SOL    HW2 3966   2.733   5.663   6.954
 1023SOL     OW 3967   0.541   1.545   3.314
 1023SOL    HW1 3968   0.507   1.638   3.332
 1023SOL    HW2 3969   0.577   1.506   3.399
 1024SOL     OW 3970   1.816   1.687   4.649
 1024SOL    HW1 3971   1.896   1.742   4.675
 1024SOL    HW2 3972   1.763   1.736   4.579
 1025SOL     OW 3973   4.707   3.713   0.452
 1025SOL    HW1 3974   4.673   3.645   0.388
 1025SOL    HW2 3975   4.630   3.755   0.500
 1026SOL     OW 3976   2.874   2.598   0.930
 1026SOL    HW1 3977   2.963   2.600   0.885
 1026SOL    HW2 3978   2.819   2.676   0.898
 1027SOL     OW 3979   0.928   6.772   0.778
 1027SOL    HW1 3980   0.999   6.825   0.825
 1027SOL    HW2 3981   0.838   6.802   0.809
 1028SOL     OW 3982   1.689   5.771   2.428
 1028SOL    HW1 3983   1.677   5.693   2.489
 1028SOL    HW2 3984   1.667   5.745   2.334
 1029SOL     OW 3985   0.657   1.076   5.830
 1029SOL    HW1 3986   0.562   1.099   5.809
 1029SOL    HW2 3987   0.667   1.065   5.928
 1030SOL     OW 3988   3.661   3.312   1.428
 1030SOL    HW1 3989   3.746   3.278   1.466
 1030SOL    HW2 3990   3.599   3.339   1.502
 1031SOL     OW 3991   3.601   3.502   1.100
 1031SOL    HW1 3992   3.660   3.556   1.160
 1031SOL    HW2 3993   3.605   3.406   1.128
 1032SOL     OW 3994   2.463   2.081   6.652
 1032SOL    HW1 3995   2.441   2.074   6.750
 1032SOL    HW2 3996   2.458   1.991   6.610
 1033SOL     OW 3997   1.036   6.283   2.030
 1033SOL    HW1 3998   1.121   6.322   2.066
 1033SOL    HW2 3999   0.960   6.344   2.052
 1034SOL     OW 4000   3.222   0.642   4.363
 1034SOL    HW1 4001   3.245   0.735   4.392
 1034SOL    HW2 4002   3.145   0.608   4.418
 1035SOL     OW 4003   1.071   1.928   5.827
 1035SOL    HW1 4004   1.073   2.028   5.840
 1035SOL    HW2 4005   1.134   1.885   5.891
 1036SOL     OW 4006   5.421   1.884   1.217
 1036SOL    HW1 4007   5.335   1.864   1.171
 1036SOL    HW2 4008   5.409   1.963   1.277
 1037SOL     OW 4009   1.118   2.730   2.347
 1037SOL    HW1 4010   1.189   2.783   2.301
 1037SOL    HW2 4011   1.103   2.768   2.439
 1038SOL     OW 4012   2.698   6.406   6.971
 1038SOL    HW1 4013   2.658   6.361   0.029
 1038SOL    HW2 4014   2.650   6.491   6.953
 1039SOL     OW 4015   3.727   2.892   3.419
 1039SOL    HW1 4016   3.784   2.972   3.436
 1039SOL    HW2 4017   3.773   2.831   3.354
 1040SOL     OW 4018   3.549   1.167   2.951
 1040SOL    HW1 4019   3.465   1.148   3.002
 1040SOL    HW2 4020   3.625   1.179   3.015
 1041SOL     OW 4021   0.109   5.530   6.017
 1041SOL    HW1 4022   0.128   5.603   6.082
 1041SOL    HW2 4023   0.164   5.449   6.039
 1042SOL     OW 4024   5.722   5.102   2.677
 1042SOL    HW1 4025   5.687   5.161   2.749
 1042SOL    HW2 4026   5.651   5.038   2.649
 1043SOL     OW 4027   3.211   2.167   3.657
 1043SOL    HW1 4028   3.234   2.171   3.754
 1043SOL    HW2 4029   3.131   2.224   3.639
 1044SOL     OW 4030   5.328   4.624   1.852
 1044SOL    HW1 4031   5.319   4.721   1.877
 1044SOL    HW2 4032   5.422   4.594   1.869
 1045SOL     OW 4033   1.913   0.651   2.730
 1045SOL    HW1 4034   1.925   0.695   2.819
 1045SOL    HW2 4035   1.994   0.598   2.708
 1046SOL     OW 4036   3.219   1.112   0.742
 1046SOL    HW1 4037   3.207   1.111   0.842
 1046SOL    HW2 4038   3.131   1.090   0.699
 1047SOL     OW 4039   3.918   6.276   3.997
 1047SOL    HW1 4040   3.896   6.288   3.900
 1047SOL    HW2 4041   4.003   6.224   4.005
 1048SOL     OW 4042   1.243   6.163   2.224
 1048SOL    HW1 4043   1.281   6.242   2.177
 1048SOL    HW2 4044   1.313   6.092   2.232
 1049SOL     OW 4045   4.386   6.283   5.095
 1049SOL    HW1 4046   4.328   6.243   5.166
 1049SOL    HW2 4047   4.438   6.360   5.134
 1050SOL     OW 4048   3.686   5.432   2.973
 1050SOL    HW1 4049   3.606   5.372   2.974
 1050SOL    HW2 4050   3.703   5.465   3.065
 1051SOL     OW 4051   0.863   7.007   6.373
 1051SOL    HW1 4052   0.879   0.005   6.277
 1051SOL    HW2 4053   0.828   6.914   6.382
 1052SOL     OW 4054   3.273   1.000   6.965
 1052SOL    HW1 4055   3.312   1.057   6.892
 1052SOL    HW2 4056   3.315   0.910   6.963
 1053SOL     OW 4057   5.754   2.682   3.532
 1053SOL    HW1 4058   5.741   2.724   3.622
 1053SOL    HW2 4059   5.667   2.644   3.500
 1054SOL     OW 4060   3.122   4.945   6.107
 1054SOL    HW1 4061   3.119   4.849   6.134
 1054SOL    HW2 4062   3.216   4.979   6.113
 1055SOL     OW 4063   5.136   6.338   6.436
 1055SOL    HW1 4064   5.173   6.326   6.529
 1055SOL    HW2 4065   5.037   6.351   6.442
 1056SOL     OW 4066   3.355   3.707   6.553
 1056SOL    HW1 4067   3.266   3.682   6.515
 1056SOL    HW2 4068   3.358   3.680   6.649
 1057SOL     OW 4069   2.877   2.017   0.984
 1057SOL    HW1 4070   2.821   1.941   1.015
 1057SOL    HW2 4071   2.875   2.023   0.884
 1058SOL     OW 4072   2.432   2.420   2.373
 1058SOL    HW1 4073   2.416   2.501   2.317
 1058SOL    HW2 4074   2.372   2.346   2.343
 1059SOL     OW 4075   2.787   6.835   1.857
 1059SOL    HW1 4076   2.713   6.768   1.864
 1059SOL    HW2 4077   2.866   6.802   1.909
 1060SOL     OW 4078   5.748   6.358   5.423
 1060SOL    HW1 4079   5.700   6.429   5.372
 1060SOL    HW2 4080   5.798   6.299   5.359
 1061SOL     OW 4081   0.108   3.858   0.209
 1061SOL    HW1 4082   0.099   3.889   0.304
 1061SOL    HW2 4083   0.026   3.884   0.158
 1062SOL     OW 4084   3.555   6.554   4.882
 1062SOL    HW1 4085   3.538   6.625   4.950
 1062SOL    HW2 4086   3.622   6.489   4.917
 1063SOL     OW 4087   2.774   6.754   5.995
 1063SOL    HW1 4088   2.856   6.747   6.053
 1063SOL    HW2 4089   2.703   6.805   6.044
 1064SOL     OW 4090   1.837   3.613   0.413
 1064SOL    HW1 4091   1.894   3.532   0.398
 1064SOL    HW2 4092   1.741   3.590   0.397
 1065SOL     OW 4093   4.251   1.096   4.289
 1065SOL    HW1 4094   4.313   1.143   4.226
 1065SOL    HW2 4095   4.162   1.084   4.245
 1066SOL     OW 4096   5.151   6.789   1.770
 1066SOL    HW1 4097   5.143   6.721   1.696
 1066SOL    HW2 4098   5.102   6.756   1.851
 1067SOL     OW 4099   2.414   1.668   0.146
 1067SOL    HW1 4100   2.473   1.697   0.071
 1067SOL    HW2 4101   2.471   1.634   0.222
 1068SOL     OW 4102   6.530   3.423   1.487
 1068SOL    HW1 4103   6.628   3.407   1.477
 1068SOL    HW2 4104   6.480   3.339   1.467
 1069SOL     OW 4105   6.375   3.784   1.882
 1069SOL    HW1 4106   6.285   3.821   1.904
 1069SOL    HW2 4107   6.402   3.718   1.952
 1070SOL     OW 4108   0.811   0.033   1.828
 1070SOL    HW1 4109   0.874   0.083   1.769
 1070SOL    HW2 4110   0.855   0.016   1.917
 1071SOL     OW 4111   6.694   3.106   5.693
 1071SOL    HW1 4112   6.669   3.203   5.698
 1071SOL    HW2 4113   6.611   3.051   5.699
 1072SOL     OW 4114   2.080   1.212   2.265
 1072SOL    HW1 4115   2.099   1.231   2.361
 1072SOL    HW2 4116   2.143   1.264   2.207
 1073SOL     OW 4117   4.780   1.952   3.332
 1073SOL    HW1 4118   4.816   1.877   3.387
 1073SOL    HW2 4119   4.726   2.013   3.389
 1074SOL     OW 4120   2.679   4.578   1.689
 1074SOL    HW1 4121   2.745   4.557   1.761
 1074SOL    HW2 4122   2.701   4.667   1.649
 1075SOL     OW 4123   5.716   3.738   5.556
 1075SOL    HW1 4124   5.693   3.784   5.470
 1075SOL    HW2 4125   5.673   3.648   5.558
 1076SOL     OW 4126   2.190   4.071   4.819
 1076SOL    HW1 4127   2.214   4.167   4.830
 1076SOL    HW2 4128   2.204   4.023   4.905
 1077SOL     OW 4129   0.299   6.910   0.047
 1077SOL    HW1 4130   0.348   6.826   0.073
 1077SOL    HW2 4131   0.335   6.945   6.983
 1078SOL     OW 4132   6.749   6.613   4.054
 1078SOL    HW1 4133   6.717   6.707   4.067
 1078SOL    HW2 4134   6.725   6.582   3.962
 1079SOL     OW 4135   0.968   6.942   2.340
 1079SOL    HW1 4136   0.905   6.872   2.373
 1079SOL    HW2 4137   1.054   6.899   2.312
 1080SOL     OW 4138   2.845   5.714   6.213
 1080SOL    HW1 4139   2.854   5.769   6.297
 1080SOL    HW2 4140   2.917   5.645   6.211
 1081SOL     OW 4141   6.636   5.693   4.030
 1081SOL    HW1 4142   6.541   5.663   4.020
 1081SOL    HW2 4143   6.663   5.746   3.949
 1082SOL     OW 4144   4.781   6.559   6.326
 1082SOL    HW1 4145   4.847   6.611   6.273
 1082SOL    HW2 4146   4.746   6.616   6.401
 1083SOL     OW 4147   5.180   4.265   0.923
 1083SOL    HW1 4148   5.169   4.194   0.992
 1083SOL    HW2 4149   5.277   4.281   0.907
 1084SOL     OW 4150   6.775   0.293   5.634
 1084SOL    HW1 4151   6.716   0.234   5.579
 1084SOL    HW2 4152   6.858   0.314   5.583
 1085SOL     OW 4153   1.202   4.026   4.669
 1085SOL    HW1 4154   1.195   3.928   4.650
 1085SOL    HW2 4155   1.290   4.060   4.635
 1086SOL     OW 4156   5.673   5.258   0.724
 1086SOL    HW1 4157   5.686   5.347   0.767
 1086SOL    HW2 4158   5.643   5.192   0.793
 1087SOL     OW 4159   3.437   0.468   5.658
 1087SOL    HW1 4160   3.497   0.524   5.601
 1087SOL    HW2 4161   3.343   0.502   5.653
 1088SOL     OW 4162   0.083   4.783   3.287
 1088SOL    HW1 4163   0.065   4.881   3.286
 1088SOL    HW2 4164   0.051   4.742   3.202
 1089SOL     OW 4165   6.547   4.120   4.213
 1089SOL    HW1 4166   6.514   4.048   4.151
 1089SOL    HW2 4167   6.641   4.100   4.240
 1090SOL     OW 4168   5.675   1.914   5.111
 1090SOL    HW1 4169   5.603   1.983   5.117
 1090SOL    HW2 4170   5.651   1.846   5.042
 1091SOL     OW 4171   2.314   2.682   2.987
 1091SOL    HW1 4172   2.277   2.591   2.965
 1091SOL    HW2 4173   2.368   2.676   3.071
 1092SOL     OW 4174   0.443   5.574   1.170
 1092SOL    HW1 4175   0.470   5.592   1.264
 1092SOL    HW2 4176   0.436   5.475   1.155
 1093SOL     OW 4177   1.775   6.771   2.658
 1093SOL    HW1 4178   1.706   6.797   2.591
 1093SOL    HW2 4179   1.826   6.692   2.624
 1094SOL     OW 4180   0.966   0.102   2.936
 1094SOL    HW1 4181   0.896   0.172   2.951
 1094SOL    HW2 4182   1.051   0.146   2.908
 1095SOL     OW 4183   5.845   3.312   0.196
 1095SOL    HW1 4184   5.844   3.214   0.213
 1095SOL    HW2 4185   5.755   3.351   0.217
 1096SOL     OW 4186   2.730   5.718   1.768
 1096SOL    HW1 4187   2.765   5.670   1.687
 1096SOL    HW2 4188   2.741   5.817   1.755
 1097SOL     OW 4189   3.352   5.213   4.631
 1097SOL    HW1 4190   3.416   5.201   4.555
 1097SOL    HW2 4191   3.300   5.297   4.617
 1098SOL     OW 4192   6.394   4.877   0.771
 1098SOL    HW1 4193   6.357   4.833   0.852
 1098SOL    HW2 4194   6.387   4.977   0.781
 1099SOL     OW 4195   4.910   0.670   5.410
 1099SOL    HW1 4196   4.829   0.631   5.454
 1099SOL    HW2 4197   4.932   0.758   5.452
 1100SOL     OW 4198   3.272   1.701   3.962
 1100SOL    HW1 4199   3.225   1.629   3.911
 1100SOL    HW2 4200   3.205   1.766   3.997
 1101SOL     OW 4201   6.177   3.117   6.242
 1101SOL    HW1 4202   6.233   3.103   6.160
 1101SOL    HW2 4203   6.228   3.091   6.323
 1102SOL     OW 4204   2.587   1.252   3.822
 1102SOL    HW1 4205   2.659   1.209   3.876
 1102SOL    HW2 4206   2.509   1.274   3.880
 1103SOL     OW 4207   2.014   0.058   6.738
 1103SOL    HW1 4208   2.072   7.001   6.719
 1103SOL    HW2 4209   1.946   0.034   6.807
 1104SOL     OW 4210   0.733   3.232   4.096
 1104SOL    HW1 4211   0.787   3.157   4.057
 1104SOL    HW2 4212   0.792   3.290   4.152
 1105SOL     OW 4213   5.459   1.004   5.840
 1105SOL    HW1 4214   5.504   0.992   5.929
 1105SOL    HW2 4215   5.511   1.069   5.785
 1106SOL     OW 4216   0.362   2.298   1.031
 1106SOL    HW1 4217   0.420   2.252   0.965
 1106SOL    HW2 4218   0.386   2.268   1.123
 1107SOL     OW 4219   0.829   1.145   0.027
 1107SOL    HW1 4220   0.848   1.069   0.089
 1107SOL    HW2 4221   0.734   1.175   0.038
 1108SOL     OW 4222   2.971   6.632   3.988
 1108SOL    HW1 4223   3.023   6.558   4.032
 1108SOL    HW2 4224   2.880   6.638   4.029
 1109SOL     OW 4225   4.884   2.037   4.081
 1109SOL    HW1 4226   4.979   2.065   4.092
 1109SOL    HW2 4227   4.832   2.061   4.163
 1110SOL     OW 4228   3.048   0.685   2.327
 1110SOL    HW1 4229   3.058   0.713   2.423
 1110SOL    HW2 4230   2.960   0.639   2.314
 1111SOL     OW 4231   5.417   4.152   6.526
 1111SOL    HW1 4232   5.512   4.155   6.494
 1111SOL    HW2 4233   5.416   4.137   6.625
 1112SOL     OW 4234   4.871   0.152   2.320
 1112SOL    HW1 4235   4.897   0.220   2.251
 1112SOL    HW2 4236   4.954   0.119   2.366
 1113SOL     OW 4237   5.419   4.709   2.302
 1113SOL    HW1 4238   5.421   4.694   2.401
 1113SOL    HW2 4239   5.388   4.803   2.284
 1114SOL     OW 4240   3.866   3.648   5.384
 1114SOL    HW1 4241   3.787   3.709   5.395
 1114SOL    HW2 4242   3.898   3.652   5.289
 1115SOL     OW 4243   2.756   4.595   5.807
 1115SOL    HW1 4244   2.686   4.599   5.736
 1115SOL    HW2 4245   2.844   4.626   5.770
 1116SOL     OW 4246   4.705   0.029   6.048
 1116SOL    HW1 4247   4.800   0.005   6.033
 1116SOL    HW2 4248   4.698   0.128   6.063
 1117SOL     OW 4249   1.190   2.969   1.626
 1117SOL    HW1 4250   1.138   3.053   1.614
 1117SOL    HW2 4251   1.261   2.964   1.556
 1118SOL     OW 4252   3.556   5.011   0.113
 1118SOL    HW1 4253   3.461   5.001   0.081
 1118SOL    HW2 4254   3.563   4.979   0.207
 1119SOL     OW 4255   3.093   4.855   4.411
 1119SOL    HW1 4256   3.095   4.946   4.369
 1119SOL    HW2 4257   3.084   4.863   4.510
 1120SOL     OW 4258   6.731   4.357   0.728
 1120SOL    HW1 4259   6.782   4.278   0.694
 1120SOL    HW2 4260   6.752   4.437   0.670
 1121SOL     OW 4261   6.306   4.564   4.314
 1121SOL    HW1 4262   6.355   4.599   4.235
 1121SOL    HW2 4263   6.210   4.590   4.308
 1122SOL     OW 4264   5.537   2.671   1.556
 1122SOL    HW1 4265   5.564   2.591   1.501
 1122SOL    HW2 4266   5.567   2.657   1.650
 1123SOL     OW 4267   3.808   1.430   2.696
 1123SOL    HW1 4268   3.712   1.446   2.718
 1123SOL    HW2 4269   3.851   1.378   2.770
 1124SOL     OW 4270   2.243   2.932   4.508
 1124SOL    HW1 4271   2.245   2.844   4.556
 1124SOL    HW2 4272   2.337   2.966   4.499
 1125SOL     OW 4273   1.448   3.838   3.877
 1125SOL    HW1 4274   1.367   3.809   3.928
 1125SOL    HW2 4275   1.420   3.878   3.789
 1126SOL     OW 4276   3.346   5.600   4.822
 1126SOL    HW1 4277   3.306   5.628   4.734
 1126SOL    HW2 4278   3.300   5.648   4.896
 1127SOL     OW 4279   5.918   6.770   2.963
 1127SOL    HW1 4280   5.834   6.823   2.948
 1127SOL    HW2 4281   5.894   6.675   2.982
 1128SOL     OW 4282   5.668   1.348   3.635
 1128SOL    HW1 4283   5.707   1.389   3.552
 1128SOL    HW2 4284   5.631   1.420   3.693
 1129SOL     OW 4285   1.698   0.625   0.649
 1129SOL    HW1 4286   1.724   0.591   0.559
 1129SOL    HW2 4287   1.772   0.680   0.687
 1130SOL     OW 4288   2.202   4.915   2.236
 1130SOL    HW1 4289   2.298   4.936   2.254
 1130SOL    HW2 4290   2.170   4.845   2.299
 1131SOL     OW 4291   1.337   5.377   4.783
 1131SOL    HW1 4292   1.380   5.351   4.697
 1131SOL    HW2 4293   1.243   5.345   4.785
 1132SOL     OW 4294   2.519   0.975   2.219
 1132SOL    HW1 4295   2.487   1.024   2.138
 1132SOL    HW2 4296   2.608   0.935   2.200
 1133SOL     OW 4297   0.903   6.751   4.851
 1133SOL    HW1 4298   0.950   6.694   4.919
 1133SOL    HW2 4299   0.966   6.821   4.818
 1134SOL     OW 4300   3.694   6.859   1.642
 1134SOL    HW1 4301   3.665   6.839   1.736
 1134SOL    HW2 4302   3.703   6.958   1.630
 1135SOL     OW 4303   1.965   5.841   3.946
 1135SOL    HW1 4304   1.904   5.861   3.870
 1135SOL    HW2 4305   1.912   5.811   4.025
 1136SOL     OW 4306   2.137   5.640   1.741
 1136SOL    HW1 4307   2.206   5.568   1.738
 1136SOL    HW2 4308   2.102   5.657   1.648
 1137SOL     OW 4309   0.787   5.258   5.495
 1137SOL    HW1 4310   0.728   5.337   5.512
 1137SOL    HW2 4311   0.850   5.245   5.572
 1138SOL     OW 4312   1.999   2.817   4.644
 1138SOL    HW1 4313   1.933   2.821   4.719
 1138SOL    HW2 4314   1.950   2.813   4.557
 1139SOL     OW 4315   3.002   5.423   4.367
 1139SOL    HW1 4316   2.983   5.517   4.393
 1139SOL    HW2 4317   2.966   5.406   4.275
 1140SOL     OW 4318   1.329   1.314   0.701
 1140SOL    HW1 4319   1.297   1.231   0.748
 1140SOL    HW2 4320   1.339   1.388   0.768
 1141SOL     OW 4321   6.074   4.958   6.272
 1141SOL    HW1 4322   6.056   5.046   6.317
 1141SOL    HW2 4323   5.993   4.928   6.222
 1142SOL     OW 4324   2.385   6.183   2.979
 1142SOL    HW1 4325   2.334   6.180   2.893
 1142SOL    HW2 4326   2.322   6.164   3.055
 1143SOL     OW 4327   1.478   4.066   1.870
 1143SOL    HW1 4328   1.424   4.138   1.912
 1143SOL    HW2 4329   1.572   4.098   1.858
 1144SOL     OW 4330   5.638   4.310   1.477
 1144SOL    HW1 4331   5.577   4.263   1.413
 1144SOL    HW2 4332   5.695   4.243   1.524
 1145SOL     OW 4333   6.838   0.960   1.058
 1145SOL    HW1 4334   6.774   0.958   1.135
 1145SOL    HW2 4335   6.929   0.984   1.091
 1146SOL     OW 4336   0.758   1.267   1.577
 1146SOL    HW1 4337   0.764   1.180   1.627
 1146SOL    HW2 4338   0.824   1.266   1.502
 1147SOL     OW 4339   3.381   6.270   1.586
 1147SOL    HW1 4340   3.401   6.179   1.621
 1147SOL    HW2 4341   3.397   6.272   1.487
 1148SOL     OW 4342   4.663   5.083   3.689
 1148SOL    HW1 4343   4.734   5.083   3.618
 1148SOL    HW2 4344   4.617   4.994   3.690
 1149SOL     OW 4345   4.651   2.919   1.144
 1149SOL    HW1 4346   4.564   2.925   1.192
 1149SOL    HW2 4347   4.721   2.968   1.195
 1150SOL     OW 4348   2.040   4.134   0.224
 1150SOL    HW1 4349   2.133   4.157   0.196
 1150SOL    HW2 4350   2.036   4.038   0.254
 1151SOL     OW 4351   6.281   5.904   4.016
 1151SOL    HW1 4352   6.210   5.964   4.054
 1151SOL    HW2 4353   6.344   5.957   3.961
 1152SOL     OW 4354   3.938   6.687   6.585
 1152SOL    HW1 4355   3.858   6.692   6.644
 1152SOL    HW2 4356   3.998   6.764   6.604
 1153SOL     OW 4357   6.429   0.428   1.035
 1153SOL    HW1 4358   6.474   0.362   0.975
 1153SOL    HW2 4359   6.375   0.379   1.104
 1154SOL     OW 4360   1.852   2.589   1.578
 1154SOL    HW1 4361   1.827   2.593   1.482
 1154SOL    HW2 4362   1.946   2.621   1.590
 1155SOL     OW 4363   2.876   6.334   4.906
 1155SOL    HW1 4364   2.792   6.279   4.912
 1155SOL    HW2 4365   2.955   6.276   4.925
 1156SOL     OW 4366   3.156   2.104   3.982
 1156SOL    HW1 4367   3.253   2.105   3.956
 1156SOL    HW2 4368   3.116   2.017   3.955
 1157SOL     OW 4369   3.689   1.283   6.063
 1157SOL    HW1 4370   3.760   1.223   6.027
 1157SOL    HW2 4371   3.730   1.370   6.093
 1158SOL     OW 4372   6.046   6.048   2.845
 1158SOL    HW1 4373   6.071   6.000   2.761
 1158SOL    HW2 4374   5.947   6.058   2.850
 1159SOL     OW 4375   6.243   6.031   1.612
 1159SOL    HW1 4376   6.294   5.996   1.534
 1159SOL    HW2 4377   6.257   6.130   1.620
 1160SOL     OW 4378   5.867   1.255   0.660
 1160SOL    HW1 4379   5.806   1.283   0.586
 1160SOL    HW2 4380   5.958   1.236   0.623
 1161SOL     OW 4381   0.813   5.210   0.628
 1161SOL    HW1 4382   0.845   5.304   0.641
 1161SOL    HW2 4383   0.714   5.206   0.646
 1162SOL     OW 4384   2.512   2.455   4.854
 1162SOL    HW1 4385   2.495   2.554   4.849
 1162SOL    HW2 4386   2.482   2.411   4.770
 1163SOL     OW 4387   5.778   3.292   1.737
 1163SOL    HW1 4388   5.798   3.313   1.832
 1163SOL    HW2 4389   5.856   3.317   1.680
 1164SOL     OW 4390   4.614   2.378   5.038
 1164SOL    HW1 4391   4.562   2.410   4.959
 1164SOL    HW2 4392   4.562   2.398   5.122
 1165SOL     OW 4393   4.113   6.442   3.223
 1165SOL    HW1 4394   4.204   6.422   3.189
 1165SOL    HW2 4395   4.059   6.357   3.226
 1166SOL     OW 4396   2.653   5.072   6.802
 1166SOL    HW1 4397   2.719   5.009   6.843
 1166SOL    HW2 4398   2.571   5.021   6.774
 1167SOL     OW 4399   5.836   4.833   2.216
 1167SOL    HW1 4400   5.795   4.784   2.293
 1167SOL    HW2 4401   5.791   4.804   2.131
 1168SOL     OW 4402   6.215   1.542   3.332
 1168SOL    HW1 4403   6.273   1.588   3.399
 1168SOL    HW2 4404   6.121   1.572   3.342
 1169SOL     OW 4405   5.682   1.013   5.171
 1169SOL    HW1 4406   5.591   0.977   5.192
 1169SOL    HW2 4407   5.717   1.063   5.250
 1170SOL     OW 4408   4.828   6.647   3.809
 1170SOL    HW1 4409   4.784   6.569   3.854
 1170SOL    HW2 4410   4.878   6.615   3.729
 1171SOL     OW 4411   1.113   0.162   0.992
 1171SOL    HW1 4412   1.132   0.115   1.078
 1171SOL    HW2 4413   1.142   0.258   0.999
 1172SOL     OW 4414   6.867   3.460   6.410
 1172SOL    HW1 4415   6.826   3.536   6.359
 1172SOL    HW2 4416   6.895   3.389   6.345
 1173SOL     OW 4417   3.649   1.592   0.602
 1173SOL    HW1 4418   3.579   1.630   0.542
 1173SOL    HW2 4419   3.724   1.556   0.547
 1174SOL     OW 4420   3.509   2.969   0.484
 1174SOL    HW1 4421   3.589   2.936   0.535
 1174SOL    HW2 4422   3.425   2.939   0.531
 1175SOL     OW 4423   3.105   3.230   3.952
 1175SOL    HW1 4424   3.186   3.172   3.962
 1175SOL    HW2 4425   3.069   3.221   3.859
 1176SOL     OW 4426   5.653   3.865   6.520
 1176SOL    HW1 4427   5.676   3.887   6.425
 1176SOL    HW2 4428   5.568   3.813   6.523
 1177SOL     OW 4429   6.877   2.210   5.148
 1177SOL    HW1 4430   6.879   2.252   5.239
 1177SOL    HW2 4431   6.909   2.115   5.154
 1178SOL     OW 4432   3.215   4.979   0.539
 1178SOL    HW1 4433   3.222   4.973   0.638
 1178SOL    HW2 4434   3.135   5.034   0.514
 1179SOL     OW 4435   2.488   5.726   0.200
 1179SOL    HW1 4436   2.500   5.807   0.258
 1179SOL    HW2 4437   2.396   5.726   0.161
 1180SOL     OW 4438   4.013   6.156   0.861
 1180SOL    HW1 4439   3.923   6.170   0.820
 1180SOL    HW2 4440   4.034   6.058   0.863
 1181SOL     OW 4441   0.700   5.512   0.641
 1181SOL    HW1 4442   0.622   5.560   0.682
 1181SOL    HW2 4443   0.671   5.470   0.555
 1182SOL     OW 4444   4.572   4.857   2.865
 1182SOL    HW1 4445   4.481   4.881   2.899
 1182SOL    HW2 4446   4.638   4.860   2.941
 1183SOL     OW 4447   2.166   3.582   6.170
 1183SOL    HW1 4448   2.245   3.567   6.111
 1183SOL    HW2 4449   2.101   3.642   6.124
 1184SOL     OW 4450   1.470   6.532   5.322
 1184SOL    HW1 4451   1.505   6.511   5.231
 1184SOL    HW2 4452   1.516   6.474   5.390
 1185SOL     OW 4453   6.736   1.308   6.456
 1185SOL    HW1 4454   6.820   1.257   6.473
 1185SOL    HW2 4455   6.666   1.247   6.419
 1186SOL     OW 4456   5.338   6.299   5.063
 1186SOL    HW1 4457   5.300   6.388   5.039
 1186SOL    HW2 4458   5.271   6.248   5.117
 1187SOL     OW 4459   6.073   0.728   5.745
 1187SOL    HW1 4460   6.173   0.725   5.741
 1187SOL    HW2 4461   6.037   0.635   5.730
 1188SOL     OW 4462   2.279   6.660   5.608
 1188SOL    HW1 4463   2.194   6.679   5.559
 1188SOL    HW2 4464   2.350   6.632   5.543
 1189SOL     OW 4465   5.682   3.599   3.188
 1189SOL    HW1 4466   5.615   3.539   3.230
 1189SOL    HW2 4467   5.771   3.552   3.184
 1190SOL     OW 4468   1.865   5.957   2.499
 1190SOL    HW1 4469   1.937   5.935   2.433
 1190SOL    HW2 4470   1.783   5.904   2.478
 1191SOL     OW 4471   4.951   5.532   2.536
 1191SOL    HW1 4472   4.917   5.460   2.596
 1191SOL    HW2 4473   4.907   5.523   2.446
 1192SOL     OW 4474   4.622   6.379   3.730
 1192SOL    HW1 4475   4.637   6.402   3.826
 1192SOL    HW2 4476   4.658   6.287   3.712
 1193SOL     OW 4477   6.820   5.513   3.852
 1193SOL    HW1 4478   6.794   5.572   3.776
 1193SOL    HW2 4479   6.754   5.525   3.927
 1194SOL     OW 4480   4.202   0.732   1.340
 1194SOL    HW1 4481   4.181   0.669   1.415
 1194SOL    HW2 4482   4.265   0.802   1.373
 1195SOL     OW 4483   5.865   2.073   2.670
 1195SOL    HW1 4484   5.790   2.134   2.694
 1195SOL    HW2 4485   5.947   2.128   2.650
 1196SOL     OW 4486   6.412   6.587   4.727
 1196SOL    HW1 4487   6.384   6.542   4.812
 1196SOL    HW2 4488   6.344   6.656   4.702
 1197SOL     OW 4489   3.008   6.306   0.614
 1197SOL    HW1 4490   3.015   6.241   0.539
 1197SOL    HW2 4491   2.929   6.285   0.671
 1198SOL     OW 4492   0.916   1.918   0.723
 1198SOL    HW1 4493   0.882   1.946   0.812
 1198SOL    HW2 4494   0.974   1.837   0.733
 1199SOL     OW 4495   5.113   4.632   2.316
 1199SOL    HW1 4496   5.108   4.728   2.345
 1199SOL    HW2 4497   5.148   4.628   2.222
 1200SOL     OW 4498   2.888   3.677   2.464
 1200SOL    HW1 4499   2.954   3.602   2.460
 1200SOL    HW2 4500   2.801   3.648   2.426
 1201SOL     OW 4501   1.585   1.841   4.492
 1201SOL    HW1 4502   1.563   1.870   4.399
 1201SOL    HW2 4503   1.569   1.916   4.556
 1202SOL     OW 4504   0.053   4.966   6.530
 1202SOL    HW1 4505   0.143   4.988   6.568
 1202SOL    HW2 4506   0.032   5.030   6.456
 1203SOL     OW 4507   4.764   5.844   5.549
 1203SOL    HW1 4508   4.676   5.885   5.571
 1203SOL    HW2 4509   4.751   5.769   5.484
 1204SOL     OW 4510   1.799   0.370   2.154
 1204SOL    HW1 4511   1.776   0.457   2.197
 1204SOL    HW2 4512   1.898   0.355   2.159
 1205SOL     OW 4513   5.212   4.019   1.798
 1205SOL    HW1 4514   5.219   4.034   1.699
 1205SOL    HW2 4515   5.124   4.054   1.830
 1206SOL     OW 4516   3.274   3.088   5.145
 1206SOL    HW1 4517   3.185   3.131   5.155
 1206SOL    HW2 4518   3.266   2.990   5.167
 1207SOL     OW 4519   1.913   6.881   2.111
 1207SOL    HW1 4520   1.957   6.955   2.161
 1207SOL    HW2 4521   1.968   6.797   2.121
 1208SOL     OW 4522   3.091   3.683   6.382
 1208SOL    HW1 4523   2.993   3.697   6.385
 1208SOL    HW2 4524   3.116   3.635   6.298
 1209SOL     OW 4525   4.051   0.181   5.254
 1209SOL    HW1 4526   4.040   0.188   5.353
 1209SOL    HW2 4527   4.139   0.220   5.228
 1210SOL     OW 4528   3.203   1.193   2.937
 1210SOL    HW1 4529   3.200   1.095   2.955
 1210SOL    HW2 4530   3.193   1.243   3.024
 1211SOL     OW 4531   0.985   3.650   1.075
 1211SOL    HW1 4532   1.043   3.720   1.032
 1211SOL    HW2 4533   0.890   3.681   1.074
 1212SOL     OW 4534   0.785   6.696   6.753
 1212SOL    HW1 4535   0.743   6.681   6.843
 1212SOL    HW2 4536   0.884   6.704   6.763
 1213SOL     OW 4537   5.359   2.727   0.647
 1213SOL    HW1 4538   5.273   2.767   0.614
 1213SOL    HW2 4539   5.431   2.796   0.643
 1214SOL     OW 4540   0.236   2.128   1.669
 1214SOL    HW1 4541   0.150   2.107   1.623
 1214SOL    HW2 4542   0.313   2.094   1.615
 1215SOL     OW 4543   0.926   5.354   3.963
 1215SOL    HW1 4544   0.966   5.263   3.979
 1215SOL    HW2 4545   0.998   5.423   3.966
 1216SOL     OW 4546   4.469   6.877   6.415
 1216SOL    HW1 4547   4.421   6.830   6.489
 1216SOL    HW2 4548   4.443   6.974   6.415
 1217SOL     OW 4549   2.685   4.572   0.285
 1217SOL    HW1 4550   2.631   4.489   0.298
 1217SOL    HW2 4551   2.624   4.648   0.262
 1218SOL     OW 4552   1.578   4.063   3.768
 1218SOL    HW1 4553   1.574   3.991   3.836
 1218SOL    HW2 4554   1.497   4.122   3.776
 1219SOL     OW 4555   4.096   6.009   2.430
 1219SOL    HW1 4556   4.192   6.024   2.455
 1219SOL    HW2 4557   4.038   6.068   2.487
 1220SOL     OW 4558   1.169   4.911   2.672
 1220SOL    HW1 4559   1.094   4.877   2.729
 1220SOL    HW2 4560   1.148   5.003   2.640
 1221SOL     OW 4561   5.945   3.798   6.118
 1221SOL    HW1 4562   5.975   3.811   6.023
 1221SOL    HW2 4563   5.969   3.706   6.148
 1222SOL     OW 4564   0.190   6.155   0.015
 1222SOL    HW1 4565   0.288   6.138   0.014
 1222SOL    HW2 4566   0.147   6.097   0.084
 1223SOL     OW 4567   3.797   6.231   0.734
 1223SOL    HW1 4568   3.803   6.229   0.634
 1223SOL    HW2 4569   3.709   6.192   0.762
 1224SOL     OW 4570   2.814   6.907   1.584
 1224SOL    HW1 4571   2.766   6.831   1.541
 1224SOL    HW2 4572   2.834   6.885   1.679
 1225SOL     OW 4573   3.104   4.543   6.522
 1225SOL    HW1 4574   3.202   4.525   6.527
 1225SOL    HW2 4575   3.056   4.461   6.492
 1226SOL     OW 4576   2.020   4.664   0.933
 1226SOL    HW1 4577   1.959   4.744   0.934
 1226SOL    HW2 4578   1.966   4.580   0.934
 1227SOL     OW 4579   0.135   3.776   6.363
 1227SOL    HW1 4580   0.150   3.681   6.389
 1227SOL    HW2 4581   0.151   3.835   6.441
 1228SOL     OW 4582   4.020   2.193   6.032
 1228SOL    HW1 4583   4.073   2.274   6.007
 1228SOL    HW2 4584   4.078   2.131   6.086
 1229SOL     OW 4585   3.393   4.725   6.381
 1229SOL    HW1 4586   3.335   4.746   6.460
 1229SOL    HW2 4587   3.381   4.630   6.355
 1230SOL     OW 4588   4.410   6.685   3.474
 1230SOL    HW1 4589   4.439   6.590   3.483
 1230SOL    HW2 4590   4.473   6.744   3.525
 1231SOL     OW 4591   1.629   3.641   4.532
 1231SOL    HW1 4592   1.612   3.584   4.452
 1231SOL    HW2 4593   1.665   3.585   4.607
 1232SOL     OW 4594   1.507   2.252   4.450
 1232SOL    HW1 4595   1.552   2.168   4.421
 1232SOL    HW2 4596   1.565   2.330   4.429
 1233SOL     OW 4597   0.607   3.660   4.778
 1233SOL    HW1 4598   0.519   3.707   4.784
 1233SOL    HW2 4599   0.626   3.636   4.683
 1234SOL     OW 4600   6.270   4.252   4.694
 1234SOL    HW1 4601   6.205   4.280   4.624
 1234SOL    HW2 4602   6.358   4.296   4.677
 1235SOL     OW 4603   6.770   5.882   3.835
 1235SOL    HW1 4604   6.812   5.874   3.745
 1235SOL    HW2 4605   6.769   5.978   3.863
 1236SOL     OW 4606   5.306   0.594   0.139
 1236SOL    HW1 4607   5.320   0.687   0.172
 1236SOL    HW2 4608   5.344   0.585   0.047
 1237SOL     OW 4609   3.694   5.127   6.469
 1237SOL    HW1 4610   3.664   5.040   6.508
 1237SOL    HW2 4611   3.782   5.152   6.509
 1238SOL     OW 4612   1.643   1.895   1.337
 1238SOL    HW1 4613   1.714   1.961   1.363
 1238SOL    HW2 4614   1.563   1.907   1.396
 1239SOL     OW 4615   6.892   6.093   0.002
 1239SOL    HW1 4616   6.935   6.065   6.939
 1239SOL    HW2 4617   6.909   6.190   0.019
 1240SOL     OW 4618   4.817   6.150   1.877
 1240SOL    HW1 4619   4.837   6.080   1.808
 1240SOL    HW2 4620   4.867   6.233   1.856
 1241SOL     OW 4621   6.446   3.574   3.669
 1241SOL    HW1 4622   6.524   3.613   3.621
 1241SOL    HW2 4623   6.464   3.479   3.692
 1242SOL     OW 4624   2.214   3.831   0.191
 1242SOL    HW1 4625   2.119   3.807   0.173
 1242SOL    HW2 4626   2.245   3.786   0.275
 1243SOL     OW 4627   2.489   5.025   5.279
 1243SOL    HW1 4628   2.514   5.120   5.300
 1243SOL    HW2 4629   2.572   4.972   5.261
 1244SOL     OW 4630   0.783   1.231   3.837
 1244SOL    HW1 4631   0.692   1.229   3.795
 1244SOL    HW2 4632   0.789   1.158   3.906
 1245SOL     OW 4633   3.361   3.584   0.119
 1245SOL    HW1 4634   3.436   3.528   0.154
 1245SOL    HW2 4635   3.327   3.546   0.034
 1246SOL     OW 4636   1.518   6.322   2.342
 1246SOL    HW1 4637   1.593   6.262   2.313
 1246SOL    HW2 4638   1.461   6.274   2.409
 1247SOL     OW 4639   1.685   6.398   6.535
 1247SOL    HW1 4640   1.744   6.438   6.465
 1247SOL    HW2 4641   1.633   6.322   6.495
 1248SOL     OW 4642   2.197   5.652   3.878
 1248SOL    HW1 4643   2.151   5.740   3.868
 1248SOL    HW2 4644   2.157   5.601   3.954
 1249SOL     OW 4645   6.106   3.363   3.116
 1249SOL    HW1 4646   6.195   3.408   3.112
 1249SOL    HW2 4647   6.042   3.420   3.167
 1250SOL     OW 4648   0.956   4.997   4.543
 1250SOL    HW1 4649   1.051   5.006   4.572
 1250SOL    HW2 4650   0.933   4.900   4.535
 1251SOL     OW 4651   3.895   0.702   4.895
 1251SOL    HW1 4652   3.988   0.667   4.887
 1251SOL    HW2 4653   3.897   0.791   4.941
 1252SOL     OW 4654   3.677   3.958   5.968
 1252SOL    HW1 4655   3.717   3.960   6.060
 1252SOL    HW2 4656   3.627   3.872   5.956
 1253SOL     OW 4657   3.988   5.691   3.132
 1253SOL    HW1 4658   3.994   5.750   3.212
 1253SOL    HW2 4659   3.900   5.707   3.086
 1254SOL     OW 4660   6.406   2.151   2.973
 1254SOL    HW1 4661   6.498   2.172   2.941
 1254SOL    HW2 4662   6.372   2.070   2.925
 1255SOL     OW 4663   6.597   6.477   6.459
 1255SOL    HW1 4664   6.687   6.522   6.457
 1255SOL    HW2 4665   6.531   6.532   6.408
 1256SOL     OW 4666   4.304   1.054   3.482
 1256SOL    HW1 4667   4.362   1.011   3.413
 1256SOL    HW2 4668   4.275   1.144   3.449
 1257SOL     OW 4669   6.400   1.311   3.881
 1257SOL    HW1 4670   6.460   1.241   3.843
 1257SOL    HW2 4671   6.319   1.267   3.921
 1258SOL     OW 4672   0.413   6.726   3.359
 1258SOL    HW1 4673   0.339   6.760   3.301
 1258SOL    HW2 4674   0.385   6.641   3.404
 1259SOL     OW 4675   4.402   1.970   4.547
 1259SOL    HW1 4676   4.488   1.972   4.598
 1259SOL    HW2 4677   4.327   1.996   4.607
 1260SOL     OW 4678   1.320   0.710   6.986
 1260SOL    HW1 4679   1.324   0.697   6.887
 1260SOL    HW2 4680   1.412   0.727   7.022
 1261SOL     OW 4681   6.775   4.497   0.992
 1261SOL    HW1 4682   6.733   4.427   0.934
 1261SOL    HW2 4683   6.832   4.453   1.061
 1262SOL     OW 4684   5.268   6.113   1.211
 1262SOL    HW1 4685   5.232   6.054   1.138
 1262SOL    HW2 4686   5.270   6.063   1.297
 1263SOL     OW 4687   1.146   2.191   3.424
 1263SOL    HW1 4688   1.082   2.136   3.370
 1263SOL    HW2 4689   1.190   2.134   3.494
 1264SOL     OW 4690   0.758   2.493   5.317
 1264SOL    HW1 4691   0.714   2.468   5.231
 1264SOL    HW2 4692   0.854   2.516   5.301
 1265SOL     OW 4693   5.771   6.397   4.805
 1265SOL    HW1 4694   5.696   6.339   4.773
 1265SOL    HW2 4695   5.852   6.340   4.823
 1266SOL     OW 4696   1.974   0.757   4.903
 1266SOL    HW1 4697   2.023   0.825   4.957
 1266SOL    HW2 4698   2.038   0.692   4.863
 1267SOL     OW 4699   3.953   6.927   2.963
 1267SOL    HW1 4700   3.951   6.828   2.945
 1267SOL    HW2 4701   4.040   6.965   2.932
 1268SOL     OW 4702   4.163   2.531   5.458
 1268SOL    HW1 4703   4.260   2.531   5.478
 1268SOL    HW2 4704   4.149   2.543   5.359
 1269SOL     OW 4705   6.272   2.337   4.056
 1269SOL    HW1 4706   6.192   2.387   4.022
 1269SOL    HW2 4707   6.243   2.265   4.118
 1270SOL     OW 4708   6.483   5.971   2.618
 1270SOL    HW1 4709   6.408   5.971   2.552
 1270SOL    HW2 4710   6.474   5.891   2.678
 1271SOL     OW 4711   1.631   1.487   0.850
 1271SOL    HW1 4712   1.668   1.452   0.936
 1271SOL    HW2 4713   1.627   1.414   0.782
 1272SOL     OW 4714   6.392   3.713   0.022
 1272SOL    HW1 4715   6.410   3.808   0.045
 1272SOL    HW2 4716   6.306   3.706   6.994
 1273SOL     OW 4717   1.200   4.838   4.869
 1273SOL    HW1 4718   1.233   4.744   4.873
 1273SOL    HW2 4719   1.199   4.877   4.962
 1274SOL     OW 4720   0.184   5.700   2.963
 1274SOL    HW1 4721   0.151   5.631   3.027
 1274SOL    HW2 4722   0.276   5.677   2.933
 1275SOL     OW 4723   2.438   1.362   2.969
 1275SOL    HW1 4724   2.482   1.352   3.058
 1275SOL    HW2 4725   2.490   1.312   2.900
 1276SOL     OW 4726   5.281   4.751   3.888
 1276SOL    HW1 4727   5.262   4.673   3.947
 1276SOL    HW2 4728   5.206   4.763   3.823
 1277SOL     OW 4729   0.722   6.127   0.354
 1277SOL    HW1 4730   0.724   6.112   0.453
 1277SOL    HW2 4731   0.662   6.059   0.311
 1278SOL     OW 4732   1.358   5.689   2.503
 1278SOL    HW1 4733   1.390   5.641   2.585
 1278SOL    HW2 4734   1.307   5.771   2.530
 1279SOL     OW 4735   2.067   2.457   0.699
 1279SOL    HW1 4736   2.027   2.415   0.782
 1279SOL    HW2 4737   2.165   2.469   0.712
 1280SOL     OW 4738   1.997   2.299   3.667
 1280SOL    HW1 4739   1.916   2.333   3.715
 1280SOL    HW2 4740   2.012   2.204   3.691
 1281SOL     OW 4741   4.407   6.116   4.666
 1281SOL    HW1 4742   4.366   6.098   4.577
 1281SOL    HW2 4743   4.444   6.208   4.667
 1282SOL     OW 4744   6.575   2.186   1.410
 1282SOL    HW1 4745   6.502   2.252   1.394
 1282SOL    HW2 4746   6.656   2.232   1.444
 1283SOL     OW 4747   6.956   2.881   4.906
 1283SOL    HW1 4748   6.978   2.974   4.934
 1283SOL    HW2 4749   6.883   2.883   4.837
 1284SOL     OW 4750   4.257   1.880   1.738
 1284SOL    HW1 4751   4.278   1.931   1.822
 1284SOL    HW2 4752   4.159   1.881   1.722
 1285SOL     OW 4753   4.479   1.206   4.859
 1285SOL    HW1 4754   4.416   1.138   4.823
 1285SOL    HW2 4755   4.468   1.292   4.809
 1286SOL     OW 4756   5.433   2.121   1.802
 1286SOL    HW1 4757   5.358   2.080   1.855
 1286SOL    HW2 4758   5.405   2.212   1.770
 1287SOL     OW 4759   6.543   4.373   4.692
 1287SOL    HW1 4760   6.622   4.326   4.730
 1287SOL    HW2 4761   6.557   4.390   4.595
 1288SOL     OW 4762   4.211   3.990   0.010
 1288SOL    HW1 4763   4.133   3.998   0.072
 1288SOL    HW2 4764   4.271   4.069   0.023
 1289SOL     OW 4765   6.930   0.371   1.596
 1289SOL    HW1 4766   6.891   0.430   1.667
 1289SOL    HW2 4767   6.953   0.282   1.635
 1290SOL     OW 4768   1.947   6.762   6.148
 1290SOL    HW1 4769   2.022   6.805   6.097
 1290SOL    HW2 4770   1.862   6.812   6.132
 1291SOL     OW 4771   6.694   5.108   3.153
 1291SOL    HW1 4772   6.728   5.085   3.062
 1291SOL    HW2 4773   6.706   5.030   3.214
 1292SOL     OW 4774   0.788   6.736   2.019
 1292SOL    HW1 4775   0.718   6.700   1.957
 1292SOL    HW2 4776   0.787   6.836   2.016
 1293SOL     OW 4777   3.609   1.761   0.088
 1293SOL    HW1 4778   3.537   1.829   0.105
 1293SOL    HW2 4779   3.582   1.703   0.011
 1294SOL     OW 4780   2.265   3.571   5.305
 1294SOL    HW1 4781   2.359   3.553   5.334
 1294SOL    HW2 4782   2.250   3.670   5.302
 1295SOL     OW 4783   6.178   4.459   0.800
 1295SOL    HW1 4784   6.269   4.439   0.837
 1295SOL    HW2 4785   6.188   4.505   0.711
 1296SOL     OW 4786   5.300   0.025   5.671
 1296SOL    HW1 4787   5.310   0.076   5.756
 1296SOL    HW2 4788   5.245   0.077   5.606
 1297SOL     OW 4789   0.496   0.294   2.402
 1297SOL    HW1 4790   0.485   0.236   2.482
 1297SOL    HW2 4791   0.488   0.390   2.429
 1298SOL     OW 4792   5.200   6.340   2.547
 1298SOL    HW1 4793   5.211   6.253   2.500
 1298SOL    HW2 4794   5.105   6.351   2.575
 1299SOL     OW 4795   1.212   3.326   5.086
 1299SOL    HW1 4796   1.241   3.231   5.079
 1299SOL    HW2 4797   1.285   3.381   5.124
 1300SOL     OW 4798   0.950   4.606   2.059
 1300SOL    HW1 4799   0.984   4.555   1.980
 1300SOL    HW2 4800   0.870   4.660   2.033
 1301SOL     OW 4801   0.872   0.358   0.862
 1301SOL    HW1 4802   0.907   0.268   0.889
 1301SOL    HW2 4803   0.895   0.376   0.767
 1302SOL     OW 4804   5.477   0.003   4.610
 1302SOL    HW1 4805   5.425   6.951   4.652
 1302SOL    HW2 4806   5.507   0.067   4.682
 1303SOL     OW 4807   3.916   6.372   2.072
 1303SOL    HW1 4808   3.981   6.331   2.008
 1303SOL    HW2 4809   3.887   6.302   2.138
 1304SOL     OW 4810   0.532   1.263   0.566
 1304SOL    HW1 4811   0.573   1.222   0.485
 1304SOL    HW2 4812   0.520   1.193   0.636
 1305SOL     OW 4813   5.376   3.663   6.231
 1305SOL    HW1 4814   5.355   3.760   6.232
 1305SOL    HW2 4815   5.400   3.633   6.323
 1306SOL     OW 4816   2.544   5.215   4.315
 1306SOL    HW1 4817   2.532   5.149   4.389
 1306SOL    HW2 4818   2.508   5.177   4.230
 1307SOL     OW 4819   2.822   2.027   3.316
 1307SOL    HW1 4820   2.916   2.027   3.349
 1307SOL    HW2 4821   2.760   2.000   3.390
 1308SOL     OW 4822   0.813   4.480   6.017
 1308SOL    HW1 4823   0.828   4.512   5.923
 1308SOL    HW2 4824   0.723   4.510   6.049
 1309SOL     OW 4825   5.398   4.549   6.794
 1309SOL    HW1 4826   5.331   4.506   6.734
 1309SOL    HW2 4827   5.489   4.544   6.752
 1310SOL     OW 4828   1.292   3.828   3.345
 1310SOL    HW1 4829   1.309   3.757   3.277
 1310SOL    HW2 4830   1.203   3.812   3.388
 1311SOL     OW 4831   0.077   5.608   0.641
 1311SOL    HW1 4832   0.137   5.641   0.714
 1311SOL    HW2 4833   0.059   5.511   0.655
 1312SOL     OW 4834   2.297   1.105   6.078
 1312SOL    HW1 4835   2.211   1.156   6.075
 1312SOL    HW2 4836   2.283   1.014   6.040
 1313SOL     OW 4837   6.306   6.296   2.448
 1313SOL    HW1 4838   6.392   6.275   2.494
 1313SOL    HW2 4839   6.320   6.372   2.384
 1314SOL     OW 4840   2.189   1.585   5.099
 1314SOL    HW1 4841   2.101   1.590   5.145
 1314SOL    HW2 4842   2.261   1.565   5.166
 1315SOL     OW 4843   6.187   1.286   3.289
 1315SOL    HW1 4844   6.206   1.383   3.306
 1315SOL    HW2 4845   6.159   1.242   3.374
 1316SOL     OW 4846   4.262   0.594   5.238
 1316SOL    HW1 4847   4.352   0.638   5.244
 1316SOL    HW2 4848   4.192   0.656   5.272
 1317SOL     OW 4849   3.066   3.316   5.888
 1317SOL    HW1 4850   3.020   3.320   5.799
 1317SOL    HW2 4851   3.087   3.408   5.918
 1318SOL     OW 4852   2.047   2.488   6.251
 1318SOL    HW1 4853   1.990   2.417   6.293
 1318SOL    HW2 4854   1.988   2.560   6.214
 1319SOL     OW 4855   6.720   6.406   1.038
 1319SOL    HW1 4856   6.689   6.481   1.097
 1319SOL    HW2 4857   6.805   6.431   0.993
 1320SOL     OW 4858   3.497   3.002   6.039
 1320SOL    HW1 4859   3.448   3.061   5.975
 1320SOL    HW2 4860   3.438   2.981   6.118
 1321SOL     OW 4861   5.244   2.721   0.193
 1321SOL    HW1 4862   5.285   2.637   0.159
 1321SOL    HW2 4863   5.179   2.756   0.126
 1322SOL     OW 4864   3.447   1.692   0.408
 1322SOL    HW1 4865   3.466   1.786   0.379
 1322SOL    HW2 4866   3.379   1.693   0.482
 1323SOL     OW 4867   4.069   6.870   0.696
 1323SOL    HW1 4868   3.990   6.818   0.662
 1323SOL    HW2 4869   4.118   6.910   0.618
 1324SOL     OW 4870   1.559   3.384   0.140
 1324SOL    HW1 4871   1.606   3.406   0.054
 1324SOL    HW2 4872   1.571   3.460   0.204
 1325SOL     OW 4873   2.609   5.239   5.744
 1325SOL    HW1 4874   2.587   5.277   5.834
 1325SOL    HW2 4875   2.705   5.257   5.723
 1326SOL     OW 4876   4.802   2.983   3.591
 1326SOL    HW1 4877   4.745   3.035   3.654
 1326SOL    HW2 4878   4.764   2.891   3.579
 1327SOL     OW 4879   5.872   5.382   1.378
 1327SOL    HW1 4880   5.876   5.303   1.439
 1327SOL    HW2 4881   5.891   5.465   1.429
 1328SOL     OW 4882   2.036   3.366   5.312
 1328SOL    HW1 4883   2.092   3.449   5.319
 1328SOL    HW2 4884   2.094   3.286   5.332
 1329SOL     OW 4885   0.842   3.084   3.166
 1329SOL    HW1 4886   0.888   3.083   3.077
 1329SOL    HW2 4887   0.906   3.055   3.237
 1330SOL     OW 4888   6.380   3.203   1.459
 1330SOL    HW1 4889   6.424   3.118   1.488
 1330SOL    HW2 4890   6.310   3.182   1.391
 1331SOL     OW 4891   4.455   1.918   3.305
 1331SOL    HW1 4892   4.390   1.862   3.254
 1331SOL    HW2 4893   4.533   1.861   3.334
 1332SOL     OW 4894   1.619   6.176   0.154
 1332SOL    HW1 4895   1.532   6.189   0.106
 1332SOL    HW2 4896   1.622   6.083   0.191
 1333SOL     OW 4897   4.030   3.860   3.133
 1333SOL    HW1 4898   3.939   3.888   3.102
 1333SOL    HW2 4899   4.067   3.928   3.197
 1334SOL     OW 4900   6.948   3.447   2.023
 1334SOL    HW1 4901   6.886   3.525   2.018
 1334SOL    HW2 4902   0.017   3.475   1.994
 1335SOL     OW 4903   1.138   3.523   2.032
 1335SOL    HW1 4904   1.107   3.503   2.125
 1335SOL    HW2 4905   1.198   3.449   2.000
 1336SOL     OW 4906   3.050   0.785   5.385
 1336SOL    HW1 4907   2.989   0.719   5.428
 1336SOL    HW2 4908   3.089   0.745   5.302
 1337SOL     OW 4909   6.677   1.260   4.088
 1337SOL    HW1 4910   6.650   1.349   4.124
 1337SOL    HW2 4911   6.767   1.235   4.123
 1338SOL     OW 4912   6.631   3.998   4.829
 1338SOL    HW1 4913   6.554   4.036   4.880
 1338SOL    HW2 4914   6.713   4.051   4.849
 1339SOL     OW 4915   0.110   0.324   0.155
 1339SOL    HW1 4916   0.132   0.228   0.172
 1339SOL    HW2 4917   0.167   0.382   0.213
 1340SOL     OW 4918   4.460   2.499   1.844
 1340SOL    HW1 4919   4.396   2.428   1.874
 1340SOL    HW2 4920   4.437   2.585   1.887
 1341SOL     OW 4921   4.903   6.944   0.335
 1341SOL    HW1 4922   4.907   6.847   0.357
 1341SOL    HW2 4923   4.983   6.990   0.375
 1342SOL     OW 4924   2.389   6.487   1.232
 1342SOL    HW1 4925   2.417   6.424   1.304
 1342SOL    HW2 4926   2.371   6.577   1.272
 1343SOL     OW 4927   5.612   6.341   3.108
 1343SOL    HW1 4928   5.642   6.337   3.203
 1343SOL    HW2 4929   5.576   6.252   3.081
 1344SOL     OW 4930   0.211   0.558   5.158
 1344SOL    HW1 4931   0.142   0.507   5.107
 1344SOL    HW2 4932   0.274   0.493   5.203
 1345SOL     OW 4933   0.362   6.046   0.654
 1345SOL    HW1 4934   0.352   6.110   0.579
 1345SOL    HW2 4935   0.283   6.052   0.715
 1346SOL     OW 4936   3.216   5.194   5.564
 1346SOL    HW1 4937   3.163   5.204   5.480
 1346SOL    HW2 4938   3.153   5.182   5.641
 1347SOL     OW 4939   1.207   0.021   6.424
 1347SOL    HW1 4940   1.208   6.973   6.353
 1347SOL    HW2 4941   1.148   7.014   6.499
 1348SOL     OW 4942   0.776   6.324   5.362
 1348SOL    HW1 4943   0.760   6.406   5.307
 1348SOL    HW2 4944   0.697   6.307   5.421
 1349SOL     OW 4945   4.925   3.060   4.014
 1349SOL    HW1 4946   4.888   2.987   3.956
 1349SOL    HW2 4947   4.907   3.148   3.971
 1350SOL     OW 4948   3.963   3.625   0.178
 1350SOL    HW1 4949   4.025   3.554   0.146
 1350SOL    HW2 4950   3.869   3.599   0.155
 1351SOL     OW 4951   6.484   2.544   5.532
 1351SOL    HW1 4952   6.502   2.560   5.629
 1351SOL    HW2 4953   6.532   2.613   5.478
 1352SOL     OW 4954   6.899   0.823   2.332
 1352SOL    HW1 4955   6.955   0.826   2.415
 1352SOL    HW2 4956   6.818   0.766   2.348
 1353SOL     OW 4957   0.473   0.873   0.418
 1353SOL    HW1 4958   0.449   0.957   0.370
 1353SOL    HW2 4959   0.564   0.842   0.389
 1354SOL     OW 4960   5.375   5.005   2.304
 1354SOL    HW1 4961   5.394   5.100   2.330
 1354SOL    HW2 4962   5.284   4.979   2.335
 1355SOL     OW 4963   6.482   3.612   5.755
 1355SOL    HW1 4964   6.506   3.687   5.694
 1355SOL    HW2 4965   6.384   3.616   5.775
 1356SOL     OW 4966   3.584   3.034   0.827
 1356SOL    HW1 4967   3.488   3.011   0.811
 1356SOL    HW2 4968   3.623   2.972   0.895
 1357SOL     OW 4969   0.181   3.659   5.323
 1357SOL    HW1 4970   0.140   3.658   5.414
 1357SOL    HW2 4971   0.112   3.632   5.256
 1358SOL     OW 4972   1.418   6.489   6.745
 1358SOL    HW1 4973   1.399   6.408   6.690
 1358SOL    HW2 4974   1.347   6.499   6.815
 1359SOL     OW 4975   6.953   4.341   1.617
 1359SOL    HW1 4976   6.996   4.388   1.694
 1359SOL    HW2 4977   6.860   4.377   1.605
 1360SOL     OW 4978   2.206   2.212   0.085
 1360SOL    HW1 4979   2.166   2.129   0.125
 1360SOL    HW2 4980   2.137   2.257   0.028
 1361SOL     OW 4981   6.946   4.837   5.014
 1361SOL    HW1 4982   6.981   4.892   4.938
 1361SOL    HW2 4983   6.986   4.870   5.099
 1362SOL     OW 4984   3.039   3.087   2.773
 1362SOL    HW1 4985   3.129   3.085   2.815
 1362SOL    HW2 4986   3.039   3.032   2.690
 1363SOL     OW 4987   1.214   5.739   4.960
 1363SOL    HW1 4988   1.146   5.755   5.032
 1363SOL    HW2 4989   1.251   5.647   4.969
 1364SOL     OW 4990   3.367   3.838   0.987
 1364SOL    HW1 4991   3.348   3.815   0.892
 1364SOL    HW2 4992   3.362   3.937   1.000
 1365SOL     OW 4993   0.333   3.728   6.844
 1365SOL    HW1 4994   0.266   3.688   6.782
 1365SOL    HW2 4995   0.418   3.676   6.839
 1366SOL     OW 4996   2.938   0.292   5.326
 1366SOL    HW1 4997   2.931   0.350   5.407
 1366SOL    HW2 4998   2.850   0.247   5.308
 1367SOL     OW 4999   1.940   0.909   2.578
 1367SOL    HW1 5000   1.883   0.826   2.577
 1367SOL    HW2 5001   1.967   0.929   2.672
 1368SOL     OW 5002   5.456   0.071   3.879
 1368SOL    HW1 5003   5.500   0.062   3.968
 1368SOL    HW2 5004   5.419   0.164   3.870
 1369SOL     OW 5005   0.842   0.900   3.074
 1369SOL    HW1 5006   0.758   0.946   3.046
 1369SOL    HW2 5007   0.916   0.926   3.013
 1370SOL     OW 5008   2.847   0.478   1.598
 1370SOL    HW1 5009   2.777   0.512   1.661
 1370SOL    HW2 5010   2.925   0.540   1.599
 1371SOL     OW 5011   4.386   0.412   6.652
 1371SOL    HW1 5012   4.321   0.432   6.579
 1371SOL    HW2 5013   4.337   0.407   6.739
 1372SOL     OW 5014   3.172   1.943   1.751
 1372SOL    HW1 5015   3.084   1.928   1.796
 1372SOL    HW2 5016   3.246   1.936   1.818
 1373SOL     OW 5017   1.393   6.201   1.054
 1373SOL    HW1 5018   1.295   6.204   1.036
 1373SOL    HW2 5019   1.413   6.123   1.115
 1374SOL     OW 5020   5.004   2.781   0.566
 1374SOL    HW1 5021   4.985   2.775   0.468
 1374SOL    HW2 5022   4.923   2.751   0.617
 1375SOL     OW 5023   0.624   4.027   5.729
 1375SOL    HW1 5024   0.695   4.098   5.731
 1375SOL    HW2 5025   0.534   4.071   5.733
 1376SOL     OW 5026   4.868   1.865   2.220
 1376SOL    HW1 5027   4.797   1.861   2.290
 1376SOL    HW2 5028   4.874   1.959   2.184
 1377SOL     OW 5029   0.395   5.275   5.036
 1377SOL    HW1 5030   0.308   5.235   5.063
 1377SOL    HW2 5031   0.398   5.371   5.065
 1378SOL     OW 5032   1.793   2.441   0.001
 1378SOL    HW1 5033   1.701   2.408   7.005
 1378SOL    HW2 5034   1.806   2.532   6.984
 1379SOL     OW 5035   4.055   6.602   1.356
 1379SOL    HW1 5036   4.025   6.589   1.450
 1379SOL    HW2 5037   3.983   6.649   1.304
 1380SOL     OW 5038   6.233   6.557   2.745
 1380SOL    HW1 5039   6.256   6.583   2.839
 1380SOL    HW2 5040   6.149   6.502   2.745
 1381SOL     OW 5041   6.543   0.853   1.337
 1381SOL    HW1 5042   6.521   0.786   1.266
 1381SOL    HW2 5043   6.463   0.866   1.396
 1382SOL     OW 5044   6.453   4.783   6.512
 1382SOL    HW1 5045   6.537   4.750   6.469
 1382SOL    HW2 5046   6.381   4.790   6.444
 1383SOL     OW 5047   2.878   7.005   0.789
 1383SOL    HW1 5048   2.938   0.046   0.741
 1383SOL    HW2 5049   2.911   6.991   0.882
 1384SOL     OW 5050   2.893   1.914   2.170
 1384SOL    HW1 5051   2.936   2.004   2.171
 1384SOL    HW2 5052   2.861   1.892   2.263
 1385SOL     OW 5053   5.738   3.131   2.678
 1385SOL    HW1 5054   5.667   3.085   2.625
 1385SOL    HW2 5055   5.696   3.180   2.755
 1386SOL     OW 5056   2.203   2.582   4.117
 1386SOL    HW1 5057   2.154   2.548   4.037
 1386SOL    HW2 5058   2.291   2.620   4.089
 1387SOL     OW 5059   2.474   0.807   5.298
 1387SOL    HW1 5060   2.513   0.855   5.220
 1387SOL    HW2 5061   2.409   0.738   5.265
 1388SOL     OW 5062   6.279   0.725   5.236
 1388SOL    HW1 5063   6.233   0.798   5.288
 1388SOL    HW2 5064   6.343   0.678   5.296
 1389SOL     OW 5065   6.851   0.900   5.012
 1389SOL    HW1 5066   6.775   0.875   5.072
 1389SOL    HW2 5067   6.922   0.946   5.065
 1390SOL     OW 5068   5.008   2.632   2.303
 1390SOL    HW1 5069   4.937   2.682   2.253
 1390SOL    HW2 5070   5.092   2.686   2.304
 1391SOL     OW 5071   5.888   1.829   4.700
 1391SOL    HW1 5072   5.853   1.906   4.753
 1391SOL    HW2 5073   5.937   1.862   4.620
 1392SOL     OW 5074   4.692   5.648   6.038
 1392SOL    HW1 5075   4.616   5.687   5.987
 1392SOL    HW2 5076   4.657   5.601   6.119
 1393SOL     OW 5077   5.830   0.513   6.369
 1393SOL    HW1 5078   5.730   0.506   6.368
 1393SOL    HW2 5079   5.866   0.474   6.285
 1394SOL     OW 5080   4.356   0.170   3.925
 1394SOL    HW1 5081   4.386   0.216   3.842
 1394SOL    HW2 5082   4.325   0.077   3.902
 1395SOL     OW 5083   1.176   5.467   2.056
 1395SOL    HW1 5084   1.224   5.471   1.968
 1395SOL    HW2 5085   1.156   5.559   2.088
 1396SOL     OW 5086   1.986   1.457   3.567
 1396SOL    HW1 5087   1.998   1.551   3.599
 1396SOL    HW2 5088   1.914   1.454   3.498
 1397SOL     OW 5089   0.917   5.550   4.855
 1397SOL    HW1 5090   1.005   5.543   4.903
 1397SOL    HW2 5091   0.931   5.597   4.768
 1398SOL     OW 5092   1.451   6.310   0.464
 1398SOL    HW1 5093   1.452   6.215   0.433
 1398SOL    HW2 5094   1.542   6.350   0.452
 1399SOL     OW 5095   4.175   0.143   0.299
 1399SOL    HW1 5096   4.081   0.151   0.265
 1399SOL    HW2 5097   4.206   0.231   0.333
 1400SOL     OW 5098   0.412   0.678   4.997
 1400SOL    HW1 5099   0.394   0.619   4.918
 1400SOL    HW2 5100   0.362   0.644   5.076
 1401SOL     OW 5101   5.082   0.482   2.381
 1401SOL    HW1 5102   4.989   0.509   2.403
 1401SOL    HW2 5103   5.125   0.442   2.462
 1402SOL     OW 5104   7.001   4.598   2.686
 1402SOL    HW1 5105   7.022   4.529   2.618
 1402SOL    HW2 5106   7.006   4.558   2.778
 1403SOL     OW 5107   3.150   3.282   6.258
 1403SOL    HW1 5108   3.165   3.288   6.357
 1403SOL    HW2 5109   3.172   3.370   6.216
 1404SOL     OW 5110   4.038   6.408   0.571
 1404SOL    HW1 5111   4.109   6.357   0.620
 1404SOL    HW2 5112   3.968   6.438   0.635
 1405SOL     OW 5113   0.594   4.127   0.943
 1405SOL    HW1 5114   0.690   4.113   0.966
 1405SOL    HW2 5115   0.563   4.215   0.979
 1406SOL     OW 5116   1.743   3.007   0.313
 1406SOL    HW1 5117   1.804   2.931   0.287
 1406SOL    HW2 5118   1.688   3.034   0.234
 1407SOL     OW 5119   0.238   3.038   1.269
 1407SOL    HW1 5120   0.214   3.015   1.363
 1407SOL    HW2 5121   0.322   3.091   1.268
 1408SOL     OW 5122   5.812   6.614   1.118
 1408SOL    HW1 5123   5.743   6.680   1.089
 1408SOL    HW2 5124   5.771   6.523   1.121
 1409SOL     OW 5125   6.441   1.308   5.872
 1409SOL    HW1 5126   6.524   1.269   5.831
 1409SOL    HW2 5127   6.383   1.346   5.800
 1410SOL     OW 5128   3.143   0.408   6.567
 1410SOL    HW1 5129   3.172   0.371   6.479
 1410SOL    HW2 5130   3.204   0.482   6.594
 1411SOL     OW 5131   3.733   4.872   6.992
 1411SOL    HW1 5132   3.653   4.927   7.016
 1411SOL    HW2 5133   3.816   4.918   0.002
 1412SOL     OW 5134   2.577   2.581   6.754
 1412SOL    HW1 5135   2.669   2.594   6.716
 1412SOL    HW2 5136   2.582   2.572   6.853
 1413SOL     OW 5137   1.704   1.992   4.930
 1413SOL    HW1 5138   1.654   1.913   4.966
 1413SOL    HW2 5139   1.763   2.029   5.001
 1414SOL     OW 5140   0.594   4.726   2.867
 1414SOL    HW1 5141   0.612   4.712   2.965
 1414SOL    HW2 5142   0.656   4.669   2.814
 1415SOL     OW 5143   2.598   1.343   4.793
 1415SOL    HW1 5144   2.514   1.386   4.762
 1415SOL    HW2 5145   2.592   1.325   4.892
 1416SOL     OW 5146   4.800   0.677   4.521
 1416SOL    HW1 5147   4.720   0.619   4.536
 1416SOL    HW2 5148   4.877   0.621   4.492
 1417SOL     OW 5149   3.595   3.645   5.406
 1417SOL    HW1 5150   3.540   3.637   5.322
 1417SOL    HW2 5151   3.643   3.559   5.422
 1418SOL     OW 5152   3.818   4.004   5.728
 1418SOL    HW1 5153   3.769   3.975   5.810
 1418SOL    HW2 5154   3.885   4.074   5.752
 1419SOL     OW 5155   1.556   6.076   1.728
 1419SOL    HW1 5156   1.472   6.049   1.681
 1419SOL    HW2 5157   1.551   6.173   1.752
 1420SOL     OW 5158   2.929   6.134   2.746
 1420SOL    HW1 5159   2.987   6.084   2.810
 1420SOL    HW2 5160   2.835   6.100   2.753
 1421SOL     OW 5161   1.372   4.849   6.504
 1421SOL    HW1 5162   1.431   4.790   6.560
 1421SOL    HW2 5163   1.276   4.821   6.516
 1422SOL     OW 5164   2.235   3.035   6.641
 1422SOL    HW1 5165   2.326   3.004   6.615
 1422SOL    HW2 5166   2.242   3.105   6.712
 1423SOL     OW 5167   4.235   1.044   4.748
 1423SOL    HW1 5168   4.182   1.114   4.796
 1423SOL    HW2 5169   4.272   0.979   4.813
 1424SOL     OW 5170   6.252   2.862   0.724
 1424SOL    HW1 5171   6.292   2.836   0.812
 1424SOL    HW2 5172   6.278   2.956   0.702
 1425SOL     OW 5173   5.314   0.390   3.735
 1425SOL    HW1 5174   5.395   0.401   3.677
 1425SOL    HW2 5175   5.245   0.336   3.687
 1426SOL     OW 5176   3.984   1.210   0.355
 1426SOL    HW1 5177   4.079   1.193   0.382
 1426SOL    HW2 5178   3.932   1.239   0.434
 1427SOL     OW 5179   1.883   0.202   3.871
 1427SOL    HW1 5180   1.808   0.193   3.936
 1427SOL    HW2 5181   1.881   0.293   3.829
 1428SOL     OW 5182   0.839   3.028   3.949
 1428SOL    HW1 5183   0.778   3.035   3.870
 1428SOL    HW2 5184   0.923   2.980   3.921
 1429SOL     OW 5185   6.335   0.886   2.113
 1429SOL    HW1 5186   6.378   0.810   2.065
 1429SOL    HW2 5187   6.237   0.871   2.118
 1430SOL     OW 5188   2.142   3.673   4.393
 1430SOL    HW1 5189   2.157   3.721   4.479
 1430SOL    HW2 5190   2.119   3.577   4.412
 1431SOL     OW 5191   3.032   1.193   0.230
 1431SOL    HW1 5192   3.125   1.202   0.194
 1431SOL    HW2 5193   3.001   1.282   0.263
 1432SOL     OW 5194   3.205   6.998   2.408
 1432SOL    HW1 5195   3.119   6.973   2.364
 1432SOL    HW2 5196   3.266   0.016   2.340
 1433SOL     OW 5197   2.504   0.697   3.993
 1433SOL    HW1 5198   2.560   0.743   4.061
 1433SOL    HW2 5199   2.423   0.753   3.973
 1434SOL     OW 5200   6.048   3.840   0.301
 1434SOL    HW1 5201   5.971   3.900   0.322
 1434SOL    HW2 5202   6.109   3.835   0.380
 1435SOL     OW 5203   1.340   0.243   3.806
 1435SOL    HW1 5204   1.374   0.222   3.714
 1435SOL    HW2 5205   1.353   0.340   3.825
 1436SOL     OW 5206   5.520   1.171   0.515
 1436SOL    HW1 5207   5.473   1.174   0.603
 1436SOL    HW2 5208   5.571   1.256   0.501
 1437SOL     OW 5209   3.658   0.725   0.167
 1437SOL    HW1 5210   3.575   0.672   0.182
 1437SOL    HW2 5211   3.709   0.733   0.253
 1438SOL     OW 5212   2.377   0.427   2.726
 1438SOL    HW1 5213   2.432   0.492   2.674
 1438SOL    HW2 5214   2.302   0.476   2.771
 1439SOL     OW 5215   6.969   4.739   6.983
 1439SOL    HW1 5216   6.880   4.707   7.014
 1439SOL    HW2 5217   6.957   4.807   6.911
 1440SOL     OW 5218   3.238   3.066   3.141
 1440SOL    HW1 5219   3.294   3.070   3.058
 1440SOL    HW2 5220   3.142   3.081   3.118
 1441SOL     OW 5221   6.315   2.752   4.201
 1441SOL    HW1 5222   6.377   2.768   4.278
 1441SOL    HW2 5223   6.369   2.724   4.121
 1442SOL     OW 5224   5.444   6.877   6.997
 1442SOL    HW1 5225   5.373   6.877   0.046
 1442SOL    HW2 5226   5.414   6.936   6.922
 1443SOL     OW 5227   0.968   2.465   3.084
 1443SOL    HW1 5228   0.963   2.478   2.985
 1443SOL    HW2 5229   1.024   2.384   3.104
 1444SOL     OW 5230   5.589   0.415   5.450
 1444SOL    HW1 5231   5.572   0.503   5.407
 1444SOL    HW2 5232   5.557   0.418   5.545
 1445SOL     OW 5233   6.516   1.934   0.827
 1445SOL    HW1 5234   6.556   1.943   0.736
 1445SOL    HW2 5235   6.564   1.862   0.877
 1446SOL     OW 5236   3.798   6.836   1.092
 1446SOL    HW1 5237   3.889   6.864   1.063
 1446SOL    HW2 5238   3.795   6.833   1.192
 1447SOL     OW 5239   5.583   1.715   4.943
 1447SOL    HW1 5240   5.560   1.652   5.017
 1447SOL    HW2 5241   5.506   1.722   4.880
 1448SOL     OW 5242   5.438   0.523   6.923
 1448SOL    HW1 5243   5.477   0.506   6.832
 1448SOL    HW2 5244   5.473   0.455   6.987
 1449SOL     OW 5245   4.920   5.720   0.972
 1449SOL    HW1 5246   4.855   5.746   0.901
 1449SOL    HW2 5247   5.005   5.687   0.930
 1450SOL     OW 5248   6.058   2.292   3.643
 1450SOL    HW1 5249   5.972   2.324   3.602
 1450SOL    HW2 5250   6.115   2.371   3.665
 1451SOL     OW 5251   1.753   0.205   2.397
 1451SOL    HW1 5252   1.835   0.149   2.384
 1451SOL    HW2 5253   1.749   0.274   2.324
 1452SOL     OW 5254   4.601   0.577   4.888
 1452SOL    HW1 5255   4.576   0.490   4.930
 1452SOL    HW2 5256   4.574   0.577   4.791
 1453SOL     OW 5257   4.589   4.320   4.091
 1453SOL    HW1 5258   4.655   4.248   4.112
 1453SOL    HW2 5259   4.553   4.358   4.176
 1454SOL     OW 5260   5.082   4.579   1.108
 1454SOL    HW1 5261   5.027   4.526   1.173
 1454SOL    HW2 5262   5.173   4.537   1.099
 1455SOL     OW 5263   2.487   2.041   1.320
 1455SOL    HW1 5264   2.578   2.003   1.339
 1455SOL    HW2 5265   2.486   2.138   1.346
 1456SOL     OW 5266   6.134   5.615   3.855
 1456SOL    HW1 5267   6.193   5.650   3.928
 1456SOL    HW2 5268   6.140   5.676   3.776
 1457SOL     OW 5269   1.666   6.875   3.540
 1457SOL    HW1 5270   1.719   6.802   3.584
 1457SOL    HW2 5271   1.704   6.963   3.565
 1458SOL     OW 5272   0.001   5.336   0.145
 1458SOL    HW1 5273   0.010   5.436   0.148
 1458SOL    HW2 5274   0.037   5.302   0.058
 1459SOL     OW 5275   2.750   0.090   1.174
 1459SOL    HW1 5276   2.690   0.112   1.097
 1459SOL    HW2 5277   2.760   0.171   1.233
 1460SOL     OW 5278   1.024   6.365   0.279
 1460SOL    HW1 5279   0.957   6.299   0.244
 1460SOL    HW2 5280   0.988   6.457   0.267
 1461SOL     OW 5281   4.259   4.898   1.589
 1461SOL    HW1 5282   4.293   4.823   1.533
 1461SOL    HW2 5283   4.177   4.869   1.637
 1462SOL     OW 5284   5.280   0.590   5.441
 1462SOL    HW1 5285   5.215   0.665   5.453
 1462SOL    HW2 5286   5.373   0.625   5.447
 1463SOL     OW 5287   0.411   1.170   5.099
 1463SOL    HW1 5288   0.371   1.094   5.048
 1463SOL    HW2 5289   0.337   1.230   5.131
 1464SOL     OW 5290   0.121   6.935   1.416
 1464SOL    HW1 5291   0.150   6.881   1.495
 1464SOL    HW2 5292   0.147   0.008   1.431
 1465SOL     OW 5293   0.296   0.284   4.613
 1465SOL    HW1 5294   0.243   0.361   4.576
 1465SOL    HW2 5295   0.326   0.307   4.705
 1466SOL     OW 5296   5.513   4.910   4.441
 1466SOL    HW1 5297   5.437   4.865   4.394
 1466SOL    HW2 5298   5.479   4.993   4.486
 1467SOL     OW 5299   6.028   4.020   2.738
 1467SOL    HW1 5300   5.939   4.033   2.782
 1467SOL    HW2 5301   6.024   3.939   2.679
 1468SOL     OW 5302   5.479   6.562   2.995
 1468SOL    HW1 5303   5.446   6.625   3.065
 1468SOL    HW2 5304   5.514   6.479   3.040
 1469SOL     OW 5305   0.224   1.328   2.621
 1469SOL    HW1 5306   0.286   1.406   2.614
 1469SOL    HW2 5307   0.222   1.279   2.534
 1470SOL     OW 5308   6.994   0.920   3.157
 1470SOL    HW1 5309   0.009   0.999   3.108
 1470SOL    HW2 5310   6.903   0.899   3.121
 1471SOL     OW 5311   6.646   0.312   0.660
 1471SOL    HW1 5312   6.654   0.398   0.711
 1471SOL    HW2 5313   6.728   0.257   0.676
 1472SOL     OW 5314   4.312   5.529   5.258
 1472SOL    HW1 5315   4.311   5.621   5.298
 1472SOL    HW2 5316   4.281   5.462   5.325
 1473SOL     OW 5317   6.104   4.238   3.037
 1473SOL    HW1 5318   6.076   4.316   3.094
 1473SOL    HW2 5319   6.173   4.269   2.971
 1474SOL     OW 5320   4.440   5.247   4.072
 1474SOL    HW1 5321   4.526   5.197   4.069
 1474SOL    HW2 5322   4.366   5.187   4.042
 1475SOL     OW 5323   6.630   1.071   3.474
 1475SOL    HW1 5324   6.564   1.121   3.530
 1475SOL    HW2 5325   6.723   1.103   3.494
 1476SOL     OW 5326   6.170   2.116   1.576
 1476SOL    HW1 5327   6.172   2.216   1.584
 1476SOL    HW2 5328   6.076   2.084   1.590
 1477SOL     OW 5329   3.242   5.970   3.539
 1477SOL    HW1 5330   3.157   5.932   3.502
 1477SOL    HW2 5331   3.292   6.018   3.466
 1478SOL     OW 5332   0.023   4.818   1.819
 1478SOL    HW1 5333   7.002   4.893   1.769
 1478SOL    HW2 5334   0.096   4.778   1.763
 1479SOL     OW 5335   0.961   4.875   0.876
 1479SOL    HW1 5336   0.954   4.946   0.946
 1479SOL    HW2 5337   0.938   4.913   0.787
 1480SOL     OW 5338   3.238   0.861   0.241
 1480SOL    HW1 5339   3.228   0.949   0.194
 1480SOL    HW2 5340   3.183   0.792   0.195
 1481SOL     OW 5341   6.869   2.064   6.337
 1481SOL    HW1 5342   6.961   2.049   6.374
 1481SOL    HW2 5343   6.836   1.979   6.295
 1482SOL     OW 5344   5.354   1.372   6.602
 1482SOL    HW1 5345   5.416   1.394   6.677
 1482SOL    HW2 5346   5.298   1.293   6.627
 1483SOL     OW 5347   6.245   2.234   6.911
 1483SOL    HW1 5348   6.257   2.220   6.813
 1483SOL    HW2 5349   6.333   2.224   6.957
 1484SOL     OW 5350   0.114   6.739   2.824
 1484SOL    HW1 5351   0.097   6.777   2.733
 1484SOL    HW2 5352   0.136   6.814   2.888
 1485SOL     OW 5353   5.788   2.542   3.809
 1485SOL    HW1 5354   5.824   2.548   3.902
 1485SOL    HW2 5355   5.833   2.467   3.760
 1486SOL     OW 5356   5.355   2.361   1.721
 1486SOL    HW1 5357   5.298   2.365   1.639
 1486SOL    HW2 5358   5.378   2.454   1.751
 1487SOL     OW 5359   6.322   1.032   5.749
 1487SOL    HW1 5360   6.388   1.027   5.674
 1487SOL    HW2 5361   6.347   1.108   5.810
 1488SOL     OW 5362   4.516   1.914   2.813
 1488SOL    HW1 5363   4.478   1.859   2.739
 1488SOL    HW2 5364   4.583   1.860   2.864
 1489SOL     OW 5365   3.930   4.929   4.741
 1489SOL    HW1 5366   3.832   4.913   4.729
 1489SOL    HW2 5367   3.980   4.876   4.672
 1490SOL     OW 5368   2.389   2.308   1.216
 1490SOL    HW1 5369   2.415   2.399   1.246
 1490SOL    HW2 5370   2.453   2.276   1.146
 1491SOL     OW 5371   6.751   2.044   5.794
 1491SOL    HW1 5372   6.728   2.099   5.874
 1491SOL    HW2 5373   6.814   2.095   5.735
 1492SOL     OW 5374   5.629   2.935   1.471
 1492SOL    HW1 5375   5.581   2.849   1.485
 1492SOL    HW2 5376   5.562   3.009   1.457
 1493SOL     OW 5377   5.780   1.130   5.393
 1493SOL    HW1 5378   5.692   1.171   5.416
 1493SOL    HW2 5379   5.851   1.201   5.393
 1494SOL     OW 5380   5.650   2.364   4.034
 1494SOL    HW1 5381   5.668   2.444   3.978
 1494SOL    HW2 5382   5.568   2.379   4.089
 1495SOL     OW 5383   1.600   2.189   2.926
 1495SOL    HW1 5384   1.560   2.271   2.887
 1495SOL    HW2 5385   1.557   2.108   2.886
 1496SOL     OW 5386   0.955   0.921   3.353
 1496SOL    HW1 5387   0.856   0.910   3.359
 1496SOL    HW2 5388   0.980   0.955   3.263
 1497SOL     OW 5389   5.205   4.384   5.613
 1497SOL    HW1 5390   5.295   4.355   5.643
 1497SOL    HW2 5391   5.209   4.413   5.517
 1498SOL     OW 5392   2.283   5.773   0.028
 1498SOL    HW1 5393   2.262   5.870   0.031
 1498SOL    HW2 5394   2.340   5.754   6.970
 1499SOL     OW 5395   0.659   4.410   5.073
 1499SOL    HW1 5396   0.722   4.355   5.019
 1499SOL    HW2 5397   0.709   4.482   5.121
 1500SOL     OW 5398   4.305   6.893   5.241
 1500SOL    HW1 5399   4.264   6.921   5.154
 1500SOL    HW2 5400   4.259   6.942   5.316
 1501SOL     OW 5401   4.356   0.109   6.455
 1501SOL    HW1 5402   4.281   0.046   6.439
 1501SOL    HW2 5403   4.359   0.135   6.551
 1502SOL     OW 5404   0.466   6.155   0.035
 1502SOL    HW1 5405   0.538   6.120   6.997
 1502SOL    HW2 5406   0.504   6.167   0.127
 1503SOL     OW 5407   3.318   4.089   5.001
 1503SOL    HW1 5408   3.372   4.024   5.054
 1503SOL    HW2 5409   3.220   4.069   5.014
 1504SOL     OW 5410   3.007   6.444   4.370
 1504SOL    HW1 5411   2.991   6.524   4.312
 1504SOL    HW2 5412   3.035   6.474   4.461
 1505SOL     OW 5413   4.803   5.324   2.119
 1505SOL    HW1 5414   4.750   5.382   2.057
 1505SOL    HW2 5415   4.756   5.237   2.132
 1506SOL     OW 5416   0.419   6.487   2.885
 1506SOL    HW1 5417   0.464   6.412   2.933
 1506SOL    HW2 5418   0.368   6.542   2.951
 1507SOL     OW 5419   2.396   1.508   6.380
 1507SOL    HW1 5420   2.366   1.509   6.475
 1507SOL    HW2 5421   2.438   1.419   6.360
 1508SOL     OW 5422   4.238   7.015   0.541
 1508SOL    HW1 5423   4.234   0.065   0.471
 1508SOL    HW2 5424   4.281   0.029   0.624
 1509SOL     OW 5425   5.239   1.680   0.354
 1509SOL    HW1 5426   5.148   1.689   0.314
 1509SOL    HW2 5427   5.298   1.631   0.290
 1510SOL     OW 5428   7.010   2.293   3.539
 1510SOL    HW1 5429   0.084   2.317   3.534
 1510SOL    HW2 5430   6.976   2.274   3.447
 1511SOL     OW 5431   1.424   2.370   0.518
 1511SOL    HW1 5432   1.343   2.316   0.540
 1511SOL    HW2 5433   1.492   2.359   0.590
 1512SOL     OW 5434   5.907   0.447   2.444
 1512SOL    HW1 5435   5.953   0.376   2.391
 1512SOL    HW2 5436   5.973   0.489   2.506
 1513SOL     OW 5437   4.049   1.033   2.153
 1513SOL    HW1 5438   3.977   1.102   2.150
 1513SOL    HW2 5439   4.119   1.055   2.085
 1514SOL     OW 5440   5.218   1.198   6.215
 1514SOL    HW1 5441   5.158   1.218   6.293
 1514SOL    HW2 5442   5.304   1.160   6.248
 1515SOL     OW 5443   6.582   5.281   4.672
 1515SOL    HW1 5444   6.523   5.222   4.727
 1515SOL    HW2 5445   6.594   5.240   4.581
 1516SOL     OW 5446   0.744   1.051   1.004
 1516SOL    HW1 5447   0.840   1.048   0.977
 1516SOL    HW2 5448   0.705   1.139   0.979
 1517SOL     OW 5449   3.886   5.024   3.720
 1517SOL    HW1 5450   3.794   4.994   3.745
 1517SOL    HW2 5451   3.943   4.945   3.701
 1518SOL     OW 5452   1.261   4.800   1.250
 1518SOL    HW1 5453   1.284   4.703   1.246
 1518SOL    HW2 5454   1.166   4.810   1.282
 1519SOL     OW 5455   6.662   4.174   1.279
 1519SOL    HW1 5456   6.677   4.126   1.192
 1519SOL    HW2 5457   6.646   4.108   1.352
 1520SOL     OW 5458   1.754   2.727   2.448
 1520SOL    HW1 5459   1.694   2.807   2.453
 1520SOL    HW2 5460   1.788   2.705   2.539
 1521SOL     OW 5461   2.715   4.096   5.884
 1521SOL    HW1 5462   2.707   4.114   5.982
 1521SOL    HW2 5463   2.798   4.042   5.867
 1522SOL     OW 5464   0.909   2.888   6.517
 1522SOL    HW1 5465   0.984   2.893   6.583
 1522SOL    HW2 5466   0.935   2.932   6.432
 1523SOL     OW 5467   6.896   1.312   0.343
 1523SOL    HW1 5468   6.943   1.369   0.409
 1523SOL    HW2 5469   6.807   1.353   0.321
 1524SOL     OW 5470   6.237   1.187   3.053
 1524SOL    HW1 5471   6.212   1.242   3.132
 1524SOL    HW2 5472   6.207   1.232   2.970
 1525SOL     OW 5473   4.449   1.756   5.990
 1525SOL    HW1 5474   4.529   1.783   5.935
 1525SOL    HW2 5475   4.479   1.697   6.065
 1526SOL     OW 5476   6.786   1.662   0.330
 1526SOL    HW1 5477   6.769   1.756   0.362
 1526SOL    HW2 5478   6.755   1.653   0.236
 1527SOL     OW 5479   2.901   2.009   5.789
 1527SOL    HW1 5480   2.935   2.032   5.697
 1527SOL    HW2 5481   2.964   1.946   5.834
 1528SOL     OW 5482   4.983   5.933   4.044
 1528SOL    HW1 5483   4.979   5.951   3.946
 1528SOL    HW2 5484   4.902   5.973   4.089
 1529SOL     OW 5485   3.155   0.991   5.157
 1529SOL    HW1 5486   3.114   0.899   5.153
 1529SOL    HW2 5487   3.240   0.992   5.104
 1530SOL     OW 5488   3.245   6.975   1.747
 1530SOL    HW1 5489   3.220   6.891   1.699
 1530SOL    HW2 5490   3.191   0.029   1.711
 1531SOL     OW 5491   6.380   0.432   5.746
 1531SOL    HW1 5492   6.309   0.464   5.682
 1531SOL    HW2 5493   6.377   0.332   5.752
 1532SOL     OW 5494   3.154   2.142   5.316
 1532SOL    HW1 5495   3.132   2.221   5.259
 1532SOL    HW2 5496   3.239   2.100   5.284
 1533SOL     OW 5497   5.784   2.442   0.099
 1533SOL    HW1 5498   5.877   2.451   0.065
 1533SOL    HW2 5499   5.722   2.498   0.043
 1534SOL     OW 5500   6.994   0.083   1.628
 1534SOL    HW1 5501   6.979   7.007   1.623
 1534SOL    HW2 5502   0.021   0.105   1.712
 1535SOL     OW 5503   4.690   5.338   3.776
 1535SOL    HW1 5504   4.605   5.381   3.808
 1535SOL    HW2 5505   4.672   5.242   3.755
 1536SOL     OW 5506   2.898   5.531   3.409
 1536SOL    HW1 5507   2.941   5.457   3.358
 1536SOL    HW2 5508   2.968   5.579   3.463
 1537SOL     OW 5509   2.221   5.355   4.631
 1537SOL    HW1 5510   2.182   5.437   4.675
 1537SOL    HW2 5511   2.320   5.355   4.643
 1538SOL     OW 5512   3.425   5.423   6.787
 1538SOL    HW1 5513   3.328   5.431   6.764
 1538SOL    HW2 5514   3.446   5.482   6.865
 1539SOL     OW 5515   3.465   5.267   2.013
 1539SOL    HW1 5516   3.404   5.252   2.091
 1539SOL    HW2 5517   3.412   5.267   1.928
 1540SOL     OW 5518   6.479   6.979   5.628
 1540SOL    HW1 5519   6.491   0.004   5.715
 1540SOL    HW2 5520   6.436   6.890   5.644
 1541SOL     OW 5521   4.583   1.533   0.636
 1541SOL    HW1 5522   4.678   1.561   0.627
 1541SOL    HW2 5523   4.562   1.517   0.733
 1542SOL     OW 5524   0.404   6.177   0.973
 1542SOL    HW1 5525   0.466   6.121   0.919
 1542SOL    HW2 5526   0.444   6.268   0.986
 1543SOL     OW 5527   3.176   4.000   3.835
 1543SOL    HW1 5528   3.250   3.937   3.859
 1543SOL    HW2 5529   3.118   4.016   3.915
 1544SOL     OW 5530   3.668   3.927   2.667
 1544SOL    HW1 5531   3.671   3.843   2.721
 1544SOL    HW2 5532   3.697   4.004   2.724
 1545SOL     OW 5533   6.765   0.450   4.345
 1545SOL    HW1 5534   6.694   0.466   4.275
 1545SOL    HW2 5535   6.790   0.353   4.345
 1546SOL     OW 5536   0.287   6.578   6.299
 1546SOL    HW1 5537   0.263   6.483   6.278
 1546SOL    HW2 5538   0.360   6.580   6.367
 1547SOL     OW 5539   3.818   6.339   6.844
 1547SOL    HW1 5540   3.749   6.304   6.781
 1547SOL    HW2 5541   3.894   6.377   6.791
 1548SOL     OW 5542   6.126   4.618   3.667
 1548SOL    HW1 5543   6.189   4.620   3.745
 1548SOL    HW2 5544   6.133   4.704   3.616
 1549SOL     OW 5545   6.525   1.734   1.557
 1549SOL    HW1 5546   6.486   1.656   1.606
 1549SOL    HW2 5547   6.452   1.797   1.532
 1550SOL     OW 5548   2.466   5.813   2.746
 1550SOL    HW1 5549   2.425   5.773   2.828
 1550SOL    HW2 5550   2.513   5.742   2.693
 1551SOL     OW 5551   0.469   3.721   1.361
 1551SOL    HW1 5552   0.502   3.642   1.310
 1551SOL    HW2 5553   0.389   3.760   1.316
 1552SOL     OW 5554   1.334   6.763   0.683
 1552SOL    HW1 5555   1.360   6.849   0.728
 1552SOL    HW2 5556   1.240   6.741   0.706
 1553SOL     OW 5557   5.551   1.610   5.759
 1553SOL    HW1 5558   5.574   1.707   5.767
 1553SOL    HW2 5559   5.565   1.580   5.665
 1554SOL     OW 5560   2.804   1.949   1.302
 1554SOL    HW1 5561   2.865   2.026   1.318
 1554SOL    HW2 5562   2.803   1.890   1.383
 1555SOL     OW 5563   4.071   0.909   6.168
 1555SOL    HW1 5564   4.048   0.941   6.260
 1555SOL    HW2 5565   3.990   0.865   6.128
 1556SOL     OW 5566   3.883   2.236   6.792
 1556SOL    HW1 5567   3.847   2.329   6.804
 1556SOL    HW2 5568   3.976   2.241   6.755
 1557SOL     OW 5569   1.445   2.900   0.146
 1557SOL    HW1 5570   1.479   2.982   0.099
 1557SOL    HW2 5571   1.389   2.927   0.224
 1558SOL     OW 5572   5.011   3.012   5.961
 1558SOL    HW1 5573   5.003   3.046   6.055
 1558SOL    HW2 5574   5.092   3.050   5.918
 1559SOL     OW 5575   3.191   5.393   3.019
 1559SOL    HW1 5576   3.160   5.451   3.095
 1559SOL    HW2 5577   3.185   5.297   3.046
 1560SOL     OW 5578   3.919   1.955   0.645
 1560SOL    HW1 5579   3.875   2.030   0.595
 1560SOL    HW2 5580   3.897   1.963   0.742
 1561SOL     OW 5581   5.803   6.200   1.034
 1561SOL    HW1 5582   5.868   6.158   1.097
 1561SOL    HW2 5583   5.752   6.272   1.082
 1562SOL     OW 5584   3.106   6.988   2.678
 1562SOL    HW1 5585   3.158   0.000   2.600
 1562SOL    HW2 5586   3.109   6.888   2.678
 1563SOL     OW 5587   2.411   2.301   3.858
 1563SOL    HW1 5588   2.431   2.273   3.951
 1563SOL    HW2 5589   2.470   2.250   3.795
 1564SOL     OW 5590   0.257   1.068   2.817
 1564SOL    HW1 5591   0.249   1.167   2.832
 1564SOL    HW2 5592   0.228   1.046   2.724
 1565SOL     OW 5593   3.943   1.170   4.643
 1565SOL    HW1 5594   4.028   1.203   4.601
 1565SOL    HW2 5595   3.939   1.201   4.738
 1566SOL     OW 5596   5.862   4.304   3.365
 1566SOL    HW1 5597   5.805   4.368   3.418
 1566SOL    HW2 5598   5.943   4.352   3.331
 1567SOL     OW 5599   5.792   0.630   5.151
 1567SOL    HW1 5600   5.822   0.722   5.126
 1567SOL    HW2 5601   5.692   0.623   5.142
 1568SOL     OW 5602   3.015   4.824   1.229
 1568SOL    HW1 5603   3.085   4.826   1.300
 1568SOL    HW2 5604   3.039   4.889   1.156
 1569SOL     OW 5605   2.807   0.911   2.620
 1569SOL    HW1 5606   2.849   0.961   2.544
 1569SOL    HW2 5607   2.714   0.884   2.596
 1570SOL     OW 5608   3.087   5.964   6.054
 1570SOL    HW1 5609   3.135   5.880   6.028
 1570SOL    HW2 5610   3.153   6.036   6.073
 1571SOL     OW 5611   0.298   3.294   3.533
 1571SOL    HW1 5612   0.278   3.236   3.612
 1571SOL    HW2 5613   0.213   3.314   3.485
 1572SOL     OW 5614   3.060   5.469   2.581
 1572SOL    HW1 5615   2.969   5.492   2.547
 1572SOL    HW2 5616   3.073   5.509   2.672
 1573SOL     OW 5617   5.210   5.718   0.139
 1573SOL    HW1 5618   5.236   5.621   0.142
 1573SOL    HW2 5619   5.234   5.756   0.050
 1574SOL     OW 5620   0.466   4.323   2.907
 1574SOL    HW1 5621   0.560   4.294   2.891
 1574SOL    HW2 5622   0.408   4.243   2.922
 1575SOL     OW 5623   6.726   2.556   6.956
 1575SOL    HW1 5624   6.647   2.545   6.895
 1575SOL    HW2 5625   6.696   2.555   0.028
 1576SOL     OW 5626   1.426   6.728   1.264
 1576SOL    HW1 5627   1.361   6.774   1.324
 1576SOL    HW2 5628   1.435   6.632   1.292
 1577SOL     OW 5629   3.917   5.741   5.230
 1577SOL    HW1 5630   3.820   5.766   5.221
 1577SOL    HW2 5631   3.973   5.823   5.220
 1578SOL     OW 5632   4.887   1.344   1.441
 1578SOL    HW1 5633   4.857   1.355   1.346
 1578SOL    HW2 5634   4.950   1.419   1.465
 1579SOL     OW 5635   1.660   2.646   1.773
 1579SOL    HW1 5636   1.579   2.622   1.721
 1579SOL    HW2 5637   1.742   2.624   1.720
 1580SOL     OW 5638   2.946   3.315   2.605
 1580SOL    HW1 5639   2.946   3.232   2.660
 1580SOL    HW2 5640   2.956   3.395   2.665
 1581SOL     OW 5641   6.206   4.268   5.755
 1581SOL    HW1 5642   6.286   4.258   5.813
 1581SOL    HW2 5643   6.214   4.207   5.676
 1582SOL     OW 5644   4.613   5.872   5.066
 1582SOL    HW1 5645   4.546   5.865   4.992
 1582SOL    HW2 5646   4.576   5.931   5.138
 1583SOL     OW 5647   1.157   4.987   5.112
 1583SOL    HW1 5648   1.247   5.021   5.140
 1583SOL    HW2 5649   1.100   5.063   5.082
 1584SOL     OW 5650   6.836   4.074   0.303
 1584SOL    HW1 5651   6.896   4.117   0.370
 1584SOL    HW2 5652   6.778   4.006   0.348
 1585SOL     OW 5653   4.160   6.831   3.441
 1585SOL    HW1 5654   4.083   6.789   3.392
 1585SOL    HW2 5655   4.231   6.762   3.454
 1586SOL     OW 5656   3.654   6.016   3.874
 1586SOL    HW1 5657   3.743   5.997   3.916
 1586SOL    HW2 5658   3.582   5.974   3.929
 1587SOL     OW 5659   2.654   6.774   6.835
 1587SOL    HW1 5660   2.665   6.710   6.759
 1587SOL    HW2 5661   2.741   6.785   6.882
 1588SOL     OW 5662   6.448   1.515   4.086
 1588SOL    HW1 5663   6.544   1.534   4.065
 1588SOL    HW2 5664   6.414   1.445   4.024
 1589SOL     OW 5665   6.602   4.187   3.827
 1589SOL    HW1 5666   6.579   4.210   3.732
 1589SOL    HW2 5667   6.602   4.087   3.837
 1590SOL     OW 5668   6.749   2.320   4.026
 1590SOL    HW1 5669   6.765   2.222   4.025
 1590SOL    HW2 5670   6.737   2.353   3.933
 1591SOL     OW 5671   1.095   5.933   1.429
 1591SOL    HW1 5672   1.025   5.877   1.472
 1591SOL    HW2 5673   1.176   5.936   1.487
 1592SOL     OW 5674   0.274   4.205   6.048
 1592SOL    HW1 5675   0.210   4.130   6.033
 1592SOL    HW2 5676   0.224   4.285   6.083
 1593SOL     OW 5677   3.502   6.699   6.989
 1593SOL    HW1 5678   3.562   6.773   7.021
 1593SOL    HW2 5679   3.414   6.738   6.962
 1594SOL     OW 5680   6.124   0.541   2.590
 1594SOL    HW1 5681   6.126   0.525   2.689
 1594SOL    HW2 5682   6.216   0.568   2.559
 1595SOL     OW 5683   0.385   3.631   0.324
 1595SOL    HW1 5684   0.368   3.660   0.230
 1595SOL    HW2 5685   0.360   3.534   0.333
 1596SOL     OW 5686   4.517   4.857   3.682
 1596SOL    HW1 5687   4.569   4.785   3.727
 1596SOL    HW2 5688   4.424   4.858   3.718
 1597SOL     OW 5689   4.117   6.154   6.766
 1597SOL    HW1 5690   4.182   6.188   6.698
 1597SOL    HW2 5691   4.117   6.214   6.845
 1598SOL     OW 5692   1.292   4.650   6.746
 1598SOL    HW1 5693   1.321   4.727   6.803
 1598SOL    HW2 5694   1.281   4.569   6.802
 1599SOL     OW 5695   4.271   5.632   3.217
 1599SOL    HW1 5696   4.178   5.619   3.182
 1599SOL    HW2 5697   4.333   5.648   3.141
 1600SOL     OW 5698   3.650   0.170   2.181
 1600SOL    HW1 5699   3.673   0.163   2.084
 1600SOL    HW2 5700   3.594   0.252   2.196
 1601SOL     OW 5701   6.519   0.475   5.305
 1601SOL    HW1 5702   6.520   0.535   5.385
 1601SOL    HW2 5703   6.599   0.493   5.249
 1602SOL     OW 5704   4.168   6.105   3.955
 1602SOL    HW1 5705   4.216   6.176   3.903
 1602SOL    HW2 5706   4.215   6.018   3.943
 1603SOL     OW 5707   3.592   5.206   3.227
 1603SOL    HW1 5708   3.666   5.217   3.293
 1603SOL    HW2 5709   3.515   5.265   3.253
 1604SOL     OW 5710   4.312   5.284   1.940
 1604SOL    HW1 5711   4.393   5.322   1.897
 1604SOL    HW2 5712   4.295   5.331   2.027
 1605SOL     OW 5713   4.764   5.300   0.409
 1605SOL    HW1 5714   4.697   5.260   0.346
 1605SOL    HW2 5715   4.716   5.338   0.489
 1606SOL     OW 5716   3.406   5.811   4.614
 1606SOL    HW1 5717   3.418   5.864   4.530
 1606SOL    HW2 5718   3.495   5.797   4.657
 1607SOL     OW 5719   4.642   5.593   3.275
 1607SOL    HW1 5720   4.690   5.530   3.336
 1607SOL    HW2 5721   4.553   5.555   3.252
 1608SOL     OW 5722   5.098   1.557   3.594
 1608SOL    HW1 5723   5.051   1.471   3.571
 1608SOL    HW2 5724   5.114   1.560   3.692
 1609SOL     OW 5725   2.816   6.600   0.897
 1609SOL    HW1 5726   2.845   6.662   0.824
 1609SOL    HW2 5727   2.869   6.619   0.979
 1610SOL     OW 5728   5.494   0.124   1.280
 1610SOL    HW1 5729   5.423   0.068   1.237
 1610SOL    HW2 5730   5.575   0.068   1.298
 1611SOL     OW 5731   1.574   4.514   0.287
 1611SOL    HW1 5732   1.523   4.464   0.216
 1611SOL    HW2 5733   1.672   4.503   0.272
 1612SOL     OW 5734   4.005   0.273   2.339
 1612SOL    HW1 5735   4.020   0.182   2.378
 1612SOL    HW2 5736   4.088   0.303   2.292
 1613SOL     OW 5737   6.282   5.869   2.261
 1613SOL    HW1 5738   6.359   5.905   2.209
 1613SOL    HW2 5739   6.198   5.879   2.207
 1614SOL     OW 5740   6.162   1.273   6.300
 1614SOL    HW1 5741   6.195   1.220   6.378
 1614SOL    HW2 5742   6.221   1.258   6.221
 1615SOL     OW 5743   0.621   3.960   6.606
 1615SOL    HW1 5744   0.616   3.903   6.524
 1615SOL    HW2 5745   0.532   4.004   6.622
 1616SOL     OW 5746   1.176   1.062   4.002
 1616SOL    HW1 5747   1.146   1.025   4.090
 1616SOL    HW2 5748   1.154   1.159   3.997
 1617SOL     OW 5749   6.206   6.588   3.225
 1617SOL    HW1 5750   6.270   6.522   3.185
 1617SOL    HW2 5751   6.192   6.568   3.322
 1618SOL     OW 5752   3.668   5.592   3.549
 1618SOL    HW1 5753   3.718   5.672   3.517
 1618SOL    HW2 5754   3.662   5.524   3.476
 1619SOL     OW 5755   1.427   4.372   0.114
 1619SOL    HW1 5756   1.405   4.315   0.035
 1619SOL    HW2 5757   1.343   4.416   0.147
 1620SOL     OW 5758   3.456   5.554   5.123
 1620SOL    HW1 5759   3.363   5.573   5.090
 1620SOL    HW2 5760   3.518   5.546   5.045
 1621SOL     OW 5761   5.332   6.190   0.677
 1621SOL    HW1 5762   5.234   6.189   0.658
 1621SOL    HW2 5763   5.373   6.105   0.643
 1622SOL     OW 5764   6.515   4.452   4.429
 1622SOL    HW1 5765   6.471   4.363   4.435
 1622SOL    HW2 5766   6.447   4.521   4.404
 1623SOL     OW 5767   6.610   2.139   3.242
 1623SOL    HW1 5768   6.698   2.173   3.275
 1623SOL    HW2 5769   6.567   2.208   3.184
 1624SOL     OW 5770   3.725   2.820   0.963
 1624SOL    HW1 5771   3.699   2.724   0.954
 1624SOL    HW2 5772   3.809   2.827   1.017
 1625SOL     OW 5773   0.440   6.322   1.272
 1625SOL    HW1 5774   0.458   6.224   1.273
 1625SOL    HW2 5775   0.376   6.343   1.198
 1626SOL     OW 5776   2.655   1.904   1.651
 1626SOL    HW1 5777   2.628   1.830   1.713
 1626SOL    HW2 5778   2.701   1.976   1.703
 1627SOL     OW 5779   3.990   1.996   5.398
 1627SOL    HW1 5780   4.056   2.027   5.329
 1627SOL    HW2 5781   3.995   1.897   5.408
 1628SOL     OW 5782   5.596   6.781   1.025
 1628SOL    HW1 5783   5.541   6.827   1.095
 1628SOL    HW2 5784   5.548   6.786   0.937
 1629SOL     OW 5785   1.818   0.427   3.702
 1629SOL    HW1 5786   1.729   0.473   3.696
 1629SOL    HW2 5787   1.852   0.408   3.610
 1630SOL     OW 5788   0.479   3.677   6.554
 1630SOL    HW1 5789   0.570   3.693   6.515
 1630SOL    HW2 5790   0.422   3.758   6.542
 1631SOL     OW 5791   6.940   3.835   0.025
 1631SOL    HW1 5792   6.989   3.750   0.007
 1631SOL    HW2 5793   6.951   3.897   6.971
 1632SOL     OW 5794   6.527   5.932   2.122
 1632SOL    HW1 5795   6.613   5.919   2.170
 1632SOL    HW2 5796   6.534   6.012   2.062
 1633SOL     OW 5797   5.759   3.761   4.608
 1633SOL    HW1 5798   5.824   3.778   4.682
 1633SOL    HW2 5799   5.792   3.802   4.524
 1634SOL     OW 5800   6.716   1.950   5.237
 1634SOL    HW1 5801   6.647   1.878   5.244
 1634SOL    HW2 5802   6.795   1.916   5.186
 1635SOL     OW 5803   3.965   6.200   3.303
 1635SOL    HW1 5804   3.912   6.182   3.221
 1635SOL    HW2 5805   3.931   6.143   3.378
 1636SOL     OW 5806   6.283   5.650   1.423
 1636SOL    HW1 5807   6.360   5.713   1.426
 1636SOL    HW2 5808   6.295   5.580   1.494
 1637SOL     OW 5809   0.625   0.426   2.698
 1637SOL    HW1 5810   0.640   0.329   2.682
 1637SOL    HW2 5811   0.677   0.455   2.779
 1638SOL     OW 5812   5.888   2.328   1.941
 1638SOL    HW1 5813   5.980   2.353   1.910
 1638SOL    HW2 5814   5.890   2.236   1.980
 1639SOL     OW 5815   5.256   2.750   2.345
 1639SOL    HW1 5816   5.269   2.657   2.382
 1639SOL    HW2 5817   5.320   2.765   2.270
 1640SOL     OW 5818   6.472   0.110   6.589
 1640SOL    HW1 5819   6.433   0.058   6.666
 1640SOL    HW2 5820   6.445   0.206   6.598
 1641SOL     OW 5821   6.003   2.456   2.965
 1641SOL    HW1 5822   5.937   2.490   3.031
 1641SOL    HW2 5823   5.956   2.398   2.898
 1642SOL     OW 5824   6.837   2.849   6.143
 1642SOL    HW1 5825   6.863   2.778   6.077
 1642SOL    HW2 5826   6.769   2.811   6.207
 1643SOL     OW 5827   2.129   6.040   4.077
 1643SOL    HW1 5828   2.165   5.980   4.148
 1643SOL    HW2 5829   2.069   5.988   4.016
 1644SOL     OW 5830   5.882   2.877   1.406
 1644SOL    HW1 5831   5.889   2.793   1.353
 1644SOL    HW2 5832   5.790   2.884   1.446
 1645SOL     OW 5833   1.813   0.604   5.674
 1645SOL    HW1 5834   1.774   0.541   5.607
 1645SOL    HW2 5835   1.912   0.598   5.673
 1646SOL     OW 5836   1.263   4.762   0.794
 1646SOL    HW1 5837   1.250   4.800   0.702
 1646SOL    HW2 5838   1.268   4.837   0.860
 1647SOL     OW 5839   5.498   2.911   4.247
 1647SOL    HW1 5840   5.565   2.840   4.224
 1647SOL    HW2 5841   5.544   3.000   4.252
 1648SOL     OW 5842   5.525   6.043   1.127
 1648SOL    HW1 5843   5.432   6.068   1.155
 1648SOL    HW2 5844   5.530   6.039   1.028
 1649SOL     OW 5845   3.645   0.511   2.878
 1649SOL    HW1 5846   3.635   0.606   2.908
 1649SOL    HW2 5847   3.610   0.502   2.785
 1650SOL     OW 5848   2.596   4.090   6.140
 1650SOL    HW1 5849   2.660   4.068   6.214
 1650SOL    HW2 5850   2.510   4.042   6.154
 1651SOL     OW 5851   0.969   2.745   3.131
 1651SOL    HW1 5852   0.967   2.647   3.115
 1651SOL    HW2 5853   0.910   2.791   3.065
 1652SOL     OW 5854   0.361   3.338   1.385
 1652SOL    HW1 5855   0.270   3.370   1.409
 1652SOL    HW2 5856   0.402   3.401   1.318
 1653SOL     OW 5857   0.328   4.685   2.821
 1653SOL    HW1 5858   0.424   4.698   2.843
 1653SOL    HW2 5859   0.296   4.762   2.766
 1654SOL     OW 5860   0.037   2.950   2.400
 1654SOL    HW1 5861   7.009   2.993   2.326
 1654SOL    HW2 5862   6.998   2.893   2.455
 1655SOL     OW 5863   6.758   0.380   5.203
 1655SOL    HW1 5864   6.819   0.378   5.125
 1655SOL    HW2 5865   6.726   0.288   5.224
 1656SOL     OW 5866   2.040   4.526   3.598
 1656SOL    HW1 5867   2.068   4.616   3.564
 1656SOL    HW2 5868   2.047   4.459   3.524
 1657SOL     OW 5869   0.500   6.770   5.380
 1657SOL    HW1 5870   0.449   6.690   5.348
 1657SOL    HW2 5871   0.566   6.742   5.450
 1658SOL     OW 5872   5.848   6.773   5.954
 1658SOL    HW1 5873   5.871   6.689   6.004
 1658SOL    HW2 5874   5.924   6.837   5.958
 1659SOL     OW 5875   4.282   0.012   5.859
 1659SOL    HW1 5876   4.319   0.098   5.895
 1659SOL    HW2 5877   4.261   0.023   5.762
 1660SOL     OW 5878   2.379   1.101   2.483
 1660SOL    HW1 5879   2.287   1.063   2.473
 1660SOL    HW2 5880   2.413   1.130   2.393
 1661SOL     OW 5881   4.875   4.663   2.845
 1661SOL    HW1 5882   4.821   4.634   2.766
 1661SOL    HW2 5883   4.960   4.610   2.849
 1662SOL     OW 5884   0.514   1.891   4.051
 1662SOL    HW1 5885   0.468   1.804   4.031
 1662SOL    HW2 5886   0.581   1.877   4.124
 1663SOL     OW 5887   4.870   4.992   0.072
 1663SOL    HW1 5888   4.840   4.992   7.000
 1663SOL    HW2 5889   4.946   5.055   0.083
 1664SOL     OW 5890   1.110   7.009   5.423
 1664SOL    HW1 5891   1.206   7.017   5.448
 1664SOL    HW2 5892   1.083   0.067   5.370
 1665SOL     OW 5893   3.102   4.285   0.285
 1665SOL    HW1 5894   3.187   4.233   0.278
 1665SOL    HW2 5895   3.089   4.340   0.202
 1666SOL     OW 5896   5.658   6.543   5.874
 1666SOL    HW1 5897   5.700   6.534   5.784
 1666SOL    HW2 5898   5.725   6.581   5.938
 1667SOL     OW 5899   0.186   6.149   1.408
 1667SOL    HW1 5900   0.142   6.065   1.440
 1667SOL    HW2 5901   0.175   6.157   1.309
 1668SOL     OW 5902   5.942   4.665   2.613
 1668SOL    HW1 5903   6.036   4.684   2.643
 1668SOL    HW2 5904   5.887   4.637   2.691
 1669SOL     OW 5905   6.108   3.960   5.622
 1669SOL    HW1 5906   6.051   3.939   5.701
 1669SOL    HW2 5907   6.158   3.877   5.595
 1670SOL     OW 5908   2.333   4.558   6.570
 1670SOL    HW1 5909   2.425   4.562   6.607
 1670SOL    HW2 5910   2.325   4.479   6.509
 1671SOL     OW 5911   6.198   2.118   1.030
 1671SOL    HW1 5912   6.288   2.081   1.010
 1671SOL    HW2 5913   6.152   2.142   0.944
 1672SOL     OW 5914   0.588   3.203   0.279
 1672SOL    HW1 5915   0.556   3.236   0.190
 1672SOL    HW2 5916   0.520   3.225   0.349
 1673SOL     OW 5917   1.694   0.520   4.604
 1673SOL    HW1 5918   1.707   0.583   4.681
 1673SOL    HW2 5919   1.736   0.560   4.522
 1674SOL     OW 5920   4.486   1.875   2.153
 1674SOL    HW1 5921   4.477   1.809   2.078
 1674SOL    HW2 5922   4.398   1.919   2.170
 1675SOL     OW 5923   5.482   0.542   1.544
 1675SOL    HW1 5924   5.484   0.630   1.590
 1675SOL    HW2 5925   5.409   0.541   1.476
 1676SOL     OW 5926   1.166   2.298   2.460
 1676SOL    HW1 5927   1.232   2.361   2.500
 1676SOL    HW2 5928   1.214   2.226   2.410
 1677SOL     OW 5929   3.945   3.077   3.418
 1677SOL    HW1 5930   3.953   3.041   3.512
 1677SOL    HW2 5931   4.018   3.143   3.402
 1678SOL     OW 5932   1.200   0.166   1.264
 1678SOL    HW1 5933   1.151   0.246   1.229
 1678SOL    HW2 5934   1.274   0.195   1.325
 1679SOL     OW 5935   0.571   1.649   6.701
 1679SOL    HW1 5936   0.500   1.713   6.729
 1679SOL    HW2 5937   0.638   1.697   6.644
 1680SOL     OW 5938   5.289   2.296   3.462
 1680SOL    HW1 5939   5.255   2.378   3.508
 1680SOL    HW2 5940   5.364   2.257   3.515
 1681SOL     OW 5941   2.720   6.593   4.434
 1681SOL    HW1 5942   2.796   6.654   4.414
 1681SOL    HW2 5943   2.744   6.537   4.514
 1682SOL     OW 5944   3.581   0.250   4.408
 1682SOL    HW1 5945   3.545   0.197   4.332
 1682SOL    HW2 5946   3.562   0.348   4.393
 1683SOL     OW 5947   6.340   4.892   2.713
 1683SOL    HW1 5948   6.430   4.924   2.683
 1683SOL    HW2 5949   6.289   4.968   2.753
 1684SOL     OW 5950   2.563   4.589   2.092
 1684SOL    HW1 5951   2.655   4.629   2.092
 1684SOL    HW2 5952   2.496   4.662   2.107
 1685SOL     OW 5953   0.153   1.241   5.439
 1685SOL    HW1 5954   0.153   1.244   5.539
 1685SOL    HW2 5955   0.059   1.232   5.406
 1686SOL     OW 5956   4.608   5.414   3.042
 1686SOL    HW1 5957   4.560   5.386   3.125
 1686SOL    HW2 5958   4.557   5.383   2.962
 1687SOL     OW 5959   4.937   4.041   1.372
 1687SOL    HW1 5960   4.866   4.022   1.441
 1687SOL    HW2 5961   4.894   4.064   1.285
 1688SOL     OW 5962   1.281   0.809   2.537
 1688SOL    HW1 5963   1.374   0.843   2.521
 1688SOL    HW2 5964   1.268   0.724   2.486
 1689SOL     OW 5965   4.575   0.737   1.216
 1689SOL    HW1 5966   4.570   0.690   1.304
 1689SOL    HW2 5967   4.611   0.829   1.230
 1690SOL     OW 5968   0.562   4.424   3.842
 1690SOL    HW1 5969   0.528   4.395   3.753
 1690SOL    HW2 5970   0.571   4.523   3.844
 1691SOL     OW 5971   4.427   2.481   5.257
 1691SOL    HW1 5972   4.392   2.425   5.332
 1691SOL    HW2 5973   4.373   2.465   5.175
 1692SOL     OW 5974   4.750   4.870   1.873
 1692SOL    HW1 5975   4.795   4.927   1.804
 1692SOL    HW2 5976   4.669   4.827   1.834
 1693SOL     OW 5977   5.310   0.117   5.222
 1693SOL    HW1 5978   5.402   0.156   5.227
 1693SOL    HW2 5979   5.249   0.182   5.177
 1694SOL     OW 5980   4.685   1.789   5.855
 1694SOL    HW1 5981   4.697   1.698   5.815
 1694SOL    HW2 5982   4.774   1.832   5.865
 1695SOL     OW 5983   4.017   0.845   6.843
 1695SOL    HW1 5984   3.945   0.894   6.796
 1695SOL    HW2 5985   3.990   0.829   6.939
 1696SOL     OW 5986   5.376   6.450   0.547
 1696SOL    HW1 5987   5.382   6.450   0.447
 1696SOL    HW2 5988   5.379   6.356   0.580
 1697SOL     OW 5989   4.914   2.456   1.939
 1697SOL    HW1 5990   4.839   2.449   1.873
 1697SOL    HW2 5991   4.937   2.552   1.955
 1698SOL     OW 5992   4.345   0.915   1.505
 1698SOL    HW1 5993   4.426   0.971   1.488
 1698SOL    HW2 5994   4.338   0.893   1.602
 1699SOL     OW 5995   2.281   6.951   0.285
 1699SOL    HW1 5996   2.350   6.992   0.227
 1699SOL    HW2 5997   2.191   6.960   0.242
 1700SOL     OW 5998   5.629   2.745   2.950
 1700SOL    HW1 5999   5.597   2.715   2.860
 1700SOL    HW2 6000   5.728   2.757   2.948
 1701SOL     OW 6001   0.097   6.213   4.802
 1701SOL    HW1 6002   0.107   6.170   4.891
 1701SOL    HW2 6003   0.185   6.250   4.772
 1702SOL     OW 6004   1.987   2.100   6.554
 1702SOL    HW1 6005   2.036   2.033   6.498
 1702SOL    HW2 6006   1.965   2.060   6.642
 1703SOL     OW 6007   2.013   1.738   1.509
 1703SOL    HW1 6008   1.946   1.703   1.443
 1703SOL    HW2 6009   1.967   1.795   1.577
 1704SOL     OW 6010   3.001   1.733   1.057
 1704SOL    HW1 6011   2.910   1.774   1.059
 1704SOL    HW2 6012   3.061   1.780   1.120
 1705SOL     OW 6013   4.219   2.422   0.746
 1705SOL    HW1 6014   4.278   2.420   0.827
 1705SOL    HW2 6015   4.273   2.450   0.667
 1706SOL     OW 6016   5.774   2.271   6.604
 1706SOL    HW1 6017   5.736   2.247   6.694
 1706SOL    HW2 6018   5.871   2.293   6.614
 1707SOL     OW 6019   4.489   1.647   1.987
 1707SOL    HW1 6020   4.563   1.579   1.981
 1707SOL    HW2 6021   4.406   1.603   2.021
 1708SOL     OW 6022   3.633   4.939   2.159
 1708SOL    HW1 6023   3.644   5.003   2.084
 1708SOL    HW2 6024   3.573   4.864   2.131
 1709SOL     OW 6025   4.407   5.188   0.682
 1709SOL    HW1 6026   4.315   5.188   0.643
 1709SOL    HW2 6027   4.402   5.155   0.777
 1710SOL     OW 6028   5.377   5.117   3.155
 1710SOL    HW1 6029   5.463   5.103   3.107
 1710SOL    HW2 6030   5.319   5.180   3.103
 1711SOL     OW 6031   4.129   5.255   6.815
 1711SOL    HW1 6032   4.127   5.162   6.777
 1711SOL    HW2 6033   4.058   5.264   6.885
 1712SOL     OW 6034   0.629   1.567   2.217
 1712SOL    HW1 6035   0.689   1.579   2.138
 1712SOL    HW2 6036   0.575   1.650   2.230
 1713SOL     OW 6037   3.987   0.930   2.599
 1713SOL    HW1 6038   3.979   0.978   2.686
 1713SOL    HW2 6039   3.896   0.908   2.564
 1714SOL     OW 6040   3.603   3.715   0.391
 1714SOL    HW1 6041   3.504   3.717   0.384
 1714SOL    HW2 6042   3.644   3.707   0.300
 1715SOL     OW 6043   2.259   6.378   2.501
 1715SOL    HW1 6044   2.343   6.422   2.534
 1715SOL    HW2 6045   2.184   6.397   2.565
 1716SOL     OW 6046   4.646   1.118   3.757
 1716SOL    HW1 6047   4.725   1.073   3.716
 1716SOL    HW2 6048   4.606   1.181   3.691
 1717SOL     OW 6049   3.379   6.360   5.182
 1717SOL    HW1 6050   3.327   6.332   5.262
 1717SOL    HW2 6051   3.426   6.281   5.143
 1718SOL     OW 6052   0.890   3.354   1.447
 1718SOL    HW1 6053   0.877   3.368   1.545
 1718SOL    HW2 6054   0.954   3.279   1.431
 1719SOL     OW 6055   1.064   5.606   2.690
 1719SOL    HW1 6056   1.038   5.524   2.638
 1719SOL    HW2 6057   1.147   5.645   2.650
 1720SOL     OW 6058   0.588   3.592   5.518
 1720SOL    HW1 6059   0.587   3.692   5.522
 1720SOL    HW2 6060   0.550   3.555   5.603
 1721SOL     OW 6061   1.145   2.351   0.740
 1721SOL    HW1 6062   1.068   2.398   0.697
 1721SOL    HW2 6063   1.205   2.418   0.783
 1722SOL     OW 6064   2.450   2.596   3.805
 1722SOL    HW1 6065   2.513   2.525   3.836
 1722SOL    HW2 6066   2.452   2.603   3.705
 1723SOL     OW 6067   5.834   4.283   1.032
 1723SOL    HW1 6068   5.776   4.297   0.951
 1723SOL    HW2 6069   5.929   4.272   1.003
 1724SOL     OW 6070   5.990   2.970   1.081
 1724SOL    HW1 6071   5.996   3.061   1.041
 1724SOL    HW2 6072   6.009   2.901   1.010
 1725SOL     OW 6073   1.801   6.118   6.667
 1725SOL    HW1 6074   1.766   6.062   6.743
 1725SOL    HW2 6075   1.732   6.187   6.642
 1726SOL     OW 6076   5.535   4.504   2.608
 1726SOL    HW1 6077   5.482   4.463   2.534
 1726SOL    HW2 6078   5.486   4.582   2.646
 1727SOL     OW 6079   3.057   3.846   3.259
 1727SOL    HW1 6080   3.065   3.882   3.352
 1727SOL    HW2 6081   3.093   3.913   3.194
 1728SOL     OW 6082   5.291   2.575   4.198
 1728SOL    HW1 6083   5.347   2.572   4.114
 1728SOL    HW2 6084   5.348   2.549   4.276
 1729SOL     OW 6085   1.407   2.834   2.750
 1729SOL    HW1 6086   1.467   2.825   2.830
 1729SOL    HW2 6087   1.409   2.929   2.718
 1730SOL     OW 6088   2.136   5.505   4.095
 1730SOL    HW1 6089   2.044   5.489   4.130
 1730SOL    HW2 6090   2.196   5.529   4.171
 1731SOL     OW 6091   6.148   5.111   3.267
 1731SOL    HW1 6092   6.120   5.068   3.181
 1731SOL    HW2 6093   6.070   5.115   3.330
 1732SOL     OW 6094   2.487   3.477   5.693
 1732SOL    HW1 6095   2.397   3.492   5.652
 1732SOL    HW2 6096   2.558   3.504   5.628
 1733SOL     OW 6097   2.112   3.288   6.211
 1733SOL    HW1 6098   2.118   3.386   6.193
 1733SOL    HW2 6099   2.070   3.273   6.300
 1734SOL     OW 6100   6.490   3.101   0.753
 1734SOL    HW1 6101   6.404   3.127   0.795
 1734SOL    HW2 6102   6.504   3.153   0.669
 1735SOL     OW 6103   3.896   5.414   6.109
 1735SOL    HW1 6104   3.832   5.427   6.184
 1735SOL    HW2 6105   3.892   5.320   6.077
 1736SOL     OW 6106   4.880   2.469   0.558
 1736SOL    HW1 6107   4.858   2.397   0.493
 1736SOL    HW2 6108   4.839   2.555   0.528
 1737SOL     OW 6109   4.328   1.910   5.451
 1737SOL    HW1 6110   4.339   1.971   5.373
 1737SOL    HW2 6111   4.417   1.894   5.494
 1738SOL     OW 6112   1.855   3.382   4.208
 1738SOL    HW1 6113   1.859   3.392   4.109
 1738SOL    HW2 6114   1.934   3.329   4.240
 1739SOL     OW 6115   5.834   0.685   3.402
 1739SOL    HW1 6116   5.914   0.744   3.415
 1739SOL    HW2 6117   5.780   0.683   3.486
 1740SOL     OW 6118   6.151   3.334   5.068
 1740SOL    HW1 6119   6.250   3.345   5.077
 1740SOL    HW2 6120   6.121   3.255   5.120
 1741SOL     OW 6121   0.039   1.907   4.699
 1741SOL    HW1 6122   0.104   1.972   4.660
 1741SOL    HW2 6123   6.968   1.935   4.677
 1742SOL     OW 6124   6.459   5.919   6.364
 1742SOL    HW1 6125   6.365   5.939   6.336
 1742SOL    HW2 6126   6.516   5.908   6.282
 1743SOL     OW 6127   1.645   1.522   2.338
 1743SOL    HW1 6128   1.592   1.460   2.396
 1743SOL    HW2 6129   1.709   1.468   2.283
 1744SOL     OW 6130   3.490   2.056   4.621
 1744SOL    HW1 6131   3.565   2.096   4.674
 1744SOL    HW2 6132   3.414   2.035   4.681
 1745SOL     OW 6133   6.085   6.447   1.471
 1745SOL    HW1 6134   5.989   6.475   1.484
 1745SOL    HW2 6135   6.136   6.524   1.432
 1746SOL     OW 6136   2.707   4.639   3.382
 1746SOL    HW1 6137   2.772   4.714   3.374
 1746SOL    HW2 6138   2.660   4.626   3.295
 1747SOL     OW 6139   4.080   0.433   2.556
 1747SOL    HW1 6140   4.062   0.525   2.521
 1747SOL    HW2 6141   4.044   0.365   2.492
 1748SOL     OW 6142   6.519   2.853   4.885
 1748SOL    HW1 6143   6.429   2.813   4.866
 1748SOL    HW2 6144   6.579   2.841   4.806
 1749SOL     OW 6145   0.896   5.186   1.400
 1749SOL    HW1 6146   0.993   5.206   1.395
 1749SOL    HW2 6147   0.849   5.257   1.451
 1750SOL     OW 6148   3.930   0.068   6.343
 1750SOL    HW1 6149   3.925   6.991   6.348
 1750SOL    HW2 6150   3.948   0.096   6.249
 1751SOL     OW 6151   6.069   3.083   5.164
 1751SOL    HW1 6152   6.038   3.092   5.258
 1751SOL    HW2 6153   6.111   2.993   5.151
 1752SOL     OW 6154   6.780   0.818   1.938
 1752SOL    HW1 6155   6.839   0.880   1.989
 1752SOL    HW2 6156   6.820   0.801   1.847
 1753SOL     OW 6157   6.022   1.130   1.817
 1753SOL    HW1 6158   5.973   1.044   1.805
 1753SOL    HW2 6159   6.065   1.131   1.908
 1754SOL     OW 6160   3.179   5.451   4.025
 1754SOL    HW1 6161   3.242   5.440   3.948
 1754SOL    HW2 6162   3.150   5.547   4.032
 1755SOL     OW 6163   5.980   6.622   4.575
 1755SOL    HW1 6164   5.930   6.654   4.656
 1755SOL    HW2 6165   5.996   6.524   4.582
 1756SOL     OW 6166   4.867   6.209   0.022
 1756SOL    HW1 6167   4.864   6.127   0.080
 1756SOL    HW2 6168   4.932   6.194   6.970
 1757SOL     OW 6169   2.692   4.859   5.140
 1757SOL    HW1 6170   2.713   4.935   5.078
 1757SOL    HW2 6171   2.759   4.786   5.127
 1758SOL     OW 6172   1.803   5.985   4.710
 1758SOL    HW1 6173   1.798   5.996   4.610
 1758SOL    HW2 6174   1.780   6.072   4.754
 1759SOL     OW 6175   1.375   6.129   0.109
 1759SOL    HW1 6176   1.326   6.087   0.033
 1759SOL    HW2 6177   1.371   6.068   0.189
 1760SOL     OW 6178   0.021   0.960   4.728
 1760SOL    HW1 6179   6.994   1.025   4.785
 1760SOL    HW2 6180   0.106   1.002   4.696
 1761SOL     OW 6181   5.752   1.293   2.666
 1761SOL    HW1 6182   5.683   1.253   2.606
 1761SOL    HW2 6183   5.789   1.376   2.623
 1762SOL     OW 6184   0.930   1.173   5.540
 1762SOL    HW1 6185   1.001   1.196   5.474
 1762SOL    HW2 6186   0.883   1.257   5.569
 1763SOL     OW 6187   1.113   3.875   3.690
 1763SOL    HW1 6188   1.067   3.962   3.706
 1763SOL    HW2 6189   1.105   3.818   3.771
 1764SOL     OW 6190   1.493   5.554   3.504
 1764SOL    HW1 6191   1.414   5.510   3.463
 1764SOL    HW2 6192   1.560   5.484   3.531
 1765SOL     OW 6193   5.694   3.462   2.666
 1765SOL    HW1 6194   5.776   3.494   2.714
 1765SOL    HW2 6195   5.642   3.401   2.725
 1766SOL     OW 6196   4.278   4.790   3.826
 1766SOL    HW1 6197   4.211   4.763   3.757
 1766SOL    HW2 6198   4.270   4.730   3.905
 1767SOL     OW 6199   0.343   4.981   2.040
 1767SOL    HW1 6200   0.345   5.079   2.021
 1767SOL    HW2 6201   0.257   4.958   2.086
 1768SOL     OW 6202   5.076   5.047   1.949
 1768SOL    HW1 6203   5.023   5.010   2.025
 1768SOL    HW2 6204   5.065   5.147   1.946
 1769SOL     OW 6205   5.711   0.690   0.485
 1769SOL    HW1 6206   5.789   0.629   0.505
 1769SOL    HW2 6207   5.742   0.785   0.483
 1770SOL     OW 6208   1.739   5.105   0.794
 1770SOL    HW1 6209   1.724   5.138   0.887
 1770SOL    HW2 6210   1.651   5.099   0.746
 1771SOL     OW 6211   2.048   2.947   5.845
 1771SOL    HW1 6212   1.967   2.967   5.790
 1771SOL    HW2 6213   2.045   2.851   5.874
 1772SOL     OW 6214   2.126   3.999   2.576
 1772SOL    HW1 6215   2.051   4.037   2.522
 1772SOL    HW2 6216   2.156   3.913   2.535
 1773SOL     OW 6217   2.149   6.349   6.305
 1773SOL    HW1 6218   2.203   6.411   6.248
 1773SOL    HW2 6219   2.206   6.272   6.332
 1774SOL     OW 6220   5.277   5.871   0.797
 1774SOL    HW1 6221   5.259   5.872   0.699
 1774SOL    HW2 6222   5.368   5.833   0.814
 1775SOL     OW 6223   2.147   5.238   0.462
 1775SOL    HW1 6224   2.193   5.152   0.485
 1775SOL    HW2 6225   2.054   5.237   0.501
 1776SOL     OW 6226   4.677   2.534   5.316
 1776SOL    HW1 6227   4.676   2.610   5.251
 1776SOL    HW2 6228   4.585   2.496   5.324
 1777SOL     OW 6229   4.742   6.479   6.880
 1777SOL    HW1 6230   4.744   6.462   6.979
 1777SOL    HW2 6231   4.835   6.478   6.844
 1778SOL     OW 6232   6.251   6.991   4.272
 1778SOL    HW1 6233   6.219   6.985   4.178
 1778SOL    HW2 6234   6.269   6.899   4.306
 1779SOL     OW 6235   5.517   0.580   4.081
 1779SOL    HW1 6236   5.460   0.617   4.007
 1779SOL    HW2 6237   5.471   0.594   4.168
 1780SOL     OW 6238   2.282   5.033   5.486
 1780SOL    HW1 6239   2.200   5.047   5.430
 1780SOL    HW2 6240   2.354   4.993   5.430
 1781SOL     OW 6241   4.099   0.834   5.373
 1781SOL    HW1 6242   4.135   0.910   5.319
 1781SOL    HW2 6243   4.138   0.838   5.465
 1782SOL     OW 6244   5.906   1.593   2.208
 1782SOL    HW1 6245   5.986   1.652   2.205
 1782SOL    HW2 6246   5.934   1.499   2.229
 1783SOL     OW 6247   1.984   4.283   6.739
 1783SOL    HW1 6248   2.036   4.367   6.751
 1783SOL    HW2 6249   1.952   4.251   6.828
 1784SOL     OW 6250   2.661   6.513   1.629
 1784SOL    HW1 6251   2.562   6.513   1.646
 1784SOL    HW2 6252   2.709   6.479   1.709
 1785SOL     OW 6253   1.118   6.669   5.030
 1785SOL    HW1 6254   1.141   6.622   4.945
 1785SOL    HW2 6255   1.174   6.752   5.038
 1786SOL     OW 6256   0.927   6.380   1.021
 1786SOL    HW1 6257   0.970   6.466   0.994
 1786SOL    HW2 6258   0.840   6.370   0.972
 1787SOL     OW 6259   2.013   3.285   5.934
 1787SOL    HW1 6260   2.066   3.272   6.018
 1787SOL    HW2 6261   1.917   3.264   5.951
 1788SOL     OW 6262   4.434   3.624   1.025
 1788SOL    HW1 6263   4.428   3.525   1.030
 1788SOL    HW2 6264   4.527   3.653   1.050
 1789SOL     OW 6265   6.143   3.898   2.457
 1789SOL    HW1 6266   6.075   3.835   2.492
 1789SOL    HW2 6267   6.101   3.960   2.391
 1790SOL     OW 6268   1.670   2.057   4.658
 1790SOL    HW1 6269   1.676   2.033   4.754
 1790SOL    HW2 6270   1.652   2.155   4.650
 1791SOL     OW 6271   5.111   0.316   3.545
 1791SOL    HW1 6272   5.042   0.386   3.565
 1791SOL    HW2 6273   5.079   0.228   3.578
 1792SOL     OW 6274   0.567   1.999   6.510
 1792SOL    HW1 6275   0.589   1.903   6.493
 1792SOL    HW2 6276   0.604   2.026   6.599
 1793SOL     OW 6277   0.106   0.742   5.920
 1793SOL    HW1 6278   0.172   0.666   5.922
 1793SOL    HW2 6279   0.124   0.799   5.840
 1794SOL     OW 6280   1.079   0.459   5.927
 1794SOL    HW1 6281   1.095   0.424   6.019
 1794SOL    HW2 6282   1.016   0.537   5.931
 1795SOL     OW 6283   5.471   4.236   1.024
 1795SOL    HW1 6284   5.529   4.292   0.965
 1795SOL    HW2 6285   5.453   4.148   0.979
 1796SOL     OW 6286   0.165   0.043   0.228
 1796SOL    HW1 6287   0.229   7.006   0.179
 1796SOL    HW2 6288   0.082   7.015   0.250
 1797SOL     OW 6289   2.225   4.994   5.966
 1797SOL    HW1 6290   2.194   4.927   5.898
 1797SOL    HW2 6291   2.271   5.069   5.919
 1798SOL     OW 6292   2.212   3.837   5.252
 1798SOL    HW1 6293   2.277   3.853   5.178
 1798SOL    HW2 6294   2.198   3.921   5.303
 1799SOL     OW 6295   3.023   1.393   1.082
 1799SOL    HW1 6296   2.967   1.445   1.147
 1799SOL    HW2 6297   2.982   1.303   1.068
 1800SOL     OW 6298   5.648   3.134   5.320
 1800SOL    HW1 6299   5.688   3.224   5.336
 1800SOL    HW2 6300   5.574   3.141   5.253
 1801SOL     OW 6301   0.842   0.337   3.377
 1801SOL    HW1 6302   0.893   0.286   3.308
 1801SOL    HW2 6303   0.854   0.435   3.361
 1802SOL     OW 6304   6.967   5.056   3.852
 1802SOL    HW1 6305   6.873   5.073   3.880
 1802SOL    HW2 6306   6.980   5.084   3.757
 1803SOL     OW 6307   0.555   6.951   3.288
 1803SOL    HW1 6308   0.498   6.874   3.317
 1803SOL    HW2 6309   0.651   6.923   3.289
 1804SOL     OW 6310   2.285   3.049   5.954
 1804SOL    HW1 6311   2.188   3.039   5.931
 1804SOL    HW2 6312   2.308   3.146   5.960
 1805SOL     OW 6313   6.778   4.754   0.901
 1805SOL    HW1 6314   6.770   4.656   0.920
 1805SOL    HW2 6315   6.705   4.803   0.950
 1806SOL     OW 6316   0.129   1.533   1.088
 1806SOL    HW1 6317   0.084   1.451   1.054
 1806SOL    HW2 6318   0.203   1.559   1.027
 1807SOL     OW 6319   6.856   2.333   2.532
 1807SOL    HW1 6320   6.812   2.412   2.574
 1807SOL    HW2 6321   6.794   2.291   2.466
 1808SOL     OW 6322   5.087   1.624   6.381
 1808SOL    HW1 6323   5.180   1.601   6.411
 1808SOL    HW2 6324   5.021   1.577   6.439
 1809SOL     OW 6325   4.968   0.424   5.278
 1809SOL    HW1 6326   4.965   0.499   5.344
 1809SOL    HW2 6327   4.938   0.339   5.322
 1810SOL     OW 6328   0.689   0.340   4.304
 1810SOL    HW1 6329   0.655   0.417   4.251
 1810SOL    HW2 6330   0.621   0.266   4.303
 1811SOL     OW 6331   3.682   5.939   2.063
 1811SOL    HW1 6332   3.710   6.014   2.002
 1811SOL    HW2 6333   3.652   5.862   2.008
 1812SOL     OW 6334   4.851   6.317   6.424
 1812SOL    HW1 6335   4.877   6.254   6.350
 1812SOL    HW2 6336   4.830   6.407   6.386
 1813SOL     OW 6337   4.784   4.181   2.034
 1813SOL    HW1 6338   4.712   4.206   2.098
 1813SOL    HW2 6339   4.744   4.158   1.945
 1814SOL     OW 6340   6.421   5.916   0.570
 1814SOL    HW1 6341   6.390   5.871   0.486
 1814SOL    HW2 6342   6.507   5.874   0.601
 1815SOL     OW 6343   5.648   6.254   1.367
 1815SOL    HW1 6344   5.582   6.319   1.330
 1815SOL    HW2 6345   5.606   6.204   1.443
 1816SOL     OW 6346   4.296   4.793   5.160
 1816SOL    HW1 6347   4.270   4.862   5.228
 1816SOL    HW2 6348   4.229   4.794   5.086
 1817SOL     OW 6349   0.010   2.789   3.851
 1817SOL    HW1 6350   7.003   2.716   3.790
 1817SOL    HW2 6351   0.101   2.821   3.824
 1818SOL     OW 6352   2.654   1.020   0.492
 1818SOL    HW1 6353   2.563   0.991   0.521
 1818SOL    HW2 6354   2.647   1.111   0.450
 1819SOL     OW 6355   1.938   4.279   2.794
 1819SOL    HW1 6356   1.854   4.233   2.820
 1819SOL    HW2 6357   1.949   4.275   2.694
 1820SOL     OW 6358   3.233   0.528   5.297
 1820SOL    HW1 6359   3.294   0.559   5.224
 1820SOL    HW2 6360   3.200   0.436   5.277
 1821SOL     OW 6361   3.591   1.864   2.466
 1821SOL    HW1 6362   3.688   1.881   2.482
 1821SOL    HW2 6363   3.580   1.823   2.375
 1822SOL     OW 6364   7.009   3.494   2.819
 1822SOL    HW1 6365   6.953   3.470   2.899
 1822SOL    HW2 6366   6.992   3.589   2.795
 1823SOL     OW 6367   4.602   6.680   2.106
 1823SOL    HW1 6368   4.661   6.599   2.105
 1823SOL    HW2 6369   4.589   6.713   2.012
 1824SOL     OW 6370   4.360   3.076   1.695
 1824SOL    HW1 6371   4.434   3.066   1.761
 1824SOL    HW2 6372   4.333   3.172   1.687
 1825SOL     OW 6373   1.012   2.617   5.220
 1825SOL    HW1 6374   1.011   2.588   5.124
 1825SOL    HW2 6375   1.106   2.623   5.252
 1826SOL     OW 6376   3.231   1.977   1.488
 1826SOL    HW1 6377   3.281   2.061   1.467
 1826SOL    HW2 6378   3.215   1.972   1.586
 1827SOL     OW 6379   5.391   5.219   0.330
 1827SOL    HW1 6380   5.316   5.153   0.334
 1827SOL    HW2 6381   5.433   5.227   0.421
 1828SOL     OW 6382   1.733   3.659   5.346
 1828SOL    HW1 6383   1.662   3.716   5.305
 1828SOL    HW2 6384   1.823   3.689   5.316
 1829SOL     OW 6385   3.983   0.096   2.075
 1829SOL    HW1 6386   4.020   0.006   2.100
 1829SOL    HW2 6387   3.908   0.119   2.137
 1830SOL     OW 6388   4.994   1.045   6.100
 1830SOL    HW1 6389   5.000   0.980   6.176
 1830SOL    HW2 6390   5.071   1.109   6.105
 1831SOL     OW 6391   3.151   4.779   0.290
 1831SOL    HW1 6392   3.152   4.815   0.383
 1831SOL    HW2 6393   3.191   4.688   0.288
 1832SOL     OW 6394   2.859   2.931   6.578
 1832SOL    HW1 6395   2.790   2.963   6.514
 1832SOL    HW2 6396   2.828   2.948   6.672
 1833SOL     OW 6397   5.335   1.276   6.955
 1833SOL    HW1 6398   5.396   1.196   6.952
 1833SOL    HW2 6399   5.240   1.245   6.949
 1834SOL     OW 6400   0.343   2.942   5.416
 1834SOL    HW1 6401   0.243   2.935   5.413
 1834SOL    HW2 6402   0.382   2.851   5.429
 1835SOL     OW 6403   6.728   6.009   1.237
 1835SOL    HW1 6404   6.742   5.916   1.271
 1835SOL    HW2 6405   6.701   6.068   1.313
 1836SOL     OW 6406   5.519   2.364   2.560
 1836SOL    HW1 6407   5.462   2.381   2.640
 1836SOL    HW2 6408   5.463   2.325   2.487
 1837SOL     OW 6409   3.176   1.986   6.612
 1837SOL    HW1 6410   3.139   1.908   6.662
 1837SOL    HW2 6411   3.259   1.958   6.563
 1838SOL     OW 6412   5.189   0.988   0.945
 1838SOL    HW1 6413   5.253   0.918   0.975
 1838SOL    HW2 6414   5.097   0.965   0.976
 1839SOL     OW 6415   6.875   0.110   0.630
 1839SOL    HW1 6416   6.970   0.084   0.645
 1839SOL    HW2 6417   6.818   0.072   0.703
 1840SOL     OW 6418   4.481   6.302   4.370
 1840SOL    HW1 6419   4.581   6.303   4.363
 1840SOL    HW2 6420   4.442   6.345   4.288
 1841SOL     OW 6421   0.997   1.351   1.926
 1841SOL    HW1 6422   1.012   1.437   1.878
 1841SOL    HW2 6423   0.899   1.336   1.940
 1842SOL     OW 6424   1.019   5.474   1.317
 1842SOL    HW1 6425   0.989   5.565   1.291
 1842SOL    HW2 6426   1.039   5.421   1.234
 1843SOL     OW 6427   2.555   0.756   6.693
 1843SOL    HW1 6428   2.512   0.828   6.638
 1843SOL    HW2 6429   2.490   0.720   6.759
 1844SOL     OW 6430   5.775   3.005   6.607
 1844SOL    HW1 6431   5.826   3.075   6.558
 1844SOL    HW2 6432   5.806   2.914   6.577
 1845SOL     OW 6433   0.894   2.123   3.020
 1845SOL    HW1 6434   0.951   2.205   3.013
 1845SOL    HW2 6435   0.802   2.144   2.987
 1846SOL     OW 6436   2.843   1.603   1.283
 1846SOL    HW1 6437   2.833   1.675   1.352
 1846SOL    HW2 6438   2.899   1.638   1.207
 1847SOL     OW 6439   1.611   5.544   5.897
 1847SOL    HW1 6440   1.583   5.572   5.805
 1847SOL    HW2 6441   1.530   5.517   5.950
 1848SOL     OW 6442   3.677   6.332   3.366
 1848SOL    HW1 6443   3.624   6.320   3.283
 1848SOL    HW2 6444   3.772   6.306   3.350
 1849SOL     OW 6445   4.790   2.805   2.133
 1849SOL    HW1 6446   4.764   2.876   2.068
 1849SOL    HW2 6447   4.770   2.835   2.226
 1850SOL     OW 6448   4.234   1.895   0.385
 1850SOL    HW1 6449   4.227   1.981   0.436
 1850SOL    HW2 6450   4.315   1.845   0.416
 1851SOL     OW 6451   0.058   4.663   4.527
 1851SOL    HW1 6452   6.997   4.690   4.480
 1851SOL    HW2 6453   0.117   4.742   4.539
 1852SOL     OW 6454   0.759   0.569   2.911
 1852SOL    HW1 6455   0.794   0.591   3.002
 1852SOL    HW2 6456   0.822   0.604   2.842
 1853SOL     OW 6457   0.446   2.347   6.052
 1853SOL    HW1 6458   0.491   2.424   6.006
 1853SOL    HW2 6459   0.352   2.339   6.020
 1854SOL     OW 6460   0.774   6.536   3.617
 1854SOL    HW1 6461   0.691   6.593   3.613
 1854SOL    HW2 6462   0.750   6.441   3.597
 1855SOL     OW 6463   5.655   2.857   4.921
 1855SOL    HW1 6464   5.707   2.771   4.926
 1855SOL    HW2 6465   5.631   2.875   4.825
 1856SOL     OW 6466   4.130   3.139   0.066
 1856SOL    HW1 6467   4.119   3.086   0.151
 1856SOL    HW2 6468   4.225   3.135   0.036
 1857SOL     OW 6469   3.980   1.230   6.797
 1857SOL    HW1 6470   4.068   1.183   6.787
 1857SOL    HW2 6471   3.929   1.189   6.872
 1858SOL     OW 6472   4.836   2.594   4.234
 1858SOL    HW1 6473   4.803   2.581   4.140
 1858SOL    HW2 6474   4.921   2.648   4.232
 1859SOL     OW 6475   6.511   0.803   4.053
 1859SOL    HW1 6476   6.450   0.740   4.100
 1859SOL    HW2 6477   6.523   0.886   4.107
 1860SOL     OW 6478   2.136   1.297   5.933
 1860SOL    HW1 6479   2.047   1.292   5.887
 1860SOL    HW2 6480   2.194   1.364   5.886
 1861SOL     OW 6481   6.351   6.353   4.531
 1861SOL    HW1 6482   6.407   6.427   4.493
 1861SOL    HW2 6483   6.355   6.355   4.630
 1862SOL     OW 6484   2.794   5.344   5.336
 1862SOL    HW1 6485   2.770   5.348   5.239
 1862SOL    HW2 6486   2.893   5.332   5.344
 1863SOL     OW 6487   0.376   2.484   1.374
 1863SOL    HW1 6488   0.445   2.544   1.335
 1863SOL    HW2 6489   0.287   2.504   1.333
 1864SOL     OW 6490   3.350   6.069   1.879
 1864SOL    HW1 6491   3.260   6.111   1.884
 1864SOL    HW2 6492   3.354   5.991   1.942
 1865SOL     OW 6493   6.286   2.626   5.889
 1865SOL    HW1 6494   6.264   2.678   5.807
 1865SOL    HW2 6495   6.201   2.599   5.935
 1866SOL     OW 6496   0.722   5.438   3.302
 1866SOL    HW1 6497   0.735   5.535   3.284
 1866SOL    HW2 6498   0.629   5.422   3.337
 1867SOL     OW 6499   0.723   2.530   1.575
 1867SOL    HW1 6500   0.663   2.582   1.636
 1867SOL    HW2 6501   0.765   2.455   1.626
 1868SOL     OW 6502   5.878   3.554   6.787
 1868SOL    HW1 6503   5.966   3.506   6.780
 1868SOL    HW2 6504   5.813   3.514   6.721
 1869SOL     OW 6505   4.940   1.170   4.594
 1869SOL    HW1 6506   4.977   1.079   4.609
 1869SOL    HW2 6507   4.975   1.233   4.664
 1870SOL     OW 6508   6.678   6.517   5.574
 1870SOL    HW1 6509   6.679   6.587   5.644
 1870SOL    HW2 6510   6.676   6.560   5.483
 1871SOL     OW 6511   0.840   6.419   6.932
 1871SOL    HW1 6512   0.905   6.399   6.859
 1871SOL    HW2 6513   0.857   6.511   6.968
 1872SOL     OW 6514   2.907   3.192   1.471
 1872SOL    HW1 6515   2.985   3.205   1.533
 1872SOL    HW2 6516   2.828   3.160   1.524
 1873SOL     OW 6517   6.700   1.064   1.314
 1873SOL    HW1 6518   6.636   1.137   1.337
 1873SOL    HW2 6519   6.662   0.976   1.342
 1874SOL     OW 6520   1.069   5.370   0.808
 1874SOL    HW1 6521   1.101   5.305   0.740
 1874SOL    HW2 6522   1.145   5.398   0.867
 1875SOL     OW 6523   0.484   5.458   1.695
 1875SOL    HW1 6524   0.385   5.447   1.696
 1875SOL    HW2 6525   0.519   5.450   1.788
 1876SOL     OW 6526   0.474   4.989   0.873
 1876SOL    HW1 6527   0.385   5.003   0.918
 1876SOL    HW2 6528   0.529   5.072   0.882
 1877SOL     OW 6529   0.973   1.882   2.139
 1877SOL    HW1 6530   0.894   1.854   2.194
 1877SOL    HW2 6531   0.942   1.935   2.060
 1878SOL     OW 6532   5.396   3.750   4.088
 1878SOL    HW1 6533   5.438   3.661   4.102
 1878SOL    HW2 6534   5.352   3.753   3.998
 1879SOL     OW 6535   5.000   6.330   4.465
 1879SOL    HW1 6536   4.945   6.358   4.544
 1879SOL    HW2 6537   5.076   6.393   4.454
 1880SOL     OW 6538   0.076   1.191   4.383
 1880SOL    HW1 6539   0.147   1.137   4.338
 1880SOL    HW2 6540   0.087   1.183   4.483
 1881SOL     OW 6541   2.088   1.639   3.762
 1881SOL    HW1 6542   2.174   1.669   3.721
 1881SOL    HW2 6543   2.103   1.621   3.860
 1882SOL     OW 6544   1.717   5.341   0.487
 1882SOL    HW1 6545   1.689   5.386   0.403
 1882SOL    HW2 6546   1.641   5.342   0.553
 1883SOL     OW 6547   2.233   2.434   2.919
 1883SOL    HW1 6548   2.201   2.362   2.981
 1883SOL    HW2 6549   2.327   2.415   2.891
 1884SOL     OW 6550   4.262   1.205   0.405
 1884SOL    HW1 6551   4.293   1.211   0.310
 1884SOL    HW2 6552   4.288   1.117   0.443
 1885SOL     OW 6553   0.137   1.696   0.578
 1885SOL    HW1 6554   0.104   1.726   0.488
 1885SOL    HW2 6555   0.146   1.775   0.638
 1886SOL     OW 6556   3.437   2.374   6.166
 1886SOL    HW1 6557   3.419   2.462   6.121
 1886SOL    HW2 6558   3.520   2.381   6.221
 1887SOL     OW 6559   0.849   6.353   4.925
 1887SOL    HW1 6560   0.776   6.360   4.993
 1887SOL    HW2 6561   0.928   6.308   4.966
 1888SOL     OW 6562   1.964   1.663   5.256
 1888SOL    HW1 6563   1.869   1.632   5.258
 1888SOL    HW2 6564   1.971   1.745   5.200
 1889SOL     OW 6565   2.860   2.699   0.135
 1889SOL    HW1 6566   2.912   2.614   0.134
 1889SOL    HW2 6567   2.862   2.738   0.227
 1890SOL     OW 6568   6.153   6.295   0.105
 1890SOL    HW1 6569   6.199   6.257   0.025
 1890SOL    HW2 6570   6.090   6.367   0.076
 1891SOL     OW 6571   5.224   3.580   6.704
 1891SOL    HW1 6572   5.262   3.664   6.744
 1891SOL    HW2 6573   5.125   3.581   6.714
 1892SOL     OW 6574   4.247   0.055   2.241
 1892SOL    HW1 6575   4.340   0.018   2.248
 1892SOL    HW2 6576   4.191   7.016   2.186
 1893SOL     OW 6577   3.073   1.579   5.197
 1893SOL    HW1 6578   3.023   1.608   5.116
 1893SOL    HW2 6579   3.025   1.503   5.241
 1894SOL     OW 6580   4.984   3.748   1.336
 1894SOL    HW1 6581   4.939   3.837   1.335
 1894SOL    HW2 6582   4.984   3.709   1.244
 1895SOL     OW 6583   4.577   6.929   3.631
 1895SOL    HW1 6584   4.525   7.012   3.614
 1895SOL    HW2 6585   4.578   6.909   3.729
 1896SOL     OW 6586   6.333   2.007   5.891
 1896SOL    HW1 6587   6.384   2.023   5.806
 1896SOL    HW2 6588   6.289   2.092   5.920
 1897SOL     OW 6589   5.477   5.017   3.487
 1897SOL    HW1 6590   5.523   5.016   3.577
 1897SOL    HW2 6591   5.421   5.099   3.480
 1898SOL     OW 6592   6.103   6.678   6.539
 1898SOL    HW1 6593   6.073   6.607   6.603
 1898SOL    HW2 6594   6.032   6.748   6.530
 1899SOL     OW 6595   1.387   2.433   3.121
 1899SOL    HW1 6596   1.472   2.443   3.070
 1899SOL    HW2 6597   1.407   2.398   3.212
 1900SOL     OW 6598   2.252   6.497   2.257
 1900SOL    HW1 6599   2.270   6.435   2.334
 1900SOL    HW2 6600   2.251   6.592   2.291
 1901SOL     OW 6601   1.534   1.251   6.330
 1901SOL    HW1 6602   1.453   1.213   6.374
 1901SOL    HW2 6603   1.507   1.326   6.269
 1902SOL     OW 6604   1.940   2.133   5.604
 1902SOL    HW1 6605   1.989   2.220   5.599
 1902SOL    HW2 6606   1.864   2.141   5.668
 1903SOL     OW 6607   6.925   4.445   4.109
 1903SOL    HW1 6608   6.991   4.382   4.149
 1903SOL    HW2 6609   6.835   4.402   4.107
 1904SOL     OW 6610   0.316   0.397   4.314
 1904SOL    HW1 6611   0.404   0.444   4.307
 1904SOL    HW2 6612   0.259   0.441   4.383
 1905SOL     OW 6613   6.601   3.067   4.558
 1905SOL    HW1 6614   6.515   3.114   4.579
 1905SOL    HW2 6615   6.631   3.092   4.466
 1906SOL     OW 6616   2.908   5.872   6.419
 1906SOL    HW1 6617   2.978   5.936   6.388
 1906SOL    HW2 6618   2.900   5.875   6.518
 1907SOL     OW 6619   4.282   6.341   3.813
 1907SOL    HW1 6620   4.371   6.296   3.808
 1907SOL    HW2 6621   4.268   6.397   3.732
 1908SOL     OW 6622   4.942   0.067   6.587
 1908SOL    HW1 6623   4.952   0.002   6.512
 1908SOL    HW2 6624   4.855   0.116   6.578
 1909SOL     OW 6625   4.464   5.069   4.757
 1909SOL    HW1 6626   4.500   5.028   4.673
 1909SOL    HW2 6627   4.454   5.167   4.744
 1910SOL     OW 6628   5.158   3.108   4.516
 1910SOL    HW1 6629   5.189   3.203   4.514
 1910SOL    HW2 6630   5.068   3.103   4.559
 1911SOL     OW 6631   0.016   3.438   5.628
 1911SOL    HW1 6632   6.982   3.365   5.667
 1911SOL    HW2 6633   0.089   3.397   5.573
 1912SOL     OW 6634   2.555   5.817   3.221
 1912SOL    HW1 6635   2.633   5.758   3.199
 1912SOL    HW2 6636   2.515   5.788   3.308
 1913SOL     OW 6637   1.265   4.115   5.424
 1913SOL    HW1 6638   1.358   4.077   5.418
 1913SOL    HW2 6639   1.198   4.042   5.415
 1914SOL     OW 6640   4.558   1.279   5.530
 1914SOL    HW1 6641   4.592   1.300   5.622
 1914SOL    HW2 6642   4.540   1.181   5.523
 1915SOL     OW 6643   3.548   0.636   5.433
 1915SOL    HW1 6644   3.506   0.570   5.371
 1915SOL    HW2 6645   3.592   0.709   5.380
 1916SOL     OW 6646   4.256   6.552   2.138
 1916SOL    HW1 6647   4.321   6.611   2.186
 1916SOL    HW2 6648   4.229   6.477   2.198
 1917SOL     OW 6649   3.400   2.877   4.473
 1917SOL    HW1 6650   3.415   2.884   4.374
 1917SOL    HW2 6651   3.487   2.858   4.519
 1918SOL     OW 6652   6.338   6.293   4.797
 1918SOL    HW1 6653   6.299   6.291   4.889
 1918SOL    HW2 6654   6.438   6.299   4.804
 1919SOL     OW 6655   6.602   0.239   1.585
 1919SOL    HW1 6656   6.516   0.190   1.599
 1919SOL    HW2 6657   6.583   0.327   1.542
 1920SOL     OW 6658   6.686   6.322   4.336
 1920SOL    HW1 6659   6.638   6.237   4.357
 1920SOL    HW2 6660   6.744   6.309   4.255
 1921SOL     OW 6661   1.304   6.802   6.718
 1921SOL    HW1 6662   1.210   6.811   6.685
 1921SOL    HW2 6663   1.361   6.760   6.648
 1922SOL     OW 6664   3.458   4.275   1.238
 1922SOL    HW1 6665   3.471   4.264   1.336
 1922SOL    HW2 6666   3.389   4.210   1.206
 1923SOL     OW 6667   2.099   3.073   1.040
 1923SOL    HW1 6668   2.015   3.120   1.067
 1923SOL    HW2 6669   2.157   3.135   0.987
 1924SOL     OW 6670   0.900   3.726   1.934
 1924SOL    HW1 6671   0.870   3.821   1.928
 1924SOL    HW2 6672   0.965   3.716   2.009
 1925SOL     OW 6673   3.888   4.107   0.440
 1925SOL    HW1 6674   3.851   4.037   0.501
 1925SOL    HW2 6675   3.841   4.193   0.457
 1926SOL     OW 6676   1.099   0.083   3.364
 1926SOL    HW1 6677   1.174   0.147   3.379
 1926SOL    HW2 6678   1.101   0.012   3.435
 1927SOL     OW 6679   4.296   3.784   0.457
 1927SOL    HW1 6680   4.225   3.852   0.477
 1927SOL    HW2 6681   4.333   3.748   0.542
 1928SOL     OW 6682   0.195   5.221   5.739
 1928SOL    HW1 6683   0.173   5.246   5.644
 1928SOL    HW2 6684   0.110   5.208   5.790
 1929SOL     OW 6685   2.071   6.556   3.362
 1929SOL    HW1 6686   2.105   6.468   3.329
 1929SOL    HW2 6687   2.003   6.592   3.299
 1930SOL     OW 6688   6.684   4.888   0.008
 1930SOL    HW1 6689   6.608   4.832   6.997
 1930SOL    HW2 6690   6.746   4.908   6.954
 1931SOL     OW 6691   0.617   1.995   5.636
 1931SOL    HW1 6692   0.586   2.078   5.590
 1931SOL    HW2 6693   0.712   1.977   5.610
 1932SOL     OW 6694   5.879   3.185   2.164
 1932SOL    HW1 6695   5.862   3.246   2.241
 1932SOL    HW2 6696   5.795   3.139   2.138
 1933SOL     OW 6697   2.356   4.543   0.824
 1933SOL    HW1 6698   2.361   4.637   0.856
 1933SOL    HW2 6699   2.260   4.516   0.816
 1934SOL     OW 6700   0.259   5.983   4.582
 1934SOL    HW1 6701   0.301   6.070   4.610
 1934SOL    HW2 6702   0.331   5.919   4.557
 1935SOL     OW 6703   2.397   0.911   3.522
 1935SOL    HW1 6704   2.409   0.839   3.590
 1935SOL    HW2 6705   2.354   0.991   3.565
 1936SOL     OW 6706   6.801   6.088   5.594
 1936SOL    HW1 6707   6.839   6.179   5.612
 1936SOL    HW2 6708   6.821   6.028   5.672
 1937SOL     OW 6709   4.604   0.786   2.993
 1937SOL    HW1 6710   4.587   0.815   2.898
 1937SOL    HW2 6711   4.519   0.752   3.033
 1938SOL     OW 6712   4.985   0.600   4.019
 1938SOL    HW1 6713   4.904   0.546   4.042
 1938SOL    HW2 6714   4.959   0.696   4.011
 1939SOL     OW 6715   2.640   0.443   3.417
 1939SOL    HW1 6716   2.628   0.345   3.400
 1939SOL    HW2 6717   2.696   0.456   3.499
 1940SOL     OW 6718   6.486   5.512   6.652
 1940SOL    HW1 6719   6.458   5.416   6.656
 1940SOL    HW2 6720   6.440   5.557   6.575
 1941SOL     OW 6721   5.388   4.971   2.793
 1941SOL    HW1 6722   5.451   4.929   2.727
 1941SOL    HW2 6723   5.310   4.910   2.807
 1942SOL     OW 6724   6.265   4.892   3.025
 1942SOL    HW1 6725   6.216   4.974   2.995
 1942SOL    HW2 6726   6.362   4.914   3.037
 1943SOL     OW 6727   3.363   5.740   2.392
 1943SOL    HW1 6728   3.298   5.665   2.392
 1943SOL    HW2 6729   3.348   5.797   2.311
 1944SOL     OW 6730   6.780   0.096   2.093
 1944SOL    HW1 6731   6.719   0.112   2.015
 1944SOL    HW2 6732   6.820   0.182   2.122
 1945SOL     OW 6733   3.371   4.905   3.885
 1945SOL    HW1 6734   3.305   4.875   3.816
 1945SOL    HW2 6735   3.345   4.869   3.975
 1946SOL     OW 6736   1.977   0.197   0.235
 1946SOL    HW1 6737   2.059   0.249   0.212
 1946SOL    HW2 6738   1.900   0.231   0.182
 1947SOL     OW 6739   5.166   6.702   3.707
 1947SOL    HW1 6740   5.092   6.769   3.711
 1947SOL    HW2 6741   5.234   6.724   3.778
 1948SOL     OW 6742   6.427   4.294   6.136
 1948SOL    HW1 6743   6.397   4.381   6.173
 1948SOL    HW2 6744   6.402   4.288   6.039
 1949SOL     OW 6745   5.425   4.070   6.822
 1949SOL    HW1 6746   5.524   4.068   6.836
 1949SOL    HW2 6747   5.382   4.127   6.891
 1950SOL     OW 6748   2.824   4.619   1.235
 1950SOL    HW1 6749   2.862   4.710   1.248
 1950SOL    HW2 6750   2.879   4.552   1.286
 1951SOL     OW 6751   6.962   2.445   0.110
 1951SOL    HW1 6752   6.948   2.352   0.074
 1951SOL    HW2 6753   6.914   2.510   0.052
 1952SOL     OW 6754   3.842   2.519   5.547
 1952SOL    HW1 6755   3.907   2.524   5.623
 1952SOL    HW2 6756   3.888   2.544   5.462
 1953SOL     OW 6757   0.414   3.134   4.888
 1953SOL    HW1 6758   0.321   3.115   4.921
 1953SOL    HW2 6759   0.433   3.232   4.897
 1954SOL     OW 6760   2.489   2.009   3.753
 1954SOL    HW1 6761   2.445   1.920   3.743
 1954SOL    HW2 6762   2.552   2.006   3.830
 1955SOL     OW 6763   6.360   5.760   1.983
 1955SOL    HW1 6764   6.395   5.852   1.998
 1955SOL    HW2 6765   6.374   5.705   2.066
 1956SOL     OW 6766   5.888   6.643   2.688
 1956SOL    HW1 6767   5.934   6.654   2.776
 1956SOL    HW2 6768   5.940   6.689   2.617
 1957SOL     OW 6769   0.598   6.370   5.659
 1957SOL    HW1 6770   0.694   6.395   5.653
 1957SOL    HW2 6771   0.567   6.380   5.754
 1958SOL     OW 6772   4.793   3.261   5.853
 1958SOL    HW1 6773   4.872   3.309   5.815
 1958SOL    HW2 6774   4.784   3.172   5.810
 1959SOL     OW 6775   2.088   2.343   6.694
 1959SOL    HW1 6776   2.184   2.342   6.722
 1959SOL    HW2 6777   2.069   2.263   6.636
 1960SOL     OW 6778   5.043   6.785   2.132
 1960SOL    HW1 6779   4.989   6.843   2.071
 1960SOL    HW2 6780   4.993   6.771   2.218
 1961SOL     OW 6781   5.675   5.049   4.808
 1961SOL    HW1 6782   5.684   5.009   4.899
 1961SOL    HW2 6783   5.741   5.122   4.796
 1962SOL     OW 6784   6.840   6.497   3.176
 1962SOL    HW1 6785   6.813   6.587   3.140
 1962SOL    HW2 6786   6.759   6.438   3.180
 1963SOL     OW 6787   1.728   6.845   2.940
 1963SOL    HW1 6788   1.760   6.789   2.863
 1963SOL    HW2 6789   1.807   6.881   2.989
 1964SOL     OW 6790   5.340   4.283   2.184
 1964SOL    HW1 6791   5.383   4.359   2.136
 1964SOL    HW2 6792   5.284   4.231   2.121
 1965SOL     OW 6793   2.502   5.370   3.762
 1965SOL    HW1 6794   2.561   5.333   3.690
 1965SOL    HW2 6795   2.414   5.397   3.723
 1966SOL     OW 6796   6.651   5.680   5.805
 1966SOL    HW1 6797   6.642   5.780   5.804
 1966SOL    HW2 6798   6.726   5.654   5.866
 1967SOL     OW 6799   5.241   3.353   4.479
 1967SOL    HW1 6800   5.334   3.315   4.486
 1967SOL    HW2 6801   5.244   3.440   4.430
 1968SOL     OW 6802   3.467   5.372   5.576
 1968SOL    HW1 6803   3.437   5.359   5.481
 1968SOL    HW2 6804   3.411   5.316   5.636
 1969SOL     OW 6805   6.437   2.248   1.891
 1969SOL    HW1 6806   6.464   2.236   1.987
 1969SOL    HW2 6807   6.482   2.329   1.854
 1970SOL     OW 6808   1.793   6.724   3.746
 1970SOL    HW1 6809   1.871   6.783   3.767
 1970SOL    HW2 6810   1.824   6.640   3.703
 1971SOL     OW 6811   0.463   0.108   6.310
 1971SOL    HW1 6812   0.378   0.146   6.273
 1971SOL    HW2 6813   0.541   0.150   6.263
 1972SOL     OW 6814   1.181   4.920   4.047
 1972SOL    HW1 6815   1.196   4.906   4.144
 1972SOL    HW2 6816   1.249   4.985   4.012
 1973SOL     OW 6817   2.576   2.835   0.328
 1973SOL    HW1 6818   2.545   2.761   0.269
 1973SOL    HW2 6819   2.544   2.923   0.292
 1974SOL     OW 6820   6.053   0.655   4.552
 1974SOL    HW1 6821   6.018   0.720   4.485
 1974SOL    HW2 6822   6.062   0.565   4.510
 1975SOL     OW 6823   3.033   1.022   3.767
 1975SOL    HW1 6824   3.049   1.102   3.826
 1975SOL    HW2 6825   2.976   1.049   3.689
 1976SOL     OW 6826   6.983   4.734   0.285
 1976SOL    HW1 6827   6.985   4.645   0.241
 1976SOL    HW2 6828   6.888   4.764   0.296
 1977SOL     OW 6829   2.266   2.730   4.695
 1977SOL    HW1 6830   2.299   2.709   4.787
 1977SOL    HW2 6831   2.167   2.743   4.696
 1978SOL     OW 6832   6.704   1.583   5.066
 1978SOL    HW1 6833   6.755   1.573   5.151
 1978SOL    HW2 6834   6.716   1.502   5.009
 1979SOL     OW 6835   6.022   4.787   3.350
 1979SOL    HW1 6836   6.003   4.736   3.266
 1979SOL    HW2 6837   5.976   4.876   3.347
 1980SOL     OW 6838   4.189   0.497   1.476
 1980SOL    HW1 6839   4.224   0.519   1.567
 1980SOL    HW2 6840   4.226   0.409   1.447
 1981SOL     OW 6841   4.690   3.219   1.694
 1981SOL    HW1 6842   4.669   3.147   1.761
 1981SOL    HW2 6843   4.649   3.305   1.724
 1982SOL     OW 6844   5.852   6.982   5.131
 1982SOL    HW1 6845   5.789   6.978   5.208
 1982SOL    HW2 6846   5.888   6.891   5.111
 1983SOL     OW 6847   0.827   4.058   2.578
 1983SOL    HW1 6848   0.922   4.026   2.573
 1983SOL    HW2 6849   0.773   3.991   2.629
 1984SOL     OW 6850   4.275   0.846   5.593
 1984SOL    HW1 6851   4.271   0.909   5.671
 1984SOL    HW2 6852   4.348   0.779   5.608
 1985SOL     OW 6853   1.308   6.929   1.438
 1985SOL    HW1 6854   1.221   6.968   1.409
 1985SOL    HW2 6855   1.375   7.002   1.451
 1986SOL     OW 6856   1.045   1.769   6.330
 1986SOL    HW1 6857   1.090   1.693   6.283
 1986SOL    HW2 6858   0.972   1.805   6.272
 1987SOL     OW 6859   2.667   3.245   0.059
 1987SOL    HW1 6860   2.695   3.301   7.003
 1987SOL    HW2 6861   2.710   3.282   0.142
 1988SOL     OW 6862   4.929   3.140   0.096
 1988SOL    HW1 6863   4.867   3.216   0.081
 1988SOL    HW2 6864   4.906   3.095   0.183
 1989SOL     OW 6865   2.641   0.600   4.409
 1989SOL    HW1 6866   2.719   0.586   4.348
 1989SOL    HW2 6867   2.587   0.677   4.375
 1990SOL     OW 6868   2.241   1.207   2.751
 1990SOL    HW1 6869   2.316   1.152   2.714
 1990SOL    HW2 6870   2.276   1.266   2.824
 1991SOL     OW 6871   3.993   5.203   4.478
 1991SOL    HW1 6872   4.065   5.154   4.430
 1991SOL    HW2 6873   3.979   5.162   4.568
 1992SOL     OW 6874   2.012   6.888   5.463
 1992SOL    HW1 6875   1.922   6.912   5.425
 1992SOL    HW2 6876   2.078   6.960   5.440
 1993SOL     OW 6877   3.656   2.937   4.618
 1993SOL    HW1 6878   3.702   2.877   4.682
 1993SOL    HW2 6879   3.664   3.032   4.649
 1994SOL     OW 6880   5.964   2.847   2.476
 1994SOL    HW1 6881   5.941   2.812   2.567
 1994SOL    HW2 6882   5.896   2.916   2.449
 1995SOL     OW 6883   4.927   2.654   1.252
 1995SOL    HW1 6884   4.987   2.722   1.211
 1995SOL    HW2 6885   4.844   2.644   1.197
 1996SOL     OW 6886   2.778   4.015   6.386
 1996SOL    HW1 6887   2.848   4.083   6.362
 1996SOL    HW2 6888   2.813   3.924   6.366
 1997SOL     OW 6889   5.253   0.576   3.914
 1997SOL    HW1 6890   5.153   0.581   3.925
 1997SOL    HW2 6891   5.275   0.508   3.844
 1998SOL     OW 6892   3.034   4.960   5.152
 1998SOL    HW1 6893   2.980   4.878   5.170
 1998SOL    HW2 6894   3.044   5.012   5.237
 1999SOL     OW 6895   1.758   1.072   2.367
 1999SOL    HW1 6896   1.857   1.056   2.373
 1999SOL    HW2 6897   1.739   1.134   2.291
 2000SOL     OW 6898   4.037   2.184   4.759
 2000SOL    HW1 6899   3.945   2.146   4.764
 2000SOL    HW2 6900   4.034   2.282   4.775
 2001SOL     OW 6901   2.746   2.873   0.524
 2001SOL    HW1 6902   2.688   2.849   0.446
 2001SOL    HW2 6903   2.764   2.971   0.523
 2002SOL     OW 6904   1.900   4.901   5.023
 2002SOL    HW1 6905   1.975   4.955   5.062
 2002SOL    HW2 6906   1.935   4.812   4.993
 2003SOL     OW 6907   6.299   5.412   3.457
 2003SOL    HW1 6908   6.362   5.475   3.503
 2003SOL    HW2 6909   6.344   5.371   3.378
 2004SOL     OW 6910   3.090   0.419   6.004
 2004SOL    HW1 6911   3.033   0.487   5.957
 2004SOL    HW2 6912   3.174   0.403   5.951
 2005SOL     OW 6913   2.939   6.611   5.567
 2005SOL    HW1 6914   2.991   6.644   5.488
 2005SOL    HW2 6915   2.969   6.518   5.590
 2006SOL     OW 6916   4.029   5.445   3.715
 2006SOL    HW1 6917   4.013   5.407   3.806
 2006SOL    HW2 6918   4.125   5.434   3.690
 2007SOL     OW 6919   6.190   5.051   0.441
 2007SOL    HW1 6920   6.132   5.101   0.506
 2007SOL    HW2 6921   6.286   5.068   0.462
 2008SOL     OW 6922   0.030   5.844   3.970
 2008SOL    HW1 6923   6.966   5.803   3.942
 2008SOL    HW2 6924   0.024   5.944   3.963
 2009SOL     OW 6925   0.745   0.093   1.429
 2009SOL    HW1 6926   0.785   0.179   1.396
 2009SOL    HW2 6927   0.649   0.109   1.452
 2010SOL     OW 6928   1.686   0.152   0.825
 2010SOL    HW1 6929   1.667   0.241   0.784
 2010SOL    HW2 6930   1.740   0.097   0.762
 2011SOL     OW 6931   6.815   2.944   5.346
 2011SOL    HW1 6932   6.798   3.022   5.286
 2011SOL    HW2 6933   6.728   2.912   5.385
 2012SOL     OW 6934   0.556   4.012   1.468
 2012SOL    HW1 6935   0.647   4.007   1.507
 2012SOL    HW2 6936   0.530   3.923   1.432
 2013SOL     OW 6937   4.430   1.427   2.398
 2013SOL    HW1 6938   4.458   1.424   2.302
 2013SOL    HW2 6939   4.414   1.334   2.430
 2014SOL     OW 6940   2.627   5.450   3.381
 2014SOL    HW1 6941   2.726   5.444   3.393
 2014SOL    HW2 6942   2.590   5.519   3.443
 2015SOL     OW 6943   3.309   6.860   6.869
 2015SOL    HW1 6944   3.334   6.920   6.793
 2015SOL    HW2 6945   3.243   6.792   6.837
 2016SOL     OW 6946   6.397   5.105   3.427
 2016SOL    HW1 6947   6.454   5.023   3.415
 2016SOL    HW2 6948   6.331   5.110   3.352
 2017SOL     OW 6949   2.765   6.007   2.061
 2017SOL    HW1 6950   2.864   6.020   2.061
 2017SOL    HW2 6951   2.742   5.924   2.112
 2018SOL     OW 6952   0.891   4.850   6.229
 2018SOL    HW1 6953   0.930   4.757   6.229
 2018SOL    HW2 6954   0.855   4.870   6.138
 2019SOL     OW 6955   5.694   1.825   2.348
 2019SOL    HW1 6956   5.604   1.868   2.342
 2019SOL    HW2 6957   5.698   1.746   2.287
 2020SOL     OW 6958   1.933   5.732   3.153
 2020SOL    HW1 6959   1.937   5.832   3.144
 2020SOL    HW2 6960   1.872   5.708   3.228
 2021SOL     OW 6961   0.924   6.792   1.553
 2021SOL    HW1 6962   0.943   6.873   1.497
 2021SOL    HW2 6963   0.985   6.718   1.525
 2022SOL     OW 6964   2.571   4.209   0.788
 2022SOL    HW1 6965   2.506   4.147   0.833
 2022SOL    HW2 6966   2.581   4.292   0.843
 2023SOL     OW 6967   6.337   1.196   6.111
 2023SOL    HW1 6968   6.360   1.263   6.041
 2023SOL    HW2 6969   6.351   1.103   6.076
 2024SOL     OW 6970   6.091   0.822   3.415
 2024SOL    HW1 6971   6.049   0.910   3.436
 2024SOL    HW2 6972   6.132   0.783   3.498
 2025SOL     OW 6973   0.098   1.056   1.186
 2025SOL    HW1 6974   0.058   1.105   1.263
 2025SOL    HW2 6975   0.197   1.059   1.192
 2026SOL     OW 6976   1.469   1.384   4.826
 2026SOL    HW1 6977   1.493   1.382   4.729
 2026SOL    HW2 6978   1.401   1.455   4.842
 2027SOL     OW 6979   6.986   1.597   2.945
 2027SOL    HW1 6980   6.897   1.620   2.907
 2027SOL    HW2 6981   6.985   1.611   3.044
 2028SOL     OW 6982   4.183   3.176   6.473
 2028SOL    HW1 6983   4.253   3.161   6.404
 2028SOL    HW2 6984   4.224   3.169   6.564
 2029SOL     OW 6985   1.749   0.508   0.405
 2029SOL    HW1 6986   1.821   0.442   0.426
 2029SOL    HW2 6987   1.677   0.463   0.352
 2030SOL     OW 6988   1.109   0.785   2.827
 2030SOL    HW1 6989   1.096   0.869   2.774
 2030SOL    HW2 6990   1.048   0.714   2.793
 2031SOL     OW 6991   5.045   6.948   2.712
 2031SOL    HW1 6992   5.119   6.905   2.764
 2031SOL    HW2 6993   4.996   7.013   2.771
 2032SOL     OW 6994   5.076   6.689   1.528
 2032SOL    HW1 6995   5.069   6.635   1.444
 2032SOL    HW2 6996   4.985   6.720   1.555
 2033SOL     OW 6997   5.940   4.784   6.835
 2033SOL    HW1 6998   6.030   4.757   6.801
 2033SOL    HW2 6999   5.884   4.815   6.758
 2034SOL     OW 7000   2.433   6.829   2.929
 2034SOL    HW1 7001   2.481   6.911   2.960
 2034SOL    HW2 7002   2.434   6.760   3.002
 2035SOL     OW 7003   0.876   3.264   2.021
 2035SOL    HW1 7004   0.912   3.337   1.963
 2035SOL    HW2 7005   0.936   3.253   2.100
 2036SOL     OW 7006   1.740   4.772   0.656
 2036SOL    HW1 7007   1.668   4.712   0.693
 2036SOL    HW2 7008   1.706   4.866   0.654
 2037SOL     OW 7009   6.963   1.181   6.323
 2037SOL    HW1 7010   6.961   1.281   6.331
 2037SOL    HW2 7011   6.990   1.141   6.411
 2038SOL     OW 7012   0.647   0.778   4.501
 2038SOL    HW1 7013   0.696   0.853   4.545
 2038SOL    HW2 7014   0.711   0.706   4.475
 2039SOL     OW 7015   0.989   5.988   2.335
 2039SOL    HW1 7016   1.058   5.996   2.263
 2039SOL    HW2 7017   1.020   6.037   2.416
 2040SOL     OW 7018   3.842   3.475   4.446
 2040SOL    HW1 7019   3.907   3.439   4.380
 2040SOL    HW2 7020   3.884   3.550   4.498
 2041SOL     OW 7021   5.956   4.149   6.416
 2041SOL    HW1 7022   6.005   4.073   6.459
 2041SOL    HW2 7023   5.988   4.235   6.455
 2042SOL     OW 7024   3.798   6.105   0.059
 2042SOL    HW1 7025   3.871   6.037   0.056
 2042SOL    HW2 7026   3.820   6.179   7.018
 2043SOL     OW 7027   4.670   4.639   2.307
 2043SOL    HW1 7028   4.709   4.588   2.383
 2043SOL    HW2 7029   4.743   4.666   2.244
 2044SOL     OW 7030   6.432   0.405   1.926
 2044SOL    HW1 7031   6.454   0.483   1.868
 2044SOL    HW2 7032   6.352   0.426   1.982
 2045SOL     OW 7033   1.477   5.444   6.125
 2045SOL    HW1 7034   1.433   5.356   6.109
 2045SOL    HW2 7035   1.553   5.432   6.189
 2046SOL     OW 7036   6.321   0.650   4.741
 2046SOL    HW1 7037   6.235   0.675   4.697
 2046SOL    HW2 7038   6.334   0.552   4.735
 2047SOL     OW 7039   5.728   2.242   0.270
 2047SOL    HW1 7040   5.758   2.301   0.195
 2047SOL    HW2 7041   5.635   2.267   0.296
 2048SOL     OW 7042   4.334   0.322   5.464
 2048SOL    HW1 7043   4.261   0.373   5.418
 2048SOL    HW2 7044   4.409   0.385   5.488
 2049SOL     OW 7045   5.080   0.073   0.465
 2049SOL    HW1 7046   5.172   0.086   0.502
 2049SOL    HW2 7047   5.020   0.146   0.499
 2050SOL     OW 7048   5.679   2.195   3.790
 2050SOL    HW1 7049   5.685   2.097   3.773
 2050SOL    HW2 7050   5.758   2.225   3.844
 2051SOL     OW 7051   1.915   5.204   0.599
 2051SOL    HW1 7052   1.867   5.183   0.684
 2051SOL    HW2 7053   1.856   5.260   0.541
 2052SOL     OW 7054   1.147   3.346   0.805
 2052SOL    HW1 7055   1.158   3.341   0.905
 2052SOL    HW2 7056   1.183   3.433   0.772
 2053SOL     OW 7057   5.484   0.422   0.592
 2053SOL    HW1 7058   5.500   0.453   0.686
 2053SOL    HW2 7059   5.424   0.487   0.545
 2054SOL     OW 7060   6.577   2.800   0.883
 2054SOL    HW1 7061   6.617   2.776   0.795
 2054SOL    HW2 7062   6.642   2.856   0.935
 2055SOL     OW 7063   6.222   2.949   4.021
 2055SOL    HW1 7064   6.225   3.039   4.066
 2055SOL    HW2 7065   6.244   2.878   4.088
 2056SOL     OW 7066   1.324   0.794   3.180
 2056SOL    HW1 7067   1.321   0.781   3.279
 2056SOL    HW2 7068   1.271   0.875   3.155
 2057SOL     OW 7069   6.995   2.775   4.144
 2057SOL    HW1 7070   6.976   2.677   4.140
 2057SOL    HW2 7071   0.011   2.805   4.057
 2058SOL     OW 7072   6.885   2.448   2.046
 2058SOL    HW1 7073   6.900   2.366   2.101
 2058SOL    HW2 7074   6.848   2.520   2.104
 2059SOL     OW 7075   1.715   1.588   6.643
 2059SOL    HW1 7076   1.694   1.497   6.605
 2059SOL    HW2 7077   1.801   1.621   6.604
 2060SOL     OW 7078   0.562   5.378   2.531
 2060SOL    HW1 7079   0.474   5.360   2.487
 2060SOL    HW2 7080   0.605   5.458   2.488
 2061SOL     OW 7081   6.758   1.250   1.869
 2061SOL    HW1 7082   6.686   1.221   1.932
 2061SOL    HW2 7083   6.737   1.342   1.835
 2062SOL     OW 7084   3.873   0.886   3.088
 2062SOL    HW1 7085   3.859   0.970   3.139
 2062SOL    HW2 7086   3.847   0.807   3.144
 2063SOL     OW 7087   2.549   2.277   6.893
 2063SOL    HW1 7088   2.484   2.313   6.826
 2063SOL    HW2 7089   2.564   2.346   6.965
 2064SOL     OW 7090   0.703   2.304   0.292
 2064SOL    HW1 7091   0.641   2.251   0.350
 2064SOL    HW2 7092   0.662   2.393   0.272
 2065SOL     OW 7093   6.353   2.786   2.113
 2065SOL    HW1 7094   6.351   2.736   2.200
 2065SOL    HW2 7095   6.276   2.757   2.056
 2066SOL     OW 7096   1.847   6.407   4.524
 2066SOL    HW1 7097   1.904   6.477   4.567
 2066SOL    HW2 7098   1.754   6.412   4.562
 2067SOL     OW 7099   6.949   0.046   1.103
 2067SOL    HW1 7100   6.924   6.990   1.159
 2067SOL    HW2 7101   7.004   0.110   1.157
 2068SOL     OW 7102   1.923   1.444   4.750
 2068SOL    HW1 7103   1.852   1.391   4.797
 2068SOL    HW2 7104   1.882   1.526   4.710
 2069SOL     OW 7105   0.215   1.485   2.140
 2069SOL    HW1 7106   0.220   1.582   2.163
 2069SOL    HW2 7107   0.196   1.475   2.042
 2070SOL     OW 7108   0.614   1.272   2.949
 2070SOL    HW1 7109   0.672   1.344   2.989
 2070SOL    HW2 7110   0.550   1.238   3.018
 2071SOL     OW 7111   1.176   6.682   4.594
 2071SOL    HW1 7112   1.131   6.619   4.658
 2071SOL    HW2 7113   1.194   6.634   4.508
 2072SOL     OW 7114   5.041   5.393   1.748
 2072SOL    HW1 7115   5.114   5.345   1.698
 2072SOL    HW2 7116   5.047   5.370   1.845
 2073SOL     OW 7117   2.363   6.790   5.948
 2073SOL    HW1 7118   2.386   6.700   5.913
 2073SOL    HW2 7119   2.265   6.806   5.939
 2074SOL     OW 7120   5.539   1.328   2.136
 2074SOL    HW1 7121   5.453   1.375   2.119
 2074SOL    HW2 7122   5.521   1.235   2.169
 2075SOL     OW 7123   4.578   3.499   6.133
 2075SOL    HW1 7124   4.582   3.585   6.082
 2075SOL    HW2 7125   4.495   3.449   6.106
 2076SOL     OW 7126   4.696   0.235   1.258
 2076SOL    HW1 7127   4.689   0.301   1.184
 2076SOL    HW2 7128   4.677   0.280   1.345
 2077SOL     OW 7129   5.412   1.044   2.974
 2077SOL    HW1 7130   5.369   1.107   3.039
 2077SOL    HW2 7131   5.490   1.089   2.931
 2078SOL     OW 7132   3.483   5.376   5.296
 2078SOL    HW1 7133   3.574   5.345   5.270
 2078SOL    HW2 7134   3.456   5.453   5.237
 2079SOL     OW 7135   5.647   1.609   4.087
 2079SOL    HW1 7136   5.548   1.621   4.099
 2079SOL    HW2 7137   5.687   1.694   4.051
 2080SOL     OW 7138   2.929   2.132   4.214
 2080SOL    HW1 7139   3.010   2.134   4.156
 2080SOL    HW2 7140   2.957   2.122   4.310
 2081SOL     OW 7141   0.487   6.614   5.035
 2081SOL    HW1 7142   0.544   6.685   4.994
 2081SOL    HW2 7143   0.421   6.656   5.097
 2082SOL     OW 7144   5.042   0.660   1.190
 2082SOL    HW1 7145   5.021   0.567   1.219
 2082SOL    HW2 7146   5.082   0.657   1.098
 2083SOL     OW 7147   3.114   5.550   5.524
 2083SOL    HW1 7148   3.186   5.524   5.589
 2083SOL    HW2 7149   3.026   5.549   5.571
 2084SOL     OW 7150   0.174   2.948   2.733
 2084SOL    HW1 7151   0.183   2.941   2.833
 2084SOL    HW2 7152   0.199   2.861   2.692
 2085SOL     OW 7153   5.649   6.914   6.121
 2085SOL    HW1 7154   5.712   6.852   6.075
 2085SOL    HW2 7155   5.678   7.009   6.105
 2086SOL     OW 7156   2.879   5.049   0.713
 2086SOL    HW1 7157   2.860   5.063   0.810
 2086SOL    HW2 7158   2.901   4.953   0.697
 2087SOL     OW 7159   5.327   6.711   3.464
 2087SOL    HW1 7160   5.317   6.702   3.563
 2087SOL    HW2 7161   5.237   6.702   3.420
 2088SOL     OW 7162   3.152   6.983   0.414
 2088SOL    HW1 7163   3.197   6.923   0.480
 2088SOL    HW2 7164   3.105   6.928   0.345
 2089SOL     OW 7165   3.369   0.015   6.654
 2089SOL    HW1 7166   3.334   0.107   6.671
 2089SOL    HW2 7167   3.305   6.988   6.595
 2090SOL     OW 7168   3.334   3.198   4.243
 2090SOL    HW1 7169   3.341   3.273   4.178
 2090SOL    HW2 7170   3.415   3.197   4.302
 2091SOL     OW 7171   2.228   4.735   0.588
 2091SOL    HW1 7172   2.298   4.680   0.544
 2091SOL    HW2 7173   2.150   4.677   0.613
 2092SOL     OW 7174   6.357   5.772   0.861
 2092SOL    HW1 7175   6.359   5.869   0.836
 2092SOL    HW2 7176   6.347   5.764   0.960
 2093SOL     OW 7177   1.189   2.592   1.564
 2093SOL    HW1 7178   1.147   2.504   1.541
 2093SOL    HW2 7179   1.117   2.661   1.575
 2094SOL     OW 7180   5.938   6.985   2.270
 2094SOL    HW1 7181   5.951   6.904   2.327
 2094SOL    HW2 7182   5.873   6.965   2.198
 2095SOL     OW 7183   6.774   4.662   4.932
 2095SOL    HW1 7184   6.835   4.733   4.969
 2095SOL    HW2 7185   6.755   4.683   4.836
 2096SOL     OW 7186   4.836   4.296   2.919
 2096SOL    HW1 7187   4.777   4.366   2.879
 2096SOL    HW2 7188   4.810   4.206   2.885
 2097SOL     OW 7189   0.163   2.791   0.040
 2097SOL    HW1 7190   0.204   2.868   0.088
 2097SOL    HW2 7191   0.197   2.705   0.078
 2098SOL     OW 7192   4.398   0.666   4.223
 2098SOL    HW1 7193   4.303   0.691   4.237
 2098SOL    HW2 7194   4.403   0.587   4.162
 2099SOL     OW 7195   3.039   1.870   3.890
 2099SOL    HW1 7196   2.994   1.791   3.930
 2099SOL    HW2 7197   3.007   1.883   3.796
 2100SOL     OW 7198   4.185   4.230   6.745
 2100SOL    HW1 7199   4.106   4.271   6.791
 2100SOL    HW2 7200   4.211   4.288   6.667
 2101SOL     OW 7201   0.319   0.266   3.274
 2101SOL    HW1 7202   0.245   0.292   3.212
 2101SOL    HW2 7203   0.303   0.306   3.364
 2102SOL     OW 7204   0.108   4.873   2.074
 2102SOL    HW1 7205   0.074   4.858   1.982
 2102SOL    HW2 7206   0.031   4.887   2.136
 2103SOL     OW 7207   3.209   4.245   6.437
 2103SOL    HW1 7208   3.290   4.249   6.495
 2103SOL    HW2 7209   3.164   4.156   6.448
 2104SOL     OW 7210   1.197   3.732   5.058
 2104SOL    HW1 7211   1.280   3.757   5.007
 2104SOL    HW2 7212   1.151   3.815   5.090
 2105SOL     OW 7213   6.011   5.495   1.686
 2105SOL    HW1 7214   5.939   5.558   1.657
 2105SOL    HW2 7215   6.049   5.526   1.774
 2106SOL     OW 7216   5.158   5.531   6.884
 2106SOL    HW1 7217   5.079   5.591   6.896
 2106SOL    HW2 7218   5.157   5.459   6.953
 2107SOL     OW 7219   4.163   4.248   6.341
 2107SOL    HW1 7220   4.141   4.154   6.313
 2107SOL    HW2 7221   4.120   4.313   6.279
 2108SOL     OW 7222   5.219   5.146   5.877
 2108SOL    HW1 7223   5.152   5.205   5.831
 2108SOL    HW2 7224   5.242   5.069   5.818
 2109SOL     OW 7225   5.784   0.285   2.828
 2109SOL    HW1 7226   5.849   0.219   2.789
 2109SOL    HW2 7227   5.822   0.324   2.912
 2110SOL     OW 7228   2.429   4.715   6.162
 2110SOL    HW1 7229   2.392   4.633   6.205
 2110SOL    HW2 7230   2.407   4.715   6.065
 2111SOL     OW 7231   1.245   2.859   6.862
 2111SOL    HW1 7232   1.152   2.879   6.893
 2111SOL    HW2 7233   1.293   2.945   6.845
 2112SOL     OW 7234   4.717   3.308   1.408
 2112SOL    HW1 7235   4.762   3.335   1.492
 2112SOL    HW2 7236   4.618   3.322   1.417
 2113SOL     OW 7237   6.839   0.826   2.918
 2113SOL    HW1 7238   6.914   0.772   2.880
 2113SOL    HW2 7239   6.772   0.847   2.847
 2114SOL     OW 7240   1.922   4.202   7.006
 2114SOL    HW1 7241   1.976   4.137   0.038
 2114SOL    HW2 7242   1.949   4.295   0.008
 2115SOL     OW 7243   2.646   4.720   2.653
 2115SOL    HW1 7244   2.651   4.812   2.692
 2115SOL    HW2 7245   2.601   4.724   2.563
 2116SOL     OW 7246   0.089   4.120   3.450
 2116SOL    HW1 7247   7.012   4.116   3.441
 2116SOL    HW2 7248   0.114   4.110   3.547
 2117SOL     OW 7249   0.292   4.618   0.989
 2117SOL    HW1 7250   0.217   4.653   0.934
 2117SOL    HW2 7251   0.370   4.681   0.982
 2118SOL     OW 7252   6.579   3.706   2.407
 2118SOL    HW1 7253   6.621   3.787   2.367
 2118SOL    HW2 7254   6.592   3.628   2.345
 2119SOL     OW 7255   2.601   6.182   1.338
 2119SOL    HW1 7256   2.524   6.218   1.390
 2119SOL    HW2 7257   2.608   6.232   1.251
 2120SOL     OW 7258   6.942   5.028   2.230
 2120SOL    HW1 7259   6.892   5.029   2.317
 2120SOL    HW2 7260   6.909   5.102   2.171
 2121SOL     OW 7261   0.735   4.855   4.719
 2121SOL    HW1 7262   0.810   4.790   4.716
 2121SOL    HW2 7263   0.743   4.911   4.802
 2122SOL     OW 7264   4.756   4.139   5.047
 2122SOL    HW1 7265   4.692   4.083   5.100
 2122SOL    HW2 7266   4.711   4.222   5.016
 2123SOL     OW 7267   6.249   4.822   3.507
 2123SOL    HW1 7268   6.317   4.876   3.458
 2123SOL    HW2 7269   6.176   4.794   3.444
 2124SOL     OW 7270   2.576   1.617   0.761
 2124SOL    HW1 7271   2.537   1.705   0.787
 2124SOL    HW2 7272   2.613   1.572   0.842
 2125SOL     OW 7273   3.142   6.724   0.804
 2125SOL    HW1 7274   3.170   6.635   0.766
 2125SOL    HW2 7275   3.128   6.715   0.903
 2126SOL     OW 7276   3.022   0.702   1.251
 2126SOL    HW1 7277   3.121   0.693   1.257
 2126SOL    HW2 7278   2.984   0.712   1.342
 2127SOL     OW 7279   5.097   3.347   5.358
 2127SOL    HW1 7280   5.043   3.287   5.418
 2127SOL    HW2 7281   5.115   3.433   5.405
 2128SOL     OW 7282   0.520   5.168   4.024
 2128SOL    HW1 7283   0.513   5.265   4.045
 2128SOL    HW2 7284   0.521   5.115   4.109
 2129SOL     OW 7285   4.127   1.813   5.625
 2129SOL    HW1 7286   4.052   1.864   5.665
 2129SOL    HW2 7287   4.184   1.874   5.570
 2130SOL     OW 7288   4.144   6.155   2.899
 2130SOL    HW1 7289   4.086   6.236   2.901
 2130SOL    HW2 7290   4.240   6.182   2.909
 2131SOL     OW 7291   6.670   2.087   6.972
 2131SOL    HW1 7292   6.630   2.005   7.014
 2131SOL    HW2 7293   6.597   2.145   6.936
 2132SOL     OW 7294   2.273   3.130   0.538
 2132SOL    HW1 7295   2.333   3.068   0.589
 2132SOL    HW2 7296   2.191   3.149   0.592
 2133SOL     OW 7297   2.859   2.803   5.637
 2133SOL    HW1 7298   2.853   2.885   5.693
 2133SOL    HW2 7299   2.769   2.759   5.633
 2134SOL     OW 7300   1.131   6.926   0.881
 2134SOL    HW1 7301   1.108   0.001   0.881
 2134SOL    HW2 7302   1.208   6.910   0.943
 2135SOL     OW 7303   0.443   3.774   4.026
 2135SOL    HW1 7304   0.485   3.863   4.011
 2135SOL    HW2 7305   0.480   3.733   4.110
 2136SOL     OW 7306   2.334   5.221   1.465
 2136SOL    HW1 7307   2.261   5.203   1.531
 2136SOL    HW2 7308   2.372   5.312   1.483
 2137SOL     OW 7309   2.338   5.553   4.259
 2137SOL    HW1 7310   2.352   5.630   4.321
 2137SOL    HW2 7311   2.418   5.493   4.260
 2138SOL     OW 7312   5.088   1.496   1.581
 2138SOL    HW1 7313   5.186   1.477   1.582
 2138SOL    HW2 7314   5.046   1.458   1.664
 2139SOL     OW 7315   2.626   0.887   5.539
 2139SOL    HW1 7316   2.578   0.835   5.467
 2139SOL    HW2 7317   2.716   0.913   5.506
 2140SOL     OW 7318   2.251   0.977   5.385
 2140SOL    HW1 7319   2.291   1.024   5.464
 2140SOL    HW2 7320   2.313   0.905   5.354
 2141SOL     OW 7321   6.508   4.448   2.500
 2141SOL    HW1 7322   6.576   4.432   2.571
 2141SOL    HW2 7323   6.532   4.530   2.449
 2142SOL     OW 7324   1.604   1.811   2.983
 2142SOL    HW1 7325   1.549   1.860   2.916
 2142SOL    HW2 7326   1.564   1.721   3.000
 2143SOL     OW 7327   1.471   4.994   0.186
 2143SOL    HW1 7328   1.559   5.016   0.229
 2143SOL    HW2 7329   1.397   5.014   0.251
 2144SOL     OW 7330   5.911   5.385   4.318
 2144SOL    HW1 7331   5.927   5.483   4.304
 2144SOL    HW2 7332   5.938   5.335   4.236
 2145SOL     OW 7333   4.126   0.293   3.404
 2145SOL    HW1 7334   4.136   0.366   3.337
 2145SOL    HW2 7335   4.065   0.323   3.478
 2146SOL     OW 7336   2.012   2.838   0.308
 2146SOL    HW1 7337   1.991   2.745   0.340
 2146SOL    HW2 7338   2.098   2.869   0.349
 2147SOL     OW 7339   5.922   0.894   4.498
 2147SOL    HW1 7340   5.825   0.912   4.480
 2147SOL    HW2 7341   5.970   0.980   4.516
 2148SOL     OW 7342   0.379   3.457   6.692
 2148SOL    HW1 7343   0.285   3.480   6.720
 2148SOL    HW2 7344   0.418   3.533   6.640
 2149SOL     OW 7345   0.523   0.079   0.343
 2149SOL    HW1 7346   0.512   7.006   0.315
 2149SOL    HW2 7347   0.546   0.134   0.262
 2150SOL     OW 7348   1.962   3.281   1.308
 2150SOL    HW1 7349   1.952   3.350   1.379
 2150SOL    HW2 7350   2.047   3.297   1.258
 2151SOL     OW 7351   1.381   6.005   0.353
 2151SOL    HW1 7352   1.396   5.975   0.447
 2151SOL    HW2 7353   1.283   6.016   0.337
 2152SOL     OW 7354   4.359   5.931   4.252
 2152SOL    HW1 7355   4.322   5.942   4.160
 2152SOL    HW2 7356   4.317   5.999   4.313
 2153SOL     OW 7357   4.371   1.363   3.362
 2153SOL    HW1 7358   4.405   1.302   3.290
 2153SOL    HW2 7359   4.427   1.445   3.365
 2154SOL     OW 7360   3.137   0.188   3.313
 2154SOL    HW1 7361   3.214   0.140   3.354
 2154SOL    HW2 7362   3.167   0.239   3.233
 2155SOL     OW 7363   4.667   0.263   0.805
 2155SOL    HW1 7364   4.595   0.305   0.859
 2155SOL    HW2 7365   4.740   0.230   0.865
 2156SOL     OW 7366   5.736   1.544   4.759
 2156SOL    HW1 7367   5.766   1.623   4.813
 2156SOL    HW2 7368   5.816   1.495   4.724
 2157SOL     OW 7369   3.372   5.954   4.037
 2157SOL    HW1 7370   3.285   5.999   4.056
 2157SOL    HW2 7371   3.383   5.946   3.938
 2158SOL     OW 7372   3.609   0.287   0.180
 2158SOL    HW1 7373   3.561   0.372   0.200
 2158SOL    HW2 7374   3.545   0.210   0.187
 2159SOL     OW 7375   0.585   0.668   5.673
 2159SOL    HW1 7376   0.491   0.641   5.652
 2159SOL    HW2 7377   0.587   0.715   5.762
 2160SOL     OW 7378   6.015   6.652   0.193
 2160SOL    HW1 7379   6.092   6.640   0.130
 2160SOL    HW2 7380   6.039   6.718   0.264
 2161SOL     OW 7381   0.980   2.681   2.077
 2161SOL    HW1 7382   1.029   2.659   1.993
 2161SOL    HW2 7383   1.046   2.699   2.150
 2162SOL     OW 7384   0.842   0.378   1.626
 2162SOL    HW1 7385   0.879   0.463   1.665
 2162SOL    HW2 7386   0.811   0.395   1.532
 2163SOL     OW 7387   1.687   3.475   2.217
 2163SOL    HW1 7388   1.603   3.470   2.162
 2163SOL    HW2 7389   1.741   3.392   2.203
 2164SOL     OW 7390   1.980   2.889   2.609
 2164SOL    HW1 7391   1.969   2.951   2.687
 2164SOL    HW2 7392   2.073   2.854   2.606
 2165SOL     OW 7393   6.927   1.666   3.861
 2165SOL    HW1 7394   6.916   1.765   3.851
 2165SOL    HW2 7395   6.998   1.634   3.799
 2166SOL     OW 7396   6.917   4.112   2.793
 2166SOL    HW1 7397   6.974   4.038   2.830
 2166SOL    HW2 7398   6.877   4.164   2.868
 2167SOL     OW 7399   2.643   1.909   3.497
 2167SOL    HW1 7400   2.598   1.946   3.577
 2167SOL    HW2 7401   2.590   1.833   3.460
 2168SOL     OW 7402   1.356   2.045   3.173
 2168SOL    HW1 7403   1.445   2.069   3.136
 2168SOL    HW2 7404   1.285   2.066   3.106
 2169SOL     OW 7405   0.708   6.864   1.685
 2169SOL    HW1 7406   0.728   6.949   1.734
 2169SOL    HW2 7407   0.779   6.849   1.616
 2170SOL     OW 7408   1.013   3.514   5.720
 2170SOL    HW1 7409   1.020   3.614   5.721
 2170SOL    HW2 7410   0.918   3.487   5.734
 2171SOL     OW 7411   0.758   5.360   1.561
 2171SOL    HW1 7412   0.838   5.352   1.620
 2171SOL    HW2 7413   0.683   5.404   1.611
 2172SOL     OW 7414   1.268   1.375   4.593
 2172SOL    HW1 7415   1.213   1.372   4.509
 2172SOL    HW2 7416   1.336   1.448   4.586
 2173SOL     OW 7417   6.056   0.266   5.278
 2173SOL    HW1 7418   6.003   0.222   5.206
 2173SOL    HW2 7419   6.151   0.276   5.248
 2174SOL     OW 7420   6.881   6.753   5.884
 2174SOL    HW1 7421   6.813   6.783   5.817
 2174SOL    HW2 7422   6.972   6.782   5.854
 2175SOL     OW 7423   2.686   3.951   5.281
 2175SOL    HW1 7424   2.705   4.034   5.334
 2175SOL    HW2 7425   2.599   3.962   5.233
 2176SOL     OW 7426   5.624   2.483   1.351
 2176SOL    HW1 7427   5.627   2.396   1.400
 2176SOL    HW2 7428   5.618   2.465   1.253
 2177SOL     OW 7429   0.401   0.376   3.790
 2177SOL    HW1 7430   0.398   0.279   3.766
 2177SOL    HW2 7431   0.493   0.412   3.775
 2178SOL     OW 7432   0.697   2.005   2.669
 2178SOL    HW1 7433   0.659   1.962   2.751
 2178SOL    HW2 7434   0.680   1.948   2.589
 2179SOL     OW 7435   1.563   3.915   5.995
 2179SOL    HW1 7436   1.518   3.969   5.923
 2179SOL    HW2 7437   1.518   3.826   6.002
 2180SOL     OW 7438   0.672   6.266   2.334
 2180SOL    HW1 7439   0.719   6.316   2.261
 2180SOL    HW2 7440   0.714   6.177   2.346
 2181SOL     OW 7441   3.532   4.907   4.339
 2181SOL    HW1 7442   3.488   4.817   4.341
 2181SOL    HW2 7443   3.472   4.972   4.292
 2182SOL     OW 7444   0.234   5.591   2.314
 2182SOL    HW1 7445   0.246   5.687   2.289
 2182SOL    HW2 7446   0.287   5.533   2.252
 2183SOL     OW 7447   3.284   2.810   6.913
 2183SOL    HW1 7448   3.287   2.713   6.888
 2183SOL    HW2 7449   3.202   2.828   6.967
 2184SOL     OW 7450   6.382   1.434   6.798
 2184SOL    HW1 7451   6.430   1.496   6.860
 2184SOL    HW2 7452   6.422   1.440   6.706
 2185SOL     OW 7453   0.692   6.956   6.736
 2185SOL    HW1 7454   0.717   6.860   6.749
 2185SOL    HW2 7455   0.640   6.966   6.651
 2186SOL     OW 7456   6.769   4.463   5.498
 2186SOL    HW1 7457   6.787   4.399   5.423
 2186SOL    HW2 7458   6.855   4.500   5.532
 2187SOL     OW 7459   0.637   5.782   3.041
 2187SOL    HW1 7460   0.711   5.715   3.040
 2187SOL    HW2 7461   0.582   5.772   2.958
 2188SOL     OW 7462   2.546   0.137   1.017
 2188SOL    HW1 7463   2.532   0.202   0.943
 2188SOL    HW2 7464   2.459   0.115   1.060
 2189SOL     OW 7465   2.515   1.500   1.449
 2189SOL    HW1 7466   2.476   1.572   1.392
 2189SOL    HW2 7467   2.602   1.532   1.487
 2190SOL     OW 7468   6.392   3.933   2.529
 2190SOL    HW1 7469   6.449   3.852   2.514
 2190SOL    HW2 7470   6.300   3.916   2.493
 2191SOL     OW 7471   2.852   0.151   0.085
 2191SOL    HW1 7472   2.785   0.096   0.134
 2191SOL    HW2 7473   2.897   0.094   0.015
 2192SOL     OW 7474   4.891   1.497   0.912
 2192SOL    HW1 7475   4.927   1.554   0.838
 2192SOL    HW2 7476   4.947   1.415   0.921
 2193SOL     OW 7477   1.463   6.344   6.177
 2193SOL    HW1 7478   1.442   6.424   6.233
 2193SOL    HW2 7479   1.550   6.359   6.129
 2194SOL     OW 7480   0.922   3.496   6.198
 2194SOL    HW1 7481   0.862   3.560   6.150
 2194SOL    HW2 7482   0.949   3.422   6.136
 2195SOL     OW 7483   0.318   3.826   6.089
 2195SOL    HW1 7484   0.386   3.847   6.018
 2195SOL    HW2 7485   0.316   3.728   6.105
 2196SOL     OW 7486   2.730   0.096   5.721
 2196SOL    HW1 7487   2.682   0.074   5.806
 2196SOL    HW2 7488   2.687   0.047   5.645
 2197SOL     OW 7489   3.049   5.145   5.762
 2197SOL    HW1 7490   2.974   5.208   5.782
 2197SOL    HW2 7491   3.023   5.052   5.792
 2198SOL     OW 7492   0.383   0.216   6.944
 2198SOL    HW1 7493   0.379   0.138   6.881
 2198SOL    HW2 7494   0.293   0.260   6.949
 2199SOL     OW 7495   4.204   6.519   4.859
 2199SOL    HW1 7496   4.253   6.437   4.887
 2199SOL    HW2 7497   4.217   6.591   4.928
 2200SOL     OW 7498   2.682   2.037   3.955
 2200SOL    HW1 7499   2.660   1.988   4.040
 2200SOL    HW2 7500   2.741   2.115   3.975
 2201SOL     OW 7501   6.320   4.175   3.901
 2201SOL    HW1 7502   6.417   4.197   3.909
 2201SOL    HW2 7503   6.272   4.252   3.859
 2202SOL     OW 7504   3.567   6.206   2.559
 2202SOL    HW1 7505   3.619   6.291   2.563
 2202SOL    HW2 7506   3.605   6.146   2.488
 2203SOL     OW 7507   2.058   3.278   0.653
 2203SOL    HW1 7508   2.005   3.209   0.605
 2203SOL    HW2 7509   2.007   3.312   0.732
 2204SOL     OW 7510   5.423   3.499   0.937
 2204SOL    HW1 7511   5.510   3.452   0.923
 2204SOL    HW2 7512   5.372   3.454   1.011
 2205SOL     OW 7513   0.431   4.923   0.438
 2205SOL    HW1 7514   0.360   4.890   0.499
 2205SOL    HW2 7515   0.508   4.858   0.437
 2206SOL     OW 7516   3.062   2.313   6.198
 2206SOL    HW1 7517   3.020   2.225   6.178
 2206SOL    HW2 7518   3.053   2.373   6.118
 2207SOL     OW 7519   4.877   6.287   0.949
 2207SOL    HW1 7520   4.846   6.222   1.018
 2207SOL    HW2 7521   4.826   6.274   0.865
 2208SOL     OW 7522   0.154   5.851   4.339
 2208SOL    HW1 7523   0.159   5.887   4.432
 2208SOL    HW2 7524   0.232   5.885   4.286
 2209SOL     OW 7525   3.053   5.702   4.092
 2209SOL    HW1 7526   3.011   5.672   4.177
 2209SOL    HW2 7527   2.994   5.769   4.047
 2210SOL     OW 7528   4.519   0.147   1.038
 2210SOL    HW1 7529   4.488   0.231   1.083
 2210SOL    HW2 7530   4.604   0.116   1.080
 2211SOL     OW 7531   6.763   1.538   1.145
 2211SOL    HW1 7532   6.808   1.591   1.216
 2211SOL    HW2 7533   6.778   1.441   1.162
 2212SOL     OW 7534   2.493   6.119   6.840
 2212SOL    HW1 7535   2.431   6.091   6.767
 2212SOL    HW2 7536   2.445   6.118   6.927
 2213SOL     OW 7537   3.617   2.135   4.344
 2213SOL    HW1 7538   3.537   2.131   4.404
 2213SOL    HW2 7539   3.700   2.118   4.398
 2214SOL     OW 7540   4.293   3.783   6.841
 2214SOL    HW1 7541   4.354   3.797   6.763
 2214SOL    HW2 7542   4.302   3.860   6.904
 2215SOL     OW 7543   4.538   6.868   6.883
 2215SOL    HW1 7544   4.442   6.898   6.876
 2215SOL    HW2 7545   4.550   6.784   6.830
 2216SOL     OW 7546   0.736   6.743   6.401
 2216SOL    HW1 7547   0.672   6.783   6.468
 2216SOL    HW2 7548   0.748   6.646   6.422
 2217SOL     OW 7549   3.778   0.501   3.683
 2217SOL    HW1 7550   3.725   0.470   3.604
 2217SOL    HW2 7551   3.817   0.591   3.663
 2218SOL     OW 7552   0.598   5.669   5.821
 2218SOL    HW1 7553   0.501   5.651   5.806
 2218SOL    HW2 7554   0.618   5.666   5.919
 2219SOL     OW 7555   5.790   0.999   0.492
 2219SOL    HW1 7556   5.775   1.055   0.574
 2219SOL    HW2 7557   5.726   1.028   0.421
 2220SOL     OW 7558   0.931   5.980   5.464
 2220SOL    HW1 7559   0.890   6.014   5.380
 2220SOL    HW2 7560   0.987   5.900   5.445
 2221SOL     OW 7561   6.575   1.032   4.210
 2221SOL    HW1 7562   6.600   1.126   4.191
 2221SOL    HW2 7563   6.549   1.023   4.307
 2222SOL     OW 7564   4.593   6.197   2.041
 2222SOL    HW1 7565   4.506   6.225   1.999
 2222SOL    HW2 7566   4.663   6.188   1.970
 2223SOL     OW 7567   6.922   5.901   5.396
 2223SOL    HW1 7568   6.872   5.977   5.438
 2223SOL    HW2 7569   7.011   5.933   5.364
 2224SOL     OW 7570   5.676   3.992   0.660
 2224SOL    HW1 7571   5.617   3.933   0.716
 2224SOL    HW2 7572   5.772   3.972   0.680
 2225SOL     OW 7573   0.529   6.749   2.817
 2225SOL    HW1 7574   0.625   6.753   2.788
 2225SOL    HW2 7575   0.497   6.654   2.813
 2226SOL     OW 7576   2.283   5.334   0.705
 2226SOL    HW1 7577   2.238   5.284   0.631
 2226SOL    HW2 7578   2.294   5.274   0.784
 2227SOL     OW 7579   3.975   1.966   1.737
 2227SOL    HW1 7580   3.941   1.990   1.646
 2227SOL    HW2 7581   4.003   2.048   1.785
 2228SOL     OW 7582   5.429   4.785   6.987
 2228SOL    HW1 7583   5.454   4.704   6.934
 2228SOL    HW2 7584   5.508   4.815   0.018
 2229SOL     OW 7585   3.655   3.477   3.873
 2229SOL    HW1 7586   3.597   3.401   3.901
 2229SOL    HW2 7587   3.749   3.459   3.900
 2230SOL     OW 7588   5.664   0.216   0.895
 2230SOL    HW1 7589   5.745   0.249   0.944
 2230SOL    HW2 7590   5.691   0.147   0.828
 2231SOL     OW 7591   1.341   0.034   7.021
 2231SOL    HW1 7592   1.339   6.959   0.018
 2231SOL    HW2 7593   1.367   0.049   6.926
 2232SOL     OW 7594   1.321   0.900   5.681
 2232SOL    HW1 7595   1.298   0.820   5.737
 2232SOL    HW2 7596   1.291   0.983   5.727
 2233SOL     OW 7597   2.856   4.104   0.484
 2233SOL    HW1 7598   2.787   4.053   0.535
 2233SOL    HW2 7599   2.834   4.201   0.487
 2234SOL     OW 7600   4.483   1.703   0.955
 2234SOL    HW1 7601   4.560   1.640   0.960
 2234SOL    HW2 7602   4.514   1.796   0.976
 2235SOL     OW 7603   1.669   1.624   3.250
 2235SOL    HW1 7604   1.749   1.626   3.190
 2235SOL    HW2 7605   1.650   1.716   3.284
 2236SOL     OW 7606   1.935   4.242   5.258
 2236SOL    HW1 7607   1.940   4.342   5.255
 2236SOL    HW2 7608   1.842   4.213   5.281
 2237SOL     OW 7609   6.710   4.993   5.361
 2237SOL    HW1 7610   6.703   5.087   5.330
 2237SOL    HW2 7611   6.646   4.936   5.309
 2238SOL     OW 7612   5.292   4.023   2.063
 2238SOL    HW1 7613   5.356   3.955   2.097
 2238SOL    HW2 7614   5.252   3.992   1.977
 2239SOL     OW 7615   3.974   6.684   3.297
 2239SOL    HW1 7616   3.909   6.732   3.237
 2239SOL    HW2 7617   4.005   6.601   3.252
 2240SOL     OW 7618   4.847   5.118   3.469
 2240SOL    HW1 7619   4.930   5.090   3.518
 2240SOL    HW2 7620   4.850   5.216   3.452
 2241SOL     OW 7621   0.397   0.475   1.711
 2241SOL    HW1 7622   0.300   0.467   1.687
 2241SOL    HW2 7623   0.419   0.412   1.786
 2242SOL     OW 7624   4.863   3.348   3.293
 2242SOL    HW1 7625   4.919   3.421   3.253
 2242SOL    HW2 7626   4.803   3.310   3.222
 2243SOL     OW 7627   1.175   6.163   0.738
 2243SOL    HW1 7628   1.241   6.234   0.763
 2243SOL    HW2 7629   1.151   6.173   0.641
 2244SOL     OW 7630   2.724   7.000   0.224
 2244SOL    HW1 7631   2.709   0.029   0.309
 2244SOL    HW2 7632   2.752   6.906   0.247
 2245SOL     OW 7633   0.553   0.269   0.135
 2245SOL    HW1 7634   0.468   0.307   0.173
 2245SOL    HW2 7635   0.546   0.265   0.036
 2246SOL     OW 7636   1.957   0.906   5.396
 2246SOL    HW1 7637   2.051   0.907   5.429
 2246SOL    HW2 7638   1.925   1.001   5.384
 2247SOL     OW 7639   3.109   3.956   2.809
 2247SOL    HW1 7640   3.151   4.005   2.733
 2247SOL    HW2 7641   3.039   3.893   2.775
 2248SOL     OW 7642   5.249   4.313   5.284
 2248SOL    HW1 7643   5.165   4.293   5.233
 2248SOL    HW2 7644   5.322   4.336   5.219
 2249SOL     OW 7645   1.769   6.528   4.010
 2249SOL    HW1 7646   1.782   6.599   4.080
 2249SOL    HW2 7647   1.845   6.532   3.945
 2250SOL     OW 7648   4.550   4.322   6.557
 2250SOL    HW1 7649   4.615   4.398   6.548
 2250SOL    HW2 7650   4.457   4.356   6.542
 2251SOL     OW 7651   5.441   6.859   5.561
 2251SOL    HW1 7652   5.390   6.938   5.594
 2251SOL    HW2 7653   5.535   6.863   5.594
 2252SOL     OW 7654   4.334   1.673   2.717
 2252SOL    HW1 7655   4.402   1.651   2.787
 2252SOL    HW2 7656   4.250   1.622   2.736
 2253SOL     OW 7657   0.739   3.527   0.853
 2253SOL    HW1 7658   0.738   3.473   0.768
 2253SOL    HW2 7659   0.695   3.615   0.836
 2254SOL     OW 7660   3.793   3.468   2.878
 2254SOL    HW1 7661   3.768   3.396   2.814
 2254SOL    HW2 7662   3.775   3.437   2.972
 2255SOL     OW 7663   3.230   3.784   5.968
 2255SOL    HW1 7664   3.316   3.775   6.018
 2255SOL    HW2 7665   3.245   3.832   5.882
 2256SOL     OW 7666   4.871   6.893   1.949
 2256SOL    HW1 7667   4.910   6.978   1.914
 2256SOL    HW2 7668   4.789   6.913   2.002
 2257SOL     OW 7669   0.395   1.384   4.819
 2257SOL    HW1 7670   0.365   1.457   4.880
 2257SOL    HW2 7671   0.392   1.297   4.867
 2258SOL     OW 7672   2.675   6.096   3.889
 2258SOL    HW1 7673   2.765   6.102   3.845
 2258SOL    HW2 7674   2.613   6.161   3.845
 2259SOL     OW 7675   6.183   2.191   4.268
 2259SOL    HW1 7676   6.280   2.169   4.283
 2259SOL    HW2 7677   6.138   2.113   4.225
 2260SOL     OW 7678   1.303   3.850   1.535
 2260SOL    HW1 7679   1.226   3.886   1.587
 2260SOL    HW2 7680   1.312   3.900   1.449
 2261SOL     OW 7681   5.798   3.803   6.756
 2261SOL    HW1 7682   5.750   3.816   6.669
 2261SOL    HW2 7683   5.807   3.706   6.775
 2262SOL     OW 7684   6.377   0.119   4.439
 2262SOL    HW1 7685   6.324   0.073   4.368
 2262SOL    HW2 7686   6.354   0.081   4.529
 2263SOL     OW 7687   1.350   4.789   0.041
 2263SOL    HW1 7688   1.397   4.842   0.111
 2263SOL    HW2 7689   1.341   4.843   6.980
 2264SOL     OW 7690   1.729   6.939   5.825
 2264SOL    HW1 7691   1.653   6.879   5.799
 2264SOL    HW2 7692   1.713   0.008   5.788
 2265SOL     OW 7693   0.490   6.169   4.431
 2265SOL    HW1 7694   0.459   6.100   4.366
 2265SOL    HW2 7695   0.532   6.245   4.381
 2266SOL     OW 7696   4.454   2.000   6.616
 2266SOL    HW1 7697   4.437   1.965   6.708
 2266SOL    HW2 7698   4.428   1.930   6.549
 2267SOL     OW 7699   4.814   3.047   4.279
 2267SOL    HW1 7700   4.807   3.136   4.323
 2267SOL    HW2 7701   4.817   3.059   4.180
 2268SOL     OW 7702   0.188   4.876   5.944
 2268SOL    HW1 7703   0.097   4.901   5.909
 2268SOL    HW2 7704   0.189   4.886   6.043
 2269SOL     OW 7705   2.002   2.761   5.046
 2269SOL    HW1 7706   1.991   2.754   5.145
 2269SOL    HW2 7707   2.055   2.843   5.024
 2270SOL     OW 7708   4.822   1.624   6.078
 2270SOL    HW1 7709   4.916   1.639   6.107
 2270SOL    HW2 7710   4.795   1.696   6.013
 2271SOL     OW 7711   5.519   5.111   5.851
 2271SOL    HW1 7712   5.534   5.012   5.857
 2271SOL    HW2 7713   5.437   5.129   5.796
 2272SOL     OW 7714   5.664   1.029   6.041
 2272SOL    HW1 7715   5.671   1.122   6.077
 2272SOL    HW2 7716   5.696   0.965   6.110
 2273SOL     OW 7717   1.677   2.677   2.045
 2273SOL    HW1 7718   1.659   2.679   1.947
 2273SOL    HW2 7719   1.772   2.650   2.061
 2274SOL     OW 7720   0.548   0.875   6.739
 2274SOL    HW1 7721   0.450   0.873   6.762
 2274SOL    HW2 7722   0.594   0.800   6.788
 2275SOL     OW 7723   5.578   4.942   2.496
 2275SOL    HW1 7724   5.609   4.851   2.469
 2275SOL    HW2 7725   5.502   4.970   2.437
 2276SOL     OW 7726   1.249   1.492   1.108
 2276SOL    HW1 7727   1.247   1.526   1.014
 2276SOL    HW2 7728   1.266   1.393   1.107
 2277SOL     OW 7729   3.781   4.073   3.334
 2277SOL    HW1 7730   3.687   4.077   3.370
 2277SOL    HW2 7731   3.845   4.067   3.411
 2278SOL     OW 7732   0.881   2.087   4.150
 2278SOL    HW1 7733   0.849   2.182   4.150
 2278SOL    HW2 7734   0.852   2.043   4.065
 2279SOL     OW 7735   0.375   5.944   5.038
 2279SOL    HW1 7736   0.437   5.866   5.048
 2279SOL    HW2 7737   0.353   5.981   5.128
 2280SOL     OW 7738   5.168   1.552   4.959
 2280SOL    HW1 7739   5.157   1.494   4.878
 2280SOL    HW2 7740   5.155   1.497   5.042
 2281SOL     OW 7741   5.200   6.548   2.865
 2281SOL    HW1 7742   5.285   6.547   2.917
 2281SOL    HW2 7743   5.188   6.637   2.822
 2282SOL     OW 7744   3.991   5.705   5.804
 2282SOL    HW1 7745   4.033   5.700   5.713
 2282SOL    HW2 7746   4.047   5.655   5.870
 2283SOL     OW 7747   0.641   0.888   3.745
 2283SOL    HW1 7748   0.606   0.922   3.832
 2283SOL    HW2 7749   0.722   0.831   3.762
 2284SOL     OW 7750   1.427   3.306   6.766
 2284SOL    HW1 7751   1.495   3.380   6.763
 2284SOL    HW2 7752   1.362   3.318   6.691
 2285SOL     OW 7753   1.289   4.294   6.603
 2285SOL    HW1 7754   1.212   4.341   6.561
 2285SOL    HW2 7755   1.273   4.196   6.603
 2286SOL     OW 7756   4.708   5.983   4.027
 2286SOL    HW1 7757   4.664   5.939   4.105
 2286SOL    HW2 7758   4.736   5.913   3.961
 2287SOL     OW 7759   1.970   0.976   3.398
 2287SOL    HW1 7760   2.060   0.969   3.355
 2287SOL    HW2 7761   1.961   0.906   3.468
 2288SOL     OW 7762   0.392   6.448   3.518
 2288SOL    HW1 7763   0.485   6.437   3.552
 2288SOL    HW2 7764   0.357   6.359   3.488
 2289SOL     OW 7765   1.178   5.915   1.759
 2289SOL    HW1 7766   1.239   5.891   1.683
 2289SOL    HW2 7767   1.226   5.977   1.821
 2290SOL     OW 7768   1.058   5.314   1.127
 2290SOL    HW1 7769   1.136   5.296   1.188
 2290SOL    HW2 7770   1.091   5.346   1.038
 2291SOL     OW 7771   2.740   1.890   6.149
 2291SOL    HW1 7772   2.688   1.836   6.216
 2291SOL    HW2 7773   2.680   1.960   6.109
 2292SOL     OW 7774   1.371   0.923   4.339
 2292SOL    HW1 7775   1.360   0.964   4.248
 2292SOL    HW2 7776   1.354   0.992   4.409
 2293SOL     OW 7777   5.388   5.269   2.088
 2293SOL    HW1 7778   5.402   5.360   2.129
 2293SOL    HW2 7779   5.302   5.269   2.036
 2294SOL     OW 7780   4.497   6.563   6.513
 2294SOL    HW1 7781   4.458   6.614   6.437
 2294SOL    HW2 7782   4.497   6.466   6.492
 2295SOL     OW 7783   0.423   2.229   1.293
 2295SOL    HW1 7784   0.515   2.193   1.281
 2295SOL    HW2 7785   0.427   2.315   1.345
 2296SOL     OW 7786   2.922   6.741   6.999
 2296SOL    HW1 7787   2.963   6.715   6.912
 2296SOL    HW2 7788   2.929   6.664   0.040
 2297SOL     OW 7789   4.088   5.036   5.541
 2297SOL    HW1 7790   4.024   5.113   5.531
 2297SOL    HW2 7791   4.036   4.951   5.545
 2298SOL     OW 7792   3.729   2.317   1.148
 2298SOL    HW1 7793   3.665   2.269   1.088
 2298SOL    HW2 7794   3.687   2.331   1.237
 2299SOL     OW 7795   5.046   5.917   6.722
 2299SOL    HW1 7796   5.080   5.878   6.637
 2299SOL    HW2 7797   4.992   5.848   6.771
 2300SOL     OW 7798   1.993   5.211   0.959
 2300SOL    HW1 7799   1.987   5.121   0.915
 2300SOL    HW2 7800   2.050   5.205   1.040
 2301SOL     OW 7801   4.058   3.216   2.423
 2301SOL    HW1 7802   4.120   3.174   2.357
 2301SOL    HW2 7803   3.997   3.146   2.461
 2302SOL     OW 7804   3.314   5.745   2.799
 2302SOL    HW1 7805   3.260   5.828   2.811
 2302SOL    HW2 7806   3.411   5.769   2.789
 2303SOL     OW 7807   1.354   2.431   4.596
 2303SOL    HW1 7808   1.413   2.370   4.543
 2303SOL    HW2 7809   1.335   2.514   4.543
 2304SOL     OW 7810   2.269   1.061   3.684
 2304SOL    HW1 7811   2.248   1.001   3.762
 2304SOL    HW2 7812   2.192   1.122   3.667
 2305SOL     OW 7813   3.272   5.471   2.412
 2305SOL    HW1 7814   3.182   5.468   2.456
 2305SOL    HW2 7815   3.341   5.434   2.474
 2306SOL     OW 7816   1.671   4.157   1.489
 2306SOL    HW1 7817   1.724   4.075   1.509
 2306SOL    HW2 7818   1.591   4.162   1.549
 2307SOL     OW 7819   0.453   2.369   3.097
 2307SOL    HW1 7820   0.550   2.395   3.102
 2307SOL    HW2 7821   0.440   2.303   3.023
 2308SOL     OW 7822   0.425   6.986   6.844
 2308SOL    HW1 7823   0.371   6.930   6.781
 2308SOL    HW2 7824   0.522   6.978   6.820
 2309SOL     OW 7825   3.596   5.747   6.356
 2309SOL    HW1 7826   3.607   5.655   6.395
 2309SOL    HW2 7827   3.642   5.751   6.267
 2310SOL     OW 7828   5.154   1.202   1.544
 2310SOL    HW1 7829   5.219   1.138   1.503
 2310SOL    HW2 7830   5.138   1.277   1.480
 2311SOL     OW 7831   2.960   0.062   2.977
 2311SOL    HW1 7832   2.913   0.097   2.896
 2311SOL    HW2 7833   3.036   0.123   3.000
 2312SOL     OW 7834   3.991   0.323   2.968
 2312SOL    HW1 7835   3.924   0.314   2.894
 2312SOL    HW2 7836   4.084   0.318   2.930
 2313SOL     OW 7837   4.918   3.958   2.108
 2313SOL    HW1 7838   4.991   3.987   2.170
 2313SOL    HW2 7839   4.868   4.039   2.075
 2314SOL     OW 7840   6.248   0.282   3.644
 2314SOL    HW1 7841   6.297   0.201   3.611
 2314SOL    HW2 7842   6.249   0.352   3.573
 2315SOL     OW 7843   4.440   4.425   5.728
 2315SOL    HW1 7844   4.480   4.375   5.805
 2315SOL    HW2 7845   4.345   4.449   5.750
 2316SOL     OW 7846   2.821   1.093   6.156
 2316SOL    HW1 7847   2.919   1.075   6.164
 2316SOL    HW2 7848   2.805   1.191   6.144
 2317SOL     OW 7849   6.267   6.406   4.080
 2317SOL    HW1 7850   6.225   6.496   4.068
 2317SOL    HW2 7851   6.198   6.341   4.112
 2318SOL     OW 7852   2.212   4.334   4.830
 2318SOL    HW1 7853   2.260   4.364   4.913
 2318SOL    HW2 7854   2.117   4.365   4.833
 2319SOL     OW 7855   2.082   5.215   4.901
 2319SOL    HW1 7856   2.105   5.140   4.963
 2319SOL    HW2 7857   2.140   5.210   4.819
 2320SOL     OW 7858   1.487   3.056   5.258
 2320SOL    HW1 7859   1.480   3.086   5.354
 2320SOL    HW2 7860   1.580   3.069   5.226
 2321SOL     OW 7861   2.935   5.119   6.065
 2321SOL    HW1 7862   2.872   5.101   5.990
 2321SOL    HW2 7863   3.010   5.052   6.063
 2322SOL     OW 7864   2.079   3.492   2.458
 2322SOL    HW1 7865   2.074   3.487   2.358
 2322SOL    HW2 7866   2.102   3.402   2.495
 2323SOL     OW 7867   2.665   4.992   1.619
 2323SOL    HW1 7868   2.746   4.937   1.637
 2323SOL    HW2 7869   2.667   5.075   1.676
 2324SOL     OW 7870   0.869   5.538   2.046
 2324SOL    HW1 7871   0.837   5.597   2.119
 2324SOL    HW2 7872   0.963   5.509   2.065
 2325SOL     OW 7873   6.880   4.996   1.749
 2325SOL    HW1 7874   6.784   4.977   1.725
 2325SOL    HW2 7875   6.906   5.084   1.710
 2326SOL     OW 7876   1.052   6.952   6.997
 2326SOL    HW1 7877   1.074   0.001   6.931
 2326SOL    HW2 7878   1.118   6.955   0.050
 2327SOL     OW 7879   6.816   0.363   2.493
 2327SOL    HW1 7880   6.898   0.329   2.541
 2327SOL    HW2 7881   6.744   0.382   2.560
 2328SOL     OW 7882   1.514   2.013   2.237
 2328SOL    HW1 7883   1.511   1.931   2.293
 2328SOL    HW2 7884   1.604   2.021   2.194
 2329SOL     OW 7885   1.044   4.772   3.842
 2329SOL    HW1 7886   1.091   4.811   3.921
 2329SOL    HW2 7887   0.959   4.728   3.872
 2330SOL     OW 7888   6.853   3.042   0.300
 2330SOL    HW1 7889   6.870   3.035   0.399
 2330SOL    HW2 7890   6.757   3.064   0.284
 2331SOL     OW 7891   3.559   6.180   6.923
 2331SOL    HW1 7892   3.486   6.185   6.854
 2331SOL    HW2 7893   3.640   6.140   6.882
 2332SOL     OW 7894   5.955   0.100   5.914
 2332SOL    HW1 7895   5.996   0.069   5.827
 2332SOL    HW2 7896   6.017   0.165   5.958
 2333SOL     OW 7897   0.113   4.881   2.784
 2333SOL    HW1 7898   0.159   4.910   2.868
 2333SOL    HW2 7899   0.071   4.961   2.740
 2334SOL     OW 7900   2.164   1.241   6.400
 2334SOL    HW1 7901   2.090   1.286   6.350
 2334SOL    HW2 7902   2.244   1.232   6.339
 2335SOL     OW 7903   6.250   1.806   4.419
 2335SOL    HW1 7904   6.304   1.722   4.421
 2335SOL    HW2 7905   6.225   1.827   4.324
 2336SOL     OW 7906   2.644   1.685   4.056
 2336SOL    HW1 7907   2.553   1.643   4.045
 2336SOL    HW2 7908   2.675   1.721   3.968
 2337SOL     OW 7909   4.117   1.872   1.039
 2337SOL    HW1 7910   4.132   1.971   1.027
 2337SOL    HW2 7911   4.171   1.822   0.973
 2338SOL     OW 7912   0.791   3.653   4.134
 2338SOL    HW1 7913   0.843   3.731   4.168
 2338SOL    HW2 7914   0.830   3.568   4.171
 2339SOL     OW 7915   3.098   3.530   2.761
 2339SOL    HW1 7916   3.166   3.562   2.695
 2339SOL    HW2 7917   3.145   3.479   2.833
 2340SOL     OW 7918   0.771   5.104   6.529
 2340SOL    HW1 7919   0.862   5.085   6.492
 2340SOL    HW2 7920   0.748   5.038   6.599
 2341SOL     OW 7921   2.382   4.348   3.114
 2341SOL    HW1 7922   2.297   4.308   3.079
 2341SOL    HW2 7923   2.404   4.308   3.203
 2342SOL     OW 7924   2.941   6.751   4.437
 2342SOL    HW1 7925   3.014   6.745   4.368
 2342SOL    HW2 7926   2.923   6.847   4.458
 2343SOL     OW 7927   2.399   6.398   3.171
 2343SOL    HW1 7928   2.303   6.369   3.177
 2343SOL    HW2 7929   2.448   6.336   3.109
 2344SOL     OW 7930   6.929   5.050   0.829
 2344SOL    HW1 7931   6.875   5.066   0.747
 2344SOL    HW2 7932   6.887   4.977   0.883
 2345SOL     OW 7933   2.560   5.757   4.760
 2345SOL    HW1 7934   2.470   5.800   4.766
 2345SOL    HW2 7935   2.630   5.828   4.750
 2346SOL     OW 7936   4.040   3.320   6.044
 2346SOL    HW1 7937   3.971   3.248   6.034
 2346SOL    HW2 7938   4.131   3.282   6.027
 2347SOL     OW 7939   1.542   2.195   1.417
 2347SOL    HW1 7940   1.518   2.187   1.514
 2347SOL    HW2 7941   1.494   2.273   1.377
 2348SOL     OW 7942   1.496   6.419   3.282
 2348SOL    HW1 7943   1.461   6.339   3.332
 2348SOL    HW2 7944   1.546   6.478   3.345
 2349SOL     OW 7945   1.083   3.997   6.706
 2349SOL    HW1 7946   1.086   4.052   6.789
 2349SOL    HW2 7947   1.002   3.940   6.706
 2350SOL     OW 7948   5.643   3.959   5.688
 2350SOL    HW1 7949   5.709   4.034   5.690
 2350SOL    HW2 7950   5.684   3.879   5.645
 2351SOL     OW 7951   3.147   4.846   2.991
 2351SOL    HW1 7952   3.225   4.834   3.052
 2351SOL    HW2 7953   3.179   4.872   2.900
 2352SOL     OW 7954   6.584   3.076   3.455
 2352SOL    HW1 7955   6.525   3.013   3.506
 2352SOL    HW2 7956   6.586   3.048   3.359
 2353SOL     OW 7957   4.266   5.025   5.320
 2353SOL    HW1 7958   4.228   5.034   5.412
 2353SOL    HW2 7959   4.257   5.112   5.272
 2354SOL     OW 7960   2.724   2.291   4.267
 2354SOL    HW1 7961   2.734   2.281   4.366
 2354SOL    HW2 7962   2.792   2.234   4.221
 2355SOL     OW 7963   2.338   6.125   4.844
 2355SOL    HW1 7964   2.335   6.029   4.815
 2355SOL    HW2 7965   2.265   6.175   4.798
 2356SOL     OW 7966   0.781   2.977   0.048
 2356SOL    HW1 7967   0.837   3.013   6.996
 2356SOL    HW2 7968   0.810   3.018   0.135
 2357SOL     OW 7969   3.522   1.171   1.648
 2357SOL    HW1 7970   3.528   1.092   1.708
 2357SOL    HW2 7971   3.613   1.193   1.613
 2358SOL     OW 7972   2.659   4.922   6.011
 2358SOL    HW1 7973   2.696   4.834   6.042
 2358SOL    HW2 7974   2.559   4.917   6.009
 2359SOL     OW 7975   1.404   6.785   5.259
 2359SOL    HW1 7976   1.497   6.801   5.227
 2359SOL    HW2 7977   1.397   6.694   5.299
 2360SOL     OW 7978   6.726   3.547   0.768
 2360SOL    HW1 7979   6.771   3.523   0.854
 2360SOL    HW2 7980   6.660   3.476   0.745
 2361SOL     OW 7981   2.698   1.045   6.397
 2361SOL    HW1 7982   2.768   1.080   6.460
 2361SOL    HW2 7983   2.727   1.063   6.303
 2362SOL     OW 7984   3.479   4.966   3.527
 2362SOL    HW1 7985   3.566   4.975   3.479
 2362SOL    HW2 7986   3.494   4.983   3.625
 2363SOL     OW 7987   3.773   2.053   3.277
 2363SOL    HW1 7988   3.703   1.983   3.294
 2363SOL    HW2 7989   3.745   2.110   3.200
 2364SOL     OW 7990   1.144   2.636   1.863
 2364SOL    HW1 7991   1.209   2.712   1.853
 2364SOL    HW2 7992   1.088   2.628   1.781
 2365SOL     OW 7993   6.446   1.847   6.697
 2365SOL    HW1 7994   6.488   1.777   6.639
 2365SOL    HW2 7995   6.377   1.804   6.756
 2366SOL     OW 7996   3.284   5.363   0.803
 2366SOL    HW1 7997   3.188   5.343   0.823
 2366SOL    HW2 7998   3.340   5.340   0.883
 2367SOL     OW 7999   2.251   2.900   0.392
 2367SOL    HW1 8000   2.336   2.847   0.395
 2367SOL    HW2 8001   2.268   2.991   0.429
 2368SOL     OW 8002   5.781   0.491   4.081
 2368SOL    HW1 8003   5.682   0.501   4.064
 2368SOL    HW2 8004   5.795   0.452   4.172
 2369SOL     OW 8005   2.111   6.760   4.119
 2369SOL    HW1 8006   2.181   6.813   4.167
 2369SOL    HW2 8007   2.123   6.663   4.140
 2370SOL     OW 8008   5.796   2.834   7.003
 2370SOL    HW1 8009   5.788   2.775   6.923
 2370SOL    HW2 8010   5.812   2.928   6.973
 2371SOL     OW 8011   2.246   6.881   1.978
 2371SOL    HW1 8012   2.303   6.946   2.028
 2371SOL    HW2 8013   2.179   6.931   1.924
 2372SOL     OW 8014   6.916   2.692   2.244
 2372SOL    HW1 8015   6.916   2.792   2.256
 2372SOL    HW2 8016   7.009   2.660   2.226
 2373SOL     OW 8017   1.991   3.710   5.502
 2373SOL    HW1 8018   1.897   3.719   5.535
 2373SOL    HW2 8019   2.046   3.785   5.536
 2374SOL     OW 8020   6.480   2.120   5.258
 2374SOL    HW1 8021   6.458   2.049   5.192
 2374SOL    HW2 8022   6.570   2.101   5.299
 2375SOL     OW 8023   3.246   5.516   5.756
 2375SOL    HW1 8024   3.180   5.552   5.821
 2375SOL    HW2 8025   3.257   5.417   5.771
 2376SOL     OW 8026   5.775   4.047   3.651
 2376SOL    HW1 8027   5.704   4.061   3.720
 2376SOL    HW2 8028   5.743   3.981   3.583
 2377SOL     OW 8029   3.287   3.880   3.523
 2377SOL    HW1 8030   3.304   3.793   3.569
 2377SOL    HW2 8031   3.349   3.950   3.560
 2378SOL     OW 8032   5.027   2.125   6.948
 2378SOL    HW1 8033   5.057   2.218   6.929
 2378SOL    HW2 8034   4.946   2.104   6.892
 2379SOL     OW 8035   6.601   1.191   0.483
 2379SOL    HW1 8036   6.598   1.275   0.428
 2379SOL    HW2 8037   6.581   1.213   0.578
 2380SOL     OW 8038   6.867   2.646   0.399
 2380SOL    HW1 8039   6.860   2.710   0.321
 2380SOL    HW2 8040   6.913   2.563   0.369
 2381SOL     OW 8041   2.113   5.919   3.603
 2381SOL    HW1 8042   2.146   5.841   3.552
 2381SOL    HW2 8043   2.177   5.941   3.676
 2382SOL     OW 8044   1.630   3.441   4.329
 2382SOL    HW1 8045   1.714   3.456   4.277
 2382SOL    HW2 8046   1.636   3.354   4.378
 2383SOL     OW 8047   6.623   6.172   0.957
 2383SOL    HW1 8048   6.638   6.268   0.982
 2383SOL    HW2 8049   6.645   6.114   1.035
 2384SOL     OW 8050   4.971   2.103   2.143
 2384SOL    HW1 8051   5.035   2.048   2.195
 2384SOL    HW2 8052   5.021   2.160   2.077
 2385SOL     OW 8053   0.258   0.665   6.989
 2385SOL    HW1 8054   0.209   0.706   0.043
 2385SOL    HW2 8055   0.355   0.687   6.995
 2386SOL     OW 8056   4.984   5.701   4.456
 2386SOL    HW1 8057   4.964   5.603   4.459
 2386SOL    HW2 8058   5.082   5.715   4.450
 2387SOL     OW 8059   1.630   0.952   4.381
 2387SOL    HW1 8060   1.535   0.925   4.365
 2387SOL    HW2 8061   1.637   1.052   4.383
 2388SOL     OW 8062   6.400   3.032   3.790
 2388SOL    HW1 8063   6.416   2.972   3.712
 2388SOL    HW2 8064   6.332   2.990   3.850
 2389SOL     OW 8065   4.454   4.507   3.602
 2389SOL    HW1 8066   4.498   4.421   3.575
 2389SOL    HW2 8067   4.474   4.526   3.698
 2390SOL     OW 8068   4.008   3.788   2.877
 2390SOL    HW1 8069   4.034   3.818   2.969
 2390SOL    HW2 8070   3.910   3.798   2.865
 2391SOL     OW 8071   4.962   4.655   6.277
 2391SOL    HW1 8072   4.904   4.580   6.245
 2391SOL    HW2 8073   5.044   4.618   6.321
 2392SOL     OW 8074   2.437   6.824   6.467
 2392SOL    HW1 8075   2.403   6.744   6.417
 2392SOL    HW2 8076   2.417   6.907   6.415
 2393SOL     OW 8077   4.802   4.446   6.291
 2393SOL    HW1 8078   4.861   4.414   6.366
 2393SOL    HW2 8079   4.726   4.498   6.328
 2394SOL     OW 8080   0.081   3.951   4.854
 2394SOL    HW1 8081   0.173   3.990   4.860
 2394SOL    HW2 8082   0.020   4.002   4.915
 2395SOL     OW 8083   4.657   6.591   5.853
 2395SOL    HW1 8084   4.739   6.547   5.817
 2395SOL    HW2 8085   4.651   6.575   5.951
 2396SOL     OW 8086   3.853   5.482   1.137
 2396SOL    HW1 8087   3.852   5.382   1.130
 2396SOL    HW2 8088   3.943   5.512   1.169
 2397SOL     OW 8089   0.273   4.259   4.398
 2397SOL    HW1 8090   0.366   4.238   4.427
 2397SOL    HW2 8091   0.264   4.356   4.378
 2398SOL     OW 8092   5.215   4.229   6.992
 2398SOL    HW1 8093   5.155   4.213   0.048
 2398SOL    HW2 8094   5.162   4.265   6.915
 2399SOL     OW 8095   4.185   1.168   1.174
 2399SOL    HW1 8096   4.250   1.093   1.166
 2399SOL    HW2 8097   4.179   1.197   1.270
 2400SOL     OW 8098   2.388   4.244   0.563
 2400SOL    HW1 8099   2.296   4.224   0.596
 2400SOL    HW2 8100   2.455   4.222   0.634
 2401SOL     OW 8101   6.069   6.065   6.423
 2401SOL    HW1 8102   6.126   6.106   6.495
 2401SOL    HW2 8103   5.990   6.123   6.406
 2402SOL     OW 8104   0.970   0.143   4.050
 2402SOL    HW1 8105   0.954   0.049   4.079
 2402SOL    HW2 8106   1.005   0.143   3.956
 2403SOL     OW 8107   1.096   2.831   5.478
 2403SOL    HW1 8108   1.080   2.927   5.455
 2403SOL    HW2 8109   1.194   2.815   5.489
 2404SOL     OW 8110   2.602   0.878   1.158
 2404SOL    HW1 8111   2.546   0.921   1.087
 2404SOL    HW2 8112   2.672   0.821   1.116
 2405SOL     OW 8113   3.250   4.049   2.556
 2405SOL    HW1 8114   3.279   4.092   2.470
 2405SOL    HW2 8115   3.199   3.966   2.536
 2406SOL     OW 8116   4.102   1.438   0.812
 2406SOL    HW1 8117   4.153   1.426   0.726
 2406SOL    HW2 8118   4.031   1.507   0.799
 2407SOL     OW 8119   5.481   1.885   3.493
 2407SOL    HW1 8120   5.403   1.937   3.461
 2407SOL    HW2 8121   5.484   1.796   3.446
 2408SOL     OW 8122   4.486   4.546   2.143
 2408SOL    HW1 8123   4.560   4.590   2.194
 2408SOL    HW2 8124   4.509   4.449   2.130
 2409SOL     OW 8125   2.393   3.861   1.269
 2409SOL    HW1 8126   2.430   3.930   1.331
 2409SOL    HW2 8127   2.456   3.783   1.266
 2410SOL     OW 8128   3.905   3.102   3.963
 2410SOL    HW1 8129   3.914   3.201   3.961
 2410SOL    HW2 8130   3.958   3.065   4.039
 2411SOL     OW 8131   5.199   6.654   4.882
 2411SOL    HW1 8132   5.267   6.610   4.824
 2411SOL    HW2 8133   5.161   6.588   4.947
 2412SOL     OW 8134   5.308   3.950   1.243
 2412SOL    HW1 8135   5.364   3.879   1.199
 2412SOL    HW2 8136   5.237   3.980   1.180
 2413SOL     OW 8137   5.394   0.382   1.755
 2413SOL    HW1 8138   5.437   0.436   1.683
 2413SOL    HW2 8139   5.409   0.427   1.843
 2414SOL     OW 8140   4.874   3.784   3.605
 2414SOL    HW1 8141   4.839   3.727   3.531
 2414SOL    HW2 8142   4.877   3.880   3.575
 2415SOL     OW 8143   5.860   1.500   2.554
 2415SOL    HW1 8144   5.929   1.557   2.512
 2415SOL    HW2 8145   5.779   1.496   2.495
 2416SOL     OW 8146   5.220   1.870   5.951
 2416SOL    HW1 8147   5.266   1.959   5.950
 2416SOL    HW2 8148   5.219   1.832   5.859
 2417SOL     OW 8149   2.992   3.252   4.876
 2417SOL    HW1 8150   2.954   3.214   4.792
 2417SOL    HW2 8151   3.081   3.293   4.857
 2418SOL     OW 8152   3.524   3.256   3.917
 2418SOL    HW1 8153   3.461   3.282   3.843
 2418SOL    HW2 8154   3.477   3.267   4.005
 2419SOL     OW 8155   0.594   6.502   3.249
 2419SOL    HW1 8156   0.520   6.538   3.306
 2419SOL    HW2 8157   0.642   6.577   3.204
 2420SOL     OW 8158   2.884   0.252   1.797
 2420SOL    HW1 8159   2.806   0.291   1.748
 2420SOL    HW2 8160   2.854   0.174   1.852
 2421SOL     OW 8161   1.650   2.673   4.746
 2421SOL    HW1 8162   1.691   2.744   4.804
 2421SOL    HW2 8163   1.588   2.617   4.801
 2422SOL     OW 8164   5.078   2.300   0.840
 2422SOL    HW1 8165   5.101   2.271   0.933
 2422SOL    HW2 8166   5.115   2.234   0.775
 2423SOL     OW 8167   2.627   6.011   2.447
 2423SOL    HW1 8168   2.586   5.943   2.387
 2423SOL    HW2 8169   2.721   5.983   2.469
 2424SOL     OW 8170   5.800   1.242   0.102
 2424SOL    HW1 8171   5.780   1.336   0.076
 2424SOL    HW2 8172   5.882   1.240   0.159
 2425SOL     OW 8173   6.290   6.702   4.320
 2425SOL    HW1 8174   6.267   6.706   4.417
 2425SOL    HW2 8175   6.367   6.640   4.307
 2426SOL     OW 8176   2.617   4.653   4.486
 2426SOL    HW1 8177   2.560   4.639   4.567
 2426SOL    HW2 8178   2.570   4.615   4.406
 2427SOL     OW 8179   6.026   6.380   5.117
 2427SOL    HW1 8180   6.039   6.474   5.149
 2427SOL    HW2 8181   5.967   6.331   5.181
 2428SOL     OW 8182   0.719   0.689   1.462
 2428SOL    HW1 8183   0.649   0.757   1.483
 2428SOL    HW2 8184   0.810   0.726   1.479
 2429SOL     OW 8185   5.231   5.936   1.423
 2429SOL    HW1 8186   5.197   5.862   1.480
 2429SOL    HW2 8187   5.280   6.003   1.480
 2430SOL     OW 8188   5.722   0.955   2.397
 2430SOL    HW1 8189   5.749   0.931   2.490
 2430SOL    HW2 8190   5.753   1.048   2.376
 2431SOL     OW 8191   4.229   0.603   2.246
 2431SOL    HW1 8192   4.250   0.511   2.213
 2431SOL    HW2 8193   4.229   0.667   2.169
 2432SOL     OW 8194   3.895   6.156   2.522
 2432SOL    HW1 8195   3.832   6.080   2.538
 2432SOL    HW2 8196   3.848   6.242   2.542
 2433SOL     OW 8197   4.270   0.354   6.880
 2433SOL    HW1 8198   4.308   0.402   6.959
 2433SOL    HW2 8199   4.170   0.349   6.888
 2434SOL     OW 8200   3.354   1.421   6.212
 2434SOL    HW1 8201   3.441   1.464   6.188
 2434SOL    HW2 8202   3.290   1.491   6.244
 2435SOL     OW 8203   6.424   5.604   4.815
 2435SOL    HW1 8204   6.459   5.678   4.872
 2435SOL    HW2 8205   6.486   5.589   4.738
 2436SOL     OW 8206   3.006   5.594   0.043
 2436SOL    HW1 8207   2.911   5.567   0.026
 2436SOL    HW2 8208   3.033   5.564   0.135
 2437SOL     OW 8209   6.943   6.485   5.847
 2437SOL    HW1 8210   6.928   6.583   5.846
 2437SOL    HW2 8211   6.855   6.437   5.841
 2438SOL     OW 8212   3.216   2.146   0.813
 2438SOL    HW1 8213   3.156   2.218   0.849
 2438SOL    HW2 8214   3.303   2.187   0.786
 2439SOL     OW 8215   5.834   4.097   5.255
 2439SOL    HW1 8216   5.913   4.107   5.195
 2439SOL    HW2 8217   5.774   4.176   5.244
 2440SOL     OW 8218   5.621   5.204   6.077
 2440SOL    HW1 8219   5.704   5.149   6.085
 2440SOL    HW2 8220   5.581   5.192   5.986
 2441SOL     OW 8221   6.050   2.218   0.802
 2441SOL    HW1 8222   6.120   2.261   0.745
 2441SOL    HW2 8223   5.985   2.287   0.833
 2442SOL     OW 8224   0.775   3.587   4.530
 2442SOL    HW1 8225   0.845   3.650   4.495
 2442SOL    HW2 8226   0.745   3.526   4.456
 2443SOL     OW 8227   2.427   4.623   5.852
 2443SOL    HW1 8228   2.460   4.529   5.852
 2443SOL    HW2 8229   2.433   4.661   5.760
 2444SOL     OW 8230   2.728   3.472   5.576
 2444SOL    HW1 8231   2.797   3.493   5.506
 2444SOL    HW2 8232   2.724   3.372   5.588
 2445SOL     OW 8233   0.952   0.740   1.138
 2445SOL    HW1 8234   1.041   0.785   1.132
 2445SOL    HW2 8235   0.965   0.644   1.164
 2446SOL     OW 8236   6.110   4.524   5.735
 2446SOL    HW1 8237   6.138   4.429   5.752
 2446SOL    HW2 8238   6.168   4.563   5.663
 2447SOL     OW 8239   0.587   1.388   6.755
 2447SOL    HW1 8240   0.593   1.336   6.671
 2447SOL    HW2 8241   0.602   1.485   6.736
 2448SOL     OW 8242   1.292   6.901   4.390
 2448SOL    HW1 8243   1.288   6.946   4.301
 2448SOL    HW2 8244   1.206   6.852   4.406
 2449SOL     OW 8245   0.349   3.241   5.284
 2449SOL    HW1 8246   0.359   3.203   5.376
 2449SOL    HW2 8247   0.311   3.171   5.223
 2450SOL     OW 8248   2.128   3.776   3.139
 2450SOL    HW1 8249   2.088   3.689   3.110
 2450SOL    HW2 8250   2.156   3.770   3.235
 2451SOL     OW 8251   2.192   6.298   4.139
 2451SOL    HW1 8252   2.174   6.213   4.090
 2451SOL    HW2 8253   2.258   6.282   4.211
 2452SOL     OW 8254   1.193   2.208   4.241
 2452SOL    HW1 8255   1.154   2.124   4.204
 2452SOL    HW2 8256   1.260   2.245   4.176
 2453SOL     OW 8257   0.193   3.999   1.940
 2453SOL    HW1 8258   0.122   3.998   1.870
 2453SOL    HW2 8259   0.264   3.932   1.916
 2454SOL     OW 8260   2.733   0.817   2.225
 2454SOL    HW1 8261   2.823   0.801   2.264
 2454SOL    HW2 8262   2.719   0.755   2.147
 2455SOL     OW 8263   5.456   5.864   0.204
 2455SOL    HW1 8264   5.357   5.857   0.196
 2455SOL    HW2 8265   5.498   5.774   0.187
 2456SOL     OW 8266   4.201   6.747   1.685
 2456SOL    HW1 8267   4.150   6.823   1.726
 2456SOL    HW2 8268   4.163   6.660   1.718
 2457SOL     OW 8269   5.415   6.456   1.373
 2457SOL    HW1 8270   5.411   6.446   1.274
 2457SOL    HW2 8271   5.467   6.538   1.397
 2458SOL     OW 8272   0.346   5.432   3.705
 2458SOL    HW1 8273   0.263   5.474   3.741
 2458SOL    HW2 8274   0.417   5.502   3.694
 2459SOL     OW 8275   2.506   0.311   0.814
 2459SOL    HW1 8276   2.566   0.365   0.757
 2459SOL    HW2 8277   2.448   0.371   0.869
 2460SOL     OW 8278   3.248   5.482   1.510
 2460SOL    HW1 8279   3.221   5.389   1.486
 2460SOL    HW2 8280   3.229   5.543   1.433
 2461SOL     OW 8281   5.625   1.195   2.872
 2461SOL    HW1 8282   5.669   1.211   2.960
 2461SOL    HW2 8283   5.681   1.233   2.799
 2462SOL     OW 8284   1.898   4.525   6.263
 2462SOL    HW1 8285   1.967   4.533   6.191
 2462SOL    HW2 8286   1.933   4.464   6.334
 2463SOL     OW 8287   6.725   1.606   4.071
 2463SOL    HW1 8288   6.786   1.612   3.992
 2463SOL    HW2 8289   6.778   1.579   4.152
 2464SOL     OW 8290   1.543   3.180   1.337
 2464SOL    HW1 8291   1.500   3.115   1.400
 2464SOL    HW2 8292   1.588   3.129   1.264
 2465SOL     OW 8293   6.390   5.670   3.297
 2465SOL    HW1 8294   6.455   5.719   3.355
 2465SOL    HW2 8295   6.433   5.587   3.262
 2466SOL     OW 8296   3.467   1.313   2.316
 2466SOL    HW1 8297   3.540   1.363   2.361
 2466SOL    HW2 8298   3.502   1.269   2.233
 2467SOL     OW 8299   6.668   1.181   5.789
 2467SOL    HW1 8300   6.705   1.092   5.815
 2467SOL    HW2 8301   6.705   1.207   5.700
 2468SOL     OW 8302   0.017   3.854   0.477
 2468SOL    HW1 8303   6.985   3.780   0.515
 2468SOL    HW2 8304   0.097   3.869   0.535
 2469SOL     OW 8305   2.618   3.030   5.693
 2469SOL    HW1 8306   2.607   3.076   5.605
 2469SOL    HW2 8307   2.706   3.054   5.733
 2470SOL     OW 8308   5.461   2.894   0.220
 2470SOL    HW1 8309   5.384   2.835   0.197
 2470SOL    HW2 8310   5.469   2.968   0.153
 2471SOL     OW 8311   0.631   0.643   3.455
 2471SOL    HW1 8312   0.642   0.615   3.359
 2471SOL    HW2 8313   0.614   0.741   3.459
 2472SOL     OW 8314   5.515   1.425   2.948
 2472SOL    HW1 8315   5.540   1.329   2.952
 2472SOL    HW2 8316   5.536   1.469   3.035
 2473SOL     OW 8317   0.432   6.985   5.221
 2473SOL    HW1 8318   0.480   6.927   5.287
 2473SOL    HW2 8319   0.383   6.926   5.156
 2474SOL     OW 8320   5.849   5.596   4.941
 2474SOL    HW1 8321   5.833   5.520   5.005
 2474SOL    HW2 8322   5.781   5.667   4.958
 2475SOL     OW 8323   4.078   2.384   6.317
 2475SOL    HW1 8324   4.063   2.437   6.401
 2475SOL    HW2 8325   3.994   2.383   6.263
 2476SOL     OW 8326   0.274   2.224   3.807
 2476SOL    HW1 8327   0.351   2.164   3.829
 2476SOL    HW2 8328   0.285   2.259   3.714
 2477SOL     OW 8329   4.398   4.952   1.839
 2477SOL    HW1 8330   4.337   4.958   1.760
 2477SOL    HW2 8331   4.461   4.875   1.826
 2478SOL     OW 8332   6.560   0.144   3.217
 2478SOL    HW1 8333   6.650   0.165   3.253
 2478SOL    HW2 8334   6.551   0.182   3.125
 2479SOL     OW 8335   0.736   3.424   0.387
 2479SOL    HW1 8336   0.685   3.384   0.311
 2479SOL    HW2 8337   0.700   3.516   0.406
 2480SOL     OW 8338   1.047   3.888   1.688
 2480SOL    HW1 8339   1.053   3.949   1.768
 2480SOL    HW2 8340   1.065   3.794   1.716
 2481SOL     OW 8341   4.453   5.302   2.828
 2481SOL    HW1 8342   4.491   5.246   2.755
 2481SOL    HW2 8343   4.369   5.346   2.796
 2482SOL     OW 8344   4.632   2.642   4.409
 2482SOL    HW1 8345   4.679   2.730   4.423
 2482SOL    HW2 8346   4.673   2.595   4.331
 2483SOL     OW 8347   0.752   1.793   6.541
 2483SOL    HW1 8348   0.788   1.706   6.509
 2483SOL    HW2 8349   0.824   1.862   6.537
 2484SOL     OW 8350   3.251   1.976   6.043
 2484SOL    HW1 8351   3.340   1.965   5.998
 2484SOL    HW2 8352   3.262   1.961   6.141
 2485SOL     OW 8353   1.158   6.258   1.780
 2485SOL    HW1 8354   1.098   6.254   1.860
 2485SOL    HW2 8355   1.163   6.352   1.747
 2486SOL     OW 8356   1.090   4.897   3.159
 2486SOL    HW1 8357   1.104   4.933   3.252
 2486SOL    HW2 8358   1.130   4.805   3.153
 2487SOL     OW 8359   3.158   0.862   0.937
 2487SOL    HW1 8360   3.137   0.794   0.867
 2487SOL    HW2 8361   3.249   0.845   0.974
 2488SOL     OW 8362   3.457   6.566   6.220
 2488SOL    HW1 8363   3.487   6.631   6.151
 2488SOL    HW2 8364   3.525   6.560   6.293
 2489SOL     OW 8365   6.778   5.555   4.245
 2489SOL    HW1 8366   6.733   5.600   4.167
 2489SOL    HW2 8367   6.818   5.624   4.305
 2490SOL     OW 8368   5.255   3.470   1.344
 2490SOL    HW1 8369   5.304   3.527   1.410
 2490SOL    HW2 8370   5.208   3.396   1.392
 2491SOL     OW 8371   0.887   4.631   2.995
 2491SOL    HW1 8372   0.847   4.642   3.086
 2491SOL    HW2 8373   0.958   4.562   2.997
 2492SOL     OW 8374   4.306   2.681   5.865
 2492SOL    HW1 8375   4.292   2.676   5.964
 2492SOL    HW2 8376   4.363   2.760   5.844
 2493SOL     OW 8377   6.278   1.746   4.090
 2493SOL    HW1 8378   6.315   1.831   4.052
 2493SOL    HW2 8379   6.349   1.676   4.090
 2494SOL     OW 8380   4.551   4.411   1.206
 2494SOL    HW1 8381   4.583   4.447   1.119
 2494SOL    HW2 8382   4.472   4.352   1.191
 2495SOL     OW 8383   6.106   1.048   4.054
 2495SOL    HW1 8384   6.042   0.972   4.038
 2495SOL    HW2 8385   6.146   1.039   4.145
 2496SOL     OW 8386   1.443   5.707   6.682
 2496SOL    HW1 8387   1.369   5.644   6.660
 2496SOL    HW2 8388   1.432   5.792   6.629
 2497SOL     OW 8389   5.253   1.842   6.475
 2497SOL    HW1 8390   5.323   1.771   6.473
 2497SOL    HW2 8391   5.176   1.814   6.418
 2498SOL     OW 8392   1.004   3.604   4.893
 2498SOL    HW1 8393   1.077   3.579   4.830
 2498SOL    HW2 8394   1.042   3.614   4.985
 2499SOL     OW 8395   6.164   0.287   5.994
 2499SOL    HW1 8396   6.243   0.261   6.049
 2499SOL    HW2 8397   6.185   0.370   5.943
 2500SOL     OW 8398   4.634   3.532   6.386
 2500SOL    HW1 8399   4.612   3.513   6.290
 2500SOL    HW2 8400   4.552   3.525   6.442
 2501SOL     OW 8401   6.296   4.628   0.575
 2501SOL    HW1 8402   6.360   4.564   0.531
 2501SOL    HW2 8403   6.347   4.687   0.638
 2502SOL     OW 8404   1.984   6.428   2.935
 2502SOL    HW1 8405   2.015   6.521   2.915
 2502SOL    HW2 8406   1.884   6.424   2.931
 2503SOL     OW 8407   4.844   6.422   4.669
 2503SOL    HW1 8408   4.841   6.421   4.769
 2503SOL    HW2 8409   4.835   6.516   4.636
 2504SOL     OW 8410   1.957   4.305   3.403
 2504SOL    HW1 8411   1.956   4.205   3.397
 2504SOL    HW2 8412   1.980   4.343   3.313
 2505SOL     OW 8413   4.660   4.698   3.855
 2505SOL    HW1 8414   4.756   4.671   3.866
 2505SOL    HW2 8415   4.601   4.632   3.900
 2506SOL     OW 8416   0.280   1.978   1.019
 2506SOL    HW1 8417   0.201   1.921   0.996
 2506SOL    HW2 8418   0.248   2.061   1.065
 2507SOL     OW 8419   6.108   5.965   1.170
 2507SOL    HW1 8420   6.156   6.005   1.092
 2507SOL    HW2 8421   6.157   5.884   1.202
 2508SOL     OW 8422   2.459   2.648   1.934
 2508SOL    HW1 8423   2.537   2.630   1.994
 2508SOL    HW2 8424   2.492   2.688   1.848
 2509SOL     OW 8425   4.999   1.526   3.240
 2509SOL    HW1 8426   4.966   1.613   3.277
 2509SOL    HW2 8427   5.090   1.507   3.276
 2510SOL     OW 8428   4.047   5.876   0.908
 2510SOL    HW1 8429   3.955   5.862   0.943
 2510SOL    HW2 8430   4.091   5.787   0.893
 2511SOL     OW 8431   1.071   6.480   4.021
 2511SOL    HW1 8432   1.014   6.445   4.095
 2511SOL    HW2 8433   1.079   6.579   4.030
 2512SOL     OW 8434   5.372   3.073   4.033
 2512SOL    HW1 8435   5.367   3.161   4.080
 2512SOL    HW2 8436   5.426   3.009   4.088
 2513SOL     OW 8437   0.305   4.853   1.475
 2513SOL    HW1 8438   0.404   4.853   1.487
 2513SOL    HW2 8439   0.264   4.923   1.534
 2514SOL     OW 8440   0.960   1.322   4.083
 2514SOL    HW1 8441   1.054   1.347   4.108
 2514SOL    HW2 8442   0.951   1.324   3.983
 2515SOL     OW 8443   0.907   4.919   0.301
 2515SOL    HW1 8444   0.858   4.919   0.388
 2515SOL    HW2 8445   0.872   4.993   0.243
 2516SOL     OW 8446   5.249   6.159   4.454
 2516SOL    HW1 8447   5.160   6.202   4.444
 2516SOL    HW2 8448   5.321   6.225   4.433
 2517SOL     OW 8449   2.520   5.459   0.719
 2517SOL    HW1 8450   2.547   5.480   0.625
 2517SOL    HW2 8451   2.425   5.427   0.719
 2518SOL     OW 8452   2.573   2.580   5.964
 2518SOL    HW1 8453   2.498   2.518   5.941
 2518SOL    HW2 8454   2.547   2.638   6.041
 2519SOL     OW 8455   5.013   4.188   4.689
 2519SOL    HW1 8456   4.928   4.155   4.729
 2519SOL    HW2 8457   4.997   4.275   4.643
 2520SOL     OW 8458   2.990   5.046   2.044
 2520SOL    HW1 8459   2.914   5.072   2.105
 2520SOL    HW2 8460   3.011   4.949   2.058
 2521SOL     OW 8461   5.985   6.971   6.134
 2521SOL    HW1 8462   6.082   6.944   6.140
 2521SOL    HW2 8463   5.969   7.016   6.046
 2522SOL     OW 8464   1.012   2.975   5.052
 2522SOL    HW1 8465   0.988   3.063   5.010
 2522SOL    HW2 8466   1.102   2.981   5.094
 2523SOL     OW 8467   6.897   3.068   5.999
 2523SOL    HW1 8468   6.808   3.083   5.957
 2523SOL    HW2 8469   6.890   2.997   6.069
 2524SOL     OW 8470   0.819   0.060   4.876
 2524SOL    HW1 8471   0.871   6.999   4.861
 2524SOL    HW2 8472   0.764   0.080   4.795
 2525SOL     OW 8473   1.685   4.549   3.316
 2525SOL    HW1 8474   1.717   4.554   3.222
 2525SOL    HW2 8475   1.711   4.460   3.355
 2526SOL     OW 8476   0.515   2.224   5.507
 2526SOL    HW1 8477   0.434   2.274   5.475
 2526SOL    HW2 8478   0.589   2.289   5.526
 2527SOL     OW 8479   5.549   0.065   3.464
 2527SOL    HW1 8480   5.573   0.152   3.420
 2527SOL    HW2 8481   5.452   0.046   3.447
 2528SOL     OW 8482   5.982   5.202   0.568
 2528SOL    HW1 8483   6.034   5.274   0.522
 2528SOL    HW2 8484   5.886   5.209   0.543
 2529SOL     OW 8485   5.156   3.956   5.089
 2529SOL    HW1 8486   5.176   3.964   5.187
 2529SOL    HW2 8487   5.218   3.889   5.048
 2530SOL     OW 8488   1.182   6.692   3.756
 2530SOL    HW1 8489   1.109   6.625   3.743
 2530SOL    HW2 8490   1.223   6.714   3.668
 2531SOL     OW 8491   5.260   1.254   0.663
 2531SOL    HW1 8492   5.238   1.204   0.579
 2531SOL    HW2 8493   5.237   1.350   0.653
 2532SOL     OW 8494   1.405   4.116   5.871
 2532SOL    HW1 8495   1.494   4.153   5.844
 2532SOL    HW2 8496   1.368   4.169   5.947
 2533SOL     OW 8497   5.676   6.628   5.348
 2533SOL    HW1 8498   5.730   6.690   5.405
 2533SOL    HW2 8499   5.680   6.659   5.253
 2534SOL     OW 8500   6.715   2.336   3.574
 2534SOL    HW1 8501   6.812   2.318   3.561
 2534SOL    HW2 8502   6.672   2.356   3.486
 2535SOL     OW 8503   1.929   1.157   2.979
 2535SOL    HW1 8504   1.853   1.095   2.997
 2535SOL    HW2 8505   1.939   1.221   3.055
 2536SOL     OW 8506   6.698   0.930   3.887
 2536SOL    HW1 8507   6.650   0.909   3.972
 2536SOL    HW2 8508   6.797   0.930   3.903
 2537SOL     OW 8509   4.166   5.298   1.696
 2537SOL    HW1 8510   4.128   5.205   1.691
 2537SOL    HW2 8511   4.230   5.304   1.772
 2538SOL     OW 8512   1.417   4.299   5.109
 2538SOL    HW1 8513   1.439   4.369   5.177
 2538SOL    HW2 8514   1.395   4.343   5.022
 2539SOL     OW 8515   2.286   0.666   5.853
 2539SOL    HW1 8516   2.223   0.589   5.866
 2539SOL    HW2 8517   2.263   0.713   5.768
 2540SOL     OW 8518   5.522   2.050   2.326
 2540SOL    HW1 8519   5.470   2.124   2.283
 2540SOL    HW2 8520   5.516   2.060   2.426
 2541SOL     OW 8521   0.501   7.013   5.620
 2541SOL    HW1 8522   0.587   0.033   5.648
 2541SOL    HW2 8523   0.520   6.934   5.562
 2542SOL     OW 8524   3.607   1.534   3.786
 2542SOL    HW1 8525   3.555   1.467   3.839
 2542SOL    HW2 8526   3.617   1.618   3.840
 2543SOL     OW 8527   0.341   2.307   4.231
 2543SOL    HW1 8528   0.395   2.379   4.186
 2543SOL    HW2 8529   0.342   2.322   4.330
 2544SOL     OW 8530   6.545   6.358   2.121
 2544SOL    HW1 8531   6.574   6.415   2.044
 2544SOL    HW2 8532   6.611   6.369   2.196
 2545SOL     OW 8533   6.796   1.796   0.068
 2545SOL    HW1 8534   6.860   1.792   7.014
 2545SOL    HW2 8535   6.706   1.823   0.034
 2546SOL     OW 8536   6.554   4.168   2.599
 2546SOL    HW1 8537   6.519   4.260   2.580
 2546SOL    HW2 8538   6.503   4.102   2.543
 2547SOL     OW 8539   5.494   3.959   0.879
 2547SOL    HW1 8540   5.537   3.953   0.969
 2547SOL    HW2 8541   5.432   3.881   0.867
 2548SOL     OW 8542   6.544   6.300   5.465
 2548SOL    HW1 8543   6.534   6.371   5.534
 2548SOL    HW2 8544   6.613   6.234   5.495
 2549SOL     OW 8545   2.766   3.382   0.470
 2549SOL    HW1 8546   2.853   3.420   0.502
 2549SOL    HW2 8547   2.719   3.339   0.547
 2550SOL     OW 8548   4.261   6.174   0.099
 2550SOL    HW1 8549   4.332   6.242   0.078
 2550SOL    HW2 8550   4.173   6.220   0.109
 2551SOL     OW 8551   3.534   4.890   0.902
 2551SOL    HW1 8552   3.496   4.811   0.950
 2551SOL    HW2 8553   3.527   4.971   0.961
 2552SOL     OW 8554   2.460   5.123   1.850
 2552SOL    HW1 8555   2.376   5.170   1.877
 2552SOL    HW2 8556   2.438   5.041   1.799
 2553SOL     OW 8557   4.393   1.438   0.068
 2553SOL    HW1 8558   4.297   1.419   0.049
 2553SOL    HW2 8559   4.401   1.527   0.113
 2554SOL     OW 8560   1.347   5.736   1.558
 2554SOL    HW1 8561   1.365   5.721   1.655
 2554SOL    HW2 8562   1.282   5.668   1.526
 2555SOL     OW 8563   5.769   7.013   4.646
 2555SOL    HW1 8564   5.743   0.013   4.739
 2555SOL    HW2 8565   5.720   6.932   4.616
 2556SOL     OW 8566   3.632   6.538   0.388
 2556SOL    HW1 8567   3.621   6.482   0.306
 2556SOL    HW2 8568   3.712   6.597   0.377
 2557SOL     OW 8569   2.914   0.417   6.909
 2557SOL    HW1 8570   2.834   0.422   6.849
 2557SOL    HW2 8571   2.911   0.331   6.961
 2558SOL     OW 8572   5.113   2.870   1.581
 2558SOL    HW1 8573   5.132   2.908   1.671
 2558SOL    HW2 8574   5.060   2.786   1.591
 2559SOL     OW 8575   0.835   4.844   3.647
 2559SOL    HW1 8576   0.909   4.818   3.709
 2559SOL    HW2 8577   0.795   4.761   3.606
 2560SOL     OW 8578   4.636   2.567   3.249
 2560SOL    HW1 8579   4.688   2.518   3.179
 2560SOL    HW2 8580   4.543   2.529   3.254
 2561SOL     OW 8581   4.226   0.156   4.432
 2561SOL    HW1 8582   4.131   0.137   4.408
 2561SOL    HW2 8583   4.279   0.172   4.349
 2562SOL     OW 8584   1.942   6.779   4.512
 2562SOL    HW1 8585   1.912   6.853   4.451
 2562SOL    HW2 8586   2.029   6.742   4.480
 2563SOL     OW 8587   3.511   2.688   6.452
 2563SOL    HW1 8588   3.560   2.641   6.378
 2563SOL    HW2 8589   3.562   2.677   6.537
 2564SOL     OW 8590   1.381   1.755   0.009
 2564SOL    HW1 8591   1.438   1.737   6.952
 2564SOL    HW2 8592   1.327   1.838   7.016
 2565SOL     OW 8593   1.164   1.549   0.381
 2565SOL    HW1 8594   1.240   1.562   0.317
 2565SOL    HW2 8595   1.173   1.461   0.426
 2566SOL     OW 8596   2.983   0.806   1.539
 2566SOL    HW1 8597   2.914   0.854   1.486
 2566SOL    HW2 8598   2.940   0.762   1.618
 2567SOL     OW 8599   1.883   1.033   6.932
 2567SOL    HW1 8600   1.891   0.999   6.839
 2567SOL    HW2 8601   1.821   1.112   6.933
 2568SOL     OW 8602   2.330   5.844   0.734
 2568SOL    HW1 8603   2.284   5.756   0.742
 2568SOL    HW2 8604   2.262   5.915   0.711
 2569SOL     OW 8605   2.113   0.149   1.133
 2569SOL    HW1 8606   2.061   0.145   1.047
 2569SOL    HW2 8607   2.054   0.124   1.209
 2570SOL     OW 8608   0.420   6.114   4.820
 2570SOL    HW1 8609   0.440   6.203   4.860
 2570SOL    HW2 8610   0.395   6.050   4.893
 2571SOL     OW 8611   3.260   3.680   4.092
 2571SOL    HW1 8612   3.163   3.668   4.072
 2571SOL    HW2 8613   3.276   3.670   4.191
 2572SOL     OW 8614   1.531   5.049   2.451
 2572SOL    HW1 8615   1.629   5.029   2.444
 2572SOL    HW2 8616   1.483   5.007   2.375
 2573SOL     OW 8617   0.235   2.038   4.186
 2573SOL    HW1 8618   0.266   2.129   4.211
 2573SOL    HW2 8619   0.298   1.970   4.223
 2574SOL     OW 8620   0.711   3.983   1.983
 2574SOL    HW1 8621   0.676   4.066   1.941
 2574SOL    HW2 8622   0.636   3.917   1.994
 2575SOL     OW 8623   5.757   3.440   6.142
 2575SOL    HW1 8624   5.776   3.480   6.231
 2575SOL    HW2 8625   5.746   3.513   6.074
 2576SOL     OW 8626   1.808   0.108   3.604
 2576SOL    HW1 8627   1.806   0.112   3.704
 2576SOL    HW2 8628   1.862   0.185   3.569
 2577SOL     OW 8629   2.314   5.855   1.768
 2577SOL    HW1 8630   2.318   5.942   1.720
 2577SOL    HW2 8631   2.223   5.814   1.755
 2578SOL     OW 8632   4.491   2.568   4.047
 2578SOL    HW1 8633   4.460   2.566   3.952
 2578SOL    HW2 8634   4.416   2.598   4.106
 2579SOL     OW 8635   6.643   1.441   6.199
 2579SOL    HW1 8636   6.666   1.424   6.295
 2579SOL    HW2 8637   6.560   1.497   6.193
 2580SOL     OW 8638   1.523   1.623   5.978
 2580SOL    HW1 8639   1.464   1.700   6.004
 2580SOL    HW2 8640   1.598   1.656   5.921
 2581SOL     OW 8641   6.255   0.109   4.732
 2581SOL    HW1 8642   6.264   0.164   4.815
 2581SOL    HW2 8643   6.232   0.014   4.757
 2582SOL     OW 8644   0.311   5.238   2.866
 2582SOL    HW1 8645   0.331   5.142   2.885
 2582SOL    HW2 8646   0.392   5.293   2.884
 2583SOL     OW 8647   1.943   1.247   6.611
 2583SOL    HW1 8648   1.933   1.157   6.654
 2583SOL    HW2 8649   2.021   1.246   6.549
 2584SOL     OW 8650   5.298   6.903   2.433
 2584SOL    HW1 8651   5.348   6.989   2.429
 2584SOL    HW2 8652   5.359   6.827   2.409
 2585SOL     OW 8653   4.218   1.353   1.406
 2585SOL    HW1 8654   4.155   1.379   1.479
 2585SOL    HW2 8655   4.239   1.433   1.350
 2586SOL     OW 8656   6.826   1.918   4.608
 2586SOL    HW1 8657   6.875   1.898   4.524
 2586SOL    HW2 8658   6.757   1.988   4.591
 2587SOL     OW 8659   6.672   6.551   2.467
 2587SOL    HW1 8660   6.576   6.545   2.494
 2587SOL    HW2 8661   6.704   6.462   2.436
 2588SOL     OW 8662   5.098   0.817   1.662
 2588SOL    HW1 8663   5.033   0.759   1.710
 2588SOL    HW2 8664   5.072   0.825   1.566
 2589SOL     OW 8665   5.769   6.307   0.374
 2589SOL    HW1 8666   5.853   6.271   0.333
 2589SOL    HW2 8667   5.695   6.242   0.360
 2590SOL     OW 8668   4.154   6.791   2.780
 2590SOL    HW1 8669   4.249   6.819   2.761
 2590SOL    HW2 8670   4.155   6.718   2.849
 2591SOL     OW 8671   5.683   0.304   1.723
 2591SOL    HW1 8672   5.705   0.312   1.626
 2591SOL    HW2 8673   5.584   0.303   1.735
 2592SOL     OW 8674   3.466   5.104   1.630
 2592SOL    HW1 8675   3.452   5.044   1.709
 2592SOL    HW2 8676   3.399   5.178   1.632
 2593SOL     OW 8677   3.167   6.701   2.643
 2593SOL    HW1 8678   3.241   6.667   2.586
 2593SOL    HW2 8679   3.176   6.664   2.736
 2594SOL     OW 8680   1.218   6.483   5.972
 2594SOL    HW1 8681   1.148   6.497   6.042
 2594SOL    HW2 8682   1.194   6.405   5.916
 2595SOL     OW 8683   6.261   3.402   4.114
 2595SOL    HW1 8684   6.192   3.460   4.158
 2595SOL    HW2 8685   6.348   3.451   4.110
 2596SOL     OW 8686   4.462   2.135   1.808
 2596SOL    HW1 8687   4.397   2.211   1.798
 2596SOL    HW2 8688   4.449   2.090   1.896
 2597SOL     OW 8689   1.869   2.567   6.683
 2597SOL    HW1 8690   1.955   2.516   6.689
 2597SOL    HW2 8691   1.847   2.605   6.773
 2598SOL     OW 8692   5.899   2.430   2.682
 2598SOL    HW1 8693   5.985   2.379   2.679
 2598SOL    HW2 8694   5.845   2.410   2.601
 2599SOL     OW 8695   4.439   4.121   6.713
 2599SOL    HW1 8696   4.478   4.157   6.628
 2599SOL    HW2 8697   4.341   4.142   6.716
 2600SOL     OW 8698   6.685   3.394   3.357
 2600SOL    HW1 8699   6.736   3.330   3.414
 2600SOL    HW2 8700   6.587   3.382   3.373
 2601SOL     OW 8701   3.490   3.163   5.606
 2601SOL    HW1 8702   3.547   3.092   5.648
 2601SOL    HW2 8703   3.548   3.239   5.576
 2602SOL     OW 8704   5.669   5.990   5.580
 2602SOL    HW1 8705   5.634   6.040   5.501
 2602SOL    HW2 8706   5.734   5.920   5.550
 2603SOL     OW 8707   2.368   2.673   0.089
 2603SOL    HW1 8708   2.341   2.754   0.038
 2603SOL    HW2 8709   2.299   2.602   0.077
 2604SOL     OW 8710   5.775   1.200   1.146
 2604SOL    HW1 8711   5.775   1.101   1.157
 2604SOL    HW2 8712   5.865   1.236   1.169
 2605SOL     OW 8713   4.978   4.156   3.688
 2605SOL    HW1 8714   4.900   4.143   3.748
 2605SOL    HW2 8715   5.057   4.109   3.725
 2606SOL     OW 8716   0.212   4.413   1.143
 2606SOL    HW1 8717   0.230   4.502   1.100
 2606SOL    HW2 8718   0.146   4.426   1.218
 2607SOL     OW 8719   0.406   2.084   4.969
 2607SOL    HW1 8720   0.397   2.161   5.032
 2607SOL    HW2 8721   0.498   2.083   4.930
 2608SOL     OW 8722   5.020   0.352   0.611
 2608SOL    HW1 8723   5.064   0.356   0.701
 2608SOL    HW2 8724   5.084   0.385   0.542
 2609SOL     OW 8725   0.467   2.576   4.135
 2609SOL    HW1 8726   0.393   2.600   4.198
 2609SOL    HW2 8727   0.427   2.539   4.051
 2610SOL     OW 8728   5.797   6.076   4.746
 2610SOL    HW1 8729   5.712   6.126   4.756
 2610SOL    HW2 8730   5.780   5.978   4.761
 2611SOL     OW 8731   2.782   6.464   1.863
 2611SOL    HW1 8732   2.825   6.547   1.898
 2611SOL    HW2 8733   2.726   6.422   1.934
 2612SOL     OW 8734   6.222   6.739   4.588
 2612SOL    HW1 8735   6.207   6.798   4.667
 2612SOL    HW2 8736   6.133   6.710   4.551
 2613SOL     OW 8737   3.896   1.134   1.043
 2613SOL    HW1 8738   3.970   1.081   1.084
 2613SOL    HW2 8739   3.844   1.075   0.980
 2614SOL     OW 8740   0.150   5.970   6.370
 2614SOL    HW1 8741   0.141   6.005   6.463
 2614SOL    HW2 8742   0.119   6.039   6.305
 2615SOL     OW 8743   5.485   5.198   1.842
 2615SOL    HW1 8744   5.493   5.167   1.937
 2615SOL    HW2 8745   5.543   5.142   1.784
 2616SOL     OW 8746   4.142   3.469   2.572
 2616SOL    HW1 8747   4.071   3.529   2.534
 2616SOL    HW2 8748   4.136   3.379   2.529
 2617SOL     OW 8749   3.551   0.326   1.586
 2617SOL    HW1 8750   3.579   0.410   1.539
 2617SOL    HW2 8751   3.527   0.347   1.680
 2618SOL     OW 8752   0.997   0.433   0.614
 2618SOL    HW1 8753   1.094   0.412   0.630
 2618SOL    HW2 8754   0.978   0.427   0.516
 2619SOL     OW 8755   5.723   1.469   1.307
 2619SOL    HW1 8756   5.660   1.527   1.255
 2619SOL    HW2 8757   5.754   1.394   1.249
 2620SOL     OW 8758   1.680   4.478   4.759
 2620SOL    HW1 8759   1.772   4.513   4.776
 2620SOL    HW2 8760   1.666   4.467   4.661
 2621SOL     OW 8761   1.360   4.094   4.089
 2621SOL    HW1 8762   1.321   4.153   4.159
 2621SOL    HW2 8763   1.381   4.149   4.008
 2622SOL     OW 8764   2.541   3.195   6.133
 2622SOL    HW1 8765   2.631   3.233   6.108
 2622SOL    HW2 8766   2.531   3.104   6.093
 2623SOL     OW 8767   3.153   0.962   6.256
 2623SOL    HW1 8768   3.135   0.863   6.259
 2623SOL    HW2 8769   3.098   1.007   6.326
 2624SOL     OW 8770   6.602   2.399   4.237
 2624SOL    HW1 8771   6.666   2.366   4.168
 2624SOL    HW2 8772   6.562   2.321   4.286
 2625SOL     OW 8773   4.955   0.716   5.139
 2625SOL    HW1 8774   4.864   0.674   5.132
 2625SOL    HW2 8775   4.996   0.691   5.227
 2626SOL     OW 8776   2.420   7.022   2.142
 2626SOL    HW1 8777   2.483   6.984   2.209
 2626SOL    HW2 8778   2.366   0.072   2.185
 2627SOL     OW 8779   0.181   0.562   4.566
 2627SOL    HW1 8780   0.111   0.566   4.637
 2627SOL    HW2 8781   0.239   0.643   4.572
 2628SOL     OW 8782   3.283   5.833   5.581
 2628SOL    HW1 8783   3.265   5.809   5.486
 2628SOL    HW2 8784   3.341   5.763   5.623
 2629SOL     OW 8785   3.128   4.167   1.278
 2629SOL    HW1 8786   3.043   4.213   1.305
 2629SOL    HW2 8787   3.191   4.165   1.355
 2630SOL     OW 8788   2.788   2.235   2.339
 2630SOL    HW1 8789   2.869   2.263   2.287
 2630SOL    HW2 8790   2.798   2.266   2.434
 2631SOL     OW 8791   4.472   6.846   4.510
 2631SOL    HW1 8792   4.493   6.760   4.464
 2631SOL    HW2 8793   4.415   6.903   4.450
 2632SOL     OW 8794   5.637   1.672   0.862
 2632SOL    HW1 8795   5.549   1.624   0.849
 2632SOL    HW2 8796   5.705   1.632   0.801
 2633SOL     OW 8797   6.928   2.977   6.409
 2633SOL    HW1 8798   6.831   2.996   6.426
 2633SOL    HW2 8799   6.966   3.049   6.352
 2634SOL     OW 8800   2.851   5.334   1.323
 2634SOL    HW1 8801   2.757   5.298   1.326
 2634SOL    HW2 8802   2.914   5.263   1.353
 2635SOL     OW 8803   5.437   4.482   3.506
 2635SOL    HW1 8804   5.437   4.581   3.512
 2635SOL    HW2 8805   5.345   4.450   3.482
 2636SOL     OW 8806   5.924   0.520   4.926
 2636SOL    HW1 8807   6.023   0.532   4.934
 2636SOL    HW2 8808   5.879   0.551   5.010
 2637SOL     OW 8809   4.904   6.706   2.643
 2637SOL    HW1 8810   4.963   6.783   2.669
 2637SOL    HW2 8811   4.809   6.736   2.642
 2638SOL     OW 8812   5.786   5.661   1.201
 2638SOL    HW1 8813   5.773   5.760   1.207
 2638SOL    HW2 8814   5.804   5.624   1.293
 2639SOL     OW 8815   6.617   6.717   0.243
 2639SOL    HW1 8816   6.617   6.809   0.203
 2639SOL    HW2 8817   6.568   6.655   0.181
 2640SOL     OW 8818   6.496   6.955   6.399
 2640SOL    HW1 8819   6.416   6.965   6.340
 2640SOL    HW2 8820   6.494   0.003   6.469
 2641SOL     OW 8821   5.742   5.108   0.346
 2641SOL    HW1 8822   5.825   5.065   0.313
 2641SOL    HW2 8823   5.699   5.052   0.416
 2642SOL     OW 8824   6.554   0.093   3.623
 2642SOL    HW1 8825   6.615   0.045   3.560
 2642SOL    HW2 8826   6.588   0.186   3.640
 2643SOL     OW 8827   0.997   0.369   2.670
 2643SOL    HW1 8828   0.915   0.315   2.651
 2643SOL    HW2 8829   1.078   0.311   2.662
 2644SOL     OW 8830   0.634   5.294   6.142
 2644SOL    HW1 8831   0.582   5.209   6.152
 2644SOL    HW2 8832   0.600   5.361   6.208
 2645SOL     OW 8833   5.999   5.402   5.625
 2645SOL    HW1 8834   6.008   5.354   5.538
 2645SOL    HW2 8835   6.006   5.336   5.700
 2646SOL     OW 8836   6.621   6.127   6.879
 2646SOL    HW1 8837   6.697   6.104   6.941
 2646SOL    HW2 8838   6.586   6.043   6.837
 2647SOL     OW 8839   3.592   2.524   0.716
 2647SOL    HW1 8840   3.623   2.531   0.811
 2647SOL    HW2 8841   3.654   2.464   0.665
 2648SOL     OW 8842   3.054   0.784   2.563
 2648SOL    HW1 8843   3.097   0.874   2.567
 2648SOL    HW2 8844   2.958   0.792   2.592
 2649SOL     OW 8845   3.535   2.447   5.625
 2649SOL    HW1 8846   3.499   2.523   5.571
 2649SOL    HW2 8847   3.602   2.482   5.690
 2650SOL     OW 8848   0.274   6.214   1.882
 2650SOL    HW1 8849   0.342   6.189   1.814
 2650SOL    HW2 8850   0.308   6.193   1.973
 2651SOL     OW 8851   0.891   0.279   3.640
 2651SOL    HW1 8852   0.805   0.281   3.691
 2651SOL    HW2 8853   0.876   0.315   3.548
 2652SOL     OW 8854   3.133   3.553   2.394
 2652SOL    HW1 8855   3.174   3.563   2.304
 2652SOL    HW2 8856   3.194   3.593   2.463
 2653SOL     OW 8857   6.813   5.709   6.235
 2653SOL    HW1 8858   6.744   5.682   6.302
 2653SOL    HW2 8859   6.901   5.721   6.280
 2654SOL     OW 8860   5.624   2.333   6.140
 2654SOL    HW1 8861   5.563   2.284   6.203
 2654SOL    HW2 8862   5.695   2.270   6.108
 2655SOL     OW 8863   5.229   5.842   4.869
 2655SOL    HW1 8864   5.237   5.885   4.778
 2655SOL    HW2 8865   5.169   5.898   4.926
 2656SOL     OW 8866   5.588   3.682   3.822
 2656SOL    HW1 8867   5.654   3.708   3.893
 2656SOL    HW2 8868   5.620   3.715   3.734
 2657SOL     OW 8869   2.382   2.409   5.776
 2657SOL    HW1 8870   2.440   2.328   5.780
 2657SOL    HW2 8871   2.366   2.434   5.681
 2658SOL     OW 8872   5.840   4.509   5.833
 2658SOL    HW1 8873   5.790   4.433   5.791
 2658SOL    HW2 8874   5.929   4.520   5.788
 2659SOL     OW 8875   6.629   2.396   3.105
 2659SOL    HW1 8876   6.554   2.392   3.039
 2659SOL    HW2 8877   6.714   2.417   3.057
 2660SOL     OW 8878   6.475   2.087   3.515
 2660SOL    HW1 8879   6.510   2.105   3.424
 2660SOL    HW2 8880   6.382   2.123   3.523
 2661SOL     OW 8881   4.704   5.947   1.475
 2661SOL    HW1 8882   4.736   6.006   1.400
 2661SOL    HW2 8883   4.639   5.998   1.532
 2662SOL     OW 8884   3.457   7.022   3.888
 2662SOL    HW1 8885   3.438   0.074   3.952
 2662SOL    HW2 8886   3.556   7.004   3.886
 2663SOL     OW 8887   0.768   4.542   2.760
 2663SOL    HW1 8888   0.841   4.543   2.692
 2663SOL    HW2 8889   0.808   4.540   2.852
 2664SOL     OW 8890   4.198   3.619   1.807
 2664SOL    HW1 8891   4.173   3.646   1.899
 2664SOL    HW2 8892   4.266   3.682   1.769
 2665SOL     OW 8893   3.919   0.809   4.365
 2665SOL    HW1 8894   3.866   0.888   4.335
 2665SOL    HW2 8895   3.894   0.787   4.460
 2666SOL     OW 8896   5.520   6.142   1.562
 2666SOL    HW1 8897   5.421   6.158   1.565
 2666SOL    HW2 8898   5.554   6.129   1.655
 2667SOL     OW 8899   1.381   5.125   4.011
 2667SOL    HW1 8900   1.390   5.151   3.915
 2667SOL    HW2 8901   1.472   5.121   4.053
 2668SOL     OW 8902   0.154   2.365   5.987
 2668SOL    HW1 8903   0.121   2.408   6.071
 2668SOL    HW2 8904   0.204   2.432   5.933
 2669SOL     OW 8905   4.276   4.996   5.759
 2669SOL    HW1 8906   4.320   4.918   5.803
 2669SOL    HW2 8907   4.224   4.965   5.679
 2670SOL     OW 8908   1.359   0.346   6.614
 2670SOL    HW1 8909   1.381   0.311   6.523
 2670SOL    HW2 8910   1.435   0.402   6.648
 2671SOL     OW 8911   3.105   3.569   5.631
 2671SOL    HW1 8912   3.175   3.499   5.632
 2671SOL    HW2 8913   3.068   3.583   5.723
 2672SOL     OW 8914   0.354   4.306   0.577
 2672SOL    HW1 8915   0.422   4.268   0.515
 2672SOL    HW2 8916   0.386   4.395   0.611
 2673SOL     OW 8917   4.671   2.124   3.532
 2673SOL    HW1 8918   4.694   2.221   3.524
 2673SOL    HW2 8919   4.576   2.115   3.561
 2674SOL     OW 8920   5.059   5.496   5.496
 2674SOL    HW1 8921   5.066   5.566   5.424
 2674SOL    HW2 8922   5.121   5.520   5.571
 2675SOL     OW 8923   0.349   3.730   5.705
 2675SOL    HW1 8924   0.261   3.684   5.710
 2675SOL    HW2 8925   0.342   3.810   5.645
 2676SOL     OW 8926   4.250   0.330   2.178
 2676SOL    HW1 8927   4.179   0.339   2.108
 2676SOL    HW2 8928   4.274   0.233   2.189
 2677SOL     OW 8929   2.507   4.764   2.419
 2677SOL    HW1 8930   2.533   4.857   2.446
 2677SOL    HW2 8931   2.491   4.760   2.321
 2678SOL     OW 8932   0.371   5.302   6.293
 2678SOL    HW1 8933   0.345   5.285   6.198
 2678SOL    HW2 8934   0.394   5.215   6.337
 2679SOL     OW 8935   2.537   4.433   0.964
 2679SOL    HW1 8936   2.498   4.445   1.055
 2679SOL    HW2 8937   2.472   4.464   0.896
 2680SOL     OW 8938   1.034   2.133   1.581
 2680SOL    HW1 8939   1.074   2.086   1.660
 2680SOL    HW2 8940   1.038   2.073   1.501
 2681SOL     OW 8941   1.269   1.586   2.630
 2681SOL    HW1 8942   1.234   1.498   2.597
 2681SOL    HW2 8943   1.234   1.660   2.573
 2682SOL     OW 8944   6.423   2.596   3.384
 2682SOL    HW1 8945   6.515   2.558   3.384
 2682SOL    HW2 8946   6.417   2.670   3.317
 2683SOL     OW 8947   1.382   0.337   1.438
 2683SOL    HW1 8948   1.374   0.423   1.387
 2683SOL    HW2 8949   1.344   0.348   1.530
 2684SOL     OW 8950   2.611   6.064   3.118
 2684SOL    HW1 8951   2.525   6.110   3.095
 2684SOL    HW2 8952   2.593   5.988   3.180
 2685SOL     OW 8953   5.296   5.929   5.222
 2685SOL    HW1 8954   5.224   5.878   5.270
 2685SOL    HW2 8955   5.262   6.019   5.196
 2686SOL     OW 8956   1.401   2.822   4.251
 2686SOL    HW1 8957   1.354   2.776   4.327
 2686SOL    HW2 8958   1.333   2.865   4.191
 2687SOL     OW 8959   5.063   5.530   3.085
 2687SOL    HW1 8960   5.052   5.434   3.110
 2687SOL    HW2 8961   4.978   5.563   3.043
 2688SOL     OW 8962   3.855   4.891   6.190
 2688SOL    HW1 8963   3.788   4.821   6.166
 2688SOL    HW2 8964   3.883   4.880   6.285
 2689SOL     OW 8965   6.701   3.061   4.289
 2689SOL    HW1 8966   6.661   3.071   4.197
 2689SOL    HW2 8967   6.716   2.964   4.308
 2690SOL     OW 8968   3.232   3.619   3.583
 2690SOL    HW1 8969   3.171   3.627   3.503
 2690SOL    HW2 8970   3.181   3.583   3.660
 2691SOL     OW 8971   0.946   6.203   1.601
 2691SOL    HW1 8972   1.006   6.203   1.681
 2691SOL    HW2 8973   1.001   6.206   1.518
 2692SOL     OW 8974   6.959   5.968   3.188
 2692SOL    HW1 8975   6.944   5.957   3.090
 2692SOL    HW2 8976   6.948   6.065   3.213
 2693SOL     OW 8977   1.889   3.822   3.263
 2693SOL    HW1 8978   1.881   3.725   3.288
 2693SOL    HW2 8979   1.985   3.844   3.243
 2694SOL     OW 8980   2.645   0.164   3.375
 2694SOL    HW1 8981   2.658   0.133   3.470
 2694SOL    HW2 8982   2.729   0.145   3.323
 2695SOL     OW 8983   3.664   2.119   2.760
 2695SOL    HW1 8984   3.573   2.153   2.739
 2695SOL    HW2 8985   3.719   2.114   2.676
 2696SOL     OW 8986   3.890   3.955   5.470
 2696SOL    HW1 8987   3.826   3.924   5.399
 2696SOL    HW2 8988   3.839   3.991   5.548
 2697SOL     OW 8989   2.306   2.458   4.649
 2697SOL    HW1 8990   2.293   2.547   4.606
 2697SOL    HW2 8991   2.262   2.458   4.739
 2698SOL     OW 8992   2.164   3.458   6.924
 2698SOL    HW1 8993   2.139   3.554   6.935
 2698SOL    HW2 8994   2.234   3.433   6.990
 2699SOL     OW 8995   3.771   5.662   1.656
 2699SOL    HW1 8996   3.754   5.713   1.572
 2699SOL    HW2 8997   3.685   5.624   1.690
 2700SOL     OW 8998   1.971   3.567   3.077
 2700SOL    HW1 8999   2.000   3.499   3.009
 2700SOL    HW2 9000   1.884   3.607   3.048
 2701SOL     OW 9001   3.001   6.758   6.173
 2701SOL    HW1 9002   2.995   6.723   6.266
 2701SOL    HW2 9003   3.049   6.691   6.115
 2702SOL     OW 9004   0.246   0.137   2.863
 2702SOL    HW1 9005   0.182   0.080   2.811
 2702SOL    HW2 9006   0.280   0.086   2.941
 2703SOL     OW 9007   1.806   1.459   2.823
 2703SOL    HW1 9008   1.774   1.365   2.811
 2703SOL    HW2 9009   1.732   1.522   2.803
 2704SOL     OW 9010   1.930   5.581   0.541
 2704SOL    HW1 9011   1.847   5.533   0.571
 2704SOL    HW2 9012   1.911   5.632   0.457
 2705SOL     OW 9013   0.478   4.988   2.895
 2705SOL    HW1 9014   0.543   4.954   2.827
 2705SOL    HW2 9015   0.493   4.941   2.982
 2706SOL     OW 9016   0.050   1.887   1.934
 2706SOL    HW1 9017   0.051   1.987   1.926
 2706SOL    HW2 9018   6.996   1.850   1.882
 2707SOL     OW 9019   2.091   1.443   5.647
 2707SOL    HW1 9020   2.047   1.531   5.631
 2707SOL    HW2 9021   2.179   1.458   5.692
 2708SOL     OW 9022   1.851   2.667   1.019
 2708SOL    HW1 9023   1.851   2.579   0.972
 2708SOL    HW2 9024   1.944   2.703   1.022
 2709SOL     OW 9025   4.571   6.611   1.424
 2709SOL    HW1 9026   4.504   6.686   1.423
 2709SOL    HW2 9027   4.561   6.557   1.341
 2710SOL     OW 9028   5.391   3.933   2.453
 2710SOL    HW1 9029   5.312   3.884   2.488
 2710SOL    HW2 9030   5.431   3.883   2.376
 2711SOL     OW 9031   1.276   0.310   1.690
 2711SOL    HW1 9032   1.331   0.281   1.768
 2711SOL    HW2 9033   1.187   0.266   1.694
 2712SOL     OW 9034   3.134   4.610   0.623
 2712SOL    HW1 9035   3.159   4.686   0.682
 2712SOL    HW2 9036   3.161   4.523   0.665
 2713SOL     OW 9037   2.183   3.039   4.874
 2713SOL    HW1 9038   2.257   3.017   4.936
 2713SOL    HW2 9039   2.195   2.988   4.788
 2714SOL     OW 9040   5.177   0.155   5.467
 2714SOL    HW1 9041   5.079   0.155   5.448
 2714SOL    HW2 9042   5.226   0.114   5.390
 2715SOL     OW 9043   6.834   0.730   0.211
 2715SOL    HW1 9044   6.768   0.773   0.274
 2715SOL    HW2 9045   6.788   0.659   0.158
 2716SOL     OW 9046   0.338   6.779   2.600
 2716SOL    HW1 9047   0.401   6.795   2.676
 2716SOL    HW2 9048   0.350   6.849   2.530
 2717SOL     OW 9049   1.435   0.436   2.881
 2717SOL    HW1 9050   1.420   0.451   2.783
 2717SOL    HW2 9051   1.372   0.493   2.933
 2718SOL     OW 9052   1.601   4.610   3.580
 2718SOL    HW1 9053   1.682   4.552   3.591
 2718SOL    HW2 9054   1.596   4.642   3.485
 2719SOL     OW 9055   4.093   5.088   1.835
 2719SOL    HW1 9056   4.022   5.140   1.883
 2719SOL    HW2 9057   4.050   5.017   1.779
 2720SOL     OW 9058   1.093   5.743   4.367
 2720SOL    HW1 9059   1.109   5.716   4.272
 2720SOL    HW2 9060   1.003   5.785   4.375
 2721SOL     OW 9061   4.643   0.314   4.231
 2721SOL    HW1 9062   4.721   0.372   4.254
 2721SOL    HW2 9063   4.596   0.287   4.315
 2722SOL     OW 9064   1.644   5.718   1.636
 2722SOL    HW1 9065   1.668   5.743   1.730
 2722SOL    HW2 9066   1.552   5.752   1.616
 2723SOL     OW 9067   1.051   1.403   5.050
 2723SOL    HW1 9068   1.028   1.310   5.079
 2723SOL    HW2 9069   0.969   1.459   5.053
 2724SOL     OW 9070   3.363   5.420   6.344
 2724SOL    HW1 9071   3.408   5.436   6.256
 2724SOL    HW2 9072   3.264   5.411   6.330
 2725SOL     OW 9073   3.233   5.151   3.153
 2725SOL    HW1 9074   3.282   5.080   3.204
 2725SOL    HW2 9075   3.135   5.143   3.170
 2726SOL     OW 9076   4.936   5.807   1.952
 2726SOL    HW1 9077   4.839   5.810   1.925
 2726SOL    HW2 9078   4.993   5.820   1.871
 2727SOL     OW 9079   2.242   5.251   3.131
 2727SOL    HW1 9080   2.196   5.330   3.088
 2727SOL    HW2 9081   2.263   5.273   3.226
 2728SOL     OW 9082   3.388   0.353   5.979
 2728SOL    HW1 9083   3.442   0.401   5.910
 2728SOL    HW2 9084   3.438   0.274   6.012
 2729SOL     OW 9085   6.194   5.117   2.812
 2729SOL    HW1 9086   6.218   5.163   2.897
 2729SOL    HW2 9087   6.200   5.182   2.736
 2730SOL     OW 9088   1.889   4.706   1.230
 2730SOL    HW1 9089   1.818   4.659   1.177
 2730SOL    HW2 9090   1.916   4.650   1.308
 2731SOL     OW 9091   2.985   3.785   1.605
 2731SOL    HW1 9092   2.982   3.703   1.661
 2731SOL    HW2 9093   3.017   3.862   1.660
 2732SOL     OW 9094   5.616   2.101   3.047
 2732SOL    HW1 9095   5.619   2.129   3.142
 2732SOL    HW2 9096   5.600   2.003   3.041
 2733SOL     OW 9097   1.519   0.589   5.653
 2733SOL    HW1 9098   1.589   0.644   5.697
 2733SOL    HW2 9099   1.457   0.550   5.722
 2734SOL     OW 9100   2.488   6.008   4.103
 2734SOL    HW1 9101   2.448   5.924   4.064
 2734SOL    HW2 9102   2.543   6.053   4.033
 2735SOL     OW 9103   1.859   4.332   2.213
 2735SOL    HW1 9104   1.938   4.392   2.201
 2735SOL    HW2 9105   1.884   4.239   2.188
 2736SOL     OW 9106   4.273   0.248   5.711
 2736SOL    HW1 9107   4.298   0.265   5.615
 2736SOL    HW2 9108   4.342   0.290   5.770
 2737SOL     OW 9109   4.341   3.344   6.058
 2737SOL    HW1 9110   4.378   3.297   5.978
 2737SOL    HW2 9111   4.286   3.423   6.028
 2738SOL     OW 9112   5.538   4.926   3.916
 2738SOL    HW1 9113   5.598   4.908   3.838
 2738SOL    HW2 9114   5.462   4.861   3.915
 2739SOL     OW 9115   6.097   3.455   1.123
 2739SOL    HW1 9116   6.033   3.380   1.140
 2739SOL    HW2 9117   6.119   3.499   1.210
 2740SOL     OW 9118   6.093   2.258   2.673
 2740SOL    HW1 9119   6.144   2.259   2.759
 2740SOL    HW2 9120   6.156   2.239   2.598
 2741SOL     OW 9121   1.012   2.600   6.159
 2741SOL    HW1 9122   0.970   2.520   6.203
 2741SOL    HW2 9123   1.098   2.622   6.204
 2742SOL     OW 9124   1.952   6.497   6.053
 2742SOL    HW1 9125   1.975   6.439   6.131
 2742SOL    HW2 9126   1.975   6.592   6.075
 2743SOL     OW 9127   5.122   4.800   0.751
 2743SOL    HW1 9128   5.166   4.883   0.787
 2743SOL    HW2 9129   5.192   4.734   0.725
 2744SOL     OW 9130   3.820   1.255   6.544
 2744SOL    HW1 9131   3.723   1.247   6.521
 2744SOL    HW2 9132   3.830   1.265   6.643
 2745SOL     OW 9133   2.063   5.928   1.042
 2745SOL    HW1 9134   2.161   5.912   1.036
 2745SOL    HW2 9135   2.044   5.999   1.110
 2746SOL     OW 9136   1.421   1.960   6.358
 2746SOL    HW1 9137   1.332   1.996   6.330
 2746SOL    HW2 9138   1.441   1.990   6.451
 2747SOL     OW 9139   5.330   5.624   3.973
 2747SOL    HW1 9140   5.378   5.711   3.985
 2747SOL    HW2 9141   5.349   5.588   3.882
 2748SOL     OW 9142   4.155   1.648   4.185
 2748SOL    HW1 9143   4.148   1.549   4.191
 2748SOL    HW2 9144   4.149   1.687   4.277
 2749SOL     OW 9145   4.460   5.314   4.335
 2749SOL    HW1 9146   4.426   5.406   4.353
 2749SOL    HW2 9147   4.460   5.297   4.237
 2750SOL     OW 9148   0.911   5.939   1.820
 2750SOL    HW1 9149   0.857   5.916   1.738
 2750SOL    HW2 9150   1.008   5.936   1.797
 2751SOL     OW 9151   1.026   6.692   6.878
 2751SOL    HW1 9152   1.028   6.781   6.924
 2751SOL    HW2 9153   1.102   6.636   6.910
 2752SOL     OW 9154   6.073   6.179   5.485
 2752SOL    HW1 9155   6.076   6.089   5.530
 2752SOL    HW2 9156   6.052   6.249   5.552
 2753SOL     OW 9157   2.713   5.734   5.075
 2753SOL    HW1 9158   2.716   5.827   5.038
 2753SOL    HW2 9159   2.654   5.733   5.156
 2754SOL     OW 9160   1.043   6.346   4.558
 2754SOL    HW1 9161   0.948   6.377   4.555
 2754SOL    HW2 9162   1.045   6.246   4.561
 2755SOL     OW 9163   3.911   6.170   2.248
 2755SOL    HW1 9164   3.880   6.171   2.343
 2755SOL    HW2 9165   3.928   6.075   2.220
 2756SOL     OW 9166   0.471   2.701   5.403
 2756SOL    HW1 9167   0.424   2.613   5.391
 2756SOL    HW2 9168   0.570   2.686   5.400
 2757SOL     OW 9169   4.040   3.189   6.830
 2757SOL    HW1 9170   4.130   3.187   6.786
 2757SOL    HW2 9171   4.052   3.175   6.929
 2758SOL     OW 9172   0.067   6.398   1.837
 2758SOL    HW1 9173   0.124   6.319   1.860
 2758SOL    HW2 9174   0.102   6.479   1.882
 2759SOL     OW 9175   3.443   3.357   6.023
 2759SOL    HW1 9176   3.502   3.397   5.953
 2759SOL    HW2 9177   3.412   3.266   5.994
 2760SOL     OW 9178   5.782   6.110   2.879
 2760SOL    HW1 9179   5.694   6.104   2.926
 2760SOL    HW2 9180   5.795   6.203   2.843
 2761SOL     OW 9181   1.021   2.744   3.597
 2761SOL    HW1 9182   1.112   2.783   3.585
 2761SOL    HW2 9183   0.952   2.817   3.598
 2762SOL     OW 9184   2.906   2.303   0.487
 2762SOL    HW1 9185   2.901   2.277   0.583
 2762SOL    HW2 9186   2.814   2.314   0.450
 2763SOL     OW 9187   6.519   1.928   4.215
 2763SOL    HW1 9188   6.534   1.830   4.229
 2763SOL    HW2 9189   6.603   1.970   4.181
 2764SOL     OW 9190   0.480   2.874   2.568
 2764SOL    HW1 9191   0.478   2.972   2.588
 2764SOL    HW2 9192   0.541   2.857   2.491
 2765SOL     OW 9193   6.506   6.680   6.283
 2765SOL    HW1 9194   6.417   6.634   6.288
 2765SOL    HW2 9195   6.501   6.767   6.332
 2766SOL     OW 9196   4.632   6.956   0.293
 2766SOL    HW1 9197   4.729   6.981   0.295
 2766SOL    HW2 9198   4.590   6.980   0.380
 2767SOL     OW 9199   0.436   5.105   6.479
 2767SOL    HW1 9200   0.502   5.061   6.417
 2767SOL    HW2 9201   0.386   5.034   6.529
 2768SOL     OW 9202   3.894   6.621   1.606
 2768SOL    HW1 9203   3.857   6.710   1.634
 2768SOL    HW2 9204   3.826   6.573   1.550
 2769SOL     OW 9205   0.851   4.596   5.767
 2769SOL    HW1 9206   0.904   4.536   5.708
 2769SOL    HW2 9207   0.810   4.669   5.712
 2770SOL     OW 9208   2.597   5.946   0.980
 2770SOL    HW1 9209   2.573   5.961   0.884
 2770SOL    HW2 9210   2.520   5.973   1.038
 2771SOL     OW 9211   4.841   0.204   4.996
 2771SOL    HW1 9212   4.882   0.252   4.919
 2771SOL    HW2 9213   4.776   0.136   4.961
 2772SOL     OW 9214   4.467   0.769   3.843
 2772SOL    HW1 9215   4.511   0.700   3.900
 2772SOL    HW2 9216   4.517   0.779   3.757
 2773SOL     OW 9217   5.710   2.563   4.965
 2773SOL    HW1 9218   5.626   2.516   4.990
 2773SOL    HW2 9219   5.777   2.555   5.040
 2774SOL     OW 9220   5.820   2.156   4.217
 2774SOL    HW1 9221   5.877   2.075   4.229
 2774SOL    HW2 9222   5.735   2.131   4.171
 2775SOL     OW 9223   0.103   3.383   3.943
 2775SOL    HW1 9224   0.115   3.345   4.034
 2775SOL    HW2 9225   0.181   3.442   3.920
 2776SOL     OW 9226   4.831   5.204   6.025
 2776SOL    HW1 9227   4.892   5.283   6.017
 2776SOL    HW2 9228   4.885   5.120   6.023
 2777SOL     OW 9229   2.535   2.318   6.551
 2777SOL    HW1 9230   2.494   2.231   6.579
 2777SOL    HW2 9231   2.633   2.317   6.570
 2778SOL     OW 9232   2.471   0.512   5.998
 2778SOL    HW1 9233   2.394   0.561   5.955
 2778SOL    HW2 9234   2.501   0.562   6.079
 2779SOL     OW 9235   4.668   0.985   1.267
 2779SOL    HW1 9236   4.625   1.062   1.313
 2779SOL    HW2 9237   4.762   0.975   1.299
 2780SOL     OW 9238   6.918   1.574   5.239
 2780SOL    HW1 9239   6.998   1.565   5.299
 2780SOL    HW2 9240   6.943   1.628   5.159
 2781SOL     OW 9241   5.265   1.203   3.512
 2781SOL    HW1 9242   5.270   1.241   3.605
 2781SOL    HW2 9243   5.309   1.114   3.511
 2782SOL     OW 9244   5.226   0.856   6.251
 2782SOL    HW1 9245   5.224   0.756   6.240
 2782SOL    HW2 9246   5.291   0.895   6.185
 2783SOL     OW 9247   5.725   3.595   1.876
 2783SOL    HW1 9248   5.671   3.543   1.810
 2783SOL    HW2 9249   5.759   3.534   1.947
 2784SOL     OW 9250   1.146   2.969   1.205
 2784SOL    HW1 9251   1.177   2.929   1.119
 2784SOL    HW2 9252   1.139   2.896   1.274
 2785SOL     OW 9253   6.102   3.401   2.480
 2785SOL    HW1 9254   6.101   3.370   2.575
 2785SOL    HW2 9255   6.058   3.332   2.422
 2786SOL     OW 9256   0.589   5.984   6.109
 2786SOL    HW1 9257   0.550   6.006   6.199
 2786SOL    HW2 9258   0.636   6.064   6.073
 2787SOL     OW 9259   6.972   5.484   6.840
 2787SOL    HW1 9260   6.919   5.407   6.876
 2787SOL    HW2 9261   6.962   5.487   6.741
 2788SOL     OW 9262   2.881   0.167   6.348
 2788SOL    HW1 9263   2.790   0.138   6.320
 2788SOL    HW2 9264   2.948   0.097   6.323
 2789SOL     OW 9265   0.671   2.054   4.892
 2789SOL    HW1 9266   0.733   2.053   4.970
 2789SOL    HW2 9267   0.711   2.108   4.818
 2790SOL     OW 9268   1.531   5.346   2.381
 2790SOL    HW1 9269   1.509   5.441   2.360
 2790SOL    HW2 9270   1.448   5.298   2.408
 2791SOL     OW 9271   0.911   2.992   3.579
 2791SOL    HW1 9272   0.929   3.087   3.552
 2791SOL    HW2 9273   0.820   2.986   3.620
 2792SOL     OW 9274   3.505   1.791   5.814
 2792SOL    HW1 9275   3.592   1.797   5.765
 2792SOL    HW2 9276   3.431   1.776   5.748
 2793SOL     OW 9277   3.913   3.690   0.702
 2793SOL    HW1 9278   3.874   3.626   0.769
 2793SOL    HW2 9279   3.959   3.638   0.630
 2794SOL     OW 9280   0.977   2.295   6.846
 2794SOL    HW1 9281   1.056   2.355   6.830
 2794SOL    HW2 9282   0.959   2.291   6.945
 2795SOL     OW 9283   1.156   6.223   1.390
 2795SOL    HW1 9284   1.170   6.318   1.364
 2795SOL    HW2 9285   1.129   6.170   1.310
 2796SOL     OW 9286   2.049   5.841   6.335
 2796SOL    HW1 9287   1.978   5.872   6.272
 2796SOL    HW2 9288   2.050   5.900   6.416
 2797SOL     OW 9289   5.197   4.992   3.360
 2797SOL    HW1 9290   5.268   4.971   3.293
 2797SOL    HW2 9291   5.200   5.090   3.382
 2798SOL     OW 9292   5.499   1.343   1.414
 2798SOL    HW1 9293   5.580   1.396   1.390
 2798SOL    HW2 9294   5.459   1.303   1.331
 2799SOL     OW 9295   3.794   6.585   4.375
 2799SOL    HW1 9296   3.765   6.512   4.313
 2799SOL    HW2 9297   3.792   6.551   4.470
 2800SOL     OW 9298   5.965   0.390   6.158
 2800SOL    HW1 9299   5.898   0.410   6.086
 2800SOL    HW2 9300   6.045   0.348   6.117
 2801SOL     OW 9301   0.131   4.674   4.071
 2801SOL    HW1 9302   0.131   4.758   4.016
 2801SOL    HW2 9303   0.038   4.637   4.074
 2802SOL     OW 9304   1.744   4.903   5.442
 2802SOL    HW1 9305   1.674   4.861   5.500
 2802SOL    HW2 9306   1.798   4.967   5.496
 2803SOL     OW 9307   3.730   2.307   6.001
 2803SOL    HW1 9308   3.728   2.338   6.096
 2803SOL    HW2 9309   3.811   2.252   5.986
 2804SOL     OW 9310   6.826   2.975   3.918
 2804SOL    HW1 9311   6.910   2.921   3.927
 2804SOL    HW2 9312   6.747   2.913   3.915
 2805SOL     OW 9313   3.519   3.309   0.772
 2805SOL    HW1 9314   3.553   3.216   0.781
 2805SOL    HW2 9315   3.421   3.310   0.789
 2806SOL     OW 9316   0.352   3.001   5.943
 2806SOL    HW1 9317   0.430   3.030   5.888
 2806SOL    HW2 9318   0.274   3.060   5.922
 2807SOL     OW 9319   4.030   1.318   3.642
 2807SOL    HW1 9320   3.986   1.404   3.667
 2807SOL    HW2 9321   3.982   1.242   3.688
 2808SOL     OW 9322   0.487   4.787   5.572
 2808SOL    HW1 9323   0.500   4.884   5.549
 2808SOL    HW2 9324   0.482   4.733   5.488
 2809SOL     OW 9325   0.242   5.274   2.017
 2809SOL    HW1 9326   0.152   5.312   2.000
 2809SOL    HW2 9327   0.295   5.338   2.074
 2810SOL     OW 9328   2.288   6.434   2.851
 2810SOL    HW1 9329   2.326   6.370   2.919
 2810SOL    HW2 9330   2.357   6.454   2.782
 2811SOL     OW 9331   1.037   1.034   0.812
 2811SOL    HW1 9332   1.008   1.093   0.738
 2811SOL    HW2 9333   1.134   1.048   0.831
 2812SOL     OW 9334   1.071   1.456   0.633
 2812SOL    HW1 9335   1.009   1.437   0.708
 2812SOL    HW2 9336   1.154   1.400   0.642
 2813SOL     OW 9337   0.668   3.456   2.030
 2813SOL    HW1 9338   0.743   3.391   2.018
 2813SOL    HW2 9339   0.581   3.408   2.024
 2814SOL     OW 9340   2.969   4.031   7.013
 2814SOL    HW1 9341   3.047   4.078   6.970
 2814SOL    HW2 9342   2.897   4.018   6.945
 2815SOL     OW 9343   0.377   4.800   4.618
 2815SOL    HW1 9344   0.441   4.849   4.558
 2815SOL    HW2 9345   0.329   4.865   4.676
 2816SOL     OW 9346   0.469   5.771   5.457
 2816SOL    HW1 9347   0.453   5.672   5.453
 2816SOL    HW2 9348   0.531   5.792   5.532
 2817SOL     OW 9349   3.378   0.700   2.217
 2817SOL    HW1 9350   3.416   0.709   2.310
 2817SOL    HW2 9351   3.329   0.614   2.209
 2818SOL     OW 9352   2.088   0.664   0.400
 2818SOL    HW1 9353   2.096   0.666   0.300
 2818SOL    HW2 9354   2.141   0.588   0.436
 2819SOL     OW 9355   0.782   0.206   6.530
 2819SOL    HW1 9356   0.837   0.279   6.488
 2819SOL    HW2 9357   0.802   0.120   6.484
 2820SOL     OW 9358   1.549   2.080   0.052
 2820SOL    HW1 9359   1.486   2.076   6.997
 2820SOL    HW2 9360   1.545   2.170   0.093
 2821SOL     OW 9361   3.171   3.535   6.171
 2821SOL    HW1 9362   3.147   3.567   6.079
 2821SOL    HW2 9363   3.271   3.541   6.183
 2822SOL     OW 9364   4.940   2.855   0.061
 2822SOL    HW1 9365   4.913   2.942   0.018
 2822SOL    HW2 9366   4.902   2.779   0.008
 2823SOL     OW 9367   4.921   3.021   1.283
 2823SOL    HW1 9368   4.880   3.038   1.373
 2823SOL    HW2 9369   5.014   2.986   1.295
 2824SOL     OW 9370   1.010   4.206   4.507
 2824SOL    HW1 9371   0.936   4.142   4.525
 2824SOL    HW2 9372   1.097   4.167   4.538
 2825SOL     OW 9373   5.335   1.573   6.430
 2825SOL    HW1 9374   5.425   1.603   6.399
 2825SOL    HW2 9375   5.345   1.497   6.494
 2826SOL     OW 9376   2.245   2.878   6.296
 2826SOL    HW1 9377   2.153   2.890   6.334
 2826SOL    HW2 9378   2.285   2.968   6.278
 2827SOL     OW 9379   6.135   1.547   6.472
 2827SOL    HW1 9380   6.206   1.603   6.429
 2827SOL    HW2 9381   6.106   1.475   6.408
 2828SOL     OW 9382   1.556   3.430   1.113
 2828SOL    HW1 9383   1.654   3.446   1.098
 2828SOL    HW2 9384   1.545   3.354   1.178
 2829SOL     OW 9385   3.347   3.559   2.100
 2829SOL    HW1 9386   3.439   3.524   2.115
 2829SOL    HW2 9387   3.336   3.647   2.148
 2830SOL     OW 9388   3.488   6.157   5.019
 2830SOL    HW1 9389   3.465   6.060   5.015
 2830SOL    HW2 9390   3.490   6.194   4.927
 2831SOL     OW 9391   5.898   1.776   1.622
 2831SOL    HW1 9392   5.884   1.693   1.677
 2831SOL    HW2 9393   5.839   1.772   1.541
 2832SOL     OW 9394   0.532   3.851   2.324
 2832SOL    HW1 9395   0.554   3.784   2.253
 2832SOL    HW2 9396   0.436   3.878   2.314
 2833SOL     OW 9397   1.363   2.547   2.452
 2833SOL    HW1 9398   1.452   2.586   2.430
 2833SOL    HW2 9399   1.291   2.613   2.429
 2834SOL     OW 9400   3.783   6.551   4.655
 2834SOL    HW1 9401   3.860   6.516   4.709
 2834SOL    HW2 9402   3.709   6.578   4.716
 2835SOL     OW 9403   6.152   0.532   6.744
 2835SOL    HW1 9404   6.216   0.607   6.732
 2835SOL    HW2 9405   6.068   0.567   6.785
 2836SOL     OW 9406   3.209   5.946   2.552
 2836SOL    HW1 9407   3.249   6.037   2.538
 2836SOL    HW2 9408   3.264   5.877   2.505
 2837SOL     OW 9409   5.013   4.416   1.519
 2837SOL    HW1 9410   5.093   4.406   1.459
 2837SOL    HW2 9411   4.930   4.405   1.465
 2838SOL     OW 9412   6.528   4.411   6.428
 2838SOL    HW1 9413   6.585   4.444   6.353
 2838SOL    HW2 9414   6.442   4.376   6.392
 2839SOL     OW 9415   6.072   3.509   5.324
 2839SOL    HW1 9416   6.100   3.419   5.290
 2839SOL    HW2 9417   6.077   3.575   5.249
 2840SOL     OW 9418   6.550   6.543   4.411
 2840SOL    HW1 9419   6.577   6.453   4.375
 2840SOL    HW2 9420   6.601   6.561   4.495
 2841SOL     OW 9421   5.532   4.149   2.390
 2841SOL    HW1 9422   5.468   4.077   2.414
 2841SOL    HW2 9423   5.487   4.217   2.332
 2842SOL     OW 9424   0.854   0.634   3.666
 2842SOL    HW1 9425   0.938   0.618   3.615
 2842SOL    HW2 9426   0.775   0.628   3.604
 2843SOL     OW 9427   2.206   2.663   3.375
 2843SOL    HW1 9428   2.167   2.722   3.445
 2843SOL    HW2 9429   2.146   2.663   3.295
 2844SOL     OW 9430   4.988   3.753   0.387
 2844SOL    HW1 9431   5.028   3.701   0.463
 2844SOL    HW2 9432   4.892   3.772   0.407
 2845SOL     OW 9433   3.031   1.669   2.106
 2845SOL    HW1 9434   2.991   1.757   2.133
 2845SOL    HW2 9435   2.977   1.595   2.145
 2846SOL     OW 9436   6.773   0.030   6.621
 2846SOL    HW1 9437   6.784   6.988   6.697
 2846SOL    HW2 9438   6.745   0.119   6.656
 2847SOL     OW 9439   4.847   5.039   1.301
 2847SOL    HW1 9440   4.832   5.137   1.310
 2847SOL    HW2 9441   4.861   5.015   1.205
 2848SOL     OW 9442   1.006   3.997   5.492
 2848SOL    HW1 9443   1.065   4.039   5.562
 2848SOL    HW2 9444   1.046   3.910   5.463
 2849SOL     OW 9445   5.328   0.875   1.805
 2849SOL    HW1 9446   5.249   0.870   1.744
 2849SOL    HW2 9447   5.410   0.846   1.756
 2850SOL     OW 9448   1.194   0.937   2.228
 2850SOL    HW1 9449   1.213   0.916   2.132
 2850SOL    HW2 9450   1.272   0.913   2.284
 2851SOL     OW 9451   3.199   3.534   1.448
 2851SOL    HW1 9452   3.129   3.483   1.397
 2851SOL    HW2 9453   3.200   3.629   1.418
 2852SOL     OW 9454   6.685   4.300   5.742
 2852SOL    HW1 9455   6.756   4.230   5.752
 2852SOL    HW2 9456   6.682   4.331   5.647
 2853SOL     OW 9457   0.273   3.970   5.589
 2853SOL    HW1 9458   0.270   4.043   5.521
 2853SOL    HW2 9459   0.191   3.975   5.646
 2854SOL     OW 9460   3.499   1.088   6.126
 2854SOL    HW1 9461   3.556   1.030   6.184
 2854SOL    HW2 9462   3.551   1.169   6.098
 2855SOL     OW 9463   2.365   1.476   4.697
 2855SOL    HW1 9464   2.289   1.538   4.714
 2855SOL    HW2 9465   2.422   1.513   4.624
 2856SOL     OW 9466   0.525   5.765   3.898
 2856SOL    HW1 9467   0.555   5.698   3.830
 2856SOL    HW2 9468   0.454   5.824   3.858
 2857SOL     OW 9469   6.868   4.099   0.648
 2857SOL    HW1 9470   6.805   4.026   0.623
 2857SOL    HW2 9471   6.931   4.066   0.719
 2858SOL     OW 9472   4.483   4.806   2.406
 2858SOL    HW1 9473   4.551   4.751   2.357
 2858SOL    HW2 9474   4.433   4.748   2.470
 2859SOL     OW 9475   5.434   4.756   1.471
 2859SOL    HW1 9476   5.337   4.738   1.453
 2859SOL    HW2 9477   5.466   4.692   1.541
 2860SOL     OW 9478   1.045   0.185   2.180
 2860SOL    HW1 9479   0.976   0.129   2.134
 2860SOL    HW2 9480   1.113   0.126   2.224
 2861SOL     OW 9481   4.557   4.229   5.507
 2861SOL    HW1 9482   4.506   4.161   5.559
 2861SOL    HW2 9483   4.565   4.313   5.561
 2862SOL     OW 9484   4.688   2.692   0.174
 2862SOL    HW1 9485   4.634   2.610   0.196
 2862SOL    HW2 9486   4.776   2.688   0.220
 2863SOL     OW 9487   6.026   1.667   5.083
 2863SOL    HW1 9488   5.997   1.580   5.043
 2863SOL    HW2 9489   6.052   1.731   5.011
 2864SOL     OW 9490   3.744   4.601   0.438
 2864SOL    HW1 9491   3.745   4.507   0.473
 2864SOL    HW2 9492   3.806   4.657   0.492
 2865SOL     OW 9493   5.687   4.931   5.040
 2865SOL    HW1 9494   5.786   4.945   5.042
 2865SOL    HW2 9495   5.666   4.842   5.081
 2866SOL     OW 9496   3.700   4.334   0.521
 2866SOL    HW1 9497   3.718   4.344   0.619
 2866SOL    HW2 9498   3.602   4.323   0.506
 2867SOL     OW 9499   5.748   6.240   2.554
 2867SOL    HW1 9500   5.658   6.232   2.597
 2867SOL    HW2 9501   5.738   6.282   2.464
 2868SOL     OW 9502   0.680   0.188   6.189
 2868SOL    HW1 9503   0.713   0.282   6.198
 2868SOL    HW2 9504   0.661   0.168   6.093
 2869SOL     OW 9505   5.956   5.257   4.065
 2869SOL    HW1 9506   5.895   5.179   4.047
 2869SOL    HW2 9507   6.026   5.261   3.995
 2870SOL     OW 9508   6.714   1.855   1.910
 2870SOL    HW1 9509   6.631   1.910   1.908
 2870SOL    HW2 9510   6.742   1.839   2.004
 2871SOL     OW 9511   4.683   1.424   2.840
 2871SOL    HW1 9512   4.630   1.401   2.758
 2871SOL    HW2 9513   4.765   1.475   2.813
 2872SOL     OW 9514   2.425   1.877   2.583
 2872SOL    HW1 9515   2.512   1.913   2.615
 2872SOL    HW2 9516   2.373   1.950   2.538
 2873SOL     OW 9517   1.023   0.020   1.393
 2873SOL    HW1 9518   0.926   0.043   1.386
 2873SOL    HW2 9519   1.078   0.096   1.361
 2874SOL     OW 9520   2.292   1.412   3.274
 2874SOL    HW1 9521   2.227   1.373   3.209
 2874SOL    HW2 9522   2.385   1.404   3.236
 2875SOL     OW 9523   2.352   6.686   3.210
 2875SOL    HW1 9524   2.364   6.687   3.309
 2875SOL    HW2 9525   2.364   6.592   3.177
 2876SOL     OW 9526   1.572   6.960   1.677
 2876SOL    HW1 9527   1.546   0.008   1.610
 2876SOL    HW2 9528   1.492   6.908   1.704
 2877SOL     OW 9529   1.632   2.468   6.467
 2877SOL    HW1 9530   1.541   2.468   6.426
 2877SOL    HW2 9531   1.665   2.562   6.475
 2878SOL     OW 9532   3.955   3.050   4.229
 2878SOL    HW1 9533   3.888   2.986   4.267
 2878SOL    HW2 9534   4.033   3.057   4.291
 2879SOL     OW 9535   5.370   4.503   0.315
 2879SOL    HW1 9536   5.365   4.578   0.381
 2879SOL    HW2 9537   5.413   4.424   0.357
 2880SOL     OW 9538   2.232   0.926   3.304
 2880SOL    HW1 9539   2.280   0.964   3.382
 2880SOL    HW2 9540   2.208   0.830   3.322
 2881SOL     OW 9541   5.490   6.550   0.287
 2881SOL    HW1 9542   5.469   6.629   0.230
 2881SOL    HW2 9543   5.587   6.551   0.310
 2882SOL     OW 9544   4.564   6.109   6.988
 2882SOL    HW1 9545   4.662   6.101   6.972
 2882SOL    HW2 9546   4.533   6.200   6.962
 2883SOL     OW 9547   5.953   6.685   3.794
 2883SOL    HW1 9548   5.938   6.742   3.876
 2883SOL    HW2 9549   5.940   6.741   3.712
 2884SOL     OW 9550   5.751   5.532   4.105
 2884SOL    HW1 9551   5.762   5.453   4.165
 2884SOL    HW2 9552   5.804   5.519   4.021
 2885SOL     OW 9553   1.305   2.708   3.073
 2885SOL    HW1 9554   1.212   2.707   3.110
 2885SOL    HW2 9555   1.352   2.624   3.100
 2886SOL     OW 9556   2.514   4.067   5.542
 2886SOL    HW1 9557   2.530   4.114   5.629
 2886SOL    HW2 9558   2.600   4.025   5.511
 2887SOL     OW 9559   0.306   5.950   2.888
 2887SOL    HW1 9560   0.271   5.859   2.910
 2887SOL    HW2 9561   0.396   5.962   2.929
 2888SOL     OW 9562   5.697   0.169   6.491
 2888SOL    HW1 9563   5.662   0.182   6.584
 2888SOL    HW2 9564   5.702   0.071   6.471
 2889SOL     OW 9565   3.896   6.080   3.524
 2889SOL    HW1 9566   3.808   6.044   3.554
 2889SOL    HW2 9567   3.929   6.147   3.591
 2890SOL     OW 9568   0.749   2.408   1.324
 2890SOL    HW1 9569   0.729   2.442   1.415
 2890SOL    HW2 9570   0.725   2.477   1.256
 2891SOL     OW 9571   7.013   1.728   4.999
 2891SOL    HW1 9572   0.049   1.791   4.947
 2891SOL    HW2 9573   6.918   1.743   4.975
 2892SOL     OW 9574   5.047   4.098   2.408
 2892SOL    HW1 9575   5.134   4.049   2.398
 2892SOL    HW2 9576   5.055   4.188   2.366
 2893SOL     OW 9577   6.574   5.462   5.179
 2893SOL    HW1 9578   6.600   5.454   5.082
 2893SOL    HW2 9579   6.552   5.558   5.200
 2894SOL     OW 9580   2.170   5.331   2.231
 2894SOL    HW1 9581   2.218   5.392   2.168
 2894SOL    HW2 9582   2.091   5.379   2.270
 2895SOL     OW 9583   4.596   0.003   5.790
 2895SOL    HW1 9584   4.499   0.025   5.783
 2895SOL    HW2 9585   4.624   0.001   5.886
 2896SOL     OW 9586   5.540   0.243   4.735
 2896SOL    HW1 9587   5.581   0.259   4.646
 2896SOL    HW2 9588   5.516   0.331   4.777
 2897SOL     OW 9589   4.056   5.163   2.952
 2897SOL    HW1 9590   4.086   5.145   2.858
 2897SOL    HW2 9591   3.972   5.111   2.971
 2898SOL     OW 9592   5.376   2.878   2.590
 2898SOL    HW1 9593   5.434   2.957   2.568
 2898SOL    HW2 9594   5.339   2.839   2.506
 2899SOL     OW 9595   6.859   3.520   1.012
 2899SOL    HW1 9596   6.765   3.531   1.043
 2899SOL    HW2 9597   6.921   3.523   1.091
 2900SOL     OW 9598   2.256   2.962   5.621
 2900SOL    HW1 9599   2.289   3.052   5.646
 2900SOL    HW2 9600   2.194   2.928   5.692
 2901SOL     OW 9601   0.916   3.768   3.158
 2901SOL    HW1 9602   0.844   3.800   3.096
 2901SOL    HW2 9603   0.952   3.845   3.210
 2902SOL     OW 9604   6.007   6.087   3.798
 2902SOL    HW1 9605   5.908   6.093   3.787
 2902SOL    HW2 9606   6.030   6.095   3.895
 2903SOL     OW 9607   5.276   4.977   0.348
 2903SOL    HW1 9608   5.192   4.981   0.402
 2903SOL    HW2 9609   5.253   4.970   0.251
 2904SOL     OW 9610   2.151   4.168   5.118
 2904SOL    HW1 9611   2.191   4.076   5.118
 2904SOL    HW2 9612   2.052   4.162   5.129
 2905SOL     OW 9613   1.687   6.042   1.269
 2905SOL    HW1 9614   1.641   6.086   1.192
 2905SOL    HW2 9615   1.623   5.981   1.316
 2906SOL     OW 9616   6.119   5.902   4.582
 2906SOL    HW1 9617   6.135   5.867   4.674
 2906SOL    HW2 9618   6.024   5.885   4.556
 2907SOL     OW 9619   0.297   1.055   4.655
 2907SOL    HW1 9620   0.317   0.959   4.635
 2907SOL    HW2 9621   0.381   1.109   4.644
 2908SOL     OW 9622   4.224   7.001   3.045
 2908SOL    HW1 9623   4.186   6.908   3.049
 2908SOL    HW2 9624   4.191   0.032   3.123
 2909SOL     OW 9625   0.168   6.372   1.560
 2909SOL    HW1 9626   0.171   6.292   1.500
 2909SOL    HW2 9627   0.098   6.359   1.630
 2910SOL     OW 9628   0.388   0.747   4.062
 2910SOL    HW1 9629   0.312   0.699   4.104
 2910SOL    HW2 9630   0.353   0.813   3.995
 2911SOL     OW 9631   0.326   4.141   5.385
 2911SOL    HW1 9632   0.424   4.148   5.368
 2911SOL    HW2 9633   0.283   4.086   5.313
 2912SOL     OW 9634   1.243   1.320   1.591
 2912SOL    HW1 9635   1.228   1.370   1.677
 2912SOL    HW2 9636   1.237   1.384   1.514
 2913SOL     OW 9637   3.153   6.387   2.958
 2913SOL    HW1 9638   3.059   6.371   2.988
 2913SOL    HW2 9639   3.170   6.486   2.954
 2914SOL     OW 9640   4.148   5.451   0.989
 2914SOL    HW1 9641   4.145   5.353   1.011
 2914SOL    HW2 9642   4.146   5.504   1.074
 2915SOL     OW 9643   2.883   0.109   3.256
 2915SOL    HW1 9644   2.882   0.113   3.156
 2915SOL    HW2 9645   2.967   0.150   3.290
 2916SOL     OW 9646   1.944   6.075   7.004
 2916SOL    HW1 9647   2.033   6.120   6.996
 2916SOL    HW2 9648   1.883   6.130   0.039
 2917SOL     OW 9649   2.766   6.815   3.623
 2917SOL    HW1 9650   2.835   6.869   3.671
 2917SOL    HW2 9651   2.770   6.834   3.525
 2918SOL     OW 9652   4.812   3.050   1.535
 2918SOL    HW1 9653   4.765   3.130   1.572
 2918SOL    HW2 9654   4.847   2.994   1.610
 2919SOL     OW 9655   0.582   5.766   5.013
 2919SOL    HW1 9656   0.603   5.689   5.073
 2919SOL    HW2 9657   0.659   5.829   5.010
 2920SOL     OW 9658   2.119   2.629   2.655
 2920SOL    HW1 9659   2.107   2.535   2.624
 2920SOL    HW2 9660   2.066   2.644   2.739
 2921SOL     OW 9661   1.104   6.172   3.797
 2921SOL    HW1 9662   1.062   6.262   3.788
 2921SOL    HW2 9663   1.086   6.136   3.889
 2922SOL     OW 9664   3.966   5.607   4.219
 2922SOL    HW1 9665   3.965   5.686   4.281
 2922SOL    HW2 9666   3.883   5.553   4.231
 2923SOL     OW 9667   6.727   5.282   5.320
 2923SOL    HW1 9668   6.755   5.329   5.404
 2923SOL    HW2 9669   6.668   5.342   5.267
 2924SOL     OW 9670   6.219   1.599   6.046
 2924SOL    HW1 9671   6.187   1.658   5.972
 2924SOL    HW2 9672   6.147   1.590   6.115
 2925SOL     OW 9673   5.736   6.606   5.086
 2925SOL    HW1 9674   5.740   6.506   5.085
 2925SOL    HW2 9675   5.674   6.638   5.015
 2926SOL     OW 9676   6.441   2.852   4.414
 2926SOL    HW1 9677   6.402   2.944   4.427
 2926SOL    HW2 9678   6.538   2.861   4.391
 2927SOL     OW 9679   1.125   1.967   1.769
 2927SOL    HW1 9680   1.146   1.886   1.714
 2927SOL    HW2 9681   1.199   1.982   1.835
 2928SOL     OW 9682   6.325   3.110   0.253
 2928SOL    HW1 9683   6.257   3.167   0.208
 2928SOL    HW2 9684   6.280   3.034   0.300
 2929SOL     OW 9685   2.095   2.237   4.090
 2929SOL    HW1 9686   2.166   2.280   4.146
 2929SOL    HW2 9687   2.005   2.269   4.120
 2930SOL     OW 9688   0.573   4.229   4.353
 2930SOL    HW1 9689   0.520   4.285   4.291
 2930SOL    HW2 9690   0.663   4.210   4.313
 2931SOL     OW 9691   4.903   4.131   5.662
 2931SOL    HW1 9692   4.868   4.186   5.586
 2931SOL    HW2 9693   4.996   4.159   5.683
 2932SOL     OW 9694   6.012   4.957   1.271
 2932SOL    HW1 9695   6.057   5.046   1.268
 2932SOL    HW2 9696   6.058   4.898   1.337
 2933SOL     OW 9697   1.153   6.260   0.012
 2933SOL    HW1 9698   1.242   6.239   0.052
 2933SOL    HW2 9699   1.081   6.241   0.079
 2934SOL     OW 9700   3.475   4.464   0.824
 2934SOL    HW1 9701   3.399   4.400   0.816
 2934SOL    HW2 9702   3.557   4.414   0.851
 2935SOL     OW 9703   0.627   2.444   6.498
 2935SOL    HW1 9704   0.709   2.493   6.524
 2935SOL    HW2 9705   0.546   2.492   6.533
 2936SOL     OW 9706   4.912   6.415   1.862
 2936SOL    HW1 9707   4.873   6.446   1.775
 2936SOL    HW2 9708   4.984   6.478   1.890
 2937SOL     OW 9709   5.289   4.369   2.505
 2937SOL    HW1 9710   5.293   4.294   2.571
 2937SOL    HW2 9711   5.264   4.334   2.415
 2938SOL     OW 9712   0.643   5.714   6.095
 2938SOL    HW1 9713   0.618   5.810   6.103
 2938SOL    HW2 9714   0.740   5.706   6.072
 2939SOL     OW 9715   0.189   5.692   1.666
 2939SOL    HW1 9716   0.279   5.734   1.672
 2939SOL    HW2 9717   0.176   5.630   1.743
 2940SOL     OW 9718   4.253   6.949   3.869
 2940SOL    HW1 9719   4.225   6.873   3.927
 2940SOL    HW2 9720   4.216   6.937   3.777
 2941SOL     OW 9721   2.153   4.691   3.241
 2941SOL    HW1 9722   2.247   4.714   3.265
 2941SOL    HW2 9723   2.091   4.760   3.278
 2942SOL     OW 9724   3.593   1.715   1.134
 2942SOL    HW1 9725   3.613   1.744   1.227
 2942SOL    HW2 9726   3.495   1.722   1.117
 2943SOL     OW 9727   5.778   4.044   2.783
 2943SOL    HW1 9728   5.762   4.127   2.730
 2943SOL    HW2 9729   5.787   3.966   2.720
 2944SOL     OW 9730   1.955   5.494   2.324
 2944SOL    HW1 9731   2.026   5.522   2.388
 2944SOL    HW2 9732   1.875   5.461   2.375
 2945SOL     OW 9733   4.700   4.241   0.854
 2945SOL    HW1 9734   4.778   4.305   0.852
 2945SOL    HW2 9735   4.638   4.262   0.778
 2946SOL     OW 9736   3.918   3.647   5.096
 2946SOL    HW1 9737   3.864   3.618   5.016
 2946SOL    HW2 9738   3.951   3.740   5.081
 2947SOL     OW 9739   6.264   5.750   1.128
 2947SOL    HW1 9740   6.214   5.664   1.116
 2947SOL    HW2 9741   6.341   5.735   1.190
 2948SOL     OW 9742   6.874   3.673   2.510
 2948SOL    HW1 9743   6.943   3.656   2.440
 2948SOL    HW2 9744   6.799   3.726   2.471
 2949SOL     OW 9745   1.680   6.429   0.467
 2949SOL    HW1 9746   1.779   6.433   0.467
 2949SOL    HW2 9747   1.642   6.517   0.440
 2950SOL     OW 9748   6.175   5.687   2.446
 2950SOL    HW1 9749   6.097   5.660   2.391
 2950SOL    HW2 9750   6.231   5.752   2.395
 2951SOL     OW 9751   0.315   1.394   1.746
 2951SOL    HW1 9752   0.356   1.341   1.672
 2951SOL    HW2 9753   0.245   1.455   1.709
 2952SOL     OW 9754   0.081   1.588   5.444
 2952SOL    HW1 9755   0.159   1.627   5.493
 2952SOL    HW2 9756   7.020   1.604   5.497
 2953SOL     OW 9757   1.486   4.861   3.638
 2953SOL    HW1 9758   1.530   4.773   3.622
 2953SOL    HW2 9759   1.554   4.934   3.629
 2954SOL     OW 9760   0.120   4.151   6.311
 2954SOL    HW1 9761   0.132   4.061   6.268
 2954SOL    HW2 9762   0.054   4.143   6.386
 2955SOL     OW 9763   1.549   4.614   6.236
 2955SOL    HW1 9764   1.466   4.618   6.291
 2955SOL    HW2 9765   1.601   4.698   6.246
 2956SOL     OW 9766   5.221   4.494   3.961
 2956SOL    HW1 9767   5.310   4.482   4.005
 2956SOL    HW2 9768   5.151   4.510   4.032
 2957SOL     OW 9769   2.608   5.241   1.356
 2957SOL    HW1 9770   2.513   5.270   1.365
 2957SOL    HW2 9771   2.620   5.155   1.406
 2958SOL     OW 9772   1.900   4.556   2.810
 2958SOL    HW1 9773   1.993   4.593   2.805
 2958SOL    HW2 9774   1.902   4.458   2.788
 2959SOL     OW 9775   0.202   3.814   3.386
 2959SOL    HW1 9776   0.233   3.745   3.452
 2959SOL    HW2 9777   0.106   3.835   3.404
 2960SOL     OW 9778   5.198   0.148   1.011
 2960SOL    HW1 9779   5.259   0.198   1.073
 2960SOL    HW2 9780   5.188   0.199   0.926
 2961SOL     OW 9781   5.987   3.204   1.914
 2961SOL    HW1 9782   5.936   3.197   2.000
 2961SOL    HW2 9783   6.035   3.292   1.911
 2962SOL     OW 9784   7.006   0.513   3.797
 2962SOL    HW1 9785   6.989   0.520   3.699
 2962SOL    HW2 9786   6.921   0.487   3.844
 2963SOL     OW 9787   1.803   0.401   4.922
 2963SOL    HW1 9788   1.704   0.407   4.926
 2963SOL    HW2 9789   1.835   0.427   4.830
 2964SOL     OW 9790   1.730   1.083   6.299
 2964SOL    HW1 9791   1.718   1.007   6.235
 2964SOL    HW2 9792   1.648   1.141   6.297
 2965SOL     OW 9793   6.834   6.767   5.605
 2965SOL    HW1 9794   6.767   6.780   5.531
 2965SOL    HW2 9795   6.906   6.705   5.575
 2966SOL     OW 9796   2.578   6.179   1.963
 2966SOL    HW1 9797   2.602   6.260   2.017
 2966SOL    HW2 9798   2.645   6.107   1.980
 2967SOL     OW 9799   5.470   0.492   4.830
 2967SOL    HW1 9800   5.488   0.538   4.743
 2967SOL    HW2 9801   5.383   0.525   4.868
 2968SOL     OW 9802   0.897   3.860   1.403
 2968SOL    HW1 9803   0.914   3.859   1.502
 2968SOL    HW2 9804   0.876   3.767   1.372
 2969SOL     OW 9805   4.842   3.169   5.261
 2969SOL    HW1 9806   4.753   3.159   5.306
 2969SOL    HW2 9807   4.862   3.266   5.246
 2970SOL     OW 9808   2.509   2.373   5.363
 2970SOL    HW1 9809   2.523   2.288   5.414
 2970SOL    HW2 9810   2.571   2.444   5.397
 2971SOL     OW 9811   5.327   2.857   6.173
 2971SOL    HW1 9812   5.404   2.849   6.109
 2971SOL    HW2 9813   5.243   2.873   6.121
 2972SOL     OW 9814   6.700   5.081   6.276
 2972SOL    HW1 9815   6.614   5.047   6.315
 2972SOL    HW2 9816   6.696   5.181   6.269
 2973SOL     OW 9817   4.660   1.277   4.011
 2973SOL    HW1 9818   4.666   1.375   3.995
 2973SOL    HW2 9819   4.663   1.229   3.923
 2974SOL     OW 9820   4.473   6.912   2.210
 2974SOL    HW1 9821   4.558   6.955   2.237
 2974SOL    HW2 9822   4.492   6.837   2.146
 2975SOL     OW 9823   4.924   3.588   4.528
 2975SOL    HW1 9824   4.884   3.567   4.617
 2975SOL    HW2 9825   4.986   3.665   4.537
 2976SOL     OW 9826   4.275   1.050   2.001
 2976SOL    HW1 9827   4.294   1.080   1.908
 2976SOL    HW2 9828   4.332   1.101   2.065
 2977SOL     OW 9829   0.903   0.625   1.706
 2977SOL    HW1 9830   0.951   0.700   1.660
 2977SOL    HW2 9831   0.810   0.655   1.729
 2978SOL     OW 9832   4.357   5.456   6.741
 2978SOL    HW1 9833   4.380   5.517   6.817
 2978SOL    HW2 9834   4.303   5.380   6.775
 2979SOL     OW 9835   2.913   0.941   4.813
 2979SOL    HW1 9836   2.815   0.952   4.832
 2979SOL    HW2 9837   2.963   1.019   4.850
 2980SOL     OW 9838   2.920   3.452   4.318
 2980SOL    HW1 9839   2.823   3.467   4.297
 2980SOL    HW2 9840   2.950   3.367   4.276
 2981SOL     OW 9841   2.570   0.381   1.228
 2981SOL    HW1 9842   2.505   0.456   1.241
 2981SOL    HW2 9843   2.521   0.294   1.228
 2982SOL     OW 9844   2.090   0.535   0.877
 2982SOL    HW1 9845   2.072   0.600   0.803
 2982SOL    HW2 9846   2.139   0.582   0.951
 2983SOL     OW 9847   6.371   3.337   5.722
 2983SOL    HW1 9848   6.383   3.437   5.723
 2983SOL    HW2 9849   6.392   3.302   5.630
 2984SOL     OW 9850   0.466   5.582   1.438
 2984SOL    HW1 9851   0.457   5.561   1.535
 2984SOL    HW2 9852   0.509   5.672   1.427
 2985SOL     OW 9853   6.449   0.646   5.960
 2985SOL    HW1 9854   6.435   0.558   5.916
 2985SOL    HW2 9855   6.524   0.640   6.026
 2986SOL     OW 9856   3.605   3.560   2.254
 2986SOL    HW1 9857   3.644   3.580   2.344
 2986SOL    HW2 9858   3.674   3.517   2.196
 2987SOL     OW 9859   2.077   5.731   5.243
 2987SOL    HW1 9860   2.138   5.799   5.284
 2987SOL    HW2 9861   2.000   5.778   5.199
 2988SOL     OW 9862   0.106   1.491   6.440
 2988SOL    HW1 9863   0.136   1.398   6.417
 2988SOL    HW2 9864   0.149   1.556   6.377
 2989SOL     OW 9865   5.389   3.217   4.752
 2989SOL    HW1 9866   5.474   3.259   4.785
 2989SOL    HW2 9867   5.314   3.282   4.761
 2990SOL     OW 9868   5.453   2.086   4.399
 2990SOL    HW1 9869   5.424   2.152   4.329
 2990SOL    HW2 9870   5.388   2.087   4.474
 2991SOL     OW 9871   0.052   3.206   0.247
 2991SOL    HW1 9872   0.139   3.171   0.214
 2991SOL    HW2 9873   7.015   3.129   0.272
 2992SOL     OW 9874   0.520   3.642   5.093
 2992SOL    HW1 9875   0.560   3.682   5.175
 2992SOL    HW2 9876   0.589   3.638   5.021
 2993SOL     OW 9877   2.277   3.977   0.625
 2993SOL    HW1 9878   2.317   3.964   0.535
 2993SOL    HW2 9879   2.191   3.927   0.631
 2994SOL     OW 9880   3.355   6.107   5.537
 2994SOL    HW1 9881   3.376   6.126   5.632
 2994SOL    HW2 9882   3.316   6.015   5.529
 2995SOL     OW 9883   4.413   0.302   1.395
 2995SOL    HW1 9884   4.393   0.216   1.442
 2995SOL    HW2 9885   4.484   0.352   1.445
 2996SOL     OW 9886   6.787   0.457   3.912
 2996SOL    HW1 9887   6.782   0.508   3.998
 2996SOL    HW2 9888   6.814   0.363   3.930
 2997SOL     OW 9889   5.445   6.584   4.538
 2997SOL    HW1 9890   5.422   6.658   4.476
 2997SOL    HW2 9891   5.438   6.496   4.491
 2998SOL     OW 9892   2.846   0.740   1.760
 2998SOL    HW1 9893   2.894   0.696   1.836
 2998SOL    HW2 9894   2.766   0.789   1.795
 2999SOL     OW 9895   2.714   4.837   0.844
 2999SOL    HW1 9896   2.741   4.856   0.749
 2999SOL    HW2 9897   2.751   4.748   0.872
 3000SOL     OW 9898   2.819   4.110   5.504
 3000SOL    HW1 9899   2.867   4.161   5.433
 3000SOL    HW2 9900   2.802   4.170   5.582
 3001SOL     OW 9901   5.479   0.930   6.488
 3001SOL    HW1 9902   5.411   0.909   6.558
 3001SOL    HW2 9903   5.433   0.952   6.403
 3002SOL     OW 9904   1.499   1.859   1.879
 3002SOL    HW1 9905   1.590   1.899   1.890
 3002SOL    HW2 9906   1.484   1.790   1.950
 3003SOL     OW 9907   1.825   6.791   0.566
 3003SOL    HW1 9908   1.743   6.744   0.599
 3003SOL    HW2 9909   1.898   6.725   0.550
 3004SOL     OW 9910   2.577   6.576   3.549
 3004SOL    HW1 9911   2.478   6.590   3.551
 3004SOL    HW2 9912   2.620   6.631   3.620
 3005SOL     OW 9913   1.230   2.166   0.499
 3005SOL    HW1 9914   1.258   2.138   0.407
 3005SOL    HW2 9915   1.130   2.170   0.504
 3006SOL     OW 9916   5.164   1.648   6.119
 3006SOL    HW1 9917   5.208   1.720   6.065
 3006SOL    HW2 9918   5.146   1.683   6.211
 3007SOL     OW 9919   6.092   5.537   6.634
 3007SOL    HW1 9920   6.146   5.492   6.706
 3007SOL    HW2 9921   6.126   5.508   6.544
 3008SOL     OW 9922   4.341   3.445   5.672
 3008SOL    HW1 9923   4.426   3.467   5.719
 3008SOL    HW2 9924   4.359   3.440   5.573
 3009SOL     OW 9925   6.666   3.508   2.231
 3009SOL    HW1 9926   6.745   3.561   2.201
 3009SOL    HW2 9927   6.697   3.428   2.282
 3010SOL     OW 9928   4.379   5.606   1.559
 3010SOL    HW1 9929   4.328   5.524   1.533
 3010SOL    HW2 9930   4.342   5.643   1.644
 3011SOL     OW 9931   6.913   0.490   0.581
 3011SOL    HW1 9932   6.891   0.580   0.545
 3011SOL    HW2 9933   6.904   0.421   0.509
 3012SOL     OW 9934   2.035   1.838   4.701
 3012SOL    HW1 9935   2.101   1.775   4.741
 3012SOL    HW2 9936   2.065   1.932   4.717
 3013SOL     OW 9937   6.718   4.693   5.309
 3013SOL    HW1 9938   6.735   4.646   5.395
 3013SOL    HW2 9939   6.784   4.663   5.240
 3014SOL     OW 9940   5.527   0.539   6.317
 3014SOL    HW1 9941   5.536   0.441   6.302
 3014SOL    HW2 9942   5.443   0.557   6.369
 3015SOL     OW 9943   1.346   0.895   6.473
 3015SOL    HW1 9944   1.344   0.992   6.497
 3015SOL    HW2 9945   1.421   0.851   6.523
 3016SOL     OW 9946   2.169   6.639   4.454
 3016SOL    HW1 9947   2.137   6.577   4.382
 3016SOL    HW2 9948   2.262   6.669   4.434
 3017SOL     OW 9949   1.521   5.470   6.980
 3017SOL    HW1 9950   1.468   5.518   6.910
 3017SOL    HW2 9951   1.475   5.385   7.006
 3018SOL     OW 9952   3.525   0.920   1.749
 3018SOL    HW1 9953   3.503   0.823   1.736
 3018SOL    HW2 9954   3.600   0.929   1.814
 3019SOL     OW 9955   1.708   0.400   5.815
 3019SOL    HW1 9956   1.733   0.479   5.758
 3019SOL    HW2 9957   1.647   0.431   5.888
 3020SOL     OW 9958   6.141   4.405   0.029
 3020SOL    HW1 9959   6.068   4.371   0.089
 3020SOL    HW2 9960   6.176   4.491   0.065
 3021SOL     OW 9961   4.008   0.457   4.539
 3021SOL    HW1 9962   3.936   0.527   4.543
 3021SOL    HW2 9963   4.097   0.499   4.560
 3022SOL     OW 9964   4.409   6.079   3.766
 3022SOL    HW1 9965   4.482   6.073   3.697
 3022SOL    HW2 9966   4.324   6.042   3.729
 3023SOL     OW 9967   5.530   4.697   4.124
 3023SOL    HW1 9968   5.598   4.717   4.054
 3023SOL    HW2 9969   5.482   4.780   4.150
 3024SOL     OW 9970   0.293   1.027   0.592
 3024SOL    HW1 9971   0.251   1.076   0.516
 3024SOL    HW2 9972   0.350   0.953   0.556
 3025SOL     OW 9973   4.209   5.736   0.023
 3025SOL    HW1 9974   4.278   5.794   0.065
 3025SOL    HW2 9975   4.254   5.671   6.983
 3026SOL     OW 9976   0.378   0.421   2.183
 3026SOL    HW1 9977   0.302   0.451   2.242
 3026SOL    HW2 9978   0.449   0.379   2.240
 3027SOL     OW 9979   4.105   0.501   0.637
 3027SOL    HW1 9980   4.082   0.406   0.658
 3027SOL    HW2 9981   4.026   0.559   0.655
 3028SOL     OW 9982   3.315   3.305   5.375
 3028SOL    HW1 9983   3.273   3.214   5.369
 3028SOL    HW2 9984   3.411   3.299   5.349
 3029SOL     OW 9985   6.858   3.463   4.736
 3029SOL    HW1 9986   6.824   3.519   4.811
 3029SOL    HW2 9987   6.827   3.369   4.747
 3030SOL     OW 9988   2.526   2.516   6.374
 3030SOL    HW1 9989   2.500   2.461   6.453
 3030SOL    HW2 9990   2.447   2.528   6.314
 3031SOL     OW 9991   1.293   5.442   0.937
 3031SOL    HW1 9992   1.326   5.502   0.864
 3031SOL    HW2 9993   1.370   5.409   0.991
 3032SOL     OW 9994   2.555   0.000   3.135
 3032SOL    HW1 9995   2.582   6.929   3.155
 3032SOL    HW2 9996   2.575   0.059   3.214
 3033SOL     OW 9997   1.160   1.876   5.519
 3033SOL    HW1 9998   1.142   1.889   5.617
 3033SOL    HW2 9999   1.074   1.881   5.468
 3034SOL     OW10000   6.169   3.957   3.114
 3034SOL    HW110001   6.186   3.934   3.018
 3034SOL    HW210002   6.151   4.054   3.122
 3035SOL     OW10003   0.697   3.353   0.650
 3035SOL    HW110004   0.691   3.378   0.553
 3035SOL    HW210005   0.647   3.268   0.666
 3036SOL     OW10006   2.970   1.915   5.272
 3036SOL    HW110007   3.028   1.995   5.256
 3036SOL    HW210008   2.895   1.914   5.207
 3037SOL     OW10009   0.774   5.853   6.500
 3037SOL    HW110010   0.861   5.873   6.456
 3037SOL    HW210011   0.734   5.772   6.458
 3038SOL     OW10012   5.484   4.853   5.957
 3038SOL    HW110013   5.494   4.772   6.015
 3038SOL    HW210014   5.405   4.842   5.897
 3039SOL     OW10015   6.643   3.690   6.346
 3039SOL    HW110016   6.574   3.690   6.418
 3039SOL    HW210017   6.607   3.733   6.264
 3040SOL     OW10018   5.608   5.321   6.519
 3040SOL    HW110019   5.595   5.416   6.493
 3040SOL    HW210020   5.590   5.310   6.617
 3041SOL     OW10021   1.465   4.481   5.723
 3041SOL    HW110022   1.465   4.523   5.814
 3041SOL    HW210023   1.379   4.502   5.677
 3042SOL     OW10024   0.533   4.945   4.229
 3042SOL    HW110025   0.566   4.973   4.319
 3042SOL    HW210026   0.433   4.937   4.231
 3043SOL     OW10027   2.635   5.636   1.329
 3043SOL    HW110028   2.731   5.609   1.320
 3043SOL    HW210029   2.581   5.595   1.256
 3044SOL     OW10030   3.972   3.685   4.804
 3044SOL    HW110031   3.982   3.758   4.872
 3044SOL    HW210032   4.049   3.622   4.811
 3045SOL     OW10033   4.859   2.066   1.878
 3045SOL    HW110034   4.773   2.105   1.845
 3045SOL    HW210035   4.862   2.071   1.978
 3046SOL     OW10036   5.276   6.735   1.006
 3046SOL    HW110037   5.220   6.816   0.987
 3046SOL    HW210038   5.336   6.717   0.928
 3047SOL     OW10039   5.951   1.510   4.506
 3047SOL    HW110040   5.875   1.445   4.512
 3047SOL    HW210041   5.970   1.530   4.410
 3048SOL     OW10042   3.641   4.854   1.249
 3048SOL    HW110043   3.641   4.912   1.331
 3048SOL    HW210044   3.547   4.839   1.218
 3049SOL     OW10045   0.909   1.863   2.487
 3049SOL    HW110046   0.937   1.916   2.567
 3049SOL    HW210047   0.818   1.825   2.502
 3050SOL     OW10048   3.301   2.191   6.320
 3050SOL    HW110049   3.203   2.195   6.299
 3050SOL    HW210050   3.350   2.258   6.264
 3051SOL     OW10051   2.541   5.313   5.441
 3051SOL    HW110052   2.640   5.299   5.441
 3051SOL    HW210053   2.505   5.292   5.532
 3052SOL     OW10054   0.142   0.031   2.626
 3052SOL    HW110055   0.095   6.974   2.586
 3052SOL    HW210056   0.098   0.115   2.594
 3053SOL     OW10057   0.943   4.043   0.465
 3053SOL    HW110058   0.949   3.985   0.384
 3053SOL    HW210059   0.926   4.138   0.437
 3054SOL     OW10060   5.158   0.709   2.861
 3054SOL    HW110061   5.244   0.702   2.912
 3054SOL    HW210062   5.110   0.793   2.888
 3055SOL     OW10063   5.969   6.455   6.999
 3055SOL    HW110064   5.874   6.465   0.004
 3055SOL    HW210065   6.020   6.538   0.001
 3056SOL     OW10066   3.924   1.537   6.336
 3056SOL    HW110067   3.954   1.515   6.243
 3056SOL    HW210068   3.923   1.453   6.391
 3057SOL     OW10069   4.840   4.051   2.834
 3057SOL    HW110070   4.926   4.002   2.845
 3057SOL    HW210071   4.789   4.011   2.757
 3058SOL     OW10072   0.556   4.559   6.028
 3058SOL    HW110073   0.528   4.610   6.109
 3058SOL    HW210074   0.543   4.616   5.947
 3059SOL     OW10075   1.307   1.922   2.665
 3059SOL    HW110076   1.219   1.967   2.680
 3059SOL    HW210077   1.301   1.864   2.584
 3060SOL     OW10078   5.715   4.358   4.199
 3060SOL    HW110079   5.743   4.324   4.109
 3060SOL    HW210080   5.747   4.452   4.212
 3061SOL     OW10081   5.810   0.443   3.802
 3061SOL    HW110082   5.817   0.469   3.898
 3061SOL    HW210083   5.810   0.343   3.795
 3062SOL     OW10084   4.159   4.304   0.837
 3062SOL    HW110085   4.242   4.336   0.791
 3062SOL    HW210086   4.116   4.381   0.884
 3063SOL     OW10087   0.293   4.824   2.529
 3063SOL    HW110088   0.211   4.827   2.587
 3063SOL    HW210089   0.294   4.740   2.476
 3064SOL     OW10090   5.038   2.393   6.872
 3064SOL    HW110091   4.938   2.388   6.884
 3064SOL    HW210092   5.059   2.414   6.776
 3065SOL     OW10093   5.576   1.577   6.296
 3065SOL    HW110094   5.576   1.524   6.211
 3065SOL    HW210095   5.612   1.521   6.371
 3066SOL     OW10096   5.610   0.319   5.023
 3066SOL    HW110097   5.653   0.242   4.976
 3066SOL    HW210098   5.582   0.387   4.955
 3067SOL     OW10099   1.076   2.496   5.490
 3067SOL    HW110100   1.173   2.520   5.502
 3067SOL    HW210101   1.023   2.580   5.478
 3068SOL     OW10102   0.171   0.380   0.637
 3068SOL    HW110103   0.223   0.322   0.574
 3068SOL    HW210104   0.103   0.433   0.586
 3069SOL     OW10105   4.747   6.369   4.333
 3069SOL    HW110106   4.833   6.335   4.372
 3069SOL    HW210107   4.758   6.465   4.308
 3070SOL     OW10108   2.417   0.699   0.734
 3070SOL    HW110109   2.468   0.663   0.812
 3070SOL    HW210110   2.415   0.631   0.661
 3071SOL     OW10111   5.701   4.873   5.400
 3071SOL    HW110112   5.705   4.835   5.307
 3071SOL    HW210113   5.726   4.969   5.398
 3072SOL     OW10114   2.066   6.602   6.622
 3072SOL    HW110115   2.043   6.508   6.597
 3072SOL    HW210116   1.982   6.653   6.639
 3073SOL     OW10117   0.995   5.382   1.780
 3073SOL    HW110118   1.063   5.322   1.825
 3073SOL    HW210119   1.014   5.477   1.804
 3074SOL     OW10120   3.204   2.887   1.750
 3074SOL    HW110121   3.255   2.801   1.739
 3074SOL    HW210122   3.107   2.867   1.760
 3075SOL     OW10123   3.174   4.597   1.145
 3075SOL    HW110124   3.220   4.589   1.234
 3075SOL    HW210125   3.096   4.660   1.154
 3076SOL     OW10126   0.852   0.488   4.930
 3076SOL    HW110127   0.772   0.515   4.983
 3076SOL    HW210128   0.924   0.557   4.939
 3077SOL     OW10129   7.019   4.081   2.167
 3077SOL    HW110130   0.044   4.063   2.081
 3077SOL    HW210131   6.953   4.155   2.153
 3078SOL     OW10132   0.132   3.488   1.549
 3078SOL    HW110133   0.049   3.460   1.596
 3078SOL    HW210134   0.208   3.492   1.614
 3079SOL     OW10135   2.133   3.523   5.052
 3079SOL    HW110136   2.056   3.543   5.113
 3079SOL    HW210137   2.218   3.525   5.103
 3080SOL     OW10138   3.737   4.638   1.019
 3080SOL    HW110139   3.692   4.591   1.096
 3080SOL    HW210140   3.677   4.635   0.939
 3081SOL     OW10141   1.736   3.827   0.106
 3081SOL    HW110142   1.682   3.891   0.051
 3081SOL    HW210143   1.692   3.813   0.194
 3082SOL     OW10144   5.436   5.355   4.960
 3082SOL    HW110145   5.416   5.294   4.883
 3082SOL    HW210146   5.401   5.446   4.939
 3083SOL     OW10147   4.048   5.546   1.752
 3083SOL    HW110148   3.955   5.555   1.717
 3083SOL    HW210149   4.091   5.465   1.711
 3084SOL     OW10150   0.029   4.739   3.799
 3084SOL    HW110151   0.100   4.808   3.786
 3084SOL    HW210152   0.048   4.661   3.739
 3085SOL     OW10153   5.973   5.482   0.226
 3085SOL    HW110154   5.885   5.437   0.242
 3085SOL    HW210155   6.035   5.461   0.302
 3086SOL     OW10156   6.465   6.298   6.138
 3086SOL    HW110157   6.375   6.267   6.108
 3086SOL    HW210158   6.471   6.292   6.238
 3087SOL     OW10159   3.729   0.012   2.395
 3087SOL    HW110160   3.802   6.974   2.365
 3087SOL    HW210161   3.689   0.059   2.316
 3088SOL     OW10162   2.018   3.387   5.700
 3088SOL    HW110163   2.035   3.332   5.782
 3088SOL    HW210164   1.942   3.348   5.649
 3089SOL     OW10165   4.580   4.725   6.093
 3089SOL    HW110166   4.638   4.798   6.127
 3089SOL    HW210167   4.582   4.648   6.157
 3090SOL     OW10168   0.128   2.626   2.146
 3090SOL    HW110169   0.120   2.530   2.119
 3090SOL    HW210170   0.171   2.678   2.072
 3091SOL     OW10171   0.513   3.142   0.812
 3091SOL    HW110172   0.605   3.123   0.778
 3091SOL    HW210173   0.487   3.073   0.880
 3092SOL     OW10174   5.692   1.243   1.912
 3092SOL    HW110175   5.662   1.149   1.930
 3092SOL    HW210176   5.740   1.247   1.825
 3093SOL     OW10177   6.548   5.772   7.020
 3093SOL    HW110178   6.614   5.823   0.053
 3093SOL    HW210179   6.594   5.732   6.941
 3094SOL     OW10180   2.128   1.454   6.907
 3094SOL    HW110181   2.163   1.545   6.929
 3094SOL    HW210182   2.033   1.462   6.877
 3095SOL     OW10183   1.803   3.941   5.840
 3095SOL    HW110184   1.733   3.898   5.897
 3095SOL    HW210185   1.786   4.039   5.834
 3096SOL     OW10186   0.692   2.851   4.121
 3096SOL    HW110187   0.606   2.892   4.151
 3096SOL    HW210188   0.737   2.912   4.056
 3097SOL     OW10189   5.435   3.144   5.119
 3097SOL    HW110190   5.393   3.057   5.094
 3097SOL    HW210191   5.363   3.211   5.138
 3098SOL     OW10192   2.144   3.242   3.164
 3098SOL    HW110193   2.147   3.147   3.194
 3098SOL    HW210194   2.152   3.302   3.244
 3099SOL     OW10195   0.365   6.474   4.673
 3099SOL    HW110196   0.293   6.424   4.624
 3099SOL    HW210197   0.406   6.542   4.613
 3100SOL     OW10198   5.804   4.821   1.589
 3100SOL    HW110199   5.786   4.725   1.608
 3100SOL    HW210200   5.816   4.834   1.490
 3101SOL     OW10201   4.476   0.053   5.139
 3101SOL    HW110202   4.402   7.010   5.156
 3101SOL    HW210203   4.516   0.035   5.049
 3102SOL     OW10204   6.655   4.842   2.044
 3102SOL    HW110205   6.594   4.803   1.975
 3102SOL    HW210206   6.616   4.928   2.077
 3103SOL     OW10207   2.993   1.476   1.562
 3103SOL    HW110208   3.040   1.536   1.627
 3103SOL    HW210209   3.060   1.419   1.515
 3104SOL     OW10210   5.324   2.077   4.612
 3104SOL    HW110211   5.244   2.018   4.597
 3104SOL    HW210212   5.320   2.115   4.704
 3105SOL     OW10213   5.932   3.610   0.191
 3105SOL    HW110214   5.985   3.681   0.237
 3105SOL    HW210215   5.920   3.532   0.252
 3106SOL     OW10216   5.239   1.716   5.725
 3106SOL    HW110217   5.212   1.626   5.760
 3106SOL    HW210218   5.282   1.705   5.636
 3107SOL     OW10219   2.958   1.622   4.941
 3107SOL    HW110220   2.942   1.557   4.867
 3107SOL    HW210221   2.971   1.714   4.904
 3108SOL     OW10222   2.431   4.390   3.482
 3108SOL    HW110223   2.466   4.463   3.424
 3108SOL    HW210224   2.387   4.320   3.425
 3109SOL     OW10225   6.544   6.501   3.795
 3109SOL    HW110226   6.507   6.493   3.888
 3109SOL    HW210227   6.636   6.462   3.793
 3110SOL     OW10228   1.072   5.573   2.993
 3110SOL    HW110229   1.121   5.494   3.029
 3110SOL    HW210230   1.090   5.582   2.895
 3111SOL     OW10231   6.114   4.325   3.751
 3111SOL    HW110232   6.032   4.305   3.806
 3111SOL    HW210233   6.118   4.423   3.731
 3112SOL     OW10234   3.161   1.365   6.545
 3112SOL    HW110235   3.135   1.365   6.449
 3112SOL    HW210236   3.251   1.409   6.555
 3113SOL     OW10237   1.618   6.283   3.041
 3113SOL    HW110238   1.644   6.357   2.980
 3113SOL    HW210239   1.566   6.320   3.118
 3114SOL     OW10240   4.201   1.265   6.442
 3114SOL    HW110241   4.137   1.189   6.430
 3114SOL    HW210242   4.173   1.320   6.521
 3115SOL     OW10243   4.848   5.343   5.433
 3115SOL    HW110244   4.844   5.352   5.334
 3115SOL    HW210245   4.917   5.406   5.469
 3116SOL     OW10246   0.966   0.432   6.979
 3116SOL    HW110247   0.996   0.512   0.008
 3116SOL    HW210248   0.958   0.456   6.882
 3117SOL     OW10249   4.750   0.260   6.860
 3117SOL    HW110250   4.729   0.340   6.803
 3117SOL    HW210251   4.690   0.260   6.940
 3118SOL     OW10252   1.446   1.561   3.521
 3118SOL    HW110253   1.365   1.602   3.562
 3118SOL    HW210254   1.455   1.591   3.426
 3119SOL     OW10255   4.693   5.618   4.949
 3119SOL    HW110256   4.662   5.701   4.994
 3119SOL    HW210257   4.664   5.538   5.001
 3120SOL     OW10258   2.574   6.002   6.407
 3120SOL    HW110259   2.630   6.008   6.489
 3120SOL    HW210260   2.599   5.920   6.355
 3121SOL     OW10261   3.855   1.816   4.313
 3121SOL    HW110262   3.884   1.721   4.324
 3121SOL    HW210263   3.765   1.818   4.269
 3122SOL     OW10264   5.474   5.073   5.159
 3122SOL    HW110265   5.565   5.037   5.137
 3122SOL    HW210266   5.476   5.173   5.156
 3123SOL     OW10267   1.346   1.141   3.070
 3123SOL    HW110268   1.345   1.115   2.973
 3123SOL    HW210269   1.440   1.142   3.103
 3124SOL     OW10270   4.839   0.295   4.700
 3124SOL    HW110271   4.864   0.389   4.722
 3124SOL    HW210272   4.797   0.291   4.610
 3125SOL     OW10273   1.630   1.216   5.177
 3125SOL    HW110274   1.694   1.165   5.234
 3125SOL    HW210275   1.594   1.294   5.228
 3126SOL     OW10276   5.317   4.990   5.398
 3126SOL    HW110277   5.390   5.002   5.331
 3126SOL    HW210278   5.260   5.071   5.401
 3127SOL     OW10279   0.087   0.817   5.262
 3127SOL    HW110280   0.110   0.752   5.190
 3127SOL    HW210281   0.150   0.805   5.339
 3128SOL     OW10282   3.450   0.729   0.710
 3128SOL    HW110283   3.411   0.718   0.802
 3128SOL    HW210284   3.425   0.819   0.674
 3129SOL     OW10285   4.297   3.509   0.312
 3129SOL    HW110286   4.330   3.435   0.370
 3129SOL    HW210287   4.304   3.596   0.362
 3130SOL     OW10288   6.681   5.483   1.832
 3130SOL    HW110289   6.633   5.507   1.747
 3130SOL    HW210290   6.693   5.384   1.836
 3131SOL     OW10291   6.482   4.631   2.917
 3131SOL    HW110292   6.543   4.611   2.839
 3131SOL    HW210293   6.467   4.730   2.923
 3132SOL     OW10294   4.663   4.081   0.395
 3132SOL    HW110295   4.635   4.045   0.307
 3132SOL    HW210296   4.605   4.043   0.467
 3133SOL     OW10297   4.850   0.019   4.427
 3133SOL    HW110298   4.780   7.001   4.368
 3133SOL    HW210299   4.903   0.086   4.375
 3134SOL     OW10300   6.169   5.268   2.569
 3134SOL    HW110301   6.083   5.227   2.540
 3134SOL    HW210302   6.232   5.273   2.491
 3135SOL     OW10303   3.951   5.885   6.994
 3135SOL    HW110304   4.040   5.857   0.009
 3135SOL    HW210305   3.952   5.878   6.895
 3136SOL     OW10306   6.254   1.041   3.686
 3136SOL    HW110307   6.238   1.120   3.626
 3136SOL    HW210308   6.167   1.011   3.725
 3137SOL     OW10309   5.996   6.478   6.711
 3137SOL    HW110310   5.926   6.485   6.639
 3137SOL    HW210311   5.951   6.471   6.800
 3138SOL     OW10312   6.023   6.205   4.863
 3138SOL    HW110313   5.968   6.123   4.880
 3138SOL    HW210314   6.006   6.272   4.935
 3139SOL     OW10315   3.134   5.026   1.672
 3139SOL    HW110316   3.170   5.005   1.763
 3139SOL    HW210317   3.094   5.118   1.672
 3140SOL     OW10318   0.336   6.425   0.081
 3140SOL    HW110319   0.302   6.333   0.101
 3140SOL    HW210320   0.416   6.418   0.021
 3141SOL     OW10321   6.342   1.714   6.401
 3141SOL    HW110322   6.420   1.701   6.340
 3141SOL    HW210323   6.283   1.786   6.364
 3142SOL     OW10324   4.399   0.119   3.543
 3142SOL    HW110325   4.384   0.215   3.519
 3142SOL    HW210326   4.456   0.076   3.474
 3143SOL     OW10327   6.522   1.361   0.715
 3143SOL    HW110328   6.580   1.434   0.677
 3143SOL    HW210329   6.517   1.372   0.814
 3144SOL     OW10330   4.131   3.997   0.539
 3144SOL    HW110331   4.216   4.033   0.503
 3144SOL    HW210332   4.054   4.040   0.493
 3145SOL     OW10333   0.569   5.931   0.243
 3145SOL    HW110334   0.493   5.928   0.308
 3145SOL    HW210335   0.534   5.910   0.151
 3146SOL     OW10336   6.493   1.235   4.745
 3146SOL    HW110337   6.478   1.257   4.648
 3146SOL    HW210338   6.516   1.138   4.754
 3147SOL     OW10339   3.566   5.949   0.159
 3147SOL    HW110340   3.525   6.031   0.200
 3147SOL    HW210341   3.644   5.976   0.102
 3148SOL     OW10342   6.587   5.042   1.672
 3148SOL    HW110343   6.519   4.969   1.670
 3148SOL    HW210344   6.626   5.053   1.581
 3149SOL     OW10345   3.105   2.073   0.028
 3149SOL    HW110346   3.017   2.042   0.062
 3149SOL    HW210347   3.091   2.151   6.990
 3150SOL     OW10348   6.392   5.819   5.965
 3150SOL    HW110349   6.461   5.870   5.914
 3150SOL    HW210350   6.305   5.820   5.916
 3151SOL     OW10351   0.162   0.441   5.483
 3151SOL    HW110352   0.228   0.439   5.408
 3151SOL    HW210353   0.141   0.347   5.511
 3152SOL     OW10354   1.257   3.204   5.738
 3152SOL    HW110355   1.213   3.236   5.655
 3152SOL    HW210356   1.281   3.282   5.796
 3153SOL     OW10357   6.374   4.872   1.648
 3153SOL    HW110358   6.397   4.841   1.556
 3153SOL    HW210359   6.298   4.936   1.645
 3154SOL     OW10360   4.329   0.875   6.767
 3154SOL    HW110361   4.324   0.910   6.674
 3154SOL    HW210362   4.256   0.917   6.822
 3155SOL     OW10363   0.950   4.651   0.283
 3155SOL    HW110364   0.947   4.748   0.308
 3155SOL    HW210365   0.856   4.617   0.270
 3156SOL     OW10366   3.640   4.202   1.781
 3156SOL    HW110367   3.716   4.159   1.831
 3156SOL    HW210368   3.557   4.148   1.793
 3157SOL     OW10369   0.899   1.186   5.069
 3157SOL    HW110370   0.865   1.161   5.159
 3157SOL    HW210371   0.846   1.140   4.999
 3158SOL     OW10372   1.561   1.268   5.852
 3158SOL    HW110373   1.635   1.285   5.917
 3158SOL    HW210374   1.574   1.178   5.810
 3159SOL     OW10375   5.547   0.447   6.672
 3159SOL    HW110376   5.639   0.481   6.654
 3159SOL    HW210377   5.552   0.359   6.719
 3160SOL     OW10378   1.507   0.521   6.025
 3160SOL    HW110379   1.463   0.450   6.081
 3160SOL    HW210380   1.438   0.566   5.969
 3161SOL     OW10381   1.946   2.645   2.054
 3161SOL    HW110382   1.984   2.673   2.142
 3161SOL    HW210383   1.958   2.547   2.042
 3162SOL     OW10384   1.942   5.901   1.368
 3162SOL    HW110385   1.922   5.838   1.293
 3162SOL    HW210386   1.876   5.976   1.366
 3163SOL     OW10387   4.001   4.420   0.591
 3163SOL    HW110388   4.049   4.508   0.601
 3163SOL    HW210389   3.973   4.388   0.681
 3164SOL     OW10390   2.447   6.295   3.853
 3164SOL    HW110391   2.440   6.367   3.923
 3164SOL    HW210392   2.377   6.310   3.784
 3165SOL     OW10393   0.706   6.524   6.571
 3165SOL    HW110394   0.793   6.474   6.568
 3165SOL    HW210395   0.713   6.600   6.635
 3166SOL     OW10396   5.502   1.114   4.915
 3166SOL    HW110397   5.477   1.019   4.896
 3166SOL    HW210398   5.567   1.117   4.991
 3167SOL     OW10399   5.583   2.912   0.701
 3167SOL    HW110400   5.509   2.916   0.767
 3167SOL    HW210401   5.638   2.996   0.707
 3168SOL     OW10402   4.501   1.716   0.438
 3168SOL    HW110403   4.521   1.779   0.514
 3168SOL    HW210404   4.490   1.623   0.474
 3169SOL     OW10405   2.485   4.471   1.850
 3169SOL    HW110406   2.569   4.485   1.798
 3169SOL    HW210407   2.495   4.511   1.941
 3170SOL     OW10408   2.109   3.348   3.666
 3170SOL    HW110409   2.162   3.336   3.750
 3170SOL    HW210410   2.072   3.441   3.663
 3171SOL     OW10411   5.691   1.913   3.680
 3171SOL    HW110412   5.610   1.930   3.624
 3171SOL    HW210413   5.690   1.818   3.712
 3172SOL     OW10414   5.947   3.678   1.520
 3172SOL    HW110415   5.853   3.686   1.553
 3172SOL    HW210416   6.008   3.732   1.580
 3173SOL     OW10417   4.483   3.319   0.123
 3173SOL    HW110418   4.446   3.410   0.103
 3173SOL    HW210419   4.442   3.285   0.208
 3174SOL     OW10420   3.188   3.205   6.561
 3174SOL    HW110421   3.187   3.108   6.536
 3174SOL    HW210422   3.121   3.222   6.633
 3175SOL     OW10423   5.405   0.927   5.217
 3175SOL    HW110424   5.327   0.957   5.163
 3175SOL    HW210425   5.387   0.944   5.314
 3176SOL     OW10426   0.767   4.787   4.428
 3176SOL    HW110427   0.715   4.853   4.482
 3176SOL    HW210428   0.759   4.697   4.471
 3177SOL     OW10429   5.324   3.964   3.565
 3177SOL    HW110430   5.294   3.969   3.660
 3177SOL    HW210431   5.390   4.038   3.547
 3178SOL     OW10432   6.680   1.039   2.145
 3178SOL    HW110433   6.611   0.987   2.094
 3178SOL    HW210434   6.771   1.014   2.112
 3179SOL     OW10435   1.312   2.376   1.915
 3179SOL    HW110436   1.312   2.354   2.012
 3179SOL    HW210437   1.245   2.448   1.896
 3180SOL     OW10438   0.374   5.865   0.413
 3180SOL    HW110439   0.388   5.767   0.430
 3180SOL    HW210440   0.379   5.915   0.499
 3181SOL     OW10441   1.818   6.542   5.118
 3181SOL    HW110442   1.805   6.590   5.205
 3181SOL    HW210443   1.867   6.457   5.134
 3182SOL     OW10444   2.220   1.478   0.950
 3182SOL    HW110445   2.133   1.433   0.972
 3182SOL    HW210446   2.204   1.550   0.882
 3183SOL     OW10447   3.632   3.889   0.969
 3183SOL    HW110448   3.539   3.854   0.972
 3183SOL    HW210449   3.645   3.944   0.886
 3184SOL     OW10450   0.192   2.103   4.600
 3184SOL    HW110451   0.273   2.063   4.557
 3184SOL    HW210452   0.134   2.144   4.529
 3185SOL     OW10453   0.720   5.566   6.700
 3185SOL    HW110454   0.679   5.653   6.724
 3185SOL    HW210455   0.649   5.500   6.677
 3186SOL     OW10456   0.120   1.842   6.594
 3186SOL    HW110457   0.101   1.941   6.592
 3186SOL    HW210458   0.069   1.797   6.520
 3187SOL     OW10459   4.820   5.937   2.701
 3187SOL    HW110460   4.885   5.873   2.660
 3187SOL    HW210461   4.793   5.903   2.791
 3188SOL     OW10462   2.412   5.655   6.797
 3188SOL    HW110463   2.396   5.741   6.749
 3188SOL    HW210464   2.511   5.636   6.800
 3189SOL     OW10465   3.344   1.718   5.592
 3189SOL    HW110466   3.400   1.794   5.560
 3189SOL    HW210467   3.259   1.715   5.539
 3190SOL     OW10468   5.849   6.469   4.209
 3190SOL    HW110469   5.794   6.422   4.279
 3190SOL    HW210470   5.853   6.566   4.229
 3191SOL     OW10471   3.441   5.642   1.233
 3191SOL    HW110472   3.358   5.633   1.178
 3191SOL    HW210473   3.440   5.730   1.281
 3192SOL     OW10474   5.395   1.851   2.730
 3192SOL    HW110475   5.322   1.833   2.796
 3192SOL    HW210476   5.438   1.765   2.703
 3193SOL     OW10477   3.457   0.164   4.932
 3193SOL    HW110478   3.376   0.217   4.956
 3193SOL    HW210479   3.487   0.189   4.840
 3194SOL     OW10480   1.696   0.145   6.898
 3194SOL    HW110481   1.714   0.126   6.801
 3194SOL    HW210482   1.634   0.223   6.905
 3195SOL     OW10483   0.222   1.445   1.340
 3195SOL    HW110484   0.197   1.478   1.249
 3195SOL    HW210485   0.322   1.450   1.351
 3196SOL     OW10486   5.864   0.143   3.735
 3196SOL    HW110487   5.949   0.174   3.778
 3196SOL    HW210488   5.866   0.163   3.638
 3197SOL     OW10489   2.216   0.686   6.518
 3197SOL    HW110490   2.223   0.751   6.593
 3197SOL    HW210491   2.142   0.621   6.536
 3198SOL     OW10492   5.466   2.792   3.750
 3198SOL    HW110493   5.427   2.880   3.723
 3198SOL    HW210494   5.566   2.798   3.750
 3199SOL     OW10495   5.439   4.466   2.899
 3199SOL    HW110496   5.361   4.426   2.947
 3199SOL    HW210497   5.496   4.393   2.862
 3200SOL     OW10498   5.225   3.813   3.371
 3200SOL    HW110499   5.183   3.883   3.312
 3200SOL    HW210500   5.251   3.854   3.459
 3201SOL     OW10501   6.096   4.526   2.130
 3201SOL    HW110502   6.082   4.569   2.220
 3201SOL    HW210503   6.100   4.598   2.060
 3202SOL     OW10504   2.395   3.372   0.064
 3202SOL    HW110505   2.375   3.402   0.158
 3202SOL    HW210506   2.451   3.289   0.067
 3203SOL     OW10507   3.593   6.712   1.239
 3203SOL    HW110508   3.529   6.762   1.297
 3203SOL    HW210509   3.578   6.737   1.144
 3204SOL     OW10510   3.232   1.371   3.221
 3204SOL    HW110511   3.168   1.371   3.298
 3204SOL    HW210512   3.325   1.357   3.254
 3205SOL     OW10513   4.583   3.453   5.797
 3205SOL    HW110514   4.620   3.545   5.814
 3205SOL    HW210515   4.655   3.385   5.810
 3206SOL     OW10516   3.340   3.521   1.060
 3206SOL    HW110517   3.439   3.513   1.062
 3206SOL    HW210518   3.315   3.616   1.040
 3207SOL     OW10519   1.775   5.347   5.767
 3207SOL    HW110520   1.705   5.389   5.825
 3207SOL    HW210521   1.732   5.298   5.692
 3208SOL     OW10522   6.665   4.789   6.232
 3208SOL    HW110523   6.700   4.696   6.223
 3208SOL    HW210524   6.736   4.848   6.269
 3209SOL     OW10525   5.156   5.798   6.460
 3209SOL    HW110526   5.129   5.703   6.475
 3209SOL    HW210527   5.256   5.804   6.455
 3210SOL     OW10528   5.668   5.783   1.931
 3210SOL    HW110529   5.753   5.739   1.961
 3210SOL    HW210530   5.655   5.765   1.833
 3211SOL     OW10531   1.402   5.712   6.286
 3211SOL    HW110532   1.482   5.664   6.249
 3211SOL    HW210533   1.325   5.648   6.293
 3212SOL     OW10534   2.184   0.554   2.863
 3212SOL    HW110535   2.154   0.485   2.929
 3212SOL    HW210536   2.144   0.642   2.887
 3213SOL     OW10537   1.382   0.314   6.131
 3213SOL    HW110538   1.386   0.242   6.062
 3213SOL    HW210539   1.390   0.273   6.222
 3214SOL     OW10540   3.200   1.008   2.577
 3214SOL    HW110541   3.251   1.083   2.534
 3214SOL    HW210542   3.189   1.028   2.675
 3215SOL     OW10543   1.921   3.476   1.550
 3215SOL    HW110544   1.933   3.540   1.625
 3215SOL    HW210545   1.825   3.449   1.543
 3216SOL     OW10546   6.220   4.860   0.991
 3216SOL    HW110547   6.162   4.779   0.997
 3216SOL    HW210548   6.198   4.924   1.065
 3217SOL     OW10549   6.775   5.951   2.289
 3217SOL    HW110550   6.848   5.948   2.221
 3217SOL    HW210551   6.813   5.980   2.377
 3218SOL     OW10552   4.987   1.317   3.035
 3218SOL    HW110553   4.965   1.380   3.109
 3218SOL    HW210554   5.083   1.329   3.008
 3219SOL     OW10555   5.960   1.316   5.373
 3219SOL    HW110556   5.985   1.394   5.430
 3219SOL    HW210557   5.898   1.346   5.301
 3220SOL     OW10558   6.960   4.465   6.045
 3220SOL    HW110559   0.006   4.461   5.973
 3220SOL    HW210560   6.870   4.446   6.006
 3221SOL     OW10561   3.494   1.130   1.267
 3221SOL    HW110562   3.547   1.046   1.265
 3221SOL    HW210563   3.404   1.114   1.228
 3222SOL     OW10564   3.422   1.493   3.038
 3222SOL    HW110565   3.346   1.428   3.027
 3222SOL    HW210566   3.386   1.585   3.049
 3223SOL     OW10567   1.667   5.894   0.276
 3223SOL    HW110568   1.663   5.982   0.325
 3223SOL    HW210569   1.761   5.860   0.277
 3224SOL     OW10570   3.357   2.034   3.438
 3224SOL    HW110571   3.354   1.934   3.432
 3224SOL    HW210572   3.346   2.062   3.533
 3225SOL     OW10573   3.780   1.107   3.866
 3225SOL    HW110574   3.873   1.077   3.848
 3225SOL    HW210575   3.740   1.147   3.783
 3226SOL     OW10576   6.361   0.256   0.200
 3226SOL    HW110577   6.325   0.166   0.175
 3226SOL    HW210578   6.421   0.247   0.279
 3227SOL     OW10579   5.328   4.936   4.957
 3227SOL    HW110580   5.237   4.910   4.989
 3227SOL    HW210581   5.389   4.945   5.036
 3228SOL     OW10582   2.615   4.086   0.182
 3228SOL    HW110583   2.638   4.018   0.112
 3228SOL    HW210584   2.687   4.156   0.185
 3229SOL     OW10585   1.365   1.575   0.194
 3229SOL    HW110586   1.326   1.631   0.122
 3229SOL    HW210587   1.465   1.579   0.189
 3230SOL     OW10588   2.863   6.201   5.516
 3230SOL    HW110589   2.919   6.121   5.541
 3230SOL    HW210590   2.921   6.283   5.517
 3231SOL     OW10591   1.990   1.711   2.238
 3231SOL    HW110592   2.074   1.762   2.255
 3231SOL    HW210593   1.988   1.628   2.295
 3232SOL     OW10594   3.481   5.211   4.402
 3232SOL    HW110595   3.444   5.278   4.337
 3232SOL    HW210596   3.580   5.204   4.390
 3233SOL     OW10597   0.710   1.724   0.681
 3233SOL    HW110598   0.754   1.810   0.656
 3233SOL    HW210599   0.639   1.703   0.613
 3234SOL     OW10600   2.408   2.574   0.820
 3234SOL    HW110601   2.442   2.610   0.733
 3234SOL    HW210602   2.372   2.649   0.875
 3235SOL     OW10603   0.807   6.924   2.965
 3235SOL    HW110604   0.855   7.011   2.954
 3235SOL    HW210605   0.832   6.861   2.892
 3236SOL     OW10606   3.884   2.143   0.023
 3236SOL    HW110607   3.851   2.050   0.008
 3236SOL    HW210608   3.898   2.188   6.956
 3237SOL     OW10609   6.020   1.992   5.543
 3237SOL    HW110610   6.109   1.950   5.563
 3237SOL    HW210611   6.004   1.992   5.445
 3238SOL     OW10612   6.767   4.695   1.679
 3238SOL    HW110613   6.672   4.665   1.680
 3238SOL    HW210614   6.815   4.657   1.758
 3239SOL     OW10615   6.999   6.827   4.282
 3239SOL    HW110616   6.966   6.883   4.206
 3239SOL    HW210617   0.076   6.830   4.285
 3240SOL     OW10618   0.357   0.396   0.293
 3240SOL    HW110619   0.316   0.485   0.310
 3240SOL    HW210620   0.381   0.353   0.381
 3241SOL     OW10621   5.967   2.298   5.959
 3241SOL    HW110622   6.039   2.276   5.893
 3241SOL    HW210623   5.922   2.214   5.989
 3242SOL     OW10624   5.992   4.129   4.372
 3242SOL    HW110625   5.909   4.163   4.417
 3242SOL    HW210626   6.072   4.177   4.408
 3243SOL     OW10627   6.226   4.781   4.496
 3243SOL    HW110628   6.295   4.762   4.566
 3243SOL    HW210629   6.157   4.709   4.496
 3244SOL     OW10630   5.185   0.509   6.799
 3244SOL    HW110631   5.279   0.513   6.835
 3244SOL    HW210632   5.178   0.433   6.734
 3245SOL     OW10633   4.202   1.063   5.245
 3245SOL    HW110634   4.278   1.126   5.224
 3245SOL    HW210635   4.125   1.116   5.279
 3246SOL     OW10636   6.911   0.031   2.965
 3246SOL    HW110637   6.877   0.121   2.937
 3246SOL    HW210638   6.881   6.985   2.899
 3247SOL     OW10639   0.295   4.304   3.426
 3247SOL    HW110640   0.254   4.394   3.442
 3247SOL    HW210641   0.223   4.238   3.405
 3248SOL     OW10642   5.243   2.045   3.452
 3248SOL    HW110643   5.185   2.016   3.528
 3248SOL    HW210644   5.249   2.145   3.451
 3249SOL     OW10645   2.957   3.836   3.823
 3249SOL    HW110646   2.935   3.835   3.921
 3249SOL    HW210647   3.026   3.907   3.806
 3250SOL     OW10648   4.832   5.403   2.729
 3250SOL    HW110649   4.772   5.329   2.762
 3250SOL    HW210650   4.833   5.477   2.796
 3251SOL     OW10651   2.297   2.003   2.939
 3251SOL    HW110652   2.361   2.075   2.913
 3251SOL    HW210653   2.299   1.930   2.871
 3252SOL     OW10654   1.720   1.052   3.418
 3252SOL    HW110655   1.740   1.095   3.506
 3252SOL    HW210656   1.803   1.012   3.380
 3253SOL     OW10657   6.765   3.760   0.219
 3253SOL    HW110658   6.819   3.757   0.303
 3253SOL    HW210659   6.826   3.768   0.140
 3254SOL     OW10660   6.454   6.968   1.012
 3254SOL    HW110661   6.419   0.034   0.982
 3254SOL    HW210662   6.389   6.927   1.076
 3255SOL     OW10663   4.829   5.665   1.233
 3255SOL    HW110664   4.732   5.642   1.231
 3255SOL    HW210665   4.860   5.682   1.139
 3256SOL     OW10666   5.031   2.406   1.243
 3256SOL    HW110667   4.985   2.492   1.264
 3256SOL    HW210668   4.964   2.338   1.214
 3257SOL     OW10669   2.779   2.110   3.079
 3257SOL    HW110670   2.793   2.025   3.029
 3257SOL    HW210671   2.802   2.096   3.176
 3258SOL     OW10672   2.371   5.325   3.390
 3258SOL    HW110673   2.427   5.392   3.439
 3258SOL    HW210674   2.319   5.271   3.456
 3259SOL     OW10675   5.120   4.407   3.722
 3259SOL    HW110676   5.067   4.325   3.743
 3259SOL    HW210677   5.152   4.448   3.808
 3260SOL     OW10678   1.012   3.983   3.335
 3260SOL    HW110679   1.106   4.017   3.347
 3260SOL    HW210680   0.949   4.049   3.376
 3261SOL     OW10681   5.250   7.013   3.695
 3261SOL    HW110682   5.332   0.007   3.751
 3261SOL    HW210683   5.174   6.987   3.754
 3262SOL     OW10684   3.076   2.046   3.434
 3262SOL    HW110685   3.107   2.068   3.527
 3262SOL    HW210686   3.152   2.057   3.370
 3263SOL     OW10687   7.005   1.398   2.315
 3263SOL    HW110688   0.077   1.429   2.301
 3263SOL    HW210689   6.957   1.399   2.227
 3264SOL     OW10690   1.704   4.878   6.793
 3264SOL    HW110691   1.679   4.972   6.771
 3264SOL    HW210692   1.642   4.815   6.746
 3265SOL     OW10693   6.072   5.224   6.375
 3265SOL    HW110694   6.007   5.265   6.439
 3265SOL    HW210695   6.163   5.265   6.389
 3266SOL     OW10696   3.304   5.789   6.704
 3266SOL    HW110697   3.313   5.808   6.606
 3266SOL    HW210698   3.393   5.796   6.748
 3267SOL     OW10699   3.631   6.948   0.047
 3267SOL    HW110700   3.564   7.014   0.080
 3267SOL    HW210701   3.723   6.981   0.067
 3268SOL     OW10702   6.271   5.376   1.623
 3268SOL    HW110703   6.259   5.290   1.574
 3268SOL    HW210704   6.182   5.417   1.642
 3269SOL     OW10705   1.953   4.905   1.642
 3269SOL    HW110706   2.036   4.919   1.590
 3269SOL    HW210707   1.961   4.951   1.731
 3270SOL     OW10708   0.827   2.842   5.169
 3270SOL    HW110709   0.887   2.911   5.128
 3270SOL    HW210710   0.883   2.774   5.216
 3271SOL     OW10711   0.626   2.735   2.365
 3271SOL    HW110712   0.674   2.654   2.330
 3271SOL    HW210713   0.532   2.735   2.330
 3272SOL     OW10714   4.521   6.249   0.866
 3272SOL    HW110715   4.542   6.343   0.891
 3272SOL    HW210716   4.436   6.221   0.911
 3273SOL     OW10717   4.890   2.543   6.167
 3273SOL    HW110718   4.986   2.570   6.159
 3273SOL    HW210719   4.838   2.617   6.211
 3274SOL     OW10720   5.891   0.194   1.225
 3274SOL    HW110721   5.832   0.134   1.278
 3274SOL    HW210722   5.956   0.239   1.286
 3275SOL     OW10723   4.860   0.648   1.767
 3275SOL    HW110724   4.778   0.696   1.736
 3275SOL    HW210725   4.848   0.620   1.863
 3276SOL     OW10726   5.195   0.455   0.427
 3276SOL    HW110727   5.214   0.552   0.411
 3276SOL    HW210728   5.201   0.405   0.341
 3277SOL     OW10729   3.383   1.895   1.936
 3277SOL    HW110730   3.402   1.943   2.021
 3277SOL    HW210731   3.430   1.807   1.936
 3278SOL     OW10732   6.165   0.820   6.906
 3278SOL    HW110733   6.150   0.822   7.005
 3278SOL    HW210734   6.083   0.786   6.861
 3279SOL     OW10735   3.349   0.249   1.846
 3279SOL    HW110736   3.313   0.247   1.753
 3279SOL    HW210737   3.400   0.165   1.865
 3280SOL     OW10738   6.198   4.187   3.524
 3280SOL    HW110739   6.120   4.129   3.501
 3280SOL    HW210740   6.185   4.224   3.616
 3281SOL     OW10741   6.151   3.585   1.363
 3281SOL    HW110742   6.071   3.638   1.389
 3281SOL    HW210743   6.185   3.535   1.443
 3282SOL     OW10744   0.141   4.964   4.546
 3282SOL    HW110745   0.046   4.992   4.531
 3282SOL    HW210746   0.196   4.985   4.466
 3283SOL     OW10747   3.562   2.118   0.994
 3283SOL    HW110748   3.520   2.037   0.953
 3283SOL    HW210749   3.622   2.162   0.927
 3284SOL     OW10750   2.175   5.875   4.279
 3284SOL    HW110751   2.261   5.853   4.324
 3284SOL    HW210752   2.105   5.810   4.308
 3285SOL     OW10753   3.761   2.063   4.709
 3285SOL    HW110754   3.731   1.969   4.699
 3285SOL    HW210755   3.793   2.098   4.621
 3286SOL     OW10756   2.478   1.700   2.282
 3286SOL    HW110757   2.526   1.613   2.271
 3286SOL    HW210758   2.494   1.757   2.202
 3287SOL     OW10759   2.341   0.363   6.962
 3287SOL    HW110760   2.280   0.290   6.931
 3287SOL    HW210761   2.417   0.324   7.013
 3288SOL     OW10762   2.391   6.477   1.673
 3288SOL    HW110763   2.381   6.412   1.748
 3288SOL    HW210764   2.314   6.541   1.674
 3289SOL     OW10765   4.514   1.232   6.430
 3289SOL    HW110766   4.519   1.133   6.425
 3289SOL    HW210767   4.424   1.263   6.399
 3290SOL     OW10768   0.246   5.580   0.408
 3290SOL    HW110769   0.184   5.591   0.485
 3290SOL    HW210770   0.300   5.497   0.420
 3291SOL     OW10771   4.927   0.059   5.199
 3291SOL    HW110772   4.873   0.111   5.132
 3291SOL    HW210773   4.982   7.013   5.151
 3292SOL     OW10774   6.832   1.920   0.817
 3292SOL    HW110775   6.770   1.957   0.748
 3292SOL    HW210776   6.785   1.848   0.868
 3293SOL     OW10777   6.116   5.785   3.650
 3293SOL    HW110778   6.118   5.758   3.554
 3293SOL    HW210779   6.042   5.851   3.665
 3294SOL     OW10780   5.277   2.983   4.824
 3294SOL    HW110781   5.366   2.941   4.844
 3294SOL    HW210782   5.292   3.073   4.784
 3295SOL     OW10783   1.159   2.761   2.638
 3295SOL    HW110784   1.107   2.835   2.680
 3295SOL    HW210785   1.252   2.761   2.673
 3296SOL     OW10786   1.286   0.746   6.245
 3296SOL    HW110787   1.386   0.747   6.251
 3296SOL    HW210788   1.248   0.810   6.312
 3297SOL     OW10789   2.916   1.255   4.973
 3297SOL    HW110790   2.899   1.304   4.888
 3297SOL    HW210791   2.972   1.311   5.034
 3298SOL     OW10792   5.263   3.806   5.853
 3298SOL    HW110793   5.311   3.840   5.933
 3298SOL    HW210794   5.285   3.863   5.774
 3299SOL     OW10795   2.773   4.786   4.015
 3299SOL    HW110796   2.832   4.763   3.937
 3299SOL    HW210797   2.681   4.752   3.998
 3300SOL     OW10798   1.835   6.737   4.155
 3300SOL    HW110799   1.825   6.820   4.101
 3300SOL    HW210800   1.931   6.724   4.180
 3301SOL     OW10801   0.756   1.475   3.103
 3301SOL    HW110802   0.841   1.476   3.155
 3301SOL    HW210803   0.681   1.509   3.160
 3302SOL     OW10804   1.946   4.746   5.540
 3302SOL    HW110805   1.941   4.655   5.582
 3302SOL    HW210806   1.858   4.769   5.499
 3303SOL     OW10807   3.664   2.547   0.337
 3303SOL    HW110808   3.663   2.623   0.272
 3303SOL    HW210809   3.570   2.522   0.359
 3304SOL     OW10810   3.125   5.477   6.852
 3304SOL    HW110811   3.090   5.513   6.939
 3304SOL    HW210812   3.060   5.499   6.779
 3305SOL     OW10813   3.322   2.887   0.698
 3305SOL    HW110814   3.269   2.877   0.782
 3305SOL    HW210815   3.334   2.798   0.655
 3306SOL     OW10816   2.201   0.874   0.097
 3306SOL    HW110817   2.262   0.905   0.170
 3306SOL    HW210818   2.209   0.934   0.018
 3307SOL     OW10819   1.656   6.638   5.564
 3307SOL    HW110820   1.592   6.692   5.620
 3307SOL    HW210821   1.635   6.541   5.574
 3308SOL     OW10822   3.947   4.662   1.171
 3308SOL    HW110823   3.863   4.666   1.117
 3308SOL    HW210824   3.974   4.755   1.197
 3309SOL     OW10825   5.786   3.338   3.474
 3309SOL    HW110826   5.872   3.290   3.458
 3309SOL    HW210827   5.727   3.284   3.535
 3310SOL     OW10828   6.346   4.870   5.853
 3310SOL    HW110829   6.315   4.916   5.769
 3310SOL    HW210830   6.278   4.802   5.880
 3311SOL     OW10831   2.819   3.695   0.412
 3311SOL    HW110832   2.792   3.624   0.346
 3311SOL    HW210833   2.847   3.777   0.362
 3312SOL     OW10834   4.759   2.635   5.609
 3312SOL    HW110835   4.697   2.613   5.533
 3312SOL    HW210836   4.726   2.592   5.693
 3313SOL     OW10837   0.402   1.156   3.482
 3313SOL    HW110838   0.458   1.074   3.493
 3313SOL    HW210839   0.461   1.233   3.456
 3314SOL     OW10840   2.787   5.530   2.797
 3314SOL    HW110841   2.745   5.542   2.707
 3314SOL    HW210842   2.877   5.574   2.798
 3315SOL     OW10843   0.170   5.218   5.195
 3315SOL    HW110844   0.170   5.305   5.245
 3315SOL    HW210845   0.080   5.202   5.156
 3316SOL     OW10846   4.069   2.727   5.977
 3316SOL    HW110847   4.048   2.733   5.879
 3316SOL    HW210848   4.146   2.787   5.998
 3317SOL     OW10849   5.223   2.539   2.531
 3317SOL    HW110850   5.236   2.498   2.622
 3317SOL    HW210851   5.129   2.522   2.501
 3318SOL     OW10852   3.352   2.407   0.809
 3318SOL    HW110853   3.440   2.438   0.773
 3318SOL    HW210854   3.354   2.410   0.909
 3319SOL     OW10855   6.574   5.760   3.456
 3319SOL    HW110856   6.653   5.702   3.478
 3319SOL    HW210857   6.528   5.787   3.541
 3320SOL     OW10858   6.404   6.792   1.605
 3320SOL    HW110859   6.501   6.770   1.599
 3320SOL    HW210860   6.365   6.750   1.687
 3321SOL     OW10861   5.244   1.562   0.622
 3321SOL    HW110862   5.148   1.588   0.627
 3321SOL    HW210863   5.282   1.593   0.534
 3322SOL     OW10864   6.527   3.739   0.763
 3322SOL    HW110865   6.497   3.749   0.858
 3322SOL    HW210866   6.619   3.699   0.761
 3323SOL     OW10867   1.399   2.942   1.436
 3323SOL    HW110868   1.472   2.940   1.504
 3323SOL    HW210869   1.431   2.899   1.352
 3324SOL     OW10870   5.136   6.178   5.850
 3324SOL    HW110871   5.120   6.082   5.871
 3324SOL    HW210872   5.141   6.231   5.934
 3325SOL     OW10873   2.429   3.961   5.911
 3325SOL    HW110874   2.414   3.866   5.885
 3325SOL    HW210875   2.521   3.989   5.883
 3326SOL     OW10876   4.108   1.355   1.911
 3326SOL    HW110877   4.205   1.345   1.935
 3326SOL    HW210878   4.078   1.276   1.859
 3327SOL     OW10879   0.259   4.956   6.712
 3327SOL    HW110880   0.200   5.007   6.774
 3327SOL    HW210881   0.244   4.858   6.725
 3328SOL     OW10882   4.663   2.347   6.577
 3328SOL    HW110883   4.702   2.369   6.487
 3328SOL    HW210884   4.655   2.431   6.631
 3329SOL     OW10885   6.589   5.954   5.792
 3329SOL    HW110886   6.661   6.022   5.805
 3329SOL    HW210887   6.571   5.943   5.694
 3330SOL     OW10888   6.705   3.577   2.834
 3330SOL    HW110889   6.654   3.623   2.762
 3330SOL    HW210890   6.726   3.483   2.805
 3331SOL     OW10891   2.229   3.210   1.366
 3331SOL    HW110892   2.163   3.154   1.417
 3331SOL    HW210893   2.282   3.151   1.304
 3332SOL     OW10894   6.158   4.779   1.443
 3332SOL    HW110895   6.248   4.802   1.406
 3332SOL    HW210896   6.154   4.681   1.463
 3333SOL     OW10897   4.503   5.780   5.879
 3333SOL    HW110898   4.467   5.696   5.838
 3333SOL    HW210899   4.517   5.849   5.807
 3334SOL     OW10900   2.454   4.220   1.739
 3334SOL    HW110901   2.534   4.164   1.758
 3334SOL    HW210902   2.471   4.314   1.767
 3335SOL     OW10903   6.025   4.386   4.833
 3335SOL    HW110904   6.093   4.314   4.823
 3335SOL    HW210905   6.059   4.456   4.896
 3336SOL     OW10906   3.282   5.781   5.917
 3336SOL    HW110907   3.356   5.734   5.869
 3336SOL    HW210908   3.194   5.756   5.877
 3337SOL     OW10909   3.518   1.880   0.891
 3337SOL    HW110910   3.599   1.823   0.878
 3337SOL    HW210911   3.446   1.826   0.934
 3338SOL     OW10912   0.041   4.215   0.472
 3338SOL    HW110913   0.003   4.159   0.546
 3338SOL    HW210914   0.140   4.223   0.484
 3339SOL     OW10915   0.258   5.547   6.335
 3339SOL    HW110916   0.302   5.592   6.257
 3339SOL    HW210917   0.285   5.451   6.338
 3340SOL     OW10918   3.789   6.546   1.871
 3340SOL    HW110919   3.778   6.451   1.901
 3340SOL    HW210920   3.848   6.548   1.790
 3341SOL     OW10921   0.961   0.318   1.854
 3341SOL    HW110922   0.928   0.345   1.764
 3341SOL    HW210923   0.885   0.317   1.919
 3342SOL     OW10924   2.364   6.985   4.168
 3342SOL    HW110925   2.457   6.975   4.204
 3342SOL    HW210926   2.305   0.003   4.237
 3343SOL     OW10927   6.192   2.622   1.084
 3343SOL    HW110928   6.173   2.526   1.067
 3343SOL    HW210929   6.127   2.679   1.035
 3344SOL     OW10930   0.004   3.267   5.240
 3344SOL    HW110931   0.028   3.267   5.337
 3344SOL    HW210932   6.934   3.302   5.229
 3345SOL     OW10933   3.015   3.223   5.571
 3345SOL    HW110934   3.009   3.310   5.521
 3345SOL    HW210935   3.109   3.189   5.569
 3346SOL     OW10936   1.517   5.980   2.156
 3346SOL    HW110937   1.601   6.033   2.168
 3346SOL    HW210938   1.534   5.884   2.179
 3347SOL     OW10939   5.334   4.103   4.948
 3347SOL    HW110940   5.363   4.042   4.874
 3347SOL    HW210941   5.248   4.071   4.986
 3348SOL     OW10942   3.423   2.864   3.211
 3348SOL    HW110943   3.351   2.933   3.198
 3348SOL    HW210944   3.504   2.891   3.159
 3349SOL     OW10945   6.286   3.844   5.274
 3349SOL    HW110946   6.193   3.808   5.262
 3349SOL    HW210947   6.341   3.823   5.193
 3350SOL     OW10948   0.966   1.599   0.968
 3350SOL    HW110949   0.979   1.566   1.062
 3350SOL    HW210950   1.029   1.675   0.950
 3351SOL     OW10951   5.329   1.706   1.799
 3351SOL    HW110952   5.348   1.622   1.747
 3351SOL    HW210953   5.414   1.757   1.811
 3352SOL     OW10954   0.334   3.871   0.487
 3352SOL    HW110955   0.330   3.961   0.443
 3352SOL    HW210956   0.344   3.800   0.417
 3353SOL     OW10957   2.244   6.704   6.319
 3353SOL    HW110958   2.204   6.780   6.267
 3353SOL    HW210959   2.195   6.693   6.405
 3354SOL     OW10960   1.108   1.735   2.829
 3354SOL    HW110961   1.162   1.715   2.747
 3354SOL    HW210962   1.034   1.668   2.836
 3355SOL     OW10963   6.311   1.569   2.594
 3355SOL    HW110964   6.331   1.487   2.647
 3355SOL    HW210965   6.379   1.578   2.521
 3356SOL     OW10966   2.694   3.055   6.379
 3356SOL    HW110967   2.696   3.154   6.369
 3356SOL    HW210968   2.688   3.012   6.289
 3357SOL     OW10969   2.725   4.874   2.016
 3357SOL    HW110970   2.787   4.943   1.979
 3357SOL    HW210971   2.774   4.788   2.029
 3358SOL     OW10972   5.591   4.913   3.029
 3358SOL    HW110973   5.614   4.888   2.935
 3358SOL    HW210974   5.546   4.836   3.074
 3359SOL     OW10975   0.854   0.864   1.873
 3359SOL    HW110976   0.768   0.812   1.868
 3359SOL    HW210977   0.896   0.850   1.963
 3360SOL     OW10978   1.377   0.102   6.755
 3360SOL    HW110979   1.371   0.196   6.722
 3360SOL    HW210980   1.314   0.044   6.704
 3361SOL     OW10981   5.312   6.744   2.678
 3361SOL    HW110982   5.273   6.775   2.591
 3361SOL    HW210983   5.339   6.648   2.670
 3362SOL     OW10984   2.626   1.417   5.285
 3362SOL    HW110985   2.611   1.451   5.378
 3362SOL    HW210986   2.570   1.470   5.222
 3363SOL     OW10987   0.284   0.923   6.814
 3363SOL    HW110988   0.233   0.845   6.851
 3363SOL    HW210989   0.348   0.956   6.883
 3364SOL     OW10990   1.959   4.961   6.363
 3364SOL    HW110991   2.036   4.951   6.299
 3364SOL    HW210992   1.977   4.907   6.445
 3365SOL     OW10993   6.313   1.956   5.520
 3365SOL    HW110994   6.363   2.042   5.532
 3365SOL    HW210995   6.370   1.892   5.468
 3366SOL     OW10996   5.123   1.291   5.605
 3366SOL    HW110997   5.175   1.359   5.656
 3366SOL    HW210998   5.027   1.293   5.635
 3367SOL     OW10999   1.057   0.665   2.359
 3367SOL    HW111000   1.018   0.743   2.310
 3367SOL    HW211001   1.020   0.580   2.322
 3368SOL     OW11002   6.991   6.341   5.614
 3368SOL    HW111003   6.979   6.403   5.692
 3368SOL    HW211004   0.052   6.288   5.626
 3369SOL     OW11005   3.955   6.819   6.326
 3369SOL    HW111006   3.945   6.744   6.391
 3369SOL    HW211007   3.998   6.786   6.243
 3370SOL     OW11008   5.554   0.233   5.270
 3370SOL    HW111009   5.563   0.303   5.342
 3370SOL    HW211010   5.570   0.276   5.181
 3371SOL     OW11011   6.889   5.148   1.990
 3371SOL    HW111012   6.812   5.168   1.929
 3371SOL    HW211013   6.943   5.072   1.953
 3372SOL     OW11014   0.412   1.536   2.612
 3372SOL    HW111015   0.489   1.558   2.672
 3372SOL    HW211016   0.369   1.620   2.580
 3373SOL     OW11017   7.005   1.967   5.171
 3373SOL    HW111018   0.012   1.905   5.098
 3373SOL    HW211019   0.031   1.945   5.255
 3374SOL     OW11020   3.235   5.316   5.166
 3374SOL    HW111021   3.315   5.324   5.226
 3374SOL    HW211022   3.266   5.290   5.074
 3375SOL     OW11023   4.448   4.699   5.415
 3375SOL    HW111024   4.502   4.671   5.494
 3375SOL    HW211025   4.446   4.798   5.408
 3376SOL     OW11026   3.333   3.791   2.223
 3376SOL    HW111027   3.399   3.827   2.290
 3376SOL    HW211028   3.317   3.859   2.153
 3377SOL     OW11029   2.171   6.007   5.300
 3377SOL    HW111030   2.076   6.022   5.327
 3377SOL    HW211031   2.194   6.067   5.223
 3378SOL     OW11032   0.322   1.631   0.918
 3378SOL    HW111033   0.376   1.586   0.847
 3378SOL    HW211034   0.258   1.695   0.875
 3379SOL     OW11035   1.133   4.738   6.543
 3379SOL    HW111036   1.181   4.713   6.627
 3379SOL    HW211037   1.038   4.760   6.565
 3380SOL     OW11038   0.741   4.319   6.369
 3380SOL    HW111039   0.648   4.291   6.342
 3380SOL    HW211040   0.785   4.244   6.418
 3381SOL     OW11041   3.139   2.692   0.804
 3381SOL    HW111042   3.101   2.701   0.712
 3381SOL    HW211043   3.190   2.607   0.811
 3382SOL     OW11044   6.670   6.969   0.845
 3382SOL    HW111045   6.575   6.949   0.868
 3382SOL    HW211046   6.709   0.007   0.914
 3383SOL     OW11047   6.872   4.857   2.810
 3383SOL    HW111048   6.825   4.777   2.772
 3383SOL    HW211049   6.970   4.845   2.800
 3384SOL     OW11050   3.697   3.199   4.688
 3384SOL    HW111051   3.673   3.286   4.645
 3384SOL    HW211052   3.766   3.215   4.759
 3385SOL     OW11053   6.541   3.686   3.039
 3385SOL    HW111054   6.563   3.638   2.955
 3385SOL    HW211055   6.545   3.784   3.024
 3386SOL     OW11056   6.213   4.539   5.037
 3386SOL    HW111057   6.287   4.472   5.043
 3386SOL    HW211058   6.250   4.626   5.006
 3387SOL     OW11059   2.740   2.287   2.674
 3387SOL    HW111060   2.692   2.367   2.640
 3387SOL    HW211061   2.778   2.307   2.764
 3388SOL     OW11062   5.569   2.989   1.751
 3388SOL    HW111063   5.600   2.975   1.657
 3388SOL    HW211064   5.564   3.087   1.771
 3389SOL     OW11065   6.070   4.466   3.216
 3389SOL    HW111066   6.149   4.467   3.277
 3389SOL    HW211067   6.073   4.545   3.155
 3390SOL     OW11068   5.170   2.563   5.116
 3390SOL    HW111069   5.183   2.533   5.211
 3390SOL    HW211070   5.072   2.571   5.097
 3391SOL     OW11071   3.092   1.695   4.616
 3391SOL    HW111072   3.060   1.775   4.565
 3391SOL    HW211073   3.138   1.632   4.554
 3392SOL     OW11074   4.369   6.406   4.123
 3392SOL    HW111075   4.420   6.330   4.081
 3392SOL    HW211076   4.307   6.446   4.055
 3393SOL     OW11077   6.348   0.046   6.815
 3393SOL    HW111078   6.263   7.015   6.814
 3393SOL    HW211079   6.326   0.143   6.806
 3394SOL     OW11080   6.119   2.759   1.648
 3394SOL    HW111081   6.108   2.811   1.732
 3394SOL    HW211082   6.115   2.821   1.569
 3395SOL     OW11083   1.653   3.358   5.261
 3395SOL    HW111084   1.678   3.453   5.283
 3395SOL    HW211085   1.717   3.322   5.193
 3396SOL     OW11086   0.577   4.010   4.008
 3396SOL    HW111087   0.545   4.100   4.037
 3396SOL    HW211088   0.675   4.002   4.025
 3397SOL     OW11089   4.297   6.164   6.258
 3397SOL    HW111090   4.345   6.122   6.181
 3397SOL    HW211091   4.260   6.253   6.231
 3398SOL     OW11092   0.680   6.469   3.897
 3398SOL    HW111093   0.741   6.396   3.930
 3398SOL    HW211094   0.620   6.433   3.826
 3399SOL     OW11095   4.404   4.634   4.303
 3399SOL    HW111096   4.476   4.565   4.308
 3399SOL    HW211097   4.336   4.617   4.374
 3400SOL     OW11098   5.205   2.007   6.671
 3400SOL    HW111099   5.111   2.029   6.643
 3400SOL    HW211100   5.233   1.922   6.626
 3401SOL     OW11101   5.967   4.984   0.256
 3401SOL    HW111102   6.038   5.040   0.299
 3401SOL    HW211103   5.960   4.897   0.306
 3402SOL     OW11104   5.223   5.901   1.770
 3402SOL    HW111105   5.164   5.893   1.690
 3402SOL    HW211106   5.206   5.988   1.816
 3403SOL     OW11107   3.736   1.168   5.361
 3403SOL    HW111108   3.675   1.176   5.283
 3403SOL    HW211109   3.688   1.196   5.444
 3404SOL     OW11110   4.524   0.630   0.558
 3404SOL    HW111111   4.582   0.553   0.533
 3404SOL    HW211112   4.510   0.631   0.657
 3405SOL     OW11113   6.671   3.978   0.058
 3405SOL    HW111114   6.727   3.901   0.090
 3405SOL    HW211115   6.637   4.029   0.137
 3406SOL     OW11116   1.295   4.280   1.918
 3406SOL    HW111117   1.320   4.273   2.015
 3406SOL    HW211118   1.367   4.330   1.869
 3407SOL     OW11119   1.666   5.602   2.649
 3407SOL    HW111120   1.576   5.571   2.680
 3407SOL    HW211121   1.722   5.628   2.728
 3408SOL     OW11122   5.468   4.678   3.081
 3408SOL    HW111123   5.472   4.611   3.155
 3408SOL    HW211124   5.452   4.631   2.994
 3409SOL     OW11125   3.889   0.479   5.757
 3409SOL    HW111126   3.927   0.448   5.670
 3409SOL    HW211127   3.798   0.439   5.770
 3410SOL     OW11128   6.609   7.008   6.939
 3410SOL    HW111129   6.516   0.004   6.905
 3410SOL    HW211130   6.603   6.954   0.000
 3411SOL     OW11131   4.912   2.239   2.512
 3411SOL    HW111132   4.866   2.204   2.593
 3411SOL    HW211133   4.858   2.218   2.431
 3412SOL     OW11134   3.875   4.633   0.101
 3412SOL    HW111135   3.933   4.637   0.020
 3412SOL    HW211136   3.822   4.717   0.109
 3413SOL     OW11137   3.819   2.136   2.551
 3413SOL    HW111138   3.872   2.057   2.520
 3413SOL    HW211139   3.805   2.199   2.475
 3414SOL     OW11140   2.702   2.450   5.052
 3414SOL    HW111141   2.653   2.452   4.964
 3414SOL    HW211142   2.687   2.537   5.099
 3415SOL     OW11143   0.711   5.271   3.790
 3415SOL    HW111144   0.791   5.291   3.848
 3415SOL    HW211145   0.637   5.235   3.847
 3416SOL     OW11146   1.510   5.254   5.858
 3416SOL    HW111147   1.435   5.320   5.847
 3416SOL    HW211148   1.476   5.173   5.906
 3417SOL     OW11149   5.995   0.147   2.719
 3417SOL    HW111150   6.081   0.169   2.765
 3417SOL    HW211151   5.999   0.178   2.624
 3418SOL     OW11152   2.800   1.399   6.097
 3418SOL    HW111153   2.702   1.382   6.089
 3418SOL    HW211154   2.818   1.497   6.085
 3419SOL     OW11155   4.264   4.302   0.568
 3419SOL    HW111156   4.166   4.321   0.579
 3419SOL    HW211157   4.278   4.241   0.491
 3420SOL     OW11158   4.168   2.283   3.563
 3420SOL    HW111159   4.095   2.245   3.507
 3420SOL    HW211160   4.131   2.315   3.650
 3421SOL     OW11161   0.211   5.724   5.046
 3421SOL    HW111162   0.262   5.809   5.031
 3421SOL    HW211163   0.130   5.744   5.101
 3422SOL     OW11164   3.357   1.687   1.328
 3422SOL    HW111165   3.294   1.749   1.281
 3422SOL    HW211166   3.305   1.622   1.383
 3423SOL     OW11167   2.746   0.462   1.013
 3423SOL    HW111168   2.824   0.402   0.996
 3423SOL    HW211169   2.690   0.424   1.087
 3424SOL     OW11170   4.217   1.150   2.899
 3424SOL    HW111171   4.302   1.148   2.950
 3424SOL    HW211172   4.227   1.209   2.819
 3425SOL     OW11173   4.449   4.431   1.483
 3425SOL    HW111174   4.477   4.463   1.393
 3425SOL    HW211175   4.528   4.392   1.531
 3426SOL     OW11176   4.331   3.665   0.708
 3426SOL    HW111177   4.413   3.610   0.725
 3426SOL    HW211178   4.298   3.703   0.795
 3427SOL     OW11179   0.569   1.269   7.002
 3427SOL    HW111180   0.559   1.332   0.057
 3427SOL    HW211181   0.561   1.320   6.916
 3428SOL     OW11182   4.274   4.707   2.654
 3428SOL    HW111183   4.209   4.767   2.700
 3428SOL    HW211184   4.232   4.669   2.572
 3429SOL     OW11185   1.446   3.055   6.823
 3429SOL    HW111186   1.511   2.998   6.774
 3429SOL    HW211187   1.453   3.149   6.790
 3430SOL     OW11188   1.342   6.791   7.019
 3430SOL    HW111189   1.383   6.800   6.928
 3430SOL    HW211190   1.415   6.786   0.065
 3431SOL     OW11191   0.714   5.635   1.062
 3431SOL    HW111192   0.746   5.558   1.008
 3431SOL    HW211193   0.631   5.609   1.112
 3432SOL     OW11194   3.010   1.400   6.282
 3432SOL    HW111195   3.081   1.358   6.225
 3432SOL    HW211196   2.925   1.406   6.230
 3433SOL     OW11197   3.812   0.961   4.756
 3433SOL    HW111198   3.867   0.960   4.840
 3433SOL    HW211199   3.863   1.006   4.683
 3434SOL     OW11200   4.734   2.834   2.410
 3434SOL    HW111201   4.757   2.906   2.476
 3434SOL    HW211202   4.710   2.751   2.459
 3435SOL     OW11203   0.341   1.071   1.221
 3435SOL    HW111204   0.414   1.002   1.223
 3435SOL    HW211205   0.380   1.159   1.194
 3436SOL     OW11206   4.077   6.883   4.283
 3436SOL    HW111207   4.057   6.785   4.292
 3436SOL    HW211208   4.039   6.932   4.361
 3437SOL     OW11209   3.969   0.125   6.069
 3437SOL    HW111210   4.063   0.155   6.053
 3437SOL    HW211211   3.909   0.204   6.082
 3438SOL     OW11212   0.907   2.835   6.129
 3438SOL    HW111213   0.932   2.739   6.139
 3438SOL    HW211214   0.808   2.844   6.126
 3439SOL     OW11215   2.583   5.785   3.706
 3439SOL    HW111216   2.598   5.861   3.642
 3439SOL    HW211217   2.669   5.760   3.750
 3440SOL     OW11218   5.258   3.404   0.714
 3440SOL    HW111219   5.331   3.409   0.782
 3440SOL    HW211220   5.245   3.309   0.686
 3441SOL     OW11221   2.813   0.458   3.602
 3441SOL    HW111222   2.793   0.554   3.618
 3441SOL    HW211223   2.910   0.448   3.579
 3442SOL     OW11224   2.143   4.772   3.857
 3442SOL    HW111225   2.176   4.698   3.915
 3442SOL    HW211226   2.045   4.787   3.872
 3443SOL     OW11227   5.350   1.209   3.182
 3443SOL    HW111228   5.296   1.290   3.157
 3443SOL    HW211229   5.326   1.182   3.275
 3444SOL     OW11230   4.604   5.567   0.186
 3444SOL    HW111231   4.585   5.477   0.224
 3444SOL    HW211232   4.604   5.635   0.260
 3445SOL     OW11233   6.664   4.374   4.219
 3445SOL    HW111234   6.627   4.421   4.299
 3445SOL    HW211235   6.621   4.284   4.210
 3446SOL     OW11236   3.524   6.844   2.946
 3446SOL    HW111237   3.454   6.881   3.008
 3446SOL    HW211238   3.576   6.919   2.906
 3447SOL     OW11239   5.277   6.235   6.648
 3447SOL    HW111240   5.193   6.220   6.701
 3447SOL    HW211241   5.345   6.166   6.673
 3448SOL     OW11242   3.597   2.186   1.371
 3448SOL    HW111243   3.517   2.197   1.312
 3448SOL    HW211244   3.661   2.122   1.329
 3449SOL     OW11245   6.988   6.279   3.236
 3449SOL    HW111246   6.945   6.362   3.202
 3449SOL    HW211247   0.057   6.270   3.197
 3450SOL     OW11248   1.172   1.773   1.576
 3450SOL    HW111249   1.247   1.827   1.539
 3450SOL    HW211250   1.173   1.681   1.536
 3451SOL     OW11251   1.070   5.665   4.677
 3451SOL    HW111252   1.124   5.748   4.660
 3451SOL    HW211253   1.101   5.592   4.616
 3452SOL     OW11254   5.852   1.582   0.700
 3452SOL    HW111255   5.932   1.611   0.754
 3452SOL    HW211256   5.840   1.484   0.708
 3453SOL     OW11257   5.284   5.579   4.901
 3453SOL    HW111258   5.248   5.672   4.895
 3453SOL    HW211259   5.221   5.516   4.855
 3454SOL     OW11260   0.799   0.901   0.462
 3454SOL    HW111261   0.838   0.875   0.374
 3454SOL    HW211262   0.799   0.823   0.524
 3455SOL     OW11263   1.961   2.720   4.183
 3455SOL    HW111264   1.940   2.787   4.111
 3455SOL    HW211265   2.046   2.673   4.161
 3456SOL     OW11266   5.844   6.888   1.754
 3456SOL    HW111267   5.837   6.789   1.739
 3456SOL    HW211268   5.927   6.907   1.807
 3457SOL     OW11269   2.642   5.071   3.297
 3457SOL    HW111270   2.711   5.037   3.361
 3457SOL    HW211271   2.673   5.158   3.258
 3458SOL     OW11272   5.563   6.258   0.831
 3458SOL    HW111273   5.476   6.230   0.790
 3458SOL    HW211274   5.618   6.178   0.852
 3459SOL     OW11275   0.132   5.280   4.082
 3459SOL    HW111276   0.161   5.185   4.077
 3459SOL    HW211277   0.080   5.295   4.166
 3460SOL     OW11278   4.398   3.452   6.535
 3460SOL    HW111279   4.445   3.420   6.617
 3460SOL    HW211280   4.367   3.374   6.481
 3461SOL     OW11281   4.066   6.462   3.538
 3461SOL    HW111282   3.970   6.489   3.550
 3461SOL    HW211283   4.106   6.515   3.463
 3462SOL     OW11284   4.959   3.380   2.892
 3462SOL    HW111285   4.948   3.457   2.829
 3462SOL    HW211286   4.974   3.414   2.985
 3463SOL     OW11287   2.129   2.727   1.656
 3463SOL    HW111288   2.214   2.768   1.690
 3463SOL    HW211289   2.053   2.761   1.711
 3464SOL     OW11290   4.789   2.776   6.563
 3464SOL    HW111291   4.811   2.866   6.526
 3464SOL    HW211292   4.873   2.726   6.583
 3465SOL     OW11293   2.076   3.502   2.170
 3465SOL    HW111294   2.142   3.527   2.100
 3465SOL    HW211295   2.074   3.402   2.180
 3466SOL     OW11296   6.188   5.265   4.237
 3466SOL    HW111297   6.096   5.263   4.196
 3466SOL    HW211298   6.203   5.180   4.287
 3467SOL     OW11299   3.008   2.351   0.958
 3467SOL    HW111300   2.972   2.288   1.027
 3467SOL    HW211301   2.947   2.430   0.949
 3468SOL     OW11302   4.274   1.584   1.247
 3468SOL    HW111303   4.295   1.673   1.207
 3468SOL    HW211304   4.207   1.536   1.190
 3469SOL     OW11305   4.163   6.594   5.436
 3469SOL    HW111306   4.077   6.640   5.419
 3469SOL    HW211307   4.231   6.660   5.468
 3470SOL     OW11308   0.542   3.219   1.616
 3470SOL    HW111309   0.499   3.222   1.526
 3470SOL    HW211310   0.593   3.134   1.627
 3471SOL     OW11311   5.143   3.604   3.543
 3471SOL    HW111312   5.148   3.662   3.461
 3471SOL    HW211313   5.060   3.626   3.594
 3472SOL     OW11314   4.109   1.941   3.649
 3472SOL    HW111315   4.080   1.969   3.740
 3472SOL    HW211316   4.075   2.006   3.581
 3473SOL     OW11317   6.974   3.948   2.393
 3473SOL    HW111318   7.013   3.995   2.314
 3473SOL    HW211319   0.021   3.937   2.464
 3474SOL     OW11320   6.416   5.190   3.867
 3474SOL    HW111321   6.317   5.178   3.853
 3474SOL    HW211322   6.465   5.121   3.815
 3475SOL     OW11323   6.901   4.114   4.505
 3475SOL    HW111324   6.945   4.201   4.526
 3475SOL    HW211325   6.953   4.039   4.548
 3476SOL     OW11326   1.114   1.630   3.680
 3476SOL    HW111327   1.151   1.719   3.654
 3476SOL    HW211328   1.115   1.569   3.601
 3477SOL     OW11329   0.760   3.839   1.678
 3477SOL    HW111330   0.837   3.903   1.671
 3477SOL    HW211331   0.731   3.831   1.773
 3478SOL     OW11332   2.156   0.446   0.150
 3478SOL    HW111333   2.232   0.506   0.178
 3478SOL    HW211334   2.113   0.485   0.068
 3479SOL     OW11335   1.005   3.461   3.934
 3479SOL    HW111336   0.913   3.440   3.904
 3479SOL    HW211337   1.041   3.385   3.989
 3480SOL     OW11338   1.266   5.499   6.886
 3480SOL    HW111339   1.227   5.407   6.883
 3480SOL    HW211340   1.238   5.545   6.970
 3481SOL     OW11341   6.886   0.300   5.897
 3481SOL    HW111342   6.915   0.393   5.919
 3481SOL    HW211343   6.855   0.296   5.802
 3482SOL     OW11344   6.322   3.882   4.831
 3482SOL    HW111345   6.346   3.960   4.888
 3482SOL    HW211346   6.357   3.896   4.739
 3483SOL     OW11347   4.726   2.444   3.508
 3483SOL    HW111348   4.688   2.470   3.596
 3483SOL    HW211349   4.688   2.503   3.436
 3484SOL     OW11350   1.690   3.188   5.682
 3484SOL    HW111351   1.712   3.189   5.780
 3484SOL    HW211352   1.775   3.192   5.629
 3485SOL     OW11353   0.505   2.091   6.257
 3485SOL    HW111354   0.540   2.052   6.342
 3485SOL    HW211355   0.485   2.188   6.270
 3486SOL     OW11356   2.706   0.257   4.929
 3486SOL    HW111357   2.683   0.173   4.978
 3486SOL    HW211358   2.635   0.277   4.862
 3487SOL     OW11359   5.084   1.094   6.660
 3487SOL    HW111360   5.087   1.163   6.589
 3487SOL    HW211361   4.997   1.045   6.655
 3488SOL     OW11362   6.362   0.649   4.213
 3488SOL    HW111363   6.393   0.595   4.291
 3488SOL    HW211364   6.296   0.595   4.159
 3489SOL     OW11365   3.364   0.142   0.398
 3489SOL    HW111366   3.303   0.076   0.441
 3489SOL    HW211367   3.362   0.228   0.449
 3490SOL     OW11368   3.896   5.280   0.765
 3490SOL    HW111369   3.951   5.326   0.835
 3490SOL    HW211370   3.813   5.333   0.747
 3491SOL     OW11371   4.581   3.993   0.150
 3491SOL    HW111372   4.618   3.987   0.057
 3491SOL    HW211373   4.519   3.917   0.166
 3492SOL     OW11374   6.080   4.666   2.364
 3492SOL    HW111375   6.024   4.661   2.446
 3492SOL    HW211376   6.164   4.717   2.384
 3493SOL     OW11377   6.007   3.296   4.543
 3493SOL    HW111378   5.972   3.390   4.545
 3493SOL    HW211379   6.107   3.298   4.537
 3494SOL     OW11380   3.870   1.733   1.757
 3494SOL    HW111381   3.897   1.684   1.674
 3494SOL    HW211382   3.914   1.822   1.759
 3495SOL     OW11383   1.856   3.276   2.143
 3495SOL    HW111384   1.934   3.270   2.205
 3495SOL    HW211385   1.888   3.285   2.049
 3496SOL     OW11386   6.625   5.424   1.016
 3496SOL    HW111387   6.627   5.472   1.104
 3496SOL    HW211388   6.629   5.491   0.942
 3497SOL     OW11389   3.257   0.616   2.631
 3497SOL    HW111390   3.159   0.634   2.628
 3497SOL    HW211391   3.308   0.702   2.626
 3498SOL     OW11392   2.174   1.979   1.491
 3498SOL    HW111393   2.157   2.015   1.400
 3498SOL    HW211394   2.143   1.884   1.495
 3499SOL     OW11395   5.963   5.212   5.840
 3499SOL    HW111396   5.941   5.179   5.932
 3499SOL    HW211397   5.884   5.201   5.781
 3500SOL     OW11398   1.581   2.674   3.646
 3500SOL    HW111399   1.572   2.652   3.549
 3500SOL    HW211400   1.588   2.773   3.657
 3501SOL     OW11401   1.493   6.582   5.967
 3501SOL    HW111402   1.398   6.549   5.974
 3501SOL    HW211403   1.555   6.503   5.961
 3502SOL     OW11404   4.886   3.281   1.957
 3502SOL    HW111405   4.828   3.199   1.953
 3502SOL    HW211406   4.913   3.298   2.051
 3503SOL     OW11407   6.520   5.892   6.786
 3503SOL    HW111408   6.529   5.802   6.745
 3503SOL    HW211409   6.524   5.885   6.886
 3504SOL     OW11410   1.530   0.782   1.580
 3504SOL    HW111411   1.523   0.684   1.601
 3504SOL    HW211412   1.523   0.834   1.665
 3505SOL     OW11413   5.920   5.204   6.122
 3505SOL    HW111414   5.971   5.183   6.205
 3505SOL    HW211415   5.931   5.301   6.099
 3506SOL     OW11416   5.024   4.449   4.597
 3506SOL    HW111417   4.936   4.492   4.620
 3506SOL    HW211418   5.095   4.482   4.659
 3507SOL     OW11419   2.926   6.795   0.590
 3507SOL    HW111420   3.024   6.798   0.610
 3507SOL    HW211421   2.879   6.861   0.648
 3508SOL     OW11422   3.244   2.383   5.441
 3508SOL    HW111423   3.204   2.386   5.349
 3508SOL    HW211424   3.175   2.356   5.507
 3509SOL     OW11425   4.419   5.841   6.525
 3509SOL    HW111426   4.328   5.840   6.484
 3509SOL    HW211427   4.412   5.870   6.621
 3510SOL     OW11428   2.810   0.743   1.041
 3510SOL    HW111429   2.804   0.645   1.021
 3510SOL    HW211430   2.884   0.759   1.106
 3511SOL     OW11431   2.540   4.650   1.256
 3511SOL    HW111432   2.516   4.697   1.172
 3511SOL    HW211433   2.631   4.678   1.286
 3512SOL     OW11434   0.866   4.247   6.711
 3512SOL    HW111435   0.918   4.290   6.784
 3512SOL    HW211436   0.913   4.260   6.623
 3513SOL     OW11437   5.753   1.974   0.345
 3513SOL    HW111438   5.738   2.072   0.329
 3513SOL    HW211439   5.734   1.952   0.440
 3514SOL     OW11440   3.991   1.003   2.852
 3514SOL    HW111441   3.935   1.003   2.934
 3514SOL    HW211442   4.083   1.036   2.874
 3515SOL     OW11443   6.275   5.514   4.590
 3515SOL    HW111444   6.363   5.518   4.639
 3515SOL    HW211445   6.287   5.550   4.497
 3516SOL     OW11446   5.359   0.332   1.171
 3516SOL    HW111447   5.329   0.416   1.215
 3516SOL    HW211448   5.425   0.286   1.231
 3517SOL     OW11449   6.635   0.992   0.687
 3517SOL    HW111450   6.640   0.995   0.587
 3517SOL    HW211451   6.709   1.047   0.726
 3518SOL     OW11452   5.614   1.564   5.505
 3518SOL    HW111453   5.645   1.611   5.422
 3518SOL    HW211454   5.610   1.465   5.488
 3519SOL     OW11455   3.464   0.559   0.482
 3519SOL    HW111456   3.457   0.631   0.551
 3519SOL    HW211457   3.558   0.526   0.477
 3520SOL     OW11458   3.131   6.218   4.893
 3520SOL    HW111459   3.215   6.184   4.851
 3520SOL    HW211460   3.148   6.307   4.935
 3521SOL     OW11461   3.086   2.886   0.075
 3521SOL    HW111462   3.048   2.812   0.130
 3521SOL    HW211463   3.012   2.944   0.041
 3522SOL     OW11464   6.870   5.756   6.951
 3522SOL    HW111465   6.838   5.798   0.013
 3522SOL    HW211466   6.924   5.675   6.972
 3523SOL     OW11467   1.096   5.272   6.338
 3523SOL    HW111468   1.011   5.308   6.299
 3523SOL    HW211469   1.083   5.176   6.362
 3524SOL     OW11470   6.556   1.359   3.506
 3524SOL    HW111471   6.586   1.447   3.543
 3524SOL    HW211472   6.493   1.315   3.570
 3525SOL     OW11473   6.131   4.914   3.771
 3525SOL    HW111474   6.205   4.892   3.835
 3525SOL    HW211475   6.160   4.895   3.678
 3526SOL     OW11476   1.259   5.932   3.408
 3526SOL    HW111477   1.314   5.884   3.476
 3526SOL    HW211478   1.288   5.906   3.316
 3527SOL     OW11479   6.678   2.635   5.764
 3527SOL    HW111480   6.705   2.731   5.765
 3527SOL    HW211481   6.604   2.619   5.830
 3528SOL     OW11482   2.667   6.467   5.272
 3528SOL    HW111483   2.668   6.558   5.229
 3528SOL    HW211484   2.760   6.431   5.276
 3529SOL     OW11485   4.807   5.778   0.367
 3529SOL    HW111486   4.840   5.685   0.357
 3529SOL    HW211487   4.724   5.778   0.423
 3530SOL     OW11488   0.410   0.313   1.924
 3530SOL    HW111489   0.456   0.224   1.932
 3530SOL    HW211490   0.403   0.355   2.014
 3531SOL     OW11491   5.116   1.761   1.455
 3531SOL    HW111492   5.115   1.701   1.535
 3531SOL    HW211493   5.085   1.710   1.374
 3532SOL     OW11494   1.934   1.060   2.045
 3532SOL    HW111495   1.914   1.111   2.128
 3532SOL    HW211496   1.953   1.123   1.970
 3533SOL     OW11497   6.813   1.273   2.805
 3533SOL    HW111498   6.783   1.267   2.710
 3533SOL    HW211499   6.913   1.279   2.808
 3534SOL     OW11500   0.075   1.515   1.591
 3534SOL    HW111501   0.125   1.461   1.523
 3534SOL    HW211502   7.002   1.483   1.593
 3535SOL     OW11503   2.745   5.051   4.949
 3535SOL    HW111504   2.777   4.972   4.897
 3535SOL    HW211505   2.822   5.110   4.972
 3536SOL     OW11506   3.221   1.998   2.268
 3536SOL    HW111507   3.316   1.991   2.237
 3536SOL    HW211508   3.161   1.952   2.201
 3537SOL     OW11509   1.984   5.298   2.638
 3537SOL    HW111510   2.023   5.382   2.677
 3537SOL    HW211511   1.917   5.322   2.568
 3538SOL     OW11512   3.037   5.521   4.666
 3538SOL    HW111513   2.980   5.579   4.608
 3538SOL    HW211514   3.121   5.498   4.618
 3539SOL     OW11515   3.976   3.904   4.950
 3539SOL    HW111516   4.066   3.948   4.949
 3539SOL    HW211517   3.909   3.968   4.988
 3540SOL     OW11518   2.049   1.974   3.961
 3540SOL    HW111519   2.054   1.919   4.045
 3540SOL    HW211520   2.076   2.068   3.982
 3541SOL     OW11521   2.807   3.737   5.158
 3541SOL    HW111522   2.736   3.806   5.174
 3541SOL    HW211523   2.866   3.767   5.083
 3542SOL     OW11524   1.238   4.546   2.515
 3542SOL    HW111525   1.252   4.449   2.497
 3542SOL    HW211526   1.319   4.598   2.487
 3543SOL     OW11527   5.643   2.922   4.642
 3543SOL    HW111528   5.582   2.958   4.572
 3543SOL    HW211529   5.730   2.970   4.639
 3544SOL     OW11530   2.130   4.551   5.868
 3544SOL    HW111531   2.150   4.537   5.771
 3544SOL    HW211532   2.213   4.539   5.922
 3545SOL     OW11533   4.434   5.560   6.497
 3545SOL    HW111534   4.408   5.656   6.489
 3545SOL    HW211535   4.402   5.524   6.585
 3546SOL     OW11536   6.732   5.365   3.222
 3546SOL    HW111537   6.729   5.269   3.197
 3546SOL    HW211538   6.784   5.376   3.307
 3547SOL     OW11539   4.791   5.015   4.648
 3547SOL    HW111540   4.808   5.056   4.737
 3547SOL    HW211541   4.801   5.085   4.577
 3548SOL     OW11542   4.705   2.777   5.179
 3548SOL    HW111543   4.645   2.813   5.251
 3548SOL    HW211544   4.670   2.804   5.089
 3549SOL     OW11545   6.008   5.064   3.016
 3549SOL    HW111546   5.992   5.028   2.925
 3549SOL    HW211547   5.936   5.130   3.039
 3550SOL     OW11548   5.610   1.507   2.412
 3550SOL    HW111549   5.549   1.510   2.490
 3550SOL    HW211550   5.559   1.530   2.329
 3551SOL     OW11551   3.071   6.424   3.621
 3551SOL    HW111552   3.084   6.424   3.522
 3551SOL    HW211553   3.101   6.336   3.659
 3552SOL     OW11554   6.134   5.834   2.677
 3552SOL    HW111555   6.137   5.752   2.620
 3552SOL    HW211556   6.168   5.912   2.625
 3553SOL     OW11557   5.004   2.068   2.856
 3553SOL    HW111558   4.989   2.076   2.954
 3553SOL    HW211559   5.079   2.128   2.828
 3554SOL     OW11560   4.131   4.992   6.749
 3554SOL    HW111561   4.034   5.008   6.730
 3554SOL    HW211562   4.179   4.976   6.663
 3555SOL     OW11563   0.996   3.100   2.954
 3555SOL    HW111564   1.080   3.047   2.962
 3555SOL    HW211565   1.005   3.166   2.880
 3556SOL     OW11566   3.287   0.957   6.019
 3556SOL    HW111567   3.367   1.016   6.031
 3556SOL    HW211568   3.241   0.945   6.107
 3557SOL     OW11569   1.851   0.078   4.641
 3557SOL    HW111570   1.828   0.020   4.563
 3557SOL    HW211571   1.769   0.096   4.696
 3558SOL     OW11572   0.170   5.887   1.474
 3558SOL    HW111573   0.193   5.866   1.379
 3558SOL    HW211574   0.187   5.807   1.531
 3559SOL     OW11575   0.580   1.081   4.667
 3559SOL    HW111576   0.654   1.068   4.602
 3559SOL    HW211577   0.618   1.106   4.756
 3560SOL     OW11578   0.439   6.037   1.253
 3560SOL    HW111579   0.464   5.987   1.170
 3560SOL    HW211580   0.499   6.010   1.328
 3561SOL     OW11581   5.014   5.052   5.616
 3561SOL    HW111582   4.922   5.024   5.643
 3561SOL    HW211583   5.028   5.148   5.639
 3562SOL     OW11584   5.509   0.449   3.543
 3562SOL    HW111585   5.436   0.444   3.476
 3562SOL    HW211586   5.595   0.419   3.502
 3563SOL     OW11587   4.572   1.095   1.561
 3563SOL    HW111588   4.626   1.157   1.618
 3563SOL    HW211589   4.527   1.147   1.488
 3564SOL     OW11590   0.243   4.886   3.773
 3564SOL    HW111591   0.254   4.985   3.774
 3564SOL    HW211592   0.322   4.844   3.728
 3565SOL     OW11593   2.330   0.366   5.207
 3565SOL    HW111594   2.294   0.456   5.230
 3565SOL    HW211595   2.430   0.369   5.204
 3566SOL     OW11596   6.980   3.166   5.575
 3566SOL    HW111597   0.001   3.076   5.585
 3566SOL    HW211598   6.888   3.154   5.538
 3567SOL     OW11599   0.076   3.146   0.794
 3567SOL    HW111600   0.042   3.238   0.813
 3567SOL    HW211601   0.083   3.095   0.880
 3568SOL     OW11602   4.652   4.282   3.568
 3568SOL    HW111603   4.647   4.209   3.636
 3568SOL    HW211604   4.660   4.243   3.477
 3569SOL     OW11605   3.415   4.147   3.995
 3569SOL    HW111606   3.455   4.208   3.927
 3569SOL    HW211607   3.439   4.052   3.974
 3570SOL     OW11608   0.473   1.693   6.383
 3570SOL    HW111609   0.434   1.676   6.474
 3570SOL    HW211610   0.408   1.746   6.329
 3571SOL     OW11611   2.335   6.439   5.155
 3571SOL    HW111612   2.294   6.522   5.118
 3571SOL    HW211613   2.269   6.364   5.148
 3572SOL     OW11614   4.922   4.523   1.748
 3572SOL    HW111615   5.005   4.569   1.778
 3572SOL    HW211616   4.935   4.488   1.655
 3573SOL     OW11617   6.816   3.792   3.023
 3573SOL    HW111618   6.739   3.733   2.997
 3573SOL    HW211619   6.901   3.754   2.986
 3574SOL     OW11620   2.471   2.870   5.884
 3574SOL    HW111621   2.520   2.896   5.801
 3574SOL    HW211622   2.411   2.945   5.911
 3575SOL     OW11623   5.611   0.074   0.073
 3575SOL    HW111624   5.550   0.094   0.149
 3575SOL    HW211625   5.576   7.018   0.022
 3576SOL     OW11626   1.146   2.765   0.184
 3576SOL    HW111627   1.236   2.770   0.141
 3576SOL    HW211628   1.112   2.857   0.201
 3577SOL     OW11629   2.611   2.671   5.702
 3577SOL    HW111630   2.575   2.693   5.793
 3577SOL    HW211631   2.639   2.575   5.700
 3578SOL     OW11632   2.918   3.156   6.095
 3578SOL    HW111633   3.005   3.205   6.097
 3578SOL    HW211634   2.930   3.064   6.130
 3579SOL     OW11635   0.546   2.698   2.004
 3579SOL    HW111636   0.580   2.788   2.030
 3579SOL    HW211637   0.621   2.632   2.010
 3580SOL     OW11638   0.496   4.431   1.743
 3580SOL    HW111639   0.447   4.356   1.699
 3580SOL    HW211640   0.458   4.447   1.834
 3581SOL     OW11641   0.992   0.055   2.592
 3581SOL    HW111642   0.984   0.008   2.504
 3581SOL    HW211643   1.073   0.114   2.591
 3582SOL     OW11644   3.809   4.236   6.127
 3582SOL    HW111645   3.812   4.144   6.166
 3582SOL    HW211646   3.717   4.256   6.095
 3583SOL     OW11647   0.446   4.569   0.599
 3583SOL    HW111648   0.471   4.628   0.676
 3583SOL    HW211649   0.358   4.598   0.562
 3584SOL     OW11650   6.262   4.780   4.872
 3584SOL    HW111651   6.186   4.772   4.808
 3584SOL    HW211652   6.346   4.746   4.829
 3585SOL     OW11653   2.669   1.645   2.979
 3585SOL    HW111654   2.703   1.647   3.073
 3585SOL    HW211655   2.701   1.562   2.933
 3586SOL     OW11656   6.314   2.207   4.736
 3586SOL    HW111657   6.267   2.149   4.670
 3586SOL    HW211658   6.396   2.160   4.770
 3587SOL     OW11659   3.188   6.917   6.475
 3587SOL    HW111660   3.147   6.828   6.494
 3587SOL    HW211661   3.146   6.956   6.393
 3588SOL     OW11662   6.413   4.173   4.453
 3588SOL    HW111663   6.478   4.151   4.381
 3588SOL    HW211664   6.406   4.096   4.516
 3589SOL     OW11665   0.250   6.846   6.698
 3589SOL    HW111666   0.172   6.901   6.669
 3589SOL    HW211667   0.219   6.756   6.728
 3590SOL     OW11668   6.890   4.819   0.646
 3590SOL    HW111669   6.842   4.808   0.733
 3590SOL    HW211670   6.856   4.902   0.600
 3591SOL     OW11671   5.786   1.914   6.266
 3591SOL    HW111672   5.700   1.906   6.317
 3591SOL    HW211673   5.852   1.966   6.321
 3592SOL     OW11674   1.836   6.843   1.586
 3592SOL    HW111675   1.800   6.750   1.595
 3592SOL    HW211676   1.789   6.904   1.649
 3593SOL     OW11677   4.957   3.441   5.732
 3593SOL    HW111678   4.968   3.390   5.646
 3593SOL    HW211679   5.040   3.492   5.751
 3594SOL     OW11680   4.617   4.880   4.875
 3594SOL    HW111681   4.712   4.880   4.844
 3594SOL    HW211682   4.568   4.955   4.831
 3595SOL     OW11683   5.603   6.304   5.132
 3595SOL    HW111684   5.514   6.312   5.088
 3595SOL    HW211685   5.652   6.226   5.093
 3596SOL     OW11686   3.902   2.180   3.481
 3596SOL    HW111687   3.858   2.161   3.393
 3596SOL    HW211688   3.870   2.114   3.549
 3597SOL     OW11689   2.291   3.225   5.310
 3597SOL    HW111690   2.330   3.312   5.341
 3597SOL    HW211691   2.363   3.166   5.275
 3598SOL     OW11692   1.085   5.273   4.795
 3598SOL    HW111693   1.014   5.317   4.740
 3598SOL    HW211694   1.045   5.239   4.880
 3599SOL     OW11695   4.093   1.606   4.536
 3599SOL    HW111696   4.114   1.516   4.573
 3599SOL    HW211697   4.043   1.659   4.604
 3600SOL     OW11698   3.007   3.457   0.556
 3600SOL    HW111699   3.052   3.382   0.507
 3600SOL    HW211700   3.065   3.538   0.553
 3601SOL     OW11701   4.818   0.974   5.152
 3601SOL    HW111702   4.900   1.031   5.146
 3601SOL    HW211703   4.837   0.883   5.116
 3602SOL     OW11704   1.941   1.658   1.096
 3602SOL    HW111705   1.955   1.698   1.006
 3602SOL    HW211706   2.020   1.601   1.119
 3603SOL     OW11707   3.091   1.079   5.847
 3603SOL    HW111708   3.141   1.113   5.767
 3603SOL    HW211709   3.156   1.043   5.913
 3604SOL     OW11710   0.154   0.153   3.647
 3604SOL    HW111711   0.173   0.242   3.606
 3604SOL    HW211712   0.222   0.135   3.718
 3605SOL     OW11713   0.963   5.708   3.622
 3605SOL    HW111714   1.029   5.650   3.575
 3605SOL    HW211715   1.008   5.792   3.652
 3606SOL     OW11716   2.622   6.337   2.452
 3606SOL    HW111717   2.608   6.238   2.449
 3606SOL    HW211718   2.704   6.361   2.400
 3607SOL     OW11719   5.527   2.654   2.606
 3607SOL    HW111720   5.501   2.558   2.598
 3607SOL    HW211721   5.445   2.709   2.626
 3608SOL     OW11722   2.495   1.892   5.295
 3608SOL    HW111723   2.409   1.902   5.245
 3608SOL    HW211724   2.522   1.796   5.297
 3609SOL     OW11725   2.499   0.296   4.755
 3609SOL    HW111726   2.516   0.250   4.668
 3609SOL    HW211727   2.403   0.320   4.761
 3610SOL     OW11728   2.187   0.126   4.957
 3610SOL    HW111729   2.229   0.044   4.916
 3610SOL    HW211730   2.126   0.099   5.031
 3611SOL     OW11731   5.306   5.214   2.892
 3611SOL    HW111732   5.212   5.207   2.924
 3611SOL    HW211733   5.333   5.130   2.846
 3612SOL     OW11734   5.543   1.509   6.793
 3612SOL    HW111735   5.555   1.549   6.884
 3612SOL    HW211736   5.567   1.412   6.797
 3613SOL     OW11737   4.102   5.544   1.266
 3613SOL    HW111738   4.197   5.513   1.271
 3613SOL    HW211739   4.048   5.499   1.337
 3614SOL     OW11740   4.056   5.100   6.293
 3614SOL    HW111741   3.979   5.139   6.243
 3614SOL    HW211742   4.119   5.057   6.229
 3615SOL     OW11743   5.800   2.496   5.911
 3615SOL    HW111744   5.706   2.481   5.942
 3615SOL    HW211745   5.853   2.413   5.924
 3616SOL     OW11746   1.482   1.404   6.992
 3616SOL    HW111747   1.483   1.483   0.030
 3616SOL    HW211748   1.388   1.374   6.977
 3617SOL     OW11749   4.083   6.222   6.040
 3617SOL    HW111750   4.107   6.139   6.091
 3617SOL    HW211751   3.984   6.233   6.037
 3618SOL     OW11752   1.697   4.522   5.039
 3618SOL    HW111753   1.639   4.600   5.021
 3618SOL    HW211754   1.708   4.468   4.955
 3619SOL     OW11755   5.730   3.631   1.106
 3619SOL    HW111756   5.774   3.542   1.094
 3619SOL    HW211757   5.793   3.694   1.151
 3620SOL     OW11758   5.896   5.525   5.308
 3620SOL    HW111759   5.948   5.440   5.322
 3620SOL    HW211760   5.955   5.593   5.264
 3621SOL     OW11761   3.029   3.335   3.659
 3621SOL    HW111762   2.990   3.425   3.638
 3621SOL    HW211763   3.022   3.276   3.579
 3622SOL     OW11764   1.189   5.776   6.509
 3622SOL    HW111765   1.170   5.829   6.592
 3622SOL    HW211766   1.271   5.812   6.465
 3623SOL     OW11767   1.010   5.022   6.417
 3623SOL    HW111768   0.959   4.972   6.347
 3623SOL    HW211769   1.090   4.968   6.444
 3624SOL     OW11770   2.863   1.799   1.511
 3624SOL    HW111771   2.790   1.845   1.561
 3624SOL    HW211772   2.951   1.839   1.536
 3625SOL     OW11773   6.850   2.285   0.819
 3625SOL    HW111774   6.788   2.243   0.753
 3625SOL    HW211775   6.801   2.304   0.903
 3626SOL     OW11776   1.048   2.494   4.966
 3626SOL    HW111777   1.064   2.590   4.943
 3626SOL    HW211778   1.130   2.440   4.946
 3627SOL     OW11779   3.466   2.165   1.748
 3627SOL    HW111780   3.539   2.205   1.804
 3627SOL    HW211781   3.423   2.089   1.798
 3628SOL     OW11782   5.847   1.813   0.943
 3628SOL    HW111783   5.844   1.805   1.042
 3628SOL    HW211784   5.768   1.766   0.903
 3629SOL     OW11785   1.021   1.332   3.772
 3629SOL    HW111786   1.073   1.288   3.699
 3629SOL    HW211787   0.926   1.301   3.768
 3630SOL     OW11788   6.999   2.192   2.719
 3630SOL    HW111789   0.062   2.177   2.670
 3630SOL    HW211790   6.930   2.230   2.656
 3631SOL     OW11791   1.546   6.583   2.299
 3631SOL    HW111792   1.508   6.631   2.377
 3631SOL    HW211793   1.535   6.484   2.312
 3632SOL     OW11794   4.556   4.064   1.012
 3632SOL    HW111795   4.470   4.031   0.972
 3632SOL    HW211796   4.591   4.140   0.957
 3633SOL     OW11797   4.185   3.604   6.584
 3633SOL    HW111798   4.160   3.587   6.488
 3633SOL    HW211799   4.282   3.583   6.597
 3634SOL     OW11800   3.717   6.016   6.767
 3634SOL    HW111801   3.657   6.001   6.689
 3634SOL    HW211802   3.793   5.951   6.763
 3635SOL     OW11803   1.806   7.011   1.873
 3635SOL    HW111804   1.822   6.955   1.954
 3635SOL    HW211805   1.711   7.003   1.845
 3636SOL     OW11806   0.816   4.566   6.393
 3636SOL    HW111807   0.790   4.470   6.405
 3636SOL    HW211808   0.883   4.573   6.319
 3637SOL     OW11809   6.334   3.020   7.004
 3637SOL    HW111810   6.237   3.044   6.998
 3637SOL    HW211811   6.343   2.926   0.014
 3638SOL     OW11812   6.141   4.657   3.050
 3638SOL    HW111813   6.169   4.630   2.958
 3638SOL    HW211814   6.176   4.749   3.070
 3639SOL     OW11815   3.394   3.858   3.937
 3639SOL    HW111816   3.323   3.797   3.974
 3639SOL    HW211817   3.484   3.824   3.964
 3640SOL     OW11818   4.661   2.359   0.707
 3640SOL    HW111819   4.648   2.282   0.646
 3640SOL    HW211820   4.756   2.391   0.702
 3641SOL     OW11821   5.813   3.798   2.649
 3641SOL    HW111822   5.893   3.741   2.630
 3641SOL    HW211823   5.759   3.807   2.565
 3642SOL     OW11824   5.931   3.189   6.424
 3642SOL    HW111825   6.031   3.181   6.436
 3642SOL    HW211826   5.910   3.201   6.327
 3643SOL     OW11827   3.927   5.510   5.069
 3643SOL    HW111828   4.012   5.489   5.020
 3643SOL    HW211829   3.939   5.594   5.121
 3644SOL     OW11830   2.799   0.287   1.361
 3644SOL    HW111831   2.739   0.355   1.319
 3644SOL    HW211832   2.821   0.316   1.454
 3645SOL     OW11833   1.396   4.457   3.483
 3645SOL    HW111834   1.442   4.516   3.550
 3645SOL    HW211835   1.383   4.366   3.522
 3646SOL     OW11836   1.919   4.530   5.219
 3646SOL    HW111837   1.978   4.606   5.190
 3646SOL    HW211838   1.850   4.514   5.149
 3647SOL     OW11839   3.694   6.825   6.387
 3647SOL    HW111840   3.790   6.849   6.376
 3647SOL    HW211841   3.646   6.901   6.431
 3648SOL     OW11842   4.601   5.873   3.333
 3648SOL    HW111843   4.530   5.906   3.270
 3648SOL    HW211844   4.638   5.786   3.299
 3649SOL     OW11845   5.943   2.234   0.478
 3649SOL    HW111846   5.908   2.273   0.564
 3649SOL    HW211847   5.870   2.232   0.410
 3650SOL     OW11848   5.514   5.560   6.997
 3650SOL    HW111849   5.578   5.595   0.042
 3650SOL    HW211850   5.503   5.626   6.923
 3651SOL     OW11851   0.900   1.993   5.513
 3651SOL    HW111852   0.944   2.062   5.454
 3651SOL    HW211853   0.914   2.018   5.609
 3652SOL     OW11854   4.071   1.450   1.639
 3652SOL    HW111855   4.061   1.409   1.729
 3652SOL    HW211856   3.995   1.513   1.622
 3653SOL     OW11857   1.153   1.762   1.194
 3653SOL    HW111858   1.174   1.840   1.135
 3653SOL    HW211859   1.200   1.681   1.159
 3654SOL     OW11860   4.966   6.764   0.772
 3654SOL    HW111861   5.028   6.696   0.734
 3654SOL    HW211862   4.999   6.794   0.861
 3655SOL     OW11863   1.792   2.112   3.945
 3655SOL    HW111864   1.872   2.056   3.963
 3655SOL    HW211865   1.814   2.179   3.874
 3656SOL     OW11866   6.817   0.041   1.361
 3656SOL    HW111867   6.772   0.130   1.349
 3656SOL    HW211868   6.896   0.052   1.422
 3657SOL     OW11869   5.671   5.315   5.315
 3657SOL    HW111870   5.714   5.402   5.339
 3657SOL    HW211871   5.593   5.298   5.376
 3658SOL     OW11872   1.893   4.957   5.783
 3658SOL    HW111873   1.885   5.014   5.701
 3658SOL    HW211874   1.981   4.910   5.781
 3659SOL     OW11875   0.140   1.686   6.219
 3659SOL    HW111876   0.183   1.617   6.162
 3659SOL    HW211877   0.117   1.767   6.164
 3660SOL     OW11878   5.816   5.597   6.613
 3660SOL    HW111879   5.804   5.691   6.583
 3660SOL    HW211880   5.901   5.560   6.573
 3661SOL     OW11881   0.161   1.922   4.946
 3661SOL    HW111882   0.131   1.953   4.856
 3661SOL    HW211883   0.252   1.958   4.965
 3662SOL     OW11884   2.707   1.710   5.378
 3662SOL    HW111885   2.703   1.673   5.285
 3662SOL    HW211886   2.760   1.795   5.378
 3663SOL     OW11887   2.720   1.946   6.623
 3663SOL    HW111888   2.799   1.960   6.564
 3663SOL    HW211889   2.637   1.943   6.568
 3664SOL     OW11890   3.944   1.136   1.718
 3664SOL    HW111891   3.994   1.093   1.643
 3664SOL    HW211892   3.881   1.204   1.681
 3665SOL     OW11893   0.918   5.657   6.059
 3665SOL    HW111894   0.925   5.751   6.024
 3665SOL    HW211895   0.908   5.594   5.982
 3666SOL     OW11896   1.906   2.528   4.717
 3666SOL    HW111897   1.960   2.543   4.634
 3666SOL    HW211898   1.834   2.597   4.723
 3667SOL     OW11899   2.335   0.381   1.510
 3667SOL    HW111900   2.268   0.451   1.535
 3667SOL    HW211901   2.317   0.349   1.417
 3668SOL     OW11902   6.995   0.682   1.288
 3668SOL    HW111903   0.067   0.707   1.309
 3668SOL    HW211904   6.989   0.584   1.274
 3669SOL     OW11905   0.618   1.756   3.738
 3669SOL    HW111906   0.542   1.698   3.768
 3669SOL    HW211907   0.700   1.701   3.726
 3670SOL     OW11908   2.408   6.488   2.035
 3670SOL    HW111909   2.345   6.475   2.112
 3670SOL    HW211910   2.390   6.419   1.965
 3671SOL     OW11911   6.086   0.280   3.877
 3671SOL    HW111912   6.160   0.272   3.810
 3671SOL    HW211913   6.065   0.376   3.892
 3672SOL     OW11914   3.419   6.475   3.255
 3672SOL    HW111915   3.491   6.537   3.224
 3672SOL    HW211916   3.366   6.520   3.327
 3673SOL     OW11917   3.425   6.316   1.310
 3673SOL    HW111918   3.440   6.400   1.258
 3673SOL    HW211919   3.450   6.237   1.254
 3674SOL     OW11920   1.733   4.267   6.620
 3674SOL    HW111921   1.826   4.233   6.636
 3674SOL    HW211922   1.681   4.263   6.705
 3675SOL     OW11923   1.364   0.496   3.888
 3675SOL    HW111924   1.267   0.473   3.880
 3675SOL    HW211925   1.384   0.521   3.983
 3676SOL     OW11926   3.640   2.122   3.946
 3676SOL    HW111927   3.704   2.108   3.871
 3676SOL    HW211928   3.548   2.095   3.918
 3677SOL     OW11929   2.220   0.605   4.374
 3677SOL    HW111930   2.301   0.549   4.391
 3677SOL    HW211931   2.138   0.548   4.379
 3678SOL     OW11932   0.612   0.572   4.047
 3678SOL    HW111933   0.688   0.624   4.009
 3678SOL    HW211934   0.534   0.634   4.061
 3679SOL     OW11935   4.068   0.706   2.474
 3679SOL    HW111936   4.109   0.698   2.383
 3679SOL    HW211937   4.107   0.785   2.521
 3680SOL     OW11938   3.326   1.275   4.615
 3680SOL    HW111939   3.274   1.196   4.583
 3680SOL    HW211940   3.302   1.294   4.710
 3681SOL     OW11941   1.760   5.872   4.460
 3681SOL    HW111942   1.723   5.920   4.381
 3681SOL    HW211943   1.708   5.789   4.477
 3682SOL     OW11944   5.653   2.215   1.683
 3682SOL    HW111945   5.664   2.307   1.720
 3682SOL    HW211946   5.583   2.166   1.735
 3683SOL     OW11947   5.777   1.643   6.616
 3683SOL    HW111948   5.696   1.667   6.668
 3683SOL    HW211949   5.764   1.553   6.573
 3684SOL     OW11950   2.042   6.463   5.789
 3684SOL    HW111951   2.006   6.476   5.881
 3684SOL    HW211952   1.989   6.518   5.724
 3685SOL     OW11953   2.236   6.179   5.096
 3685SOL    HW111954   2.159   6.156   5.035
 3685SOL    HW211955   2.321   6.147   5.055
 3686SOL     OW11956   0.341   4.217   2.415
 3686SOL    HW111957   0.334   4.315   2.393
 3686SOL    HW211958   0.427   4.181   2.380
 3687SOL     OW11959   5.303   4.813   4.283
 3687SOL    HW111960   5.238   4.866   4.227
 3687SOL    HW211961   5.280   4.716   4.278
 3688SOL     OW11962   6.141   2.281   0.235
 3688SOL    HW111963   6.110   2.218   0.306
 3688SOL    HW211964   6.133   2.238   0.145
 3689SOL     OW11965   1.218   6.718   5.690
 3689SOL    HW111966   1.207   6.752   5.596
 3689SOL    HW211967   1.254   6.625   5.687
 3690SOL     OW11968   5.167   5.658   1.538
 3690SOL    HW111969   5.186   5.600   1.617
 3690SOL    HW211970   5.239   5.646   1.470
 3691SOL     OW11971   1.465   2.665   0.625
 3691SOL    HW111972   1.527   2.703   0.556
 3691SOL    HW211973   1.426   2.579   0.591
 3692SOL     OW11974   0.873   3.155   5.707
 3692SOL    HW111975   0.891   3.251   5.730
 3692SOL    HW211976   0.915   3.097   5.777
 3693SOL     OW11977   6.504   1.293   2.057
 3693SOL    HW111978   6.461   1.367   2.107
 3693SOL    HW211979   6.571   1.247   2.115
 3694SOL     OW11980   6.520   0.075   2.700
 3694SOL    HW111981   6.445   0.014   2.676
 3694SOL    HW211982   6.606   0.025   2.695
 3695SOL     OW11983   5.545   3.289   2.858
 3695SOL    HW111984   5.461   3.278   2.804
 3695SOL    HW211985   5.521   3.312   2.953
 3696SOL     OW11986   4.233   0.566   4.671
 3696SOL    HW111987   4.223   0.599   4.764
 3696SOL    HW211988   4.284   0.634   4.617
 3697SOL     OW11989   6.798   6.278   2.812
 3697SOL    HW111990   6.723   6.337   2.843
 3697SOL    HW211991   6.862   6.332   2.757
 3698SOL     OW11992   1.454   0.008   2.620
 3698SOL    HW111993   1.483   0.020   2.716
 3698SOL    HW211994   1.440   0.098   2.579
 3699SOL     OW11995   2.688   2.329   3.576
 3699SOL    HW111996   2.622   2.280   3.519
 3699SOL    HW211997   2.640   2.394   3.634
 3700SOL     OW11998   0.900   5.263   4.512
 3700SOL    HW111999   0.952   5.304   4.437
 3700SOL    HW212000   0.936   5.172   4.531
 3701SOL     OW12001   1.587   0.503   1.920
 3701SOL    HW112002   1.614   0.410   1.946
 3701SOL    HW212003   1.626   0.568   1.985
 3702SOL     OW12004   5.852   4.689   3.100
 3702SOL    HW112005   5.949   4.678   3.079
 3702SOL    HW212006   5.805   4.603   3.082
 3703SOL     OW12007   1.317   1.684   3.881
 3703SOL    HW112008   1.284   1.764   3.832
 3703SOL    HW212009   1.280   1.683   3.974
 3704SOL     OW12010   6.670   1.585   0.605
 3704SOL    HW112011   6.745   1.625   0.658
 3704SOL    HW212012   6.689   1.595   0.507
 3705SOL     OW12013   5.126   4.461   3.147
 3705SOL    HW112014   5.209   4.462   3.202
 3705SOL    HW212015   5.056   4.517   3.191
 3706SOL     OW12016   1.184   4.557   0.194
 3706SOL    HW112017   1.203   4.591   0.102
 3706SOL    HW212018   1.103   4.603   0.231
 3707SOL     OW12019   1.662   5.341   3.541
 3707SOL    HW112020   1.719   5.368   3.619
 3707SOL    HW212021   1.632   5.247   3.552
 3708SOL     OW12022   2.232   6.230   1.199
 3708SOL    HW112023   2.135   6.204   1.195
 3708SOL    HW212024   2.256   6.253   1.293
 3709SOL     OW12025   1.233   1.823   2.189
 3709SOL    HW112026   1.134   1.835   2.183
 3709SOL    HW212027   1.278   1.879   2.120
 3710SOL     OW12028   0.591   4.192   5.345
 3710SOL    HW112029   0.629   4.132   5.274
 3710SOL    HW212030   0.666   4.237   5.394
 3711SOL     OW12031   1.173   5.491   4.458
 3711SOL    HW112032   1.132   5.426   4.394
 3711SOL    HW212033   1.150   5.584   4.430
 3712SOL     OW12034   1.732   5.328   4.545
 3712SOL    HW112035   1.743   5.230   4.565
 3712SOL    HW212036   1.635   5.348   4.529
 3713SOL     OW12037   6.227   0.404   4.123
 3713SOL    HW112038   6.245   0.360   4.035
 3713SOL    HW212039   6.308   0.398   4.181
 3714SOL     OW12040   0.623   4.722   0.428
 3714SOL    HW112041   0.666   4.680   0.348
 3714SOL    HW212042   0.587   4.651   0.488
 3715SOL     OW12043   5.740   5.533   3.810
 3715SOL    HW112044   5.665   5.476   3.844
 3715SOL    HW212045   5.724   5.628   3.835
 3716SOL     OW12046   5.045   5.411   4.487
 3716SOL    HW112047   5.020   5.366   4.401
 3716SOL    HW212048   5.139   5.387   4.511
 3717SOL     OW12049   4.630   0.900   0.955
 3717SOL    HW112050   4.692   0.834   0.912
 3717SOL    HW212051   4.597   0.864   1.042
 3718SOL     OW12052   6.567   6.508   6.008
 3718SOL    HW112053   6.509   6.433   6.040
 3718SOL    HW212054   6.626   6.539   6.082
 3719SOL     OW12055   3.749   3.906   0.086
 3719SOL    HW112056   3.672   3.964   0.110
 3719SOL    HW212057   3.720   3.811   0.081
 3720SOL     OW12058   0.188   3.525   1.186
 3720SOL    HW112059   0.117   3.520   1.256
 3720SOL    HW212060   0.240   3.609   1.196
 3721SOL     OW12061   0.288   6.518   5.631
 3721SOL    HW112062   0.278   6.444   5.697
 3721SOL    HW212063   0.385   6.538   5.618
 3722SOL     OW12064   5.330   6.502   3.233
 3722SOL    HW112065   5.330   6.418   3.178
 3722SOL    HW212066   5.345   6.479   3.329
 3723SOL     OW12067   4.556   3.527   0.670
 3723SOL    HW112068   4.632   3.584   0.702
 3723SOL    HW212069   4.592   3.450   0.617
 3724SOL     OW12070   1.278   4.811   4.541
 3724SOL    HW112071   1.277   4.745   4.617
 3724SOL    HW212072   1.322   4.895   4.571
 3725SOL     OW12073   1.540   5.812   0.020
 3725SOL    HW112074   1.602   5.815   0.099
 3725SOL    HW212075   1.510   5.717   0.006
 3726SOL     OW12076   6.051   3.767   5.175
 3726SOL    HW112077   5.979   3.724   5.122
 3726SOL    HW212078   6.040   3.867   5.173
 3727SOL     OW12079   6.861   3.442   3.703
 3727SOL    HW112080   6.955   3.420   3.730
 3727SOL    HW212081   6.828   3.374   3.638
 3728SOL     OW12082   2.949   2.785   0.387
 3728SOL    HW112083   2.865   2.801   0.438
 3728SOL    HW212084   3.013   2.732   0.443
 3729SOL     OW12085   0.953   0.076   5.796
 3729SOL    HW112086   0.972   0.165   5.756
 3729SOL    HW212087   1.036   0.038   5.834
 3730SOL     OW12088   4.937   5.868   4.670
 3730SOL    HW112089   4.955   5.795   4.603
 3730SOL    HW212090   4.839   5.878   4.682
 3731SOL     OW12091   0.402   2.139   0.181
 3731SOL    HW112092   0.383   2.198   0.260
 3731SOL    HW212093   0.342   2.164   0.105
 3732SOL     OW12094   3.189   2.544   6.833
 3732SOL    HW112095   3.218   2.570   6.741
 3732SOL    HW212096   3.102   2.588   6.855
 3733SOL     OW12097   1.804   0.377   3.201
 3733SOL    HW112098   1.773   0.385   3.106
 3733SOL    HW212099   1.807   0.281   3.227
 3734SOL     OW12100   4.055   6.899   0.973
 3734SOL    HW112101   4.060   6.884   0.874
 3734SOL    HW212102   4.141   6.939   1.005
 3735SOL     OW12103   4.443   6.854   2.770
 3735SOL    HW112104   4.495   6.935   2.798
 3735SOL    HW212105   4.479   6.774   2.818
 3736SOL     OW12106   6.776   0.741   0.525
 3736SOL    HW112107   6.762   0.828   0.476
 3736SOL    HW212108   6.797   0.760   0.621
 3737SOL     OW12109   6.536   2.239   2.564
 3737SOL    HW112110   6.516   2.141   2.571
 3737SOL    HW212111   6.501   2.286   2.645
 3738SOL     OW12112   6.628   6.599   1.193
 3738SOL    HW112113   6.667   6.598   1.285
 3738SOL    HW212114   6.651   6.685   1.148
 3739SOL     OW12115   3.316   3.714   0.378
 3739SOL    HW112116   3.292   3.634   0.324
 3739SOL    HW212117   3.300   3.797   0.324
 3740SOL     OW12118   5.023   5.414   6.484
 3740SOL    HW112119   4.995   5.348   6.554
 3740SOL    HW212120   4.966   5.403   6.403
 3741SOL     OW12121   5.326   3.116   0.363
 3741SOL    HW112122   5.359   3.030   0.326
 3741SOL    HW212123   5.246   3.100   0.421
 3742SOL     OW12124   3.629   5.363   0.757
 3742SOL    HW112125   3.596   5.286   0.703
 3742SOL    HW212126   3.595   5.448   0.717
 3743SOL     OW12127   3.598   3.206   1.138
 3743SOL    HW112128   3.501   3.224   1.158
 3743SOL    HW212129   3.649   3.202   1.224
 3744SOL     OW12130   0.383   6.555   2.484
 3744SOL    HW112131   0.480   6.554   2.459
 3744SOL    HW212132   0.364   6.634   2.542
 3745SOL     OW12133   4.847   3.730   2.286
 3745SOL    HW112134   4.833   3.818   2.332
 3745SOL    HW212135   4.771   3.712   2.225
 3746SOL     OW12136   6.097   0.404   4.427
 3746SOL    HW112137   6.075   0.326   4.487
 3746SOL    HW212138   6.188   0.390   4.388
 3747SOL     OW12139   3.441   6.827   5.725
 3747SOL    HW112140   3.370   6.812   5.655
 3747SOL    HW212141   3.398   6.862   5.808
 3748SOL     OW12142   4.911   1.726   2.676
 3748SOL    HW112143   4.944   1.790   2.606
 3748SOL    HW212144   4.888   1.639   2.633
 3749SOL     OW12145   6.968   6.506   2.138
 3749SOL    HW112146   6.987   6.547   2.049
 3749SOL    HW212147   0.025   6.517   2.198
 3750SOL     OW12148   5.472   4.188   0.683
 3750SOL    HW112149   5.536   4.118   0.714
 3750SOL    HW212150   5.382   4.172   0.723
 3751SOL     OW12151   1.901   3.701   2.588
 3751SOL    HW112152   1.903   3.782   2.645
 3751SOL    HW212153   1.995   3.670   2.570
 3752SOL     OW12154   0.785   6.249   6.279
 3752SOL    HW112155   0.842   6.276   6.357
 3752SOL    HW212156   0.691   6.277   6.295
 3753SOL     OW12157   6.601   6.992   5.019
 3753SOL    HW112158   6.511   6.957   4.989
 3753SOL    HW212159   6.664   6.915   5.028
 3754SOL     OW12160   6.680   6.857   1.503
 3754SOL    HW112161   6.713   6.863   1.597
 3754SOL    HW212162   6.716   6.934   1.450
 3755SOL     OW12163   5.121   2.966   3.164
 3755SOL    HW112164   5.148   3.037   3.228
 3755SOL    HW212165   5.198   2.905   3.147
 3756SOL     OW12166   3.231   0.285   6.353
 3756SOL    HW112167   3.225   0.320   6.259
 3756SOL    HW212168   3.271   0.193   6.352
 3757SOL     OW12169   3.616   5.540   6.517
 3757SOL    HW112170   3.527   5.517   6.557
 3757SOL    HW212171   3.686   5.539   6.589
 3758SOL     OW12172   1.060   0.900   3.835
 3758SOL    HW112173   1.128   0.960   3.876
 3758SOL    HW212174   0.980   0.895   3.894
 3759SOL     OW12175   4.473   4.370   6.879
 3759SOL    HW112176   4.461   4.313   6.797
 3759SOL    HW212177   4.437   4.462   6.861
 3760SOL     OW12178   2.023   2.383   5.173
 3760SOL    HW112179   1.960   2.440   5.225
 3760SOL    HW212180   2.064   2.437   5.099
 3761SOL     OW12181   0.011   6.630   3.801
 3761SOL    HW112182   6.982   6.549   3.829
 3761SOL    HW212183   0.060   6.610   3.716
 3762SOL     OW12184   0.792   3.662   0.167
 3762SOL    HW112185   0.793   3.704   0.076
 3762SOL    HW212186   0.759   3.568   0.160
 3763SOL     OW12187   6.264   3.861   6.123
 3763SOL    HW112188   6.208   3.778   6.132
 3763SOL    HW212189   6.214   3.939   6.160
 3764SOL     OW12190   2.286   6.649   3.536
 3764SOL    HW112191   2.262   6.649   3.633
 3764SOL    HW212192   2.207   6.621   3.482
 3765SOL     OW12193   5.725   1.299   4.586
 3765SOL    HW112194   5.748   1.254   4.672
 3765SOL    HW212195   5.646   1.359   4.600
 3766SOL     OW12196   1.831   0.203   5.103
 3766SOL    HW112197   1.766   0.244   5.166
 3766SOL    HW212198   1.837   0.259   5.020
 3767SOL     OW12199   1.839   5.055   1.358
 3767SOL    HW112200   1.919   5.004   1.327
 3767SOL    HW212201   1.829   5.045   1.457
 3768SOL     OW12202   4.584   6.728   1.031
 3768SOL    HW112203   4.518   6.703   0.960
 3768SOL    HW212204   4.674   6.692   1.007
 3769SOL     OW12205   4.555   6.365   4.916
 3769SOL    HW112206   4.553   6.463   4.935
 3769SOL    HW212207   4.514   6.315   4.991
 3770SOL     OW12208   2.117   1.957   0.145
 3770SOL    HW112209   2.110   1.858   0.159
 3770SOL    HW212210   2.029   2.000   0.166
 3771SOL     OW12211   5.053   1.530   5.820
 3771SOL    HW112212   5.046   1.462   5.893
 3771SOL    HW212213   4.978   1.596   5.829
 3772SOL     OW12214   5.026   1.094   2.571
 3772SOL    HW112215   5.082   1.082   2.653
 3772SOL    HW212216   5.071   1.052   2.493
 3773SOL     OW12217   6.688   2.951   6.692
 3773SOL    HW112218   6.755   2.878   6.702
 3773SOL    HW212219   6.656   2.980   6.783
 3774SOL     OW12220   0.510   1.135   2.028
 3774SOL    HW112221   0.469   1.209   2.082
 3774SOL    HW212222   0.491   1.149   1.931
 3775SOL     OW12223   5.422   3.585   3.554
 3775SOL    HW112224   5.327   3.605   3.574
 3775SOL    HW212225   5.453   3.509   3.611
 3776SOL     OW12226   2.631   3.459   0.267
 3776SOL    HW112227   2.538   3.426   0.284
 3776SOL    HW212228   2.691   3.431   0.342
 3777SOL     OW12229   2.067   4.338   3.813
 3777SOL    HW112230   2.067   4.418   3.754
 3777SOL    HW212231   1.973   4.315   3.839
 3778SOL     OW12232   2.090   6.667   2.122
 3778SOL    HW112233   2.147   6.694   2.044
 3778SOL    HW212234   2.139   6.599   2.177
 3779SOL     OW12235   3.132   5.353   6.008
 3779SOL    HW112236   3.050   5.296   6.004
 3779SOL    HW212237   3.208   5.304   5.965
 3780SOL     OW12238   2.841   0.042   4.734
 3780SOL    HW112239   2.850   6.966   4.750
 3780SOL    HW212240   2.784   0.082   4.805
 3781SOL     OW12241   2.756   5.390   4.769
 3781SOL    HW112242   2.741   5.315   4.704
 3781SOL    HW212243   2.853   5.410   4.776
 3782SOL     OW12244   2.112   1.982   3.156
 3782SOL    HW112245   2.195   1.995   3.101
 3782SOL    HW212246   2.042   1.936   3.100
 3783SOL     OW12247   4.692   5.666   5.355
 3783SOL    HW112248   4.623   5.720   5.306
 3783SOL    HW212249   4.672   5.568   5.344
 3784SOL     OW12250   5.253   1.463   3.389
 3784SOL    HW112251   5.212   1.535   3.446
 3784SOL    HW212252   5.259   1.378   3.442
 3785SOL     OW12253   1.687   1.512   1.544
 3785SOL    HW112254   1.714   1.608   1.534
 3785SOL    HW212255   1.761   1.453   1.514
 3786SOL     OW12256   3.427   5.416   3.313
 3786SOL    HW112257   3.390   5.369   3.394
 3786SOL    HW212258   3.353   5.463   3.265
 3787SOL     OW12259   3.832   1.707   3.980
 3787SOL    HW112260   3.886   1.703   4.063
 3787SOL    HW212261   3.735   1.717   4.003
 3788SOL     OW12262   5.808   2.847   2.142
 3788SOL    HW112263   5.746   2.913   2.099
 3788SOL    HW212264   5.780   2.834   2.238
 3789SOL     OW12265   1.489   5.175   3.103
 3789SOL    HW112266   1.518   5.265   3.137
 3789SOL    HW212267   1.443   5.186   3.015
 3790SOL     OW12268   2.180   3.358   3.929
 3790SOL    HW112269   2.185   3.338   4.027
 3790SOL    HW212270   2.185   3.457   3.915
 3791SOL     OW12271   4.753   0.573   2.035
 3791SOL    HW112272   4.655   0.562   2.053
 3791SOL    HW212273   4.804   0.505   2.088
 3792SOL     OW12274   0.080   6.825   5.359
 3792SOL    HW112275   0.028   6.905   5.387
 3792SOL    HW212276   0.074   6.755   5.430
 3793SOL     OW12277   2.073   0.219   2.742
 3793SOL    HW112278   2.150   0.169   2.703
 3793SOL    HW212279   2.106   0.280   2.815
 3794SOL     OW12280   4.320   6.445   1.842
 3794SOL    HW112281   4.237   6.472   1.793
 3794SOL    HW212282   4.296   6.403   1.929
 3795SOL     OW12283   5.394   0.023   6.778
 3795SOL    HW112284   5.378   6.969   6.716
 3795SOL    HW212285   5.309   0.046   6.825
 3796SOL     OW12286   1.207   3.019   2.172
 3796SOL    HW112287   1.281   3.052   2.231
 3796SOL    HW212288   1.240   3.014   2.078
 3797SOL     OW12289   0.493   5.011   2.591
 3797SOL    HW112290   0.409   4.960   2.573
 3797SOL    HW212291   0.470   5.103   2.623
 3798SOL     OW12292   1.720   4.636   2.365
 3798SOL    HW112293   1.790   4.672   2.427
 3798SOL    HW212294   1.764   4.588   2.290
 3799SOL     OW12295   1.782   7.010   5.384
 3799SOL    HW112296   1.798   0.000   5.286
 3799SOL    HW212297   1.686   0.005   5.405
 3800SOL     OW12298   4.906   3.148   4.643
 3800SOL    HW112299   4.915   3.206   4.723
 3800SOL    HW212300   4.859   3.063   4.668
 3801SOL     OW12301   0.234   6.751   6.105
 3801SOL    HW112302   0.268   6.701   6.025
 3801SOL    HW212303   0.250   6.697   6.187
 3802SOL     OW12304   1.611   2.326   5.488
 3802SOL    HW112305   1.616   2.426   5.488
 3802SOL    HW212306   1.699   2.288   5.461
 3803SOL     OW12307   3.687   1.483   1.065
 3803SOL    HW112308   3.704   1.409   1.129
 3803SOL    HW212309   3.637   1.557   1.111
 3804SOL     OW12310   4.965   2.269   4.879
 3804SOL    HW112311   4.877   2.235   4.847
 3804SOL    HW212312   4.983   2.359   4.840
 3805SOL     OW12313   2.299   4.288   1.517
 3805SOL    HW112314   2.380   4.286   1.575
 3805SOL    HW212315   2.218   4.268   1.572
 3806SOL     OW12316   2.533   1.585   0.505
 3806SOL    HW112317   2.544   1.566   0.603
 3806SOL    HW212318   2.480   1.669   0.494
 3807SOL     OW12319   1.652   6.722   3.307
 3807SOL    HW112320   1.570   6.666   3.320
 3807SOL    HW212321   1.649   6.800   3.369
 3808SOL     OW12322   3.436   0.238   1.321
 3808SOL    HW112323   3.424   0.149   1.278
 3808SOL    HW212324   3.469   0.226   1.415
 3809SOL     OW12325   4.354   0.817   6.260
 3809SOL    HW112326   4.271   0.842   6.211
 3809SOL    HW212327   4.432   0.864   6.219
 3810SOL     OW12328   2.633   3.153   5.449
 3810SOL    HW112329   2.722   3.112   5.433
 3810SOL    HW212330   2.568   3.121   5.380
 3811SOL     OW12331   0.918   5.481   5.859
 3811SOL    HW112332   0.823   5.450   5.869
 3811SOL    HW212333   0.980   5.403   5.867
 3812SOL     OW12334   5.648   1.515   5.138
 3812SOL    HW112335   5.719   1.548   5.201
 3812SOL    HW212336   5.690   1.459   5.067
 3813SOL     OW12337   3.393   5.047   1.316
 3813SOL    HW112338   3.321   4.984   1.346
 3813SOL    HW212339   3.461   5.057   1.389
 3814SOL     OW12340   0.502   6.908   2.120
 3814SOL    HW112341   0.409   6.871   2.128
 3814SOL    HW212342   0.553   6.886   2.203
 3815SOL     OW12343   5.159   2.303   1.506
 3815SOL    HW112344   5.102   2.319   1.426
 3815SOL    HW212345   5.110   2.244   1.570
 3816SOL     OW12346   0.924   6.489   1.309
 3816SOL    HW112347   0.835   6.476   1.353
 3816SOL    HW212348   0.920   6.454   1.216
 3817SOL     OW12349   5.189   1.990   5.472
 3817SOL    HW112350   5.135   1.929   5.531
 3817SOL    HW212351   5.221   1.939   5.392
 3818SOL     OW12352   5.064   5.326   2.005
 3818SOL    HW112353   4.972   5.334   2.044
 3818SOL    HW212354   5.128   5.382   2.059
 3819SOL     OW12355   5.242   4.371   6.612
 3819SOL    HW112356   5.160   4.325   6.644
 3819SOL    HW212357   5.299   4.307   6.561
 3820SOL     OW12358   5.264   6.382   4.195
 3820SOL    HW112359   5.227   6.420   4.110
 3820SOL    HW212360   5.197   6.321   4.236
 3821SOL     OW12361   0.952   4.117   1.892
 3821SOL    HW112362   1.012   4.152   1.963
 3821SOL    HW212363   0.876   4.066   1.934
 3822SOL     OW12364   2.691   5.232   1.741
 3822SOL    HW112365   2.683   5.322   1.698
 3822SOL    HW212366   2.610   5.214   1.796
 3823SOL     OW12367   3.394   2.623   5.425
 3823SOL    HW112368   3.324   2.694   5.419
 3823SOL    HW212369   3.351   2.534   5.409
 3824SOL     OW12370   0.245   2.241   7.012
 3824SOL    HW112371   0.206   2.233   6.921
 3824SOL    HW212372   0.288   2.331   0.000
 3825SOL     OW12373   6.789   6.553   6.171
 3825SOL    HW112374   6.883   6.535   6.141
 3825SOL    HW212375   6.790   6.593   6.262
 3826SOL     OW12376   6.554   2.482   1.456
 3826SOL    HW112377   6.480   2.550   1.457
 3826SOL    HW212378   6.581   2.461   1.550
 3827SOL     OW12379   4.370   3.262   0.350
 3827SOL    HW112380   4.433   3.229   0.420
 3827SOL    HW212381   4.276   3.250   0.381
 3828SOL     OW12382   3.709   1.371   2.404
 3828SOL    HW112383   3.773   1.329   2.468
 3828SOL    HW212384   3.747   1.368   2.312
 3829SOL     OW12385   2.101   5.179   3.659
 3829SOL    HW112386   2.075   5.271   3.688
 3829SOL    HW212387   2.029   5.115   3.683
 3830SOL     OW12388   3.015   0.564   4.483
 3830SOL    HW112389   2.990   0.478   4.527
 3830SOL    HW212390   2.944   0.632   4.499
 3831SOL     OW12391   3.620   1.382   1.999
 3831SOL    HW112392   3.570   1.469   2.005
 3831SOL    HW212393   3.693   1.389   1.932
 3832SOL     OW12394   6.214   0.197   2.850
 3832SOL    HW112395   6.189   0.135   2.924
 3832SOL    HW212396   6.314   0.200   2.841
 3833SOL     OW12397   1.096   4.984   6.775
 3833SOL    HW112398   1.020   5.002   6.713
 3833SOL    HW212399   1.064   4.931   6.854
 3834SOL     OW12400   2.399   2.202   0.418
 3834SOL    HW112401   2.323   2.220   0.480
 3834SOL    HW212402   2.383   2.117   0.368
 3835SOL     OW12403   3.484   5.863   4.948
 3835SOL    HW112404   3.414   5.804   4.989
 3835SOL    HW212405   3.534   5.812   4.878
 3836SOL     OW12406   1.013   3.332   5.955
 3836SOL    HW112407   0.981   3.398   5.888
 3836SOL    HW212408   1.113   3.328   5.953
 3837SOL     OW12409   3.678   3.589   0.124
 3837SOL    HW112410   3.652   3.499   0.160
 3837SOL    HW212411   3.678   3.585   0.024
 3838SOL     OW12412   6.330   3.556   5.459
 3838SOL    HW112413   6.326   3.655   5.473
 3838SOL    HW212414   6.239   3.522   5.434
 3839SOL     OW12415   6.163   6.441   6.061
 3839SOL    HW112416   6.173   6.347   6.093
 3839SOL    HW212417   6.195   6.504   6.133
 3840SOL     OW12418   1.778   0.812   3.845
 3840SOL    HW112419   1.687   0.799   3.805
 3840SOL    HW212420   1.833   0.729   3.833
 3841SOL     OW12421   0.264   3.764   5.036
 3841SOL    HW112422   0.329   3.702   5.080
 3841SOL    HW212423   0.283   3.768   4.938
 3842SOL     OW12424   1.081   5.285   6.823
 3842SOL    HW112425   1.104   5.191   6.798
 3842SOL    HW212426   1.044   5.333   6.744
 3843SOL     OW12427   5.908   4.221   0.568
 3843SOL    HW112428   5.943   4.304   0.525
 3843SOL    HW212429   5.815   4.238   0.602
 3844SOL     OW12430   2.027   4.352   6.453
 3844SOL    HW112431   2.060   4.293   6.380
 3844SOL    HW212432   2.046   4.309   6.541
 3845SOL     OW12433   3.570   3.626   3.649
 3845SOL    HW112434   3.579   3.560   3.724
 3845SOL    HW212435   3.485   3.609   3.600
 3846SOL     OW12436   0.105   4.559   3.452
 3846SOL    HW112437   0.018   4.509   3.448
 3846SOL    HW212438   0.089   4.655   3.429
 3847SOL     OW12439   1.112   0.077   0.554
 3847SOL    HW112440   1.035   0.076   0.618
 3847SOL    HW212441   1.078   0.095   0.462
 3848SOL     OW12442   3.004   5.165   0.507
 3848SOL    HW112443   2.945   5.116   0.572
 3848SOL    HW212444   2.955   5.179   0.421
 3849SOL     OW12445   1.918   2.404   5.923
 3849SOL    HW112446   1.872   2.367   6.004
 3849SOL    HW212447   2.010   2.367   5.917
 3850SOL     OW12448   2.341   3.541   1.622
 3850SOL    HW112449   2.302   3.633   1.623
 3850SOL    HW212450   2.367   3.515   1.715
 3851SOL     OW12451   2.625   2.349   1.480
 3851SOL    HW112452   2.702   2.411   1.463
 3851SOL    HW212453   2.633   2.309   1.571
 3852SOL     OW12454   4.499   0.747   5.284
 3852SOL    HW112455   4.509   0.710   5.376
 3852SOL    HW212456   4.517   0.845   5.285
 3853SOL     OW12457   1.512   2.913   2.175
 3853SOL    HW112458   1.528   2.922   2.274
 3853SOL    HW212459   1.553   2.828   2.142
 3854SOL     OW12460   1.294   2.677   4.502
 3854SOL    HW112461   1.200   2.654   4.475
 3854SOL    HW212462   1.291   2.746   4.574
 3855SOL     OW12463   6.896   2.238   5.642
 3855SOL    HW112464   6.994   2.237   5.625
 3855SOL    HW212465   6.876   2.300   5.717
 3856SOL     OW12466   0.872   6.102   5.224
 3856SOL    HW112467   0.956   6.110   5.171
 3856SOL    HW212468   0.843   6.193   5.254
 3857SOL     OW12469   0.847   6.516   5.646
 3857SOL    HW112470   0.891   6.590   5.697
 3857SOL    HW212471   0.815   6.551   5.558
 3858SOL     OW12472   2.242   5.353   0.234
 3858SOL    HW112473   2.336   5.320   0.224
 3858SOL    HW212474   2.211   5.340   0.328
 3859SOL     OW12475   6.917   1.995   2.323
 3859SOL    HW112476   6.867   2.067   2.275
 3859SOL    HW212477   7.012   2.023   2.334
 3860SOL     OW12478   2.456   6.500   4.722
 3860SOL    HW112479   2.412   6.411   4.732
 3860SOL    HW212480   2.428   6.561   4.796
 3861SOL     OW12481   4.063   4.682   0.631
 3861SOL    HW112482   3.982   4.730   0.666
 3861SOL    HW212483   4.145   4.716   0.677
 3862SOL     OW12484   1.086   5.017   6.055
 3862SOL    HW112485   1.056   4.927   6.021
 3862SOL    HW212486   1.147   5.005   6.133
 3863SOL     OW12487   3.585   3.011   0.214
 3863SOL    HW112488   3.597   2.991   0.311
 3863SOL    HW212489   3.492   2.986   0.186
 3864SOL     OW12490   3.612   1.842   6.728
 3864SOL    HW112491   3.590   1.910   6.798
 3864SOL    HW212492   3.711   1.840   6.714
 3865SOL     OW12493   4.438   0.803   2.460
 3865SOL    HW112494   4.413   0.868   2.389
 3865SOL    HW212495   4.391   0.827   2.545
 3866SOL     OW12496   3.952   6.535   6.297
 3866SOL    HW112497   3.959   6.590   6.214
 3866SOL    HW212498   3.915   6.445   6.274
 3867SOL     OW12499   1.465   3.435   4.112
 3867SOL    HW112500   1.531   3.447   4.186
 3867SOL    HW212501   1.500   3.368   4.046
 3868SOL     OW12502   1.529   5.433   3.167
 3868SOL    HW112503   1.510   5.488   3.085
 3868SOL    HW212504   1.457   5.448   3.235
 3869SOL     OW12505   1.259   2.530   3.458
 3869SOL    HW112506   1.170   2.486   3.443
 3869SOL    HW212507   1.244   2.621   3.498
 3870SOL     OW12508   3.542   4.558   0.245
 3870SOL    HW112509   3.629   4.585   0.287
 3870SOL    HW212510   3.468   4.573   0.310
 3871SOL     OW12511   2.987   1.857   4.422
 3871SOL    HW112512   2.975   1.951   4.453
 3871SOL    HW212513   2.900   1.809   4.426
 3872SOL     OW12514   3.833   3.285   0.660
 3872SOL    HW112515   3.811   3.264   0.755
 3872SOL    HW212516   3.883   3.372   0.656
 3873SOL     OW12517   5.002   4.224   1.699
 3873SOL    HW112518   5.084   4.190   1.651
 3873SOL    HW212519   4.980   4.316   1.668
 3874SOL     OW12520   4.836   6.109   6.122
 3874SOL    HW112521   4.932   6.122   6.098
 3874SOL    HW212522   4.819   6.012   6.140
 3875SOL     OW12523   1.960   3.878   0.391
 3875SOL    HW112524   1.862   3.897   0.403
 3875SOL    HW212525   1.972   3.785   0.359
 3876SOL     OW12526   5.041   4.363   2.286
 3876SOL    HW112527   5.044   4.351   2.187
 3876SOL    HW212528   5.055   4.460   2.308
 3877SOL     OW12529   5.482   1.149   2.654
 3877SOL    HW112530   5.517   1.168   2.746
 3877SOL    HW212531   5.401   1.204   2.637
 3878SOL     OW12532   4.005   5.864   4.855
 3878SOL    HW112533   4.098   5.827   4.845
 3878SOL    HW212534   4.001   5.923   4.936
 3879SOL     OW12535   3.229   5.542   1.081
 3879SOL    HW112536   3.166   5.543   1.159
 3879SOL    HW212537   3.201   5.613   1.016
 3880SOL     OW12538   5.461   2.603   3.968
 3880SOL    HW112539   5.444   2.665   3.892
 3880SOL    HW212540   5.544   2.632   4.017
 3881SOL     OW12541   1.302   5.106   1.561
 3881SOL    HW112542   1.332   5.185   1.614
 3881SOL    HW212543   1.206   5.086   1.582
 3882SOL     OW12544   0.954   6.411   6.554
 3882SOL    HW112545   1.023   6.436   6.486
 3882SOL    HW212546   0.995   6.353   6.623
 3883SOL     OW12547   3.190   1.221   6.156
 3883SOL    HW112548   3.207   1.131   6.196
 3883SOL    HW212549   3.256   1.286   6.192
 3884SOL     OW12550   1.529   4.757   5.546
 3884SOL    HW112551   1.465   4.692   5.504
 3884SOL    HW212552   1.477   4.827   5.595
 3885SOL     OW12553   6.938   1.840   5.592
 3885SOL    HW112554   6.987   1.869   5.674
 3885SOL    HW212555   6.840   1.835   5.610
 3886SOL     OW12556   0.167   5.489   5.293
 3886SOL    HW112557   0.099   5.462   5.361
 3886SOL    HW212558   0.130   5.563   5.237
 3887SOL     OW12559   4.963   3.233   5.560
 3887SOL    HW112560   4.887   3.259   5.501
 3887SOL    HW212561   4.958   3.135   5.580
 3888SOL     OW12562   5.113   2.270   1.949
 3888SOL    HW112563   5.037   2.333   1.932
 3888SOL    HW212564   5.177   2.274   1.872
 3889SOL     OW12565   0.056   5.609   0.192
 3889SOL    HW112566   0.136   5.599   0.253
 3889SOL    HW212567   7.011   5.669   0.235
 3890SOL     OW12568   6.524   3.719   2.687
 3890SOL    HW112569   6.528   3.703   2.589
 3890SOL    HW212570   6.589   3.791   2.712
 3891SOL     OW12571   5.679   5.079   6.408
 3891SOL    HW112572   5.598   5.028   6.437
 3891SOL    HW212573   5.661   5.177   6.414
 3892SOL     OW12574   5.680   5.806   3.830
 3892SOL    HW112575   5.580   5.815   3.824
 3892SOL    HW212576   5.719   5.890   3.867
 3893SOL     OW12577   3.405   6.490   4.255
 3893SOL    HW112578   3.420   6.397   4.221
 3893SOL    HW212579   3.378   6.550   4.180
 3894SOL     OW12580   4.780   5.316   6.803
 3894SOL    HW112581   4.874   5.290   6.785
 3894SOL    HW212582   4.721   5.282   6.729
 3895SOL     OW12583   1.794   1.931   5.861
 3895SOL    HW112584   1.749   1.987   5.792
 3895SOL    HW212585   1.855   1.988   5.917
 3896SOL     OW12586   6.626   2.076   6.488
 3896SOL    HW112587   6.658   2.015   6.560
 3896SOL    HW212588   6.686   2.069   6.409
 3897SOL     OW12589   3.542   6.260   3.103
 3897SOL    HW112590   3.480   6.202   3.050
 3897SOL    HW212591   3.491   6.332   3.148
 3898SOL     OW12592   3.550   3.393   4.930
 3898SOL    HW112593   3.472   3.331   4.923
 3898SOL    HW212594   3.568   3.434   4.840
 3899SOL     OW12595   5.067   1.756   4.825
 3899SOL    HW112596   5.031   1.830   4.882
 3899SOL    HW212597   5.104   1.684   4.883
 3900SOL     OW12598   6.746   2.646   4.549
 3900SOL    HW112599   6.650   2.618   4.550
 3900SOL    HW212600   6.804   2.566   4.564
 3901SOL     OW12601   2.764   5.426   5.087
 3901SOL    HW112602   2.745   5.514   5.043
 3901SOL    HW212603   2.785   5.358   5.016
 3902SOL     OW12604   4.185   4.675   2.402
 3902SOL    HW112605   4.231   4.658   2.315
 3902SOL    HW212606   4.093   4.710   2.384
 3903SOL     OW12607   5.035   2.648   5.696
 3903SOL    HW112608   5.072   2.562   5.733
 3903SOL    HW212609   4.947   2.630   5.652
 3904SOL     OW12610   2.394   6.015   1.186
 3904SOL    HW112611   2.334   6.092   1.163
 3904SOL    HW212612   2.348   5.954   1.251
 3905SOL     OW12613   6.659   0.544   6.133
 3905SOL    HW112614   6.734   0.526   6.070
 3905SOL    HW212615   6.694   0.595   6.212
 3906SOL     OW12616   0.564   5.620   4.733
 3906SOL    HW112617   0.656   5.594   4.706
 3906SOL    HW212618   0.567   5.702   4.790
 3907SOL     OW12619   0.612   1.404   5.193
 3907SOL    HW112620   0.615   1.458   5.276
 3907SOL    HW212621   0.546   1.330   5.203
 3908SOL     OW12622   2.304   0.848   4.327
 3908SOL    HW112623   2.262   0.897   4.251
 3908SOL    HW212624   2.272   0.753   4.327
 3909SOL     OW12625   5.012   2.855   1.081
 3909SOL    HW112626   5.052   2.878   0.993
 3909SOL    HW212627   4.943   2.924   1.105
 3910SOL     OW12628   3.389   2.107   1.195
 3910SOL    HW112629   3.311   2.163   1.167
 3910SOL    HW212630   3.456   2.104   1.121
 3911SOL     OW12631   6.905   0.392   1.315
 3911SOL    HW112632   6.907   0.382   1.414
 3911SOL    HW212633   6.815   0.427   1.287
 3912SOL     OW12634   4.073   3.488   6.882
 3912SOL    HW112635   4.021   3.404   6.863
 3912SOL    HW212636   4.102   3.488   6.978
 3913SOL     OW12637   3.921   5.462   1.476
 3913SOL    HW112638   3.858   5.520   1.528
 3913SOL    HW212639   3.870   5.410   1.407
 3914SOL     OW12640   6.809   2.004   0.329
 3914SOL    HW112641   6.725   2.049   0.298
 3914SOL    HW212642   6.862   1.974   0.249
 3915SOL     OW12643   5.777   0.153   5.542
 3915SOL    HW112644   5.812   0.242   5.513
 3915SOL    HW212645   5.733   0.108   5.464
 3916SOL     OW12646   1.869   2.198   2.874
 3916SOL    HW112647   1.861   2.288   2.831
 3916SOL    HW212648   1.778   2.160   2.886
 3917SOL     OW12649   3.759   4.837   1.696
 3917SOL    HW112650   3.756   4.914   1.759
 3917SOL    HW212651   3.698   4.765   1.730
 3918SOL     OW12652   4.737   0.639   6.910
 3918SOL    HW112653   4.836   0.634   6.928
 3918SOL    HW212654   4.688   0.645   6.997
 3919SOL     OW12655   4.621   6.344   3.179
 3919SOL    HW112656   4.638   6.439   3.152
 3919SOL    HW212657   4.676   6.322   3.260
 3920SOL     OW12658   3.099   1.349   5.654
 3920SOL    HW112659   3.035   1.291   5.603
 3920SOL    HW212660   3.049   1.425   5.695
 3921SOL     OW12661   1.460   3.057   6.219
 3921SOL    HW112662   1.459   3.040   6.318
 3921SOL    HW212663   1.380   3.014   6.177
 3922SOL     OW12664   4.903   3.794   3.306
 3922SOL    HW112665   4.865   3.833   3.222
 3922SOL    HW212666   4.940   3.867   3.364
 3923SOL     OW12667   5.411   1.480   1.625
 3923SOL    HW112668   5.416   1.438   1.715
 3923SOL    HW212669   5.452   1.418   1.557
 3924SOL     OW12670   5.094   5.000   4.201
 3924SOL    HW112671   5.108   5.097   4.217
 3924SOL    HW212672   5.019   4.967   4.258
 3925SOL     OW12673   4.876   5.344   1.157
 3925SOL    HW112674   4.958   5.343   1.100
 3925SOL    HW212675   4.899   5.382   1.247
 3926SOL     OW12676   0.678   5.264   5.072
 3926SOL    HW112677   0.694   5.194   5.142
 3926SOL    HW212678   0.584   5.254   5.037
 3927SOL     OW12679   5.322   1.419   5.762
 3927SOL    HW112680   5.399   1.480   5.775
 3927SOL    HW212681   5.276   1.403   5.850
 3928SOL     OW12682   3.604   5.581   2.668
 3928SOL    HW112683   3.566   5.598   2.578
 3928SOL    HW212684   3.542   5.523   2.721
 3929SOL     OW12685   1.183   1.646   5.906
 3929SOL    HW112686   1.250   1.714   5.935
 3929SOL    HW212687   1.172   1.650   5.806
 3930SOL     OW12688   1.504   4.522   3.861
 3930SOL    HW112689   1.535   4.549   3.769
 3930SOL    HW212690   1.412   4.556   3.876
 3931SOL     OW12691   1.197   2.131   0.187
 3931SOL    HW112692   1.250   2.151   0.105
 3931SOL    HW212693   1.208   2.035   0.211
 3932SOL     OW12694   2.577   4.578   3.154
 3932SOL    HW112695   2.618   4.596   3.064
 3932SOL    HW212696   2.525   4.493   3.151
 3933SOL     OW12697   1.972   6.281   1.419
 3933SOL    HW112698   1.987   6.379   1.405
 3933SOL    HW212699   1.917   6.245   1.344
 3934SOL     OW12700   2.298   6.989   1.004
 3934SOL    HW112701   2.251   0.034   1.061
 3934SOL    HW212702   2.231   6.927   0.964
 3935SOL     OW12703   0.451   3.372   5.056
 3935SOL    HW112704   0.413   3.325   5.136
 3935SOL    HW212705   0.498   3.455   5.086
 3936SOL     OW12706   0.182   4.014   5.179
 3936SOL    HW112707   0.190   3.923   5.138
 3936SOL    HW212708   0.252   4.074   5.140
 3937SOL     OW12709   0.807   6.063   0.672
 3937SOL    HW112710   0.889   6.008   0.656
 3937SOL    HW212711   0.828   6.159   0.656
 3938SOL     OW12712   0.909   3.367   1.055
 3938SOL    HW112713   0.835   3.379   0.989
 3938SOL    HW212714   0.951   3.456   1.074
 3939SOL     OW12715   1.497   6.954   3.182
 3939SOL    HW112716   1.407   6.913   3.165
 3939SOL    HW212717   1.564   6.881   3.199
 3940SOL     OW12718   3.090   5.602   6.594
 3940SOL    HW112719   3.078   5.626   6.498
 3940SOL    HW212720   3.122   5.682   6.645
 3941SOL     OW12721   5.044   5.912   2.461
 3941SOL    HW112722   5.054   5.856   2.543
 3941SOL    HW212723   5.049   5.854   2.380
 3942SOL     OW12724   0.023   6.203   6.261
 3942SOL    HW112725   6.955   6.194   6.303
 3942SOL    HW212726   0.016   6.188   6.163
 3943SOL     OW12727   2.397   3.372   0.367
 3943SOL    HW112728   2.369   3.290   0.416
 3943SOL    HW212729   2.381   3.452   0.425
 3944SOL     OW12730   3.816   3.034   6.507
 3944SOL    HW112731   3.844   3.104   6.572
 3944SOL    HW212732   3.878   3.034   6.429
 3945SOL     OW12733   5.693   0.641   3.625
 3945SOL    HW112734   5.600   0.615   3.601
 3945SOL    HW212735   5.732   0.573   3.687
 3946SOL     OW12736   0.638   3.695   0.424
 3946SOL    HW112737   0.546   3.668   0.396
 3946SOL    HW212738   0.691   3.720   0.343
 3947SOL     OW12739   5.556   6.278   2.004
 3947SOL    HW112740   5.599   6.363   1.973
 3947SOL    HW212741   5.467   6.297   2.044
 3948SOL     OW12742   1.721   2.598   5.139
 3948SOL    HW112743   1.666   2.519   5.112
 3948SOL    HW212744   1.781   2.572   5.214
 3949SOL     OW12745   6.574   0.344   2.627
 3949SOL    HW112746   6.567   0.396   2.712
 3949SOL    HW212747   6.544   0.250   2.643
 3950SOL     OW12748   3.002   4.461   1.662
 3950SOL    HW112749   2.939   4.411   1.603
 3950SOL    HW212750   2.953   4.490   1.745
 3951SOL     OW12751   0.385   2.774   4.655
 3951SOL    HW112752   0.287   2.768   4.676
 3951SOL    HW212753   0.397   2.801   4.560
 3952SOL     OW12754   5.547   3.774   6.959
 3952SOL    HW112755   5.602   3.858   6.965
 3952SOL    HW212756   5.608   3.695   6.961
 3953SOL     OW12757   3.018   3.623   5.905
 3953SOL    HW112758   3.083   3.696   5.921
 3953SOL    HW212759   2.930   3.662   5.876
 3954SOL     OW12760   0.686   3.160   5.043
 3954SOL    HW112761   0.663   3.107   5.124
 3954SOL    HW212762   0.615   3.228   5.026
 3955SOL     OW12763   6.031   3.484   0.404
 3955SOL    HW112764   6.064   3.402   0.451
 3955SOL    HW212765   6.098   3.512   0.336
 3956SOL     OW12766   6.450   3.354   5.316
 3956SOL    HW112767   6.398   3.281   5.361
 3956SOL    HW212768   6.434   3.440   5.364
 3957SOL     OW12769   0.656   2.027   2.066
 3957SOL    HW112770   0.734   2.012   2.005
 3957SOL    HW212771   0.674   2.107   2.123
 3958SOL     OW12772   5.398   0.122   0.553
 3958SOL    HW112773   5.414   0.220   0.566
 3958SOL    HW212774   5.485   0.073   0.563
 3959SOL     OW12775   2.501   5.463   1.548
 3959SOL    HW112776   2.595   5.494   1.559
 3959SOL    HW212777   2.445   5.536   1.509
 3960SOL     OW12778   5.104   3.442   1.118
 3960SOL    HW112779   5.026   3.389   1.151
 3960SOL    HW212780   5.178   3.437   1.185
 3961SOL     OW12781   6.291   0.237   1.614
 3961SOL    HW112782   6.283   0.175   1.691
 3961SOL    HW212783   6.205   0.239   1.563
 3962SOL     OW12784   0.621   6.413   5.941
 3962SOL    HW112785   0.627   6.484   6.011
 3962SOL    HW212786   0.672   6.332   5.971
 3963SOL     OW12787   4.851   4.470   3.640
 3963SOL    HW112788   4.793   4.398   3.602
 3963SOL    HW212789   4.947   4.446   3.626
 3964SOL     OW12790   5.564   6.051   0.026
 3964SOL    HW112791   5.527   5.992   0.099
 3964SOL    HW212792   5.535   6.145   0.042
 3965SOL     OW12793   3.277   3.715   0.746
 3965SOL    HW112794   3.355   3.662   0.714
 3965SOL    HW212795   3.206   3.716   0.675
 3966SOL     OW12796   6.219   4.381   5.414
 3966SOL    HW112797   6.247   4.475   5.432
 3966SOL    HW212798   6.141   4.380   5.352
 3967SOL     OW12799   1.709   6.717   7.003
 3967SOL    HW112800   1.649   6.694   0.057
 3967SOL    HW212801   1.656   6.765   6.932
 3968SOL     OW12802   5.197   2.136   1.056
 3968SOL    HW112803   5.297   2.130   1.052
 3968SOL    HW212804   5.164   2.081   1.133
 3969SOL     OW12805   0.203   5.613   1.046
 3969SOL    HW112806   0.290   5.614   1.095
 3969SOL    HW212807   0.158   5.524   1.060
 3970SOL     OW12808   5.055   4.222   4.109
 3970SOL    HW112809   4.995   4.298   4.082
 3970SOL    HW212810   5.131   4.215   4.044
 3971SOL     OW12811   0.029   6.101   3.980
 3971SOL    HW112812   0.025   6.200   3.999
 3971SOL    HW212813   0.001   6.051   4.062
 3972SOL     OW12814   0.668   0.338   6.733
 3972SOL    HW112815   0.701   0.292   6.650
 3972SOL    HW212816   0.676   0.277   6.811
 3973SOL     OW12817   3.380   2.898   3.502
 3973SOL    HW112818   3.420   2.909   3.411
 3973SOL    HW212819   3.350   2.803   3.514
 3974SOL     OW12820   5.617   1.226   6.791
 3974SOL    HW112821   5.603   1.158   6.862
 3974SOL    HW212822   5.679   1.189   6.721
 3975SOL     OW12823   0.143   5.987   5.244
 3975SOL    HW112824   0.214   5.993   5.314
 3975SOL    HW212825   0.159   6.057   5.175
 3976SOL     OW12826   0.700   2.769   6.928
 3976SOL    HW112827   0.732   2.831   6.999
 3976SOL    HW212828   0.620   2.719   6.962
 3977SOL     OW12829   3.201   5.923   4.769
 3977SOL    HW112830   3.294   5.902   4.800
 3977SOL    HW212831   3.200   5.926   4.669
 3978SOL     OW12832   6.442   4.073   6.782
 3978SOL    HW112833   6.397   4.097   6.867
 3978SOL    HW212834   6.479   3.980   6.789
 3979SOL     OW12835   1.308   6.775   3.034
 3979SOL    HW112836   1.269   6.692   3.074
 3979SOL    HW212837   1.240   6.848   3.038
 3980SOL     OW12838   4.862   3.729   4.164
 3980SOL    HW112839   4.913   3.644   4.181
 3980SOL    HW212840   4.822   3.725   4.072
 3981SOL     OW12841   6.839   1.556   5.982
 3981SOL    HW112842   6.783   1.494   6.036
 3981SOL    HW212843   6.923   1.509   5.954
 3982SOL     OW12844   2.225   2.911   4.091
 3982SOL    HW112845   2.295   2.841   4.078
 3982SOL    HW212846   2.208   2.958   4.004
 3983SOL     OW12847   2.932   6.935   4.043
 3983SOL    HW112848   2.879   6.851   4.034
 3983SOL    HW212849   2.975   6.957   3.955
 3984SOL     OW12850   1.761   6.602   1.721
 3984SOL    HW112851   1.812   6.609   1.806
 3984SOL    HW212852   1.663   6.607   1.740
 3985SOL     OW12853   2.195   3.087   1.761
 3985SOL    HW112854   2.182   3.186   1.765
 3985SOL    HW212855   2.108   3.043   1.737
 3986SOL     OW12856   1.309   2.012   1.984
 3986SOL    HW112857   1.377   1.950   1.944
 3986SOL    HW212858   1.355   2.082   2.038
 3987SOL     OW12859   1.444   3.888   5.501
 3987SOL    HW112860   1.452   3.828   5.581
 3987SOL    HW212861   1.525   3.945   5.493
 3988SOL     OW12862   4.947   0.667   0.236
 3988SOL    HW112863   4.877   0.604   0.269
 3988SOL    HW212864   4.983   0.635   0.148
 3989SOL     OW12865   4.237   1.121   5.736
 3989SOL    HW112866   4.239   1.060   5.816
 3989SOL    HW212867   4.296   1.200   5.754
 3990SOL     OW12868   0.542   2.281   3.476
 3990SOL    HW112869   0.566   2.356   3.537
 3990SOL    HW212870   0.614   2.269   3.408
 3991SOL     OW12871   0.859   1.647   3.749
 3991SOL    HW112872   0.959   1.636   3.742
 3991SOL    HW212873   0.822   1.577   3.808
 3992SOL     OW12874   6.117   3.669   7.006
 3992SOL    HW112875   6.098   3.707   6.916
 3992SOL    HW212876   6.039   3.685   0.044
 3993SOL     OW12877   1.822   0.649   4.112
 3993SOL    HW112878   1.750   0.587   4.078
 3993SOL    HW212879   1.908   0.626   4.067
 3994SOL     OW12880   2.538   2.133   2.947
 3994SOL    HW112881   2.630   2.104   2.971
 3994SOL    HW212882   2.534   2.233   2.948
 3995SOL     OW12883   1.357   3.258   2.240
 3995SOL    HW112884   1.411   3.290   2.163
 3995SOL    HW212885   1.268   3.303   2.240
 3996SOL     OW12886   5.711   6.350   4.431
 3996SOL    HW112887   5.668   6.404   4.503
 3996SOL    HW212888   5.771   6.282   4.472
 3997SOL     OW12889   4.886   3.592   2.726
 3997SOL    HW112890   4.835   3.669   2.687
 3997SOL    HW212891   4.892   3.518   2.658
 3998SOL     OW12892   4.965   2.064   3.137
 3998SOL    HW112893   4.893   2.028   3.196
 3998SOL    HW212894   5.054   2.032   3.170
 3999SOL     OW12895   4.103   3.422   1.308
 3999SOL    HW112896   4.125   3.431   1.405
 3999SOL    HW212897   4.050   3.339   1.294
 4000SOL     OW12898   2.864   5.210   2.544
 4000SOL    HW112899   2.910   5.294   2.514
 4000SOL    HW212900   2.868   5.142   2.471
 4001SOL     OW12901   0.264   5.556   4.371
 4001SOL    HW112902   0.338   5.601   4.322
 4001SOL    HW212903   0.218   5.622   4.431
 4002SOL     OW12904   3.817   3.994   3.881
 4002SOL    HW112905   3.847   4.047   3.960
 4002SOL    HW212906   3.752   4.047   3.828
 4003SOL     OW12907   1.760   0.687   5.093
 4003SOL    HW112908   1.767   0.758   5.023
 4003SOL    HW212909   1.718   0.605   5.054
 4004SOL     OW12910   1.053   3.197   4.041
 4004SOL    HW112911   0.976   3.142   4.008
 4004SOL    HW212912   1.104   3.145   4.109
 4005SOL     OW12913   4.764   3.356   0.097
 4005SOL    HW112914   4.804   3.390   0.182
 4005SOL    HW212915   4.667   3.337   0.112
 4006SOL     OW12916   6.905   5.583   2.146
 4006SOL    HW112917   6.867   5.654   2.086
 4006SOL    HW212918   6.976   5.624   2.204
 4007SOL     OW12919   0.142   0.529   2.260
 4007SOL    HW112920   0.142   0.592   2.339
 4007SOL    HW212921   0.048   0.516   2.229
 4008SOL     OW12922   2.978   1.145   0.956
 4008SOL    HW112923   2.918   1.171   0.881
 4008SOL    HW212924   2.978   1.045   0.966
 4009SOL     OW12925   4.866   2.497   0.862
 4009SOL    HW112926   4.958   2.461   0.848
 4009SOL    HW212927   4.840   2.555   0.784
 4010SOL     OW12928   2.115   5.516   1.265
 4010SOL    HW112929   2.031   5.570   1.264
 4010SOL    HW212930   2.100   5.431   1.315
 4011SOL     OW12931   5.379   6.247   5.552
 4011SOL    HW112932   5.282   6.227   5.565
 4011SOL    HW212933   5.424   6.258   5.641
 4012SOL     OW12934   4.927   6.397   2.618
 4012SOL    HW112935   4.944   6.485   2.661
 4012SOL    HW212936   4.860   6.407   2.545
 4013SOL     OW12937   0.218   1.071   6.063
 4013SOL    HW112938   0.218   1.168   6.086
 4013SOL    HW212939   0.124   1.042   6.044
 4014SOL     OW12940   3.152   5.034   2.312
 4014SOL    HW112941   3.059   5.057   2.285
 4014SOL    HW212942   3.202   4.999   2.233
 4015SOL     OW12943   4.424   5.363   6.117
 4015SOL    HW112944   4.448   5.383   6.022
 4015SOL    HW212945   4.445   5.267   6.137
 4016SOL     OW12946   5.107   5.260   4.855
 4016SOL    HW112947   5.122   5.186   4.790
 4016SOL    HW212948   5.077   5.342   4.807
 4017SOL     OW12949   1.266   4.704   6.063
 4017SOL    HW112950   1.231   4.731   5.973
 4017SOL    HW212951   1.356   4.662   6.053
 4018SOL     OW12952   4.066   6.036   1.301
 4018SOL    HW112953   4.139   6.004   1.240
 4018SOL    HW212954   4.084   6.130   1.328
 4019SOL     OW12955   5.674   4.327   2.060
 4019SOL    HW112956   5.578   4.354   2.050
 4019SOL    HW212957   5.718   4.386   2.128
 4020SOL     OW12958   6.896   5.100   4.502
 4020SOL    HW112959   6.936   5.158   4.431
 4020SOL    HW212960   6.913   5.141   4.592
 4021SOL     OW12961   4.747   4.110   5.964
 4021SOL    HW112962   4.741   4.116   5.864
 4021SOL    HW212963   4.689   4.181   6.004
 4022SOL     OW12964   2.628   0.100   1.572
 4022SOL    HW112965   2.628   0.155   1.489
 4022SOL    HW212966   2.709   0.041   1.573
 4023SOL     OW12967   0.456   1.613   4.020
 4023SOL    HW112968   0.360   1.606   3.996
 4023SOL    HW212969   0.477   1.551   4.095
 4024SOL     OW12970   0.801   6.643   4.634
 4024SOL    HW112971   0.797   6.543   4.638
 4024SOL    HW212972   0.847   6.678   4.717
 4025SOL     OW12973   0.088   5.495   3.128
 4025SOL    HW112974   0.004   5.547   3.141
 4025SOL    HW212975   0.067   5.405   3.091
 4026SOL     OW12976   0.436   0.092   3.759
 4026SOL    HW112977   0.476   0.010   3.798
 4026SOL    HW212978   0.451   0.092   3.660
 4027SOL     OW12979   3.122   4.488   5.597
 4027SOL    HW112980   3.199   4.538   5.638
 4027SOL    HW212981   3.123   4.500   5.498
 4028SOL     OW12982   4.880   0.995   3.587
 4028SOL    HW112983   4.927   1.033   3.667
 4028SOL    HW212984   4.918   1.035   3.504
 4029SOL     OW12985   1.874   6.297   0.147
 4029SOL    HW112986   1.784   6.258   0.165
 4029SOL    HW212987   1.921   6.313   0.234
 4030SOL     OW12988   0.617   1.627   2.808
 4030SOL    HW112989   0.710   1.592   2.821
 4030SOL    HW212990   0.606   1.713   2.858
 4031SOL     OW12991   5.984   6.124   0.241
 4031SOL    HW112992   5.935   6.096   0.158
 4031SOL    HW212993   6.067   6.173   0.215
 4032SOL     OW12994   4.801   0.577   2.456
 4032SOL    HW112995   4.818   0.672   2.480
 4032SOL    HW212996   4.821   0.518   2.534
 4033SOL     OW12997   1.980   2.357   2.567
 4033SOL    HW112998   2.019   2.269   2.593
 4033SOL    HW212999   2.013   2.383   2.476
 4034SOL     OW13000   0.441   3.163   5.531
 4034SOL    HW113001   0.537   3.185   5.517
 4034SOL    HW213002   0.418   3.078   5.483
 4035SOL     OW13003   4.653   2.184   1.608
 4035SOL    HW113004   4.592   2.168   1.686
 4035SOL    HW213005   4.640   2.277   1.574
 4036SOL     OW13006   3.192   5.556   3.253
 4036SOL    HW113007   3.176   5.654   3.239
 4036SOL    HW213008   3.166   5.531   3.346
 4037SOL     OW13009   2.617   1.888   5.854
 4037SOL    HW113010   2.571   1.809   5.815
 4037SOL    HW213011   2.713   1.889   5.825
 4038SOL     OW13012   3.565   4.615   6.005
 4038SOL    HW113013   3.550   4.558   5.924
 4038SOL    HW213014   3.611   4.700   5.978
 4039SOL     OW13015   5.658   4.927   1.195
 4039SOL    HW113016   5.667   4.967   1.287
 4039SOL    HW213017   5.731   4.860   1.180
 4040SOL     OW13018   2.906   6.623   4.994
 4040SOL    HW113019   2.986   6.637   4.935
 4040SOL    HW213020   2.889   6.525   5.003
 4041SOL     OW13021   2.118   6.767   1.224
 4041SOL    HW113022   2.202   6.804   1.263
 4041SOL    HW213023   2.131   6.746   1.127
 4042SOL     OW13024   6.564   1.314   2.915
 4042SOL    HW113025   6.569   1.326   3.014
 4042SOL    HW213026   6.654   1.287   2.880
 4043SOL     OW13027   5.725   3.603   6.392
 4043SOL    HW113028   5.665   3.682   6.407
 4043SOL    HW213029   5.718   3.540   6.470
 4044SOL     OW13030   4.923   4.609   3.261
 4044SOL    HW113031   4.851   4.539   3.271
 4044SOL    HW213032   4.885   4.689   3.216
 4045SOL     OW13033   5.071   1.114   5.206
 4045SOL    HW113034   5.095   1.211   5.213
 4045SOL    HW213035   5.145   1.065   5.160
 4046SOL     OW13036   5.897   1.846   3.016
 4046SOL    HW113037   5.815   1.882   2.971
 4046SOL    HW213038   5.940   1.777   2.957
 4047SOL     OW13039   2.705   3.036   6.784
 4047SOL    HW113040   2.678   3.131   6.800
 4047SOL    HW213041   2.625   2.983   6.756
 4048SOL     OW13042   4.421   2.216   2.108
 4048SOL    HW113043   4.506   2.263   2.081
 4048SOL    HW213044   4.382   2.263   2.187
 4049SOL     OW13045   4.004   4.485   0.293
 4049SOL    HW113046   3.947   4.544   0.235
 4049SOL    HW213047   3.957   4.469   0.380
 4050SOL     OW13048   1.068   5.374   2.297
 4050SOL    HW113049   1.112   5.309   2.359
 4050SOL    HW213050   1.114   5.371   2.208
 4051SOL     OW13051   5.802   1.141   4.799
 4051SOL    HW113052   5.786   1.194   4.882
 4051SOL    HW213053   5.756   1.052   4.806
 4052SOL     OW13054   6.026   1.916   3.228
 4052SOL    HW113055   6.110   1.961   3.198
 4052SOL    HW213056   5.970   1.893   3.149
 4053SOL     OW13057   1.442   5.119   4.385
 4053SOL    HW113058   1.477   5.080   4.470
 4053SOL    HW213059   1.394   5.048   4.333
 4054SOL     OW13060   3.871   4.201   1.233
 4054SOL    HW113061   3.853   4.170   1.140
 4054SOL    HW213062   3.891   4.122   1.291
 4055SOL     OW13063   1.095   4.507   0.512
 4055SOL    HW113064   1.036   4.587   0.508
 4055SOL    HW213065   1.191   4.535   0.501
 4056SOL     OW13066   5.129   3.576   0.553
 4056SOL    HW113067   5.193   3.601   0.480
 4056SOL    HW213068   5.177   3.525   0.625
 4057SOL     OW13069   0.567   3.901   0.203
 4057SOL    HW113070   0.498   3.832   0.222
 4057SOL    HW213071   0.627   3.869   0.129
 4058SOL     OW13072   2.512   0.518   5.526
 4058SOL    HW113073   2.545   0.533   5.433
 4058SOL    HW213074   2.428   0.570   5.541
 4059SOL     OW13075   0.194   1.873   3.642
 4059SOL    HW113076   0.291   1.894   3.629
 4059SOL    HW213077   0.170   1.888   3.738
 4060SOL     OW13078   6.278   6.308   5.076
 4060SOL    HW113079   6.180   6.330   5.077
 4060SOL    HW213080   6.305   6.273   5.166
 4061SOL     OW13081   1.540   5.368   0.730
 4061SOL    HW113082   1.586   5.391   0.815
 4061SOL    HW213083   1.486   5.446   0.699
 4062SOL     OW13084   1.549   2.771   1.234
 4062SOL    HW113085   1.567   2.741   1.140
 4062SOL    HW213086   1.597   2.710   1.298
 4063SOL     OW13087   4.272   0.504   0.101
 4063SOL    HW113088   4.184   0.465   0.076
 4063SOL    HW213089   4.264   0.603   0.106
 4064SOL     OW13090   2.102   1.737   5.513
 4064SOL    HW113091   2.029   1.738   5.582
 4064SOL    HW213092   2.061   1.745   5.422
 4065SOL     OW13093   2.787   6.315   0.771
 4065SOL    HW113094   2.825   6.379   0.839
 4065SOL    HW213095   2.710   6.266   0.812
 4066SOL     OW13096   0.696   3.826   3.463
 4066SOL    HW113097   0.609   3.848   3.418
 4066SOL    HW213098   0.759   3.789   3.395
 4067SOL     OW13099   5.013   5.197   0.356
 4067SOL    HW113100   5.050   5.177   0.446
 4067SOL    HW213101   4.919   5.229   0.364
 4068SOL     OW13102   2.390   2.703   4.944
 4068SOL    HW113103   2.389   2.662   5.036
 4068SOL    HW213104   2.378   2.802   4.952
 4069SOL     OW13105   4.570   6.826   6.173
 4069SOL    HW113106   4.606   6.912   6.138
 4069SOL    HW213107   4.518   6.843   6.257
 4070SOL     OW13108   1.233   3.115   3.219
 4070SOL    HW113109   1.268   3.070   3.137
 4070SOL    HW213110   1.153   3.064   3.253
 4071SOL     OW13111   1.585   0.583   3.682
 4071SOL    HW113112   1.518   0.626   3.741
 4071SOL    HW213113   1.598   0.639   3.600
 4072SOL     OW13114   2.145   5.753   2.958
 4072SOL    HW113115   2.134   5.829   3.023
 4072SOL    HW213116   2.227   5.701   2.982
 4073SOL     OW13117   3.390   4.711   0.023
 4073SOL    HW113118   3.438   4.665   0.097
 4073SOL    HW213119   3.315   4.766   0.061
 4074SOL     OW13120   1.807   5.392   3.012
 4074SOL    HW113121   1.811   5.300   2.973
 4074SOL    HW213122   1.723   5.402   3.065
 4075SOL     OW13123   6.798   1.246   1.115
 4075SOL    HW113124   6.802   1.199   1.203
 4075SOL    HW213125   6.890   1.252   1.076
 4076SOL     OW13126   2.383   4.174   5.338
 4076SOL    HW113127   2.412   4.111   5.266
 4076SOL    HW213128   2.408   4.138   5.427
 4077SOL     OW13129   2.718   0.631   2.022
 4077SOL    HW113130   2.693   0.539   2.051
 4077SOL    HW213131   2.816   0.634   2.003
 4078SOL     OW13132   3.185   4.987   2.748
 4078SOL    HW113133   3.174   4.917   2.678
 4078SOL    HW213134   3.095   5.024   2.771
 4079SOL     OW13135   1.041   2.362   4.393
 4079SOL    HW113136   1.106   2.316   4.332
 4079SOL    HW213137   0.987   2.428   4.342
 4080SOL     OW13138   6.373   1.903   5.092
 4080SOL    HW113139   6.289   1.920   5.040
 4080SOL    HW213140   6.432   1.841   5.040
 4081SOL     OW13141   1.627   3.652   3.944
 4081SOL    HW113142   1.569   3.573   3.966
 4081SOL    HW213143   1.572   3.735   3.946
 4082SOL     OW13144   1.161   3.205   1.071
 4082SOL    HW113145   1.138   3.118   1.114
 4082SOL    HW213146   1.078   3.261   1.062
 4083SOL     OW13147   5.700   2.640   4.564
 4083SOL    HW113148   5.631   2.577   4.599
 4083SOL    HW213149   5.670   2.734   4.578
 4084SOL     OW13150   0.739   1.705   4.141
 4084SOL    HW113151   0.714   1.641   4.069
 4084SOL    HW213152   0.671   1.701   4.215
 4085SOL     OW13153   3.134   6.038   0.721
 4085SOL    HW113154   3.075   6.112   0.754
 4085SOL    HW213155   3.229   6.057   0.746
 4086SOL     OW13156   1.368   5.198   0.606
 4086SOL    HW113157   1.296   5.145   0.651
 4086SOL    HW213158   1.411   5.259   0.673
 4087SOL     OW13159   1.621   1.640   2.683
 4087SOL    HW113160   1.533   1.633   2.730
 4087SOL    HW213161   1.653   1.734   2.686
 4088SOL     OW13162   6.510   1.901   1.227
 4088SOL    HW113163   6.570   1.932   1.300
 4088SOL    HW213164   6.415   1.923   1.251
 4089SOL     OW13165   1.002   0.908   4.984
 4089SOL    HW113166   0.955   0.944   5.065
 4089SOL    HW213167   1.024   0.812   4.999
 4090SOL     OW13168   1.991   4.256   5.641
 4090SOL    HW113169   1.999   4.254   5.741
 4090SOL    HW213170   1.942   4.176   5.609
 4091SOL     OW13171   4.831   6.267   0.444
 4091SOL    HW113172   4.885   6.197   0.398
 4091SOL    HW213173   4.751   6.289   0.388
 4092SOL     OW13174   0.118   2.838   4.685
 4092SOL    HW113175   0.051   2.880   4.746
 4092SOL    HW213176   0.078   2.756   4.643
 4093SOL     OW13177   5.922   0.868   4.015
 4093SOL    HW113178   5.825   0.849   4.029
 4093SOL    HW213179   5.966   0.789   3.972
 4094SOL     OW13180   2.269   4.392   5.082
 4094SOL    HW113181   2.362   4.392   5.120
 4094SOL    HW213182   2.221   4.309   5.111
 4095SOL     OW13183   1.589   3.529   6.753
 4095SOL    HW113184   1.581   3.596   6.827
 4095SOL    HW213185   1.684   3.523   6.723
 4096SOL     OW13186   4.225   4.706   1.357
 4096SOL    HW113187   4.204   4.786   1.302
 4096SOL    HW213188   4.322   4.707   1.383
 4097SOL     OW13189   3.432   3.853   5.090
 4097SOL    HW113190   3.496   3.776   5.080
 4097SOL    HW213191   3.365   3.831   5.161
 4098SOL     OW13192   0.122   2.016   3.008
 4098SOL    HW113193   0.117   1.989   3.105
 4098SOL    HW213194   0.033   2.002   2.965
 4099SOL     OW13195   4.080   6.022   1.953
 4099SOL    HW113196   4.055   5.964   2.032
 4099SOL    HW213197   4.131   5.967   1.887
 4100SOL     OW13198   4.003   5.508   3.452
 4100SOL    HW113199   3.956   5.595   3.437
 4100SOL    HW213200   4.017   5.494   3.550
 4101SOL     OW13201   5.365   1.432   6.119
 4101SOL    HW113202   5.299   1.357   6.121
 4101SOL    HW213203   5.321   1.516   6.153
 4102SOL     OW13204   6.101   1.225   0.543
 4102SOL    HW113205   6.063   1.203   0.453
 4102SOL    HW213206   6.167   1.155   0.569
 4103SOL     OW13207   0.647   0.158   2.238
 4103SOL    HW113208   0.596   0.227   2.291
 4103SOL    HW213209   0.644   0.071   2.286
 4104SOL     OW13210   1.690   4.914   2.947
 4104SOL    HW113211   1.647   5.003   2.960
 4104SOL    HW213212   1.777   4.913   2.996
 4105SOL     OW13213   4.752   4.704   7.007
 4105SOL    HW113214   4.761   4.781   6.945
 4105SOL    HW213215   4.731   4.621   6.955
 4106SOL     OW13216   6.724   3.729   4.948
 4106SOL    HW113217   6.706   3.797   4.877
 4106SOL    HW213218   6.822   3.708   4.950
 4107SOL     OW13219   0.204   0.375   1.077
 4107SOL    HW113220   0.270   0.357   1.004
 4107SOL    HW213221   0.243   0.440   1.142
 4108SOL     OW13222   6.390   3.930   5.841
 4108SOL    HW113223   6.350   3.867   5.908
 4108SOL    HW213224   6.336   3.929   5.758
 4109SOL     OW13225   3.389   5.831   3.794
 4109SOL    HW113226   3.387   5.732   3.777
 4109SOL    HW213227   3.371   5.880   3.709
 4110SOL     OW13228   4.940   3.512   6.227
 4110SOL    HW113229   4.907   3.587   6.169
 4110SOL    HW213230   4.873   3.438   6.227
 4111SOL     OW13231   4.297   3.136   6.714
 4111SOL    HW113232   4.359   3.210   6.740
 4111SOL    HW213233   4.350   3.053   6.695
 4112SOL     OW13234   3.427   1.468   4.255
 4112SOL    HW113235   3.402   1.407   4.180
 4112SOL    HW213236   3.450   1.559   4.218
 4113SOL     OW13237   3.271   4.984   4.797
 4113SOL    HW113238   3.326   5.028   4.727
 4113SOL    HW213239   3.180   4.964   4.761
 4114SOL     OW13240   2.797   1.870   2.416
 4114SOL    HW113241   2.810   1.944   2.481
 4114SOL    HW213242   2.699   1.859   2.397
 4115SOL     OW13243   5.027   4.765   1.803
 4115SOL    HW113244   4.953   4.785   1.868
 4115SOL    HW213245   5.115   4.773   1.849
 4116SOL     OW13246   3.157   1.255   2.111
 4116SOL    HW113247   3.240   1.203   2.090
 4116SOL    HW213248   3.081   1.220   2.057
 4117SOL     OW13249   1.420   5.879   1.059
 4117SOL    HW113250   1.320   5.882   1.049
 4117SOL    HW213251   1.444   5.883   1.156
 4118SOL     OW13252   1.950   6.519   0.484
 4118SOL    HW113253   1.996   6.439   0.447
 4118SOL    HW213254   2.017   6.577   0.531
 4119SOL     OW13255   3.897   0.763   3.597
 4119SOL    HW113256   3.823   0.815   3.640
 4119SOL    HW213257   3.985   0.798   3.629
 4120SOL     OW13258   3.832   0.476   1.958
 4120SOL    HW113259   3.737   0.488   1.929
 4120SOL    HW213260   3.863   0.385   1.933
 4121SOL     OW13261   6.538   3.083   5.020
 4121SOL    HW113262   6.523   3.151   4.948
 4121SOL    HW213263   6.543   2.992   4.979
 4122SOL     OW13264   1.389   5.877   6.045
 4122SOL    HW113265   1.379   5.841   6.138
 4122SOL    HW213266   1.376   5.976   6.046
 4123SOL     OW13267   5.299   3.980   6.357
 4123SOL    HW113268   5.217   3.952   6.407
 4123SOL    HW213269   5.352   4.043   6.414
 4124SOL     OW13270   5.550   0.138   4.144
 4124SOL    HW113271   5.642   0.127   4.108
 4124SOL    HW213272   5.545   0.102   4.237
 4125SOL     OW13273   4.776   1.141   0.979
 4125SOL    HW113274   4.706   1.070   0.986
 4125SOL    HW213275   4.763   1.207   1.053
 4126SOL     OW13276   2.188   4.445   4.343
 4126SOL    HW113277   2.255   4.419   4.413
 4126SOL    HW213278   2.190   4.378   4.269
 4127SOL     OW13279   6.206   3.561   5.825
 4127SOL    HW113280   6.132   3.582   5.762
 4127SOL    HW213281   6.210   3.462   5.841
 4128SOL     OW13282   0.823   2.461   2.796
 4128SOL    HW113283   0.923   2.462   2.791
 4128SOL    HW213284   0.786   2.531   2.734
 4129SOL     OW13285   5.503   2.475   5.936
 4129SOL    HW113286   5.441   2.454   5.861
 4129SOL    HW213287   5.502   2.399   6.002
 4130SOL     OW13288   5.926   3.956   0.769
 4130SOL    HW113289   5.966   3.993   0.852
 4130SOL    HW213290   5.978   3.988   0.690
 4131SOL     OW13291   6.534   5.027   3.670
 4131SOL    HW113292   6.627   5.055   3.646
 4131SOL    HW213293   6.473   5.042   3.593
 4132SOL     OW13294   5.171   2.500   3.590
 4132SOL    HW113295   5.117   2.498   3.506
 4132SOL    HW213296   5.115   2.536   3.665
 4133SOL     OW13297   3.215   1.098   1.171
 4133SOL    HW113298   3.149   1.069   1.101
 4133SOL    HW213299   3.195   1.051   1.257
 4134SOL     OW13300   1.237   1.354   6.831
 4134SOL    HW113301   1.189   1.441   6.818
 4134SOL    HW213302   1.172   1.284   6.859
 4135SOL     OW13303   1.543   0.984   1.807
 4135SOL    HW113304   1.642   0.999   1.804
 4135SOL    HW213305   1.517   0.956   1.899
 4136SOL     OW13306   0.263   2.321   3.527
 4136SOL    HW113307   0.274   2.244   3.464
 4136SOL    HW213308   0.348   2.373   3.530
 4137SOL     OW13309   3.134   4.683   6.268
 4137SOL    HW113310   3.173   4.658   6.357
 4137SOL    HW213311   3.196   4.654   6.195
 4138SOL     OW13312   4.344   4.978   3.245
 4138SOL    HW113313   4.425   4.927   3.216
 4138SOL    HW213314   4.339   5.064   3.194
 4139SOL     OW13315   1.991   1.704   0.099
 4139SOL    HW113316   1.927   1.628   0.084
 4139SOL    HW213317   2.077   1.685   0.051
 4140SOL     OW13318   5.074   1.389   5.174
 4140SOL    HW113319   5.042   1.446   5.249
 4140SOL    HW213320   4.999   1.374   5.109
 4141SOL     OW13321   5.224   5.758   0.526
 4141SOL    HW113322   5.316   5.727   0.547
 4141SOL    HW213323   5.165   5.679   0.507
 4142SOL     OW13324   6.381   4.051   1.371
 4142SOL    HW113325   6.419   4.054   1.463
 4142SOL    HW213326   6.344   3.959   1.354
 4143SOL     OW13327   7.005   2.819   0.863
 4143SOL    HW113328   6.997   2.720   0.852
 4143SOL    HW213329   6.992   2.863   0.774
 4144SOL     OW13330   4.855   0.862   2.589
 4144SOL    HW113331   4.881   0.958   2.587
 4144SOL    HW213332   4.768   0.851   2.638
 4145SOL     OW13333   1.797   6.718   2.318
 4145SOL    HW113334   1.703   6.684   2.313
 4145SOL    HW213335   1.805   6.800   2.261
 4146SOL     OW13336   5.194   6.747   0.318
 4146SOL    HW113337   5.099   6.725   0.296
 4146SOL    HW213338   5.216   6.838   0.283
 4147SOL     OW13339   3.679   1.860   5.407
 4147SOL    HW113340   3.584   1.886   5.422
 4147SOL    HW213341   3.726   1.853   5.495
 4148SOL     OW13342   6.429   0.681   3.472
 4148SOL    HW113343   6.510   0.704   3.526
 4148SOL    HW213344   6.420   0.746   3.397
 4149SOL     OW13345   5.696   3.874   2.071
 4149SOL    HW113346   5.638   3.816   2.014
 4149SOL    HW213347   5.731   3.950   2.017
 4150SOL     OW13348   5.321   0.575   6.509
 4150SOL    HW113349   5.390   0.533   6.569
 4150SOL    HW213350   5.247   0.612   6.565
 4151SOL     OW13351   0.862   4.943   0.610
 4151SOL    HW113352   0.834   5.038   0.601
 4151SOL    HW213353   0.781   4.883   0.604
 4152SOL     OW13354   3.840   4.443   1.430
 4152SOL    HW113355   3.790   4.446   1.516
 4152SOL    HW213356   3.865   4.349   1.409
 4153SOL     OW13357   6.533   4.705   6.020
 4153SOL    HW113358   6.584   4.753   6.092
 4153SOL    HW213359   6.474   4.770   5.972
 4154SOL     OW13360   5.498   2.794   5.981
 4154SOL    HW113361   5.489   2.696   5.969
 4154SOL    HW213362   5.470   2.841   5.897
 4155SOL     OW13363   1.076   3.247   1.738
 4155SOL    HW113364   1.018   3.326   1.759
 4155SOL    HW213365   1.155   3.277   1.685
 4156SOL     OW13366   5.906   6.736   5.508
 4156SOL    HW113367   5.971   6.807   5.478
 4156SOL    HW213368   5.828   6.778   5.553
 4157SOL     OW13369   3.642   0.881   5.210
 4157SOL    HW113370   3.565   0.931   5.249
 4157SOL    HW213371   3.723   0.940   5.209
 4158SOL     OW13372   0.980   6.402   3.776
 4158SOL    HW113373   1.010   6.419   3.870
 4158SOL    HW213374   0.902   6.461   3.755
 4159SOL     OW13375   1.306   2.671   5.128
 4159SOL    HW113376   1.394   2.715   5.145
 4159SOL    HW213377   1.268   2.706   5.042
 4160SOL     OW13378   0.935   0.991   1.286
 4160SOL    HW113379   0.902   0.926   1.219
 4160SOL    HW213380   0.946   0.946   1.375
 4161SOL     OW13381   6.437   1.744   0.572
 4161SOL    HW113382   6.527   1.706   0.595
 4161SOL    HW213383   6.445   1.797   0.487
 4162SOL     OW13384   6.030   6.922   5.374
 4162SOL    HW113385   5.977   6.954   5.295
 4162SOL    HW213386   6.127   6.943   5.359
 4163SOL     OW13387   5.492   1.226   4.215
 4163SOL    HW113388   5.432   1.146   4.205
 4163SOL    HW213389   5.458   1.284   4.289
 4164SOL     OW13390   1.790   0.491   6.338
 4164SOL    HW113391   1.830   0.453   6.255
 4164SOL    HW213392   1.741   0.575   6.316
 4165SOL     OW13393   4.163   6.628   2.413
 4165SOL    HW113394   4.084   6.654   2.358
 4165SOL    HW213395   4.227   6.704   2.418
 4166SOL     OW13396   5.783   2.718   0.714
 4166SOL    HW113397   5.739   2.801   0.679
 4166SOL    HW213398   5.767   2.642   0.650
 4167SOL     OW13399   2.333   2.969   1.559
 4167SOL    HW113400   2.347   3.025   1.477
 4167SOL    HW213401   2.293   3.025   1.631
 4168SOL     OW13402   1.638   5.604   1.384
 4168SOL    HW113403   1.727   5.573   1.352
 4168SOL    HW213404   1.642   5.622   1.483
 4169SOL     OW13405   5.963   3.570   4.515
 4169SOL    HW113406   5.883   3.626   4.539
 4169SOL    HW213407   6.045   3.626   4.519
 4170SOL     OW13408   4.422   2.756   5.291
 4170SOL    HW113409   4.345   2.784   5.234
 4170SOL    HW213410   4.423   2.656   5.299
 4171SOL     OW13411   5.546   3.534   1.663
 4171SOL    HW113412   5.461   3.586   1.655
 4171SOL    HW213413   5.582   3.513   1.572
 4172SOL     OW13414   1.513   1.901   0.252
 4172SOL    HW113415   1.531   1.817   0.200
 4172SOL    HW213416   1.524   1.980   0.191
 4173SOL     OW13417   5.374   3.628   4.858
 4173SOL    HW113418   5.333   3.548   4.814
 4173SOL    HW213419   5.331   3.643   4.947
 4174SOL     OW13420   4.565   1.136   4.491
 4174SOL    HW113421   4.496   1.066   4.508
 4174SOL    HW213422   4.535   1.195   4.416
 4175SOL     OW13423   2.805   0.500   2.626
 4175SOL    HW113424   2.902   0.476   2.632
 4175SOL    HW213425   2.784   0.570   2.694
 4176SOL     OW13426   5.829   6.532   3.037
 4176SOL    HW113427   5.736   6.505   3.062
 4176SOL    HW213428   5.891   6.454   3.047
 4177SOL     OW13429   0.126   6.161   2.922
 4177SOL    HW113430   0.177   6.089   2.875
 4177SOL    HW213431   0.030   6.135   2.930
 4178SOL     OW13432   3.843   2.166   5.551
 4178SOL    HW113433   3.906   2.118   5.491
 4178SOL    HW213434   3.883   2.174   5.642
 4179SOL     OW13435   5.243   3.166   5.855
 4179SOL    HW113436   5.258   3.155   5.756
 4179SOL    HW213437   5.181   3.243   5.871
 4180SOL     OW13438   4.350   3.801   1.666
 4180SOL    HW113439   4.331   3.891   1.704
 4180SOL    HW213440   4.448   3.782   1.669
 4181SOL     OW13441   0.538   0.715   0.021
 4181SOL    HW113442   0.538   0.656   0.102
 4181SOL    HW213443   0.592   0.797   0.039
 4182SOL     OW13444   5.374   0.763   3.035
 4182SOL    HW113445   5.369   0.863   3.033
 4182SOL    HW213446   5.444   0.732   2.971
 4183SOL     OW13447   1.474   1.878   1.608
 4183SOL    HW113448   1.480   1.815   1.685
 4183SOL    HW213449   1.438   1.966   1.639
 4184SOL     OW13450   4.082   5.613   0.250
 4184SOL    HW113451   4.126   5.685   0.197
 4184SOL    HW213452   3.983   5.622   0.243
 4185SOL     OW13453   0.166   0.434   3.979
 4185SOL    HW113454   0.242   0.392   3.930
 4185SOL    HW213455   0.096   0.462   3.913
 4186SOL     OW13456   2.690   3.976   0.667
 4186SOL    HW113457   2.745   3.925   0.733
 4186SOL    HW213458   2.610   4.014   0.712
 4187SOL     OW13459   4.045   3.955   6.755
 4187SOL    HW113460   3.949   3.980   6.768
 4187SOL    HW213461   4.103   4.021   6.803
 4188SOL     OW13462   4.826   6.710   4.619
 4188SOL    HW113463   4.918   6.745   4.605
 4188SOL    HW213464   4.785   6.689   4.530
 4189SOL     OW13465   2.181   2.459   3.787
 4189SOL    HW113466   2.135   2.385   3.738
 4189SOL    HW213467   2.275   2.431   3.809
 4190SOL     OW13468   3.267   0.421   1.207
 4190SOL    HW113469   3.329   0.349   1.238
 4190SOL    HW213470   3.172   0.394   1.224
 4191SOL     OW13471   6.401   1.400   2.289
 4191SOL    HW113472   6.431   1.482   2.338
 4191SOL    HW213473   6.450   1.321   2.325
 4192SOL     OW13474   6.250   1.732   3.097
 4192SOL    HW113475   6.319   1.797   3.128
 4192SOL    HW213476   6.260   1.646   3.148
 4193SOL     OW13477   1.593   7.017   2.161
 4193SOL    HW113478   1.592   6.991   2.258
 4193SOL    HW213479   1.653   0.074   2.149
 4194SOL     OW13480   0.435   0.840   4.336
 4194SOL    HW113481   0.447   0.815   4.240
 4194SOL    HW213482   0.518   0.819   4.386
 4195SOL     OW13483   4.675   0.840   1.681
 4195SOL    HW113484   4.689   0.860   1.778
 4195SOL    HW213485   4.622   0.914   1.639
 4196SOL     OW13486   4.683   2.690   3.692
 4196SOL    HW113487   4.603   2.643   3.729
 4196SOL    HW213488   4.674   2.699   3.593
 4197SOL     OW13489   4.490   4.501   3.918
 4197SOL    HW113490   4.513   4.421   3.974
 4197SOL    HW213491   4.415   4.551   3.960
 4198SOL     OW13492   5.892   3.528   5.744
 4198SOL    HW113493   5.832   3.583   5.801
 4198SOL    HW213494   5.852   3.437   5.732
 4199SOL     OW13495   2.966   3.970   5.827
 4199SOL    HW113496   2.979   3.925   5.738
 4199SOL    HW213497   3.054   3.996   5.865
 4200SOL     OW13498   2.233   0.084   6.528
 4200SOL    HW113499   2.224   0.002   6.584
 4200SOL    HW213500   2.229   0.165   6.585
 4201SOL     OW13501   5.702   6.038   4.078
 4201SOL    HW113502   5.647   6.114   4.113
 4201SOL    HW213503   5.775   6.075   4.020
 4202SOL     OW13504   5.403   4.516   4.471
 4202SOL    HW113505   5.468   4.452   4.513
 4202SOL    HW213506   5.391   4.491   4.374
 4203SOL     OW13507   5.477   6.003   3.425
 4203SOL    HW113508   5.406   5.987   3.356
 4203SOL    HW213509   5.471   5.932   3.496
 4204SOL     OW13510   3.342   3.296   1.209
 4204SOL    HW113511   3.346   3.367   1.140
 4204SOL    HW213512   3.246   3.275   1.230
 4205SOL     OW13513   2.772   5.292   2.933
 4205SOL    HW113514   2.779   5.375   2.878
 4205SOL    HW213515   2.710   5.308   3.010
 4206SOL     OW13516   5.679   6.934   4.325
 4206SOL    HW113517   5.648   6.919   4.419
 4206SOL    HW213518   5.750   7.004   4.324
 4207SOL     OW13519   1.179   1.024   1.560
 4207SOL    HW113520   1.247   1.042   1.490
 4207SOL    HW213521   1.167   1.105   1.617
 4208SOL     OW13522   0.577   3.516   1.164
 4208SOL    HW113523   0.549   3.458   1.088
 4208SOL    HW213524   0.599   3.607   1.130
 4209SOL     OW13525   3.262   0.435   4.896
 4209SOL    HW113526   3.226   0.492   4.823
 4209SOL    HW213527   3.187   0.390   4.944
 4210SOL     OW13528   4.759   2.694   0.695
 4210SOL    HW113529   4.737   2.752   0.774
 4210SOL    HW213530   4.674   2.668   0.648
 4211SOL     OW13531   4.706   4.141   3.312
 4211SOL    HW113532   4.716   4.076   3.237
 4211SOL    HW213533   4.715   4.235   3.277
 4212SOL     OW13534   6.327   6.886   2.615
 4212SOL    HW113535   6.235   6.873   2.650
 4212SOL    HW213536   6.374   6.798   2.609
 4213SOL     OW13537   1.310   0.585   2.363
 4213SOL    HW113538   1.337   0.519   2.293
 4213SOL    HW213539   1.215   0.613   2.347
 4214SOL     OW13540   1.595   3.175   4.447
 4214SOL    HW113541   1.657   3.110   4.492
 4214SOL    HW213542   1.501   3.154   4.472
 4215SOL     OW13543   0.706   5.253   4.724
 4215SOL    HW113544   0.742   5.327   4.781
 4215SOL    HW213545   0.770   5.236   4.648
 4216SOL     OW13546   1.570   3.358   5.520
 4216SOL    HW113547   1.575   3.334   5.423
 4216SOL    HW213548   1.610   3.285   5.575
 4217SOL     OW13549   0.186   0.378   3.510
 4217SOL    HW113550   0.278   0.416   3.509
 4217SOL    HW213551   0.120   0.449   3.532
 4218SOL     OW13552   3.979   6.816   2.562
 4218SOL    HW113553   4.048   6.804   2.633
 4218SOL    HW213554   3.891   6.781   2.594
 4219SOL     OW13555   4.515   6.428   3.493
 4219SOL    HW113556   4.557   6.412   3.582
 4219SOL    HW213557   4.490   6.341   3.451
 4220SOL     OW13558   0.422   3.479   3.067
 4220SOL    HW113559   0.444   3.493   3.163
 4220SOL    HW213560   0.394   3.384   3.053
 4221SOL     OW13561   5.098   5.920   5.918
 4221SOL    HW113562   5.119   5.869   6.002
 4221SOL    HW213563   5.119   5.862   5.839
 4222SOL     OW13564   4.277   2.766   0.345
 4222SOL    HW113565   4.366   2.807   0.325
 4222SOL    HW213566   4.282   2.717   0.432
 4223SOL     OW13567   3.757   4.116   2.857
 4223SOL    HW113568   3.670   4.158   2.880
 4223SOL    HW213569   3.770   4.033   2.912
 4224SOL     OW13570   4.339   2.234   5.034
 4224SOL    HW113571   4.389   2.230   4.947
 4224SOL    HW213572   4.307   2.327   5.050
 4225SOL     OW13573   5.480   0.647   4.588
 4225SOL    HW113574   5.476   0.735   4.541
 4225SOL    HW213575   5.559   0.595   4.556
 4226SOL     OW13576   1.546   1.310   3.560
 4226SOL    HW113577   1.513   1.405   3.555
 4226SOL    HW213578   1.493   1.259   3.627
 4227SOL     OW13579   6.203   4.317   0.540
 4227SOL    HW113580   6.271   4.252   0.507
 4227SOL    HW213581   6.197   4.312   0.640
 4228SOL     OW13582   6.162   5.471   2.181
 4228SOL    HW113583   6.089   5.534   2.207
 4228SOL    HW213584   6.238   5.523   2.142
 4229SOL     OW13585   4.785   4.907   5.700
 4229SOL    HW113586   4.715   4.943   5.762
 4229SOL    HW213587   4.767   4.809   5.684
 4230SOL     OW13588   3.231   0.069   4.382
 4230SOL    HW113589   3.167   0.086   4.307
 4230SOL    HW213590   3.298   0.001   4.355
 4231SOL     OW13591   3.927   6.676   5.352
 4231SOL    HW113592   3.859   6.625   5.299
 4231SOL    HW213593   3.925   6.772   5.324
 4232SOL     OW13594   2.155   4.044   1.887
 4232SOL    HW113595   2.162   3.951   1.924
 4232SOL    HW213596   2.232   4.062   1.827
 4233SOL     OW13597   5.981   6.814   1.011
 4233SOL    HW113598   5.934   6.789   0.927
 4233SOL    HW213599   5.940   6.764   1.088
 4234SOL     OW13600   3.005   3.836   5.549
 4234SOL    HW113601   3.060   3.880   5.479
 4234SOL    HW213602   3.051   3.753   5.581
 4235SOL     OW13603   6.613   3.733   5.481
 4235SOL    HW113604   6.607   3.742   5.382
 4235SOL    HW213605   6.652   3.644   5.504
 4236SOL     OW13606   1.435   3.875   4.901
 4236SOL    HW113607   1.491   3.905   4.824
 4236SOL    HW213608   1.479   3.798   4.946
 4237SOL     OW13609   5.387   3.890   4.788
 4237SOL    HW113610   5.393   3.792   4.808
 4237SOL    HW213611   5.293   3.914   4.764
 4238SOL     OW13612   4.264   5.075   3.985
 4238SOL    HW113613   4.229   5.104   3.896
 4238SOL    HW213614   4.328   4.999   3.973
 4239SOL     OW13615   5.013   5.770   5.688
 4239SOL    HW113616   4.972   5.695   5.740
 4239SOL    HW213617   4.953   5.794   5.611
 4240SOL     OW13618   2.758   4.830   6.550
 4240SOL    HW113619   2.701   4.912   6.547
 4240SOL    HW213620   2.828   4.835   6.478
 4241SOL     OW13621   3.485   0.813   6.998
 4241SOL    HW113622   3.569   0.795   0.027
 4241SOL    HW213623   3.482   0.753   6.918
 4242SOL     OW13624   1.469   0.232   2.458
 4242SOL    HW113625   1.430   0.296   2.391
 4242SOL    HW213626   1.567   0.221   2.441
 4243SOL     OW13627   1.651   2.863   3.232
 4243SOL    HW113628   1.735   2.846   3.284
 4243SOL    HW213629   1.580   2.896   3.294
 4244SOL     OW13630   3.746   5.970   1.688
 4244SOL    HW113631   3.667   5.946   1.632
 4244SOL    HW213632   3.779   5.888   1.737
 4245SOL     OW13633   6.620   3.479   1.759
 4245SOL    HW113634   6.671   3.402   1.796
 4245SOL    HW213635   6.570   3.450   1.677
 4246SOL     OW13636   4.461   2.490   3.779
 4246SOL    HW113637   4.416   2.505   3.691
 4246SOL    HW213638   4.484   2.393   3.787
 4247SOL     OW13639   1.768   4.780   6.278
 4247SOL    HW113640   1.816   4.692   6.279
 4247SOL    HW213641   1.829   4.851   6.312
 4248SOL     OW13642   1.739   0.623   3.343
 4248SOL    HW113643   1.760   0.640   3.246
 4248SOL    HW213644   1.824   0.604   3.392
 4249SOL     OW13645   6.329   6.902   5.349
 4249SOL    HW113646   6.360   6.916   5.444
 4249SOL    HW213647   6.302   6.807   5.337
 4250SOL     OW13648   6.359   5.641   4.062
 4250SOL    HW113649   6.330   5.606   4.152
 4250SOL    HW213650   6.329   5.736   4.052
 4251SOL     OW13651   6.226   2.391   5.571
 4251SOL    HW113652   6.215   2.482   5.530
 4251SOL    HW213653   6.318   2.357   5.552
 4252SOL     OW13654   0.125   6.339   6.862
 4252SOL    HW113655   0.144   6.259   6.919
 4252SOL    HW213656   0.101   6.417   6.919
 4253SOL     OW13657   4.824   5.551   2.973
 4253SOL    HW113658   4.754   5.498   3.020
 4253SOL    HW213659   4.791   5.644   2.958
 4254SOL     OW13660   2.074   3.163   6.462
 4254SOL    HW113661   2.144   3.120   6.519
 4254SOL    HW213662   1.993   3.181   6.516
 4255SOL     OW13663   1.231   3.448   3.278
 4255SOL    HW113664   1.183   3.490   3.201
 4255SOL    HW213665   1.249   3.352   3.257
 4256SOL     OW13666   0.681   6.238   1.660
 4256SOL    HW113667   0.777   6.215   1.642
 4256SOL    HW213668   0.675   6.296   1.741
 4257SOL     OW13669   6.665   6.853   4.130
 4257SOL    HW113670   6.725   6.906   4.069
 4257SOL    HW213671   6.641   6.909   4.209
 4258SOL     OW13672   3.119   5.776   0.955
 4258SOL    HW113673   3.192   5.837   0.984
 4258SOL    HW213674   3.031   5.814   0.984
 4259SOL     OW13675   1.141   0.465   0.992
 4259SOL    HW113676   1.073   0.497   0.926
 4259SOL    HW213677   1.230   0.504   0.969
 4260SOL     OW13678   5.402   1.355   4.870
 4260SOL    HW113679   5.472   1.416   4.832
 4260SOL    HW213680   5.443   1.265   4.887
 4261SOL     OW13681   2.858   6.226   4.321
 4261SOL    HW113682   2.916   6.304   4.345
 4261SOL    HW213683   2.861   6.212   4.222
 4262SOL     OW13684   2.321   4.289   6.443
 4262SOL    HW113685   2.411   4.245   6.444
 4262SOL    HW213686   2.307   4.334   6.355
 4263SOL     OW13687   1.843   1.890   3.603
 4263SOL    HW113688   1.763   1.837   3.628
 4263SOL    HW213689   1.895   1.842   3.532
 4264SOL     OW13690   4.940   1.935   4.994
 4264SOL    HW113691   4.884   2.009   4.957
 4264SOL    HW213692   4.881   1.868   5.041
 4265SOL     OW13693   2.155   6.944   6.181
 4265SOL    HW113694   2.114   7.016   6.236
 4265SOL    HW213695   2.207   6.984   6.106
 4266SOL     OW13696   1.604   5.371   1.671
 4266SOL    HW113697   1.653   5.354   1.586
 4266SOL    HW213698   1.662   5.423   1.734
 4267SOL     OW13699   1.420   4.381   4.851
 4267SOL    HW113700   1.353   4.355   4.782
 4267SOL    HW213701   1.497   4.428   4.808
 4268SOL     OW13702   1.315   4.003   6.570
 4268SOL    HW113703   1.222   4.016   6.602
 4268SOL    HW213704   1.324   4.042   6.478
 4269SOL     OW13705   2.623   1.154   5.302
 4269SOL    HW113706   2.716   1.130   5.275
 4269SOL    HW213707   2.614   1.254   5.307
 4270SOL     OW13708   3.531   3.375   0.220
 4270SOL    HW113709   3.503   3.323   0.300
 4270SOL    HW213710   3.543   3.314   0.142
 4271SOL     OW13711   7.001   1.169   1.733
 4271SOL    HW113712   7.002   1.092   1.669
 4271SOL    HW213713   6.915   1.168   1.784
 4272SOL     OW13714   0.198   1.151   6.681
 4272SOL    HW113715   0.207   1.193   6.772
 4272SOL    HW213716   0.230   1.056   6.685
 4273SOL     OW13717   3.266   6.245   4.547
 4273SOL    HW113718   3.203   6.311   4.587
 4273SOL    HW213719   3.357   6.258   4.585
 4274SOL     OW13720   6.846   1.617   2.364
 4274SOL    HW113721   6.895   1.531   2.351
 4274SOL    HW213722   6.813   1.622   2.458
 4275SOL     OW13723   0.109   2.536   3.298
 4275SOL    HW113724   0.163   2.502   3.376
 4275SOL    HW213725   0.171   2.561   3.224
 4276SOL     OW13726   2.386   6.089   3.370
 4276SOL    HW113727   2.463   6.083   3.434
 4276SOL    HW213728   2.361   5.997   3.339
 4277SOL     OW13729   6.461   5.580   2.875
 4277SOL    HW113730   6.378   5.621   2.913
 4277SOL    HW213731   6.436   5.514   2.804
 4278SOL     OW13732   1.088   6.859   1.765
 4278SOL    HW113733   1.023   6.845   1.690
 4278SOL    HW213734   1.089   6.956   1.790
 4279SOL     OW13735   1.232   1.730   4.146
 4279SOL    HW113736   1.267   1.821   4.122
 4279SOL    HW213737   1.137   1.739   4.177
 4280SOL     OW13738   1.990   6.358   6.517
 4280SOL    HW113739   2.040   6.353   6.431
 4280SOL    HW213740   1.894   6.337   6.500
 4281SOL     OW13741   5.290   5.959   3.214
 4281SOL    HW113742   5.324   5.911   3.133
 4281SOL    HW213743   5.196   5.933   3.232
 4282SOL     OW13744   4.563   5.123   1.379
 4282SOL    HW113745   4.614   5.045   1.344
 4282SOL    HW213746   4.617   5.169   1.450
 4283SOL     OW13747   4.887   1.385   4.309
 4283SOL    HW113748   4.862   1.290   4.328
 4283SOL    HW213749   4.805   1.442   4.309
 4284SOL     OW13750   4.809   5.377   6.293
 4284SOL    HW113751   4.836   5.338   6.205
 4284SOL    HW213752   4.729   5.436   6.280
 4285SOL     OW13753   3.304   1.367   5.916
 4285SOL    HW113754   3.253   1.309   5.852
 4285SOL    HW213755   3.284   1.338   6.010
 4286SOL     OW13756   6.066   0.228   6.653
 4286SOL    HW113757   6.040   0.186   6.566
 4286SOL    HW213758   6.152   0.277   6.641
 4287SOL     OW13759   3.714   0.710   1.080
 4287SOL    HW113760   3.736   0.616   1.103
 4287SOL    HW213761   3.615   0.720   1.072
 4288SOL     OW13762   7.014   6.035   2.154
 4288SOL    HW113763   0.055   6.084   2.215
 4288SOL    HW213764   6.963   6.102   2.099
 4289SOL     OW13765   0.485   4.511   4.624
 4289SOL    HW113766   0.498   4.553   4.534
 4289SOL    HW213767   0.476   4.582   4.694
 4290SOL     OW13768   0.365   1.087   3.059
 4290SOL    HW113769   0.351   1.181   3.090
 4290SOL    HW213770   0.327   1.077   2.967
 4291SOL     OW13771   4.377   3.797   5.805
 4291SOL    HW113772   4.461   3.813   5.753
 4291SOL    HW213773   4.298   3.822   5.749
 4292SOL     OW13774   6.148   1.596   1.762
 4292SOL    HW113775   6.052   1.571   1.776
 4292SOL    HW213776   6.154   1.694   1.743
 4293SOL     OW13777   3.888   3.099   0.486
 4293SOL    HW113778   3.844   3.174   0.534
 4293SOL    HW213779   3.831   3.017   0.493
 4294SOL     OW13780   2.463   1.615   6.743
 4294SOL    HW113781   2.461   1.708   6.705
 4294SOL    HW213782   2.489   1.620   6.840
 4295SOL     OW13783   4.151   5.903   2.977
 4295SOL    HW113784   4.232   5.877   2.925
 4295SOL    HW213785   4.128   5.998   2.959
 4296SOL     OW13786   2.892   6.452   3.091
 4296SOL    HW113787   2.903   6.529   3.027
 4296SOL    HW213788   2.854   6.486   3.177
 4297SOL     OW13789   5.209   5.482   0.399
 4297SOL    HW113790   5.268   5.417   0.446
 4297SOL    HW213791   5.250   5.508   0.312
 4298SOL     OW13792   2.120   0.305   0.721
 4298SOL    HW113793   2.118   0.392   0.771
 4298SOL    HW213794   2.045   0.304   0.654
 4299SOL     OW13795   0.751   2.484   6.879
 4299SOL    HW113796   0.849   2.462   6.875
 4299SOL    HW213797   0.740   2.584   6.879
 4300SOL     OW13798   3.239   0.380   1.562
 4300SOL    HW113799   3.204   0.474   1.564
 4300SOL    HW213800   3.269   0.357   1.469
 4301SOL     OW13801   2.518   6.204   0.205
 4301SOL    HW113802   2.466   6.237   0.126
 4301SOL    HW213803   2.590   6.269   0.227
 4302SOL     OW13804   2.327   5.155   5.746
 4302SOL    HW113805   2.268   5.140   5.667
 4302SOL    HW213806   2.422   5.155   5.717
 4303SOL     OW13807   5.083   5.779   3.634
 4303SOL    HW113808   5.136   5.712   3.581
 4303SOL    HW213809   4.988   5.749   3.642
 4304SOL     OW13810   3.409   3.868   1.565
 4304SOL    HW113811   3.483   3.879   1.499
 4304SOL    HW213812   3.405   3.773   1.595
 4305SOL     OW13813   1.068   6.143   5.614
 4305SOL    HW113814   1.009   6.079   5.564
 4305SOL    HW213815   1.084   6.225   5.559
 4306SOL     OW13816   5.465   4.306   5.077
 4306SOL    HW113817   5.425   4.229   5.028
 4306SOL    HW213818   5.415   4.390   5.055
 4307SOL     OW13819   0.478   0.833   5.919
 4307SOL    HW113820   0.459   0.916   5.867
 4307SOL    HW213821   0.403   0.816   5.984
 4308SOL     OW13822   4.766   6.021   6.538
 4308SOL    HW113823   4.734   6.107   6.578
 4308SOL    HW213824   4.828   5.976   6.603
 4309SOL     OW13825   0.875   1.339   0.343
 4309SOL    HW113826   0.944   1.363   0.411
 4309SOL    HW213827   0.901   1.378   0.255
 4310SOL     OW13828   6.275   2.248   2.457
 4310SOL    HW113829   6.326   2.163   2.440
 4310SOL    HW213830   6.233   2.279   2.372
 4311SOL     OW13831   0.192   6.740   1.606
 4311SOL    HW113832   0.253   6.666   1.579
 4311SOL    HW213833   0.228   6.785   1.688
 4312SOL     OW13834   6.837   5.015   2.522
 4312SOL    HW113835   6.849   4.915   2.518
 4312SOL    HW213836   6.913   5.055   2.573
 4313SOL     OW13837   0.174   3.239   6.327
 4313SOL    HW113838   0.260   3.203   6.291
 4313SOL    HW213839   0.152   3.193   6.412
 4314SOL     OW13840   0.755   1.018   6.092
 4314SOL    HW113841   0.781   1.032   6.187
 4314SOL    HW213842   0.778   0.925   6.064
 4315SOL     OW13843   2.645   0.916   5.076
 4315SOL    HW113844   2.622   0.946   4.983
 4315SOL    HW213845   2.721   0.970   5.110
 4316SOL     OW13846   4.976   5.919   1.279
 4316SOL    HW113847   5.074   5.942   1.278
 4316SOL    HW213848   4.965   5.820   1.266
 4317SOL     OW13849   4.716   0.895   5.782
 4317SOL    HW113850   4.788   0.907   5.715
 4317SOL    HW213851   4.665   0.980   5.793
 4318SOL     OW13852   0.918   6.908   4.097
 4318SOL    HW113853   0.837   6.855   4.073
 4318SOL    HW213854   1.000   6.860   4.066
 4319SOL     OW13855   1.216   4.268   2.530
 4319SOL    HW113856   1.213   4.272   2.630
 4319SOL    HW213857   1.123   4.255   2.495
 4320SOL     OW13858   3.612   0.005   0.524
 4320SOL    HW113859   3.585   6.936   0.551
 4320SOL    HW213860   3.532   0.054   0.489
 4321SOL     OW13861   6.734   6.722   3.070
 4321SOL    HW113862   6.662   6.772   3.118
 4321SOL    HW213863   6.759   6.772   2.987
 4322SOL     OW13864   1.796   2.836   4.905
 4322SOL    HW113865   1.864   2.801   4.969
 4322SOL    HW213866   1.763   2.926   4.937
 4323SOL     OW13867   4.363   4.658   0.155
 4323SOL    HW113868   4.342   4.577   0.101
 4323SOL    HW213869   4.356   4.636   0.252
 4324SOL     OW13870   1.043   4.785   5.921
 4324SOL    HW113871   1.040   4.702   5.977
 4324SOL    HW213872   0.979   4.776   5.844
 4325SOL     OW13873   1.820   0.283   2.691
 4325SOL    HW113874   1.823   0.305   2.593
 4325SOL    HW213875   1.902   0.231   2.715
 4326SOL     OW13876   5.192   1.745   2.029
 4326SOL    HW113877   5.247   1.740   1.946
 4326SOL    HW213878   5.243   1.796   2.100
 4327SOL     OW13879   2.624   5.975   3.513
 4327SOL    HW113880   2.671   5.896   3.474
 4327SOL    HW213881   2.682   6.056   3.506
 4328SOL     OW13882   6.843   0.190   4.355
 4328SOL    HW113883   6.925   0.162   4.405
 4328SOL    HW213884   6.786   0.110   4.337
 4329SOL     OW13885   6.898   2.211   7.010
 4329SOL    HW113886   6.956   2.185   6.933
 4329SOL    HW213887   6.809   2.165   7.001
 4330SOL     OW13888   3.125   5.136   4.381
 4330SOL    HW113889   3.213   5.182   4.394
 4330SOL    HW213890   3.051   5.202   4.396
 4331SOL     OW13891   5.689   1.525   2.035
 4331SOL    HW113892   5.757   1.527   2.108
 4331SOL    HW213893   5.626   1.448   2.049
 4332SOL     OW13894   1.406   5.470   1.920
 4332SOL    HW113895   1.423   5.453   2.017
 4332SOL    HW213896   1.416   5.568   1.901
 4333SOL     OW13897   4.747   2.493   5.902
 4333SOL    HW113898   4.689   2.418   5.934
 4333SOL    HW213899   4.814   2.516   5.973
 4334SOL     OW13900   0.019   2.887   4.362
 4334SOL    HW113901   0.001   2.851   4.270
 4334SOL    HW213902   0.012   2.987   4.360
 4335SOL     OW13903   2.795   3.869   1.428
 4335SOL    HW113904   2.735   3.790   1.415
 4335SOL    HW213905   2.881   3.839   1.469
 4336SOL     OW13906   2.442   5.939   5.275
 4336SOL    HW113907   2.342   5.938   5.287
 4336SOL    HW213908   2.471   6.031   5.248
 4337SOL     OW13909   1.281   5.194   3.758
 4337SOL    HW113910   1.256   5.111   3.708
 4337SOL    HW213911   1.247   5.274   3.709
 4338SOL     OW13912   3.461   1.975   5.542
 4338SOL    HW113913   3.394   1.996   5.613
 4338SOL    HW213914   3.479   2.057   5.488
 4339SOL     OW13915   3.997   4.452   6.197
 4339SOL    HW113916   3.984   4.546   6.166
 4339SOL    HW213917   3.923   4.394   6.164
 4340SOL     OW13918   6.302   4.017   1.643
 4340SOL    HW113919   6.268   4.036   1.736
 4340SOL    HW213920   6.251   3.940   1.605
 4341SOL     OW13921   6.224   6.190   1.848
 4341SOL    HW113922   6.289   6.183   1.924
 4341SOL    HW213923   6.236   6.110   1.788
 4342SOL     OW13924   4.854   3.848   2.617
 4342SOL    HW113925   4.947   3.850   2.581
 4342SOL    HW213926   4.793   3.897   2.555
 4343SOL     OW13927   4.068   6.473   5.914
 4343SOL    HW113928   4.116   6.408   5.972
 4343SOL    HW213929   4.088   6.454   5.818
 4344SOL     OW13930   0.126   3.765   3.126
 4344SOL    HW113931   0.179   3.696   3.075
 4344SOL    HW213932   0.183   3.801   3.200
 4345SOL     OW13933   3.231   3.254   2.525
 4345SOL    HW113934   3.258   3.284   2.434
 4345SOL    HW213935   3.143   3.294   2.550
 4346SOL     OW13936   1.301   3.062   2.540
 4346SOL    HW113937   1.248   3.141   2.511
 4346SOL    HW213938   1.239   2.985   2.558
 4347SOL     OW13939   6.658   5.521   0.397
 4347SOL    HW113940   6.561   5.521   0.422
 4347SOL    HW213941   6.668   5.479   0.307
 4348SOL     OW13942   5.753   4.990   4.536
 4348SOL    HW113943   5.739   5.017   4.632
 4348SOL    HW213944   5.665   4.964   4.496
 4349SOL     OW13945   0.188   3.314   4.174
 4349SOL    HW113946   0.197   3.321   4.274
 4349SOL    HW213947   0.274   3.282   4.135
 4350SOL     OW13948   3.549   1.378   4.465
 4350SOL    HW113949   3.479   1.332   4.519
 4350SOL    HW213950   3.509   1.413   4.380
 4351SOL     OW13951   0.884   5.733   0.623
 4351SOL    HW113952   0.880   5.783   0.537
 4351SOL    HW213953   0.806   5.671   0.630
 4352SOL     OW13954   3.657   5.017   1.476
 4352SOL    HW113955   3.698   4.933   1.513
 4352SOL    HW213956   3.601   5.060   1.546
 4353SOL     OW13957   2.646   2.727   1.256
 4353SOL    HW113958   2.734   2.679   1.252
 4353SOL    HW213959   2.659   2.814   1.305
 4354SOL     OW13960   5.905   6.959   3.351
 4354SOL    HW113961   5.890   6.900   3.430
 4354SOL    HW213962   5.977   6.921   3.294
 4355SOL     OW13963   2.139   5.487   2.813
 4355SOL    HW113964   2.167   5.581   2.792
 4355SOL    HW213965   2.123   5.477   2.911
 4356SOL     OW13966   6.122   2.619   5.394
 4356SOL    HW113967   6.090   2.536   5.349
 4356SOL    HW213968   6.156   2.683   5.326
 4357SOL     OW13969   5.538   0.390   2.061
 4357SOL    HW113970   5.601   0.425   2.130
 4357SOL    HW213971   5.444   0.402   2.092
 4358SOL     OW13972   2.985   0.177   0.325
 4358SOL    HW113973   2.933   0.147   0.244
 4358SOL    HW213974   3.054   0.108   0.347
 4359SOL     OW13975   2.857   1.836   0.768
 4359SOL    HW113976   2.873   1.737   0.765
 4359SOL    HW213977   2.759   1.853   0.778
 4360SOL     OW13978   2.006   4.536   4.552
 4360SOL    HW113979   2.075   4.526   4.481
 4360SOL    HW213980   1.998   4.632   4.578
 4361SOL     OW13981   6.658   1.977   0.590
 4361SOL    HW113982   6.721   1.943   0.520
 4361SOL    HW213983   6.653   2.076   0.586
 4362SOL     OW13984   1.160   5.394   3.592
 4362SOL    HW113985   1.086   5.333   3.563
 4362SOL    HW213986   1.202   5.436   3.512
 4363SOL     OW13987   4.174   1.001   2.432
 4363SOL    HW113988   4.142   0.987   2.338
 4363SOL    HW213989   4.099   0.985   2.496
 4364SOL     OW13990   3.939   3.017   2.535
 4364SOL    HW113991   3.919   3.058   2.624
 4364SOL    HW213992   3.854   3.005   2.483
 4365SOL     OW13993   2.179   1.568   1.285
 4365SOL    HW113994   2.269   1.612   1.279
 4365SOL    HW213995   2.127   1.607   1.361
 4366SOL     OW13996   4.669   0.012   4.895
 4366SOL    HW113997   4.659   0.010   4.795
 4366SOL    HW213998   4.680   6.941   4.928
 4367SOL     OW13999   2.953   5.943   3.214
 4367SOL    HW114000   2.930   6.040   3.225
 4367SOL    HW214001   2.927   5.912   3.123
 4368SOL     OW14002   4.703   4.218   3.831
 4368SOL    HW114003   4.725   4.143   3.894
 4368SOL    HW214004   4.660   4.292   3.882
 4369SOL     OW14005   4.903   4.043   3.452
 4369SOL    HW114006   4.924   4.109   3.524
 4369SOL    HW214007   4.823   4.073   3.401
 4370SOL     OW14008   3.655   4.460   1.670
 4370SOL    HW114009   3.637   4.381   1.728
 4370SOL    HW214010   3.650   4.543   1.724
 4371SOL     OW14011   2.345   1.072   1.693
 4371SOL    HW114012   2.386   1.021   1.617
 4371SOL    HW214013   2.249   1.045   1.703
 4372SOL     OW14014   1.571   3.350   4.742
 4372SOL    HW114015   1.657   3.397   4.723
 4372SOL    HW214016   1.522   3.399   4.814
 4373SOL     OW14017   2.983   1.102   6.436
 4373SOL    HW114018   3.001   1.034   6.507
 4373SOL    HW214019   3.039   1.183   6.453
 4374SOL     OW14020   2.679   6.846   1.202
 4374SOL    HW114021   2.691   6.943   1.223
 4374SOL    HW214022   2.686   6.833   1.103
 4375SOL     OW14023   4.648   2.015   4.662
 4375SOL    HW114024   4.728   1.961   4.686
 4375SOL    HW214025   4.675   2.088   4.599
 4376SOL     OW14026   2.256   6.051   6.697
 4376SOL    HW114027   2.220   5.980   6.758
 4376SOL    HW214028   2.214   6.139   6.721
 4377SOL     OW14029   5.513   0.244   6.307
 4377SOL    HW114030   5.562   0.215   6.225
 4377SOL    HW214031   5.570   0.226   6.387
 4378SOL     OW14032   2.681   5.750   2.128
 4378SOL    HW114033   2.602   5.775   2.073
 4378SOL    HW214034   2.703   5.654   2.112
 4379SOL     OW14035   1.144   0.585   1.548
 4379SOL    HW114036   1.045   0.581   1.533
 4379SOL    HW214037   1.169   0.521   1.620
 4380SOL     OW14038   1.806   5.008   4.575
 4380SOL    HW114039   1.881   5.062   4.538
 4380SOL    HW214040   1.808   5.013   4.675
 4381SOL     OW14041   4.796   6.488   5.317
 4381SOL    HW114042   4.740   6.554   5.367
 4381SOL    HW214043   4.802   6.514   5.221
 4382SOL     OW14044   5.004   3.567   3.197
 4382SOL    HW114045   5.099   3.558   3.226
 4382SOL    HW214046   4.956   3.629   3.258
 4383SOL     OW14047   1.162   1.925   6.996
 4383SOL    HW114048   1.065   1.951   6.991
 4383SOL    HW214049   1.182   1.890   0.065
 4384SOL     OW14050   3.712   6.512   1.427
 4384SOL    HW114051   3.725   6.432   1.367
 4384SOL    HW214052   3.696   6.593   1.370
 4385SOL     OW14053   6.098   1.342   2.278
 4385SOL    HW114054   6.065   1.286   2.353
 4385SOL    HW214055   6.185   1.384   2.303
 4386SOL     OW14056   1.413   3.826   6.774
 4386SOL    HW114057   1.335   3.764   6.777
 4386SOL    HW214058   1.392   3.905   6.717
 4387SOL     OW14059   6.789   3.253   1.895
 4387SOL    HW114060   6.796   3.161   1.934
 4387SOL    HW214061   6.839   3.317   1.954
 4388SOL     OW14062   2.944   1.359   5.317
 4388SOL    HW114063   2.859   1.408   5.297
 4388SOL    HW214064   2.939   1.319   5.408
 4389SOL     OW14065   5.285   2.114   2.064
 4389SOL    HW114066   5.253   2.077   2.151
 4389SOL    HW214067   5.219   2.182   2.030
 4390SOL     OW14068   4.511   2.594   1.576
 4390SOL    HW114069   4.551   2.666   1.633
 4390SOL    HW214070   4.463   2.529   1.635
 4391SOL     OW14071   0.496   5.844   1.042
 4391SOL    HW114072   0.505   5.744   1.047
 4391SOL    HW214073   0.523   5.875   0.951
 4392SOL     OW14074   5.841   3.849   4.380
 4392SOL    HW114075   5.915   3.899   4.336
 4392SOL    HW214076   5.769   3.829   4.313
 4393SOL     OW14077   4.462   5.753   3.860
 4393SOL    HW114078   4.452   5.757   3.761
 4393SOL    HW214079   4.558   5.760   3.885
 4394SOL     OW14080   4.737   1.179   2.305
 4394SOL    HW114081   4.765   1.218   2.393
 4394SOL    HW214082   4.818   1.147   2.255
 4395SOL     OW14083   4.853   1.959   1.490
 4395SOL    HW114084   4.796   2.014   1.551
 4395SOL    HW214085   4.949   1.966   1.518
 4396SOL     OW14086   1.406   0.843   3.842
 4396SOL    HW114087   1.389   0.935   3.880
 4396SOL    HW214088   1.321   0.809   3.800
 4397SOL     OW14089   6.527   0.348   6.294
 4397SOL    HW114090   6.592   0.411   6.252
 4397SOL    HW214091   6.461   0.400   6.350
 4398SOL     OW14092   6.743   4.696   4.178
 4398SOL    HW114093   6.776   4.727   4.089
 4398SOL    HW214094   6.718   4.600   4.173
 4399SOL     OW14095   2.837   1.128   1.511
 4399SOL    HW114096   2.857   1.195   1.440
 4399SOL    HW214097   2.772   1.168   1.576
 4400SOL     OW14098   3.719   5.517   4.292
 4400SOL    HW114099   3.703   5.579   4.369
 4400SOL    HW214100   3.653   5.537   4.219
 4401SOL     OW14101   5.443   6.875   4.148
 4401SOL    HW114102   5.431   6.970   4.178
 4401SOL    HW214103   5.528   6.838   4.187
 4402SOL     OW14104   6.715   0.907   3.269
 4402SOL    HW114105   6.671   0.956   3.344
 4402SOL    HW214106   6.761   0.825   3.304
 4403SOL     OW14107   0.802   6.689   2.794
 4403SOL    HW114108   0.899   6.711   2.780
 4403SOL    HW214109   0.795   6.604   2.846
 4404SOL     OW14110   1.688   4.152   3.547
 4404SOL    HW114111   1.726   4.237   3.584
 4404SOL    HW214112   1.654   4.095   3.622
 4405SOL     OW14113   3.706   4.637   6.242
 4405SOL    HW114114   3.664   4.588   6.318
 4405SOL    HW214115   3.648   4.630   6.161
 4406SOL     OW14116   5.573   3.557   1.369
 4406SOL    HW114117   5.644   3.488   1.384
 4406SOL    HW214118   5.574   3.584   1.273
 4407SOL     OW14119   6.889   6.347   0.076
 4407SOL    HW114120   6.885   6.298   0.163
 4407SOL    HW214121   6.797   6.377   0.051
 4408SOL     OW14122   4.908   6.512   0.544
 4408SOL    HW114123   4.897   6.413   0.531
 4408SOL    HW214124   4.990   6.530   0.597
 4409SOL     OW14125   2.406   1.481   2.466
 4409SOL    HW114126   2.372   1.440   2.381
 4409SOL    HW214127   2.416   1.580   2.454
 4410SOL     OW14128   2.752   5.477   2.194
 4410SOL    HW114129   2.838   5.489   2.145
 4410SOL    HW214130   2.720   5.383   2.185
 4411SOL     OW14131   3.707   3.021   2.412
 4411SOL    HW114132   3.636   2.952   2.427
 4411SOL    HW214133   3.664   3.107   2.382
 4412SOL     OW14134   3.293   1.894   6.348
 4412SOL    HW114135   3.311   1.990   6.330
 4412SOL    HW214136   3.374   1.852   6.390
 4413SOL     OW14137   4.074   5.459   4.484
 4413SOL    HW114138   4.068   5.473   4.385
 4413SOL    HW214139   4.049   5.364   4.506
 4414SOL     OW14140   3.630   5.473   2.051
 4414SOL    HW114141   3.568   5.396   2.034
 4414SOL    HW214142   3.712   5.440   2.097
 4415SOL     OW14143   4.441   2.416   0.896
 4415SOL    HW114144   4.515   2.387   0.835
 4415SOL    HW214145   4.446   2.515   0.909
 4416SOL     OW14146   3.721   1.181   3.584
 4416SOL    HW114147   3.706   1.118   3.508
 4416SOL    HW214148   3.635   1.228   3.605
 4417SOL     OW14149   0.721   0.456   1.062
 4417SOL    HW114150   0.646   0.392   1.075
 4417SOL    HW214151   0.767   0.436   0.976
 4418SOL     OW14152   3.964   0.309   3.630
 4418SOL    HW114153   3.905   0.232   3.654
 4418SOL    HW214154   3.940   0.389   3.684
 4419SOL     OW14155   0.012   5.157   0.369
 4419SOL    HW114156   0.090   5.176   0.427
 4419SOL    HW214157   0.018   5.212   0.286
 4420SOL     OW14158   4.302   0.938   6.507
 4420SOL    HW114159   4.344   0.912   6.419
 4420SOL    HW214160   4.206   0.910   6.507
 4421SOL     OW14161   1.609   1.862   3.341
 4421SOL    HW114162   1.636   1.899   3.430
 4421SOL    HW214163   1.613   1.935   3.272
 4422SOL     OW14164   2.053   3.836   5.809
 4422SOL    HW114165   2.106   3.883   5.738
 4422SOL    HW214166   1.960   3.873   5.810
 4423SOL     OW14167   6.972   1.141   6.593
 4423SOL    HW114168   0.042   1.134   6.632
 4423SOL    HW214169   6.905   1.104   6.657
 4424SOL     OW14170   6.901   6.164   3.714
 4424SOL    HW114171   6.882   6.189   3.619
 4424SOL    HW214172   6.924   6.067   3.719
 4425SOL     OW14173   4.327   4.137   0.338
 4425SOL    HW114174   4.315   4.190   0.253
 4425SOL    HW214175   4.401   4.071   0.326
 4426SOL     OW14176   1.091   0.230   5.277
 4426SOL    HW114177   1.100   0.327   5.300
 4426SOL    HW214178   1.026   0.220   5.201
 4427SOL     OW14179   1.271   6.529   3.105
 4427SOL    HW114180   1.182   6.511   3.149
 4427SOL    HW214181   1.342   6.475   3.150
 4428SOL     OW14182   2.779   5.764   3.379
 4428SOL    HW114183   2.832   5.820   3.315
 4428SOL    HW214184   2.823   5.675   3.391
 4429SOL     OW14185   3.859   0.557   3.146
 4429SOL    HW114186   3.765   0.586   3.165
 4429SOL    HW214187   3.860   0.492   3.070
 4430SOL     OW14188   1.730   0.897   1.407
 4430SOL    HW114189   1.668   0.840   1.461
 4430SOL    HW214190   1.697   0.991   1.408
 4431SOL     OW14191   1.413   2.288   3.363
 4431SOL    HW114192   1.391   2.370   3.416
 4431SOL    HW214193   1.335   2.226   3.363
 4432SOL     OW14194   2.913   3.579   3.776
 4432SOL    HW114195   2.929   3.678   3.777
 4432SOL    HW214196   2.979   3.534   3.837
 4433SOL     OW14197   0.007   0.566   3.531
 4433SOL    HW114198   6.976   0.530   3.454
 4433SOL    HW214199   0.019   0.665   3.520
 4434SOL     OW14200   5.133   2.110   4.150
 4434SOL    HW114201   5.214   2.075   4.102
 4434SOL    HW214202   5.121   2.207   4.129
 4435SOL     OW14203   3.536   3.180   2.234
 4435SOL    HW114204   3.563   3.200   2.140
 4435SOL    HW214205   3.499   3.087   2.239
 4436SOL     OW14206   4.654   0.561   0.164
 4436SOL    HW114207   4.682   0.503   0.240
 4436SOL    HW214208   4.581   0.623   0.194
 4437SOL     OW14209   3.498   0.249   4.682
 4437SOL    HW114210   3.540   0.336   4.708
 4437SOL    HW214211   3.530   0.222   4.591
 4438SOL     OW14212   3.423   3.641   6.187
 4438SOL    HW114213   3.429   3.587   6.271
 4438SOL    HW214214   3.508   3.633   6.136
 4439SOL     OW14215   2.829   5.047   2.284
 4439SOL    HW114216   2.794   4.954   2.288
 4439SOL    HW214217   2.757   5.109   2.253
 4440SOL     OW14218   6.755   0.228   6.395
 4440SOL    HW114219   6.668   0.263   6.361
 4440SOL    HW214220   6.739   0.169   6.474
 4441SOL     OW14221   5.791   2.381   3.579
 4441SOL    HW114222   5.756   2.472   3.601
 4441SOL    HW214223   5.727   2.312   3.613
 4442SOL     OW14224   2.004   6.358   2.304
 4442SOL    HW114225   1.989   6.304   2.387
 4442SOL    HW214226   2.028   6.451   2.329
 4443SOL     OW14227   2.324   1.421   5.790
 4443SOL    HW114228   2.364   1.512   5.801
 4443SOL    HW214229   2.396   1.352   5.797
 4444SOL     OW14230   5.214   0.721   2.593
 4444SOL    HW114231   5.300   0.766   2.616
 4444SOL    HW214232   5.166   0.695   2.676
 4445SOL     OW14233   1.781   1.642   6.331
 4445SOL    HW114234   1.724   1.640   6.413
 4445SOL    HW214235   1.724   1.665   6.252
 4446SOL     OW14236   6.050   6.078   4.063
 4446SOL    HW114237   6.046   6.171   4.101
 4446SOL    HW214238   5.989   6.018   4.114
 4447SOL     OW14239   4.905   3.508   4.777
 4447SOL    HW114240   4.898   3.417   4.818
 4447SOL    HW214241   4.914   3.576   4.850
 4448SOL     OW14242   2.672   2.940   6.131
 4448SOL    HW114243   2.619   2.861   6.161
 4448SOL    HW214244   2.692   2.932   6.033
 4449SOL     OW14245   0.801   1.525   5.014
 4449SOL    HW114246   0.732   1.513   5.086
 4449SOL    HW214247   0.773   1.475   4.933
 4450SOL     OW14248   4.070   3.640   3.297
 4450SOL    HW114249   4.039   3.719   3.244
 4450SOL    HW214250   4.087   3.668   3.392
 4451SOL     OW14251   6.662   4.345   1.628
 4451SOL    HW114252   6.695   4.373   1.718
 4451SOL    HW214253   6.562   4.338   1.630
 4452SOL     OW14254   6.306   5.065   6.095
 4452SOL    HW114255   6.284   4.969   6.110
 4452SOL    HW214256   6.396   5.071   6.050
 4453SOL     OW14257   5.358   2.109   1.389
 4453SOL    HW114258   5.444   2.148   1.422
 4453SOL    HW214259   5.283   2.169   1.415
 4454SOL     OW14260   5.239   3.004   1.368
 4454SOL    HW114261   5.266   2.936   1.299
 4454SOL    HW214262   5.185   2.960   1.439
 4455SOL     OW14263   4.232   1.899   1.431
 4455SOL    HW114264   4.307   1.959   1.404
 4455SOL    HW214265   4.244   1.869   1.526
 4456SOL     OW14266   1.174   5.677   3.220
 4456SOL    HW114267   1.227   5.758   3.194
 4456SOL    HW214268   1.130   5.638   3.139
 4457SOL     OW14269   4.935   2.052   6.575
 4457SOL    HW114270   4.844   2.073   6.610
 4457SOL    HW214271   4.927   1.985   6.501
 4458SOL     OW14272   3.516   1.810   6.476
 4458SOL    HW114273   3.593   1.781   6.420
 4458SOL    HW214274   3.547   1.821   6.571
 4459SOL     OW14275   4.892   6.027   5.408
 4459SOL    HW114276   4.855   6.117   5.434
 4459SOL    HW214277   4.834   5.956   5.447
 4460SOL     OW14278   1.444   1.471   6.188
 4460SOL    HW114279   1.496   1.498   6.107
 4460SOL    HW214280   1.444   1.547   6.253
 4461SOL     OW14281   2.407   0.226   2.372
 4461SOL    HW114282   2.392   0.313   2.419
 4461SOL    HW214283   2.477   0.174   2.421
 4462SOL     OW14284   6.917   5.604   1.291
 4462SOL    HW114285   7.002   5.579   1.338
 4462SOL    HW214286   6.938   5.660   1.211
 4463SOL     OW14287   1.336   3.424   5.890
 4463SOL    HW114288   1.404   3.474   5.836
 4463SOL    HW214289   1.325   3.468   5.979
 4464SOL     OW14290   6.056   3.035   0.048
 4464SOL    HW114291   6.045   2.976   0.128
 4464SOL    HW214292   5.966   3.051   0.006
 4465SOL     OW14293   1.656   5.848   1.870
 4465SOL    HW114294   1.627   5.942   1.852
 4465SOL    HW214295   1.724   5.848   1.943
 4466SOL     OW14296   0.395   2.422   3.920
 4466SOL    HW114297   0.490   2.397   3.901
 4466SOL    HW214298   0.335   2.345   3.898
 4467SOL     OW14299   1.109   6.949   3.106
 4467SOL    HW114300   1.136   0.007   3.159
 4467SOL    HW214301   1.068   6.978   3.020
 4468SOL     OW14302   1.077   2.517   0.071
 4468SOL    HW114303   1.048   2.435   0.121
 4468SOL    HW214304   1.070   2.597   0.131
 4469SOL     OW14305   4.381   6.994   0.169
 4469SOL    HW114306   4.318   0.022   0.228
 4469SOL    HW214307   4.474   7.000   0.207
 4470SOL     OW14308   4.471   5.157   0.971
 4470SOL    HW114309   4.531   5.224   1.015
 4470SOL    HW214310   4.412   5.116   1.040
 4471SOL     OW14311   6.544   3.585   0.224
 4471SOL    HW114312   6.623   3.643   0.242
 4471SOL    HW214313   6.502   3.610   0.137
 4472SOL     OW14314   2.074   4.907   1.256
 4472SOL    HW114315   2.018   4.826   1.240
 4472SOL    HW214316   2.123   4.897   1.342
 4473SOL     OW14317   0.759   0.100   5.605
 4473SOL    HW114318   0.770   0.194   5.573
 4473SOL    HW214319   0.812   0.087   5.688
 4474SOL     OW14320   5.970   0.988   3.700
 4474SOL    HW114321   5.962   0.889   3.714
 4474SOL    HW214322   5.906   1.035   3.761
 4475SOL     OW14323   1.520   3.983   0.049
 4475SOL    HW114324   1.513   4.025   6.981
 4475SOL    HW214325   1.464   4.035   0.114
 4476SOL     OW14326   4.728   6.364   2.368
 4476SOL    HW114327   4.739   6.266   2.354
 4476SOL    HW214328   4.806   6.412   2.327
 4477SOL     OW14329   1.624   1.163   7.011
 4477SOL    HW114330   1.577   1.104   6.946
 4477SOL    HW214331   1.597   1.258   6.994
 4478SOL     OW14332   1.604   5.169   2.095
 4478SOL    HW114333   1.547   5.206   2.168
 4478SOL    HW214334   1.677   5.234   2.074
 4479SOL     OW14335   0.360   0.148   5.423
 4479SOL    HW114336   0.392   0.093   5.346
 4479SOL    HW214337   0.420   0.133   5.502
 4480SOL     OW14338   1.216   4.556   3.897
 4480SOL    HW114339   1.157   4.632   3.870
 4480SOL    HW214340   1.164   4.471   3.895
 4481SOL     OW14341   1.068   0.153   3.804
 4481SOL    HW114342   1.159   0.195   3.812
 4481SOL    HW214343   1.021   0.190   3.725
 4482SOL     OW14344   0.494   4.273   4.045
 4482SOL    HW114345   0.397   4.294   4.054
 4482SOL    HW214346   0.534   4.330   3.973
 4483SOL     OW14347   5.409   2.346   2.274
 4483SOL    HW114348   5.469   2.297   2.210
 4483SOL    HW214349   5.316   2.346   2.238
 4484SOL     OW14350   4.088   2.665   5.693
 4484SOL    HW114351   4.098   2.636   5.598
 4484SOL    HW214352   4.175   2.650   5.742
 4485SOL     OW14353   4.660   1.181   6.839
 4485SOL    HW114354   4.629   1.261   6.787
 4485SOL    HW214355   4.688   1.109   6.775
 4486SOL     OW14356   6.474   2.603   4.003
 4486SOL    HW114357   6.438   2.534   4.065
 4486SOL    HW214358   6.523   2.559   3.929
 4487SOL     OW14359   3.284   3.022   6.199
 4487SOL    HW114360   3.218   3.096   6.181
 4487SOL    HW214361   3.301   3.016   6.297
 4488SOL     OW14362   0.171   1.323   5.705
 4488SOL    HW114363   0.220   1.303   5.790
 4488SOL    HW214364   0.117   1.407   5.716
 4489SOL     OW14365   6.715   0.650   3.150
 4489SOL    HW114366   6.627   0.603   3.154
 4489SOL    HW214367   6.700   0.748   3.138
 4490SOL     OW14368   6.648   2.481   3.360
 4490SOL    HW114369   6.741   2.517   3.366
 4490SOL    HW214370   6.626   2.458   3.266
 4491SOL     OW14371   1.783   2.741   2.718
 4491SOL    HW114372   1.719   2.794   2.774
 4491SOL    HW214373   1.861   2.799   2.693
 4492SOL     OW14374   3.957   3.348   6.519
 4492SOL    HW114375   4.012   3.270   6.549
 4492SOL    HW214376   3.878   3.358   6.580
 4493SOL     OW14377   5.886   5.278   3.574
 4493SOL    HW114378   5.944   5.330   3.512
 4493SOL    HW214379   5.890   5.319   3.665
 4494SOL     OW14380   6.222   3.741   3.654
 4494SOL    HW114381   6.208   3.827   3.703
 4494SOL    HW214382   6.305   3.697   3.687
 4495SOL     OW14383   4.545   6.081   1.653
 4495SOL    HW114384   4.553   6.170   1.698
 4495SOL    HW214385   4.490   6.019   1.710
 4496SOL     OW14386   5.096   4.596   5.444
 4496SOL    HW114387   5.129   4.596   5.350
 4496SOL    HW214388   5.002   4.562   5.446
 4497SOL     OW14389   6.587   5.204   0.667
 4497SOL    HW114390   6.531   5.137   0.618
 4497SOL    HW214391   6.538   5.291   0.673
 4498SOL     OW14392   0.123   4.195   6.707
 4498SOL    HW114393   0.148   4.129   6.778
 4498SOL    HW214394   0.201   4.211   6.647
 4499SOL     OW14395   6.553   3.173   6.528
 4499SOL    HW114396   6.467   3.155   6.576
 4499SOL    HW214397   6.617   3.098   6.545
 4500SOL     OW14398   3.491   3.738   4.569
 4500SOL    HW114399   3.584   3.708   4.590
 4500SOL    HW214400   3.448   3.773   4.653
 4501SOL     OW14401   0.984   4.502   4.961
 4501SOL    HW114402   0.914   4.439   4.928
 4501SOL    HW214403   0.960   4.535   5.052
 4502SOL     OW14404   6.607   2.984   6.961
 4502SOL    HW114405   6.510   3.006   6.977
 4502SOL    HW214406   6.663   3.035   0.003
 4503SOL     OW14407   1.306   1.830   3.336
 4503SOL    HW114408   1.334   1.742   3.298
 4503SOL    HW214409   1.336   1.903   3.275
 4504SOL     OW14410   5.099   2.768   4.743
 4504SOL    HW114411   5.105   2.791   4.645
 4504SOL    HW214412   5.090   2.853   4.796
 4505SOL     OW14413   1.685   5.042   5.954
 4505SOL    HW114414   1.681   5.126   5.899
 4505SOL    HW214415   1.769   4.993   5.933
 4506SOL     OW14416   3.823   0.324   5.236
 4506SOL    HW114417   3.910   0.275   5.239
 4506SOL    HW214418   3.751   0.261   5.207
 4507SOL     OW14419   6.334   4.499   1.120
 4507SOL    HW114420   6.399   4.469   1.051
 4507SOL    HW214421   6.259   4.549   1.076
 4508SOL     OW14422   1.221   4.550   1.064
 4508SOL    HW114423   1.191   4.512   1.151
 4508SOL    HW214424   1.169   4.509   0.989
 4509SOL     OW14425   1.374   1.933   4.036
 4509SOL    HW114426   1.445   1.930   3.967
 4509SOL    HW214427   1.295   1.984   4.001
 4510SOL     OW14428   3.720   6.379   4.983
 4510SOL    HW114429   3.700   6.344   5.075
 4510SOL    HW214430   3.812   6.351   4.956
 4511SOL     OW14431   6.211   2.820   6.727
 4511SOL    HW114432   6.134   2.868   6.768
 4511SOL    HW214433   6.210   2.724   6.756
 4512SOL     OW14434   2.884   4.831   0.346
 4512SOL    HW114435   2.817   4.861   0.278
 4512SOL    HW214436   2.972   4.815   0.302
 4513SOL     OW14437   5.108   1.143   1.805
 4513SOL    HW114438   5.118   1.171   1.709
 4513SOL    HW214439   5.055   1.058   1.810
 4514SOL     OW14440   3.500   1.579   5.120
 4514SOL    HW114441   3.482   1.530   5.035
 4514SOL    HW214442   3.468   1.524   5.197
 4515SOL     OW14443   0.330   5.069   1.284
 4515SOL    HW114444   0.398   5.114   1.343
 4515SOL    HW214445   0.343   4.970   1.288
 4516SOL     OW14446   1.042   6.958   4.744
 4516SOL    HW114447   1.001   0.016   4.702
 4516SOL    HW214448   1.054   6.887   4.675
 4517SOL     OW14449   3.657   0.160   5.103
 4517SOL    HW114450   3.577   0.166   5.042
 4517SOL    HW214451   3.649   0.079   5.160
 4518SOL     OW14452   1.130   1.267   4.383
 4518SOL    HW114453   1.108   1.172   4.359
 4518SOL    HW214454   1.183   1.308   4.308
 4519SOL     OW14455   6.218   2.537   4.532
 4519SOL    HW114456   6.299   2.532   4.473
 4519SOL    HW214457   6.243   2.513   4.626
 4520SOL     OW14458   0.381   4.530   3.059
 4520SOL    HW114459   0.362   4.585   2.977
 4520SOL    HW214460   0.407   4.438   3.031
 4521SOL     OW14461   5.764   2.109   6.052
 4521SOL    HW114462   5.775   2.065   6.141
 4521SOL    HW214463   5.815   2.058   5.983
 4522SOL     OW14464   5.988   0.703   3.718
 4522SOL    HW114465   6.041   0.661   3.791
 4522SOL    HW214466   5.893   0.671   3.723
 4523SOL     OW14467   3.658   3.562   6.859
 4523SOL    HW114468   3.566   3.548   6.821
 4523SOL    HW214469   3.713   3.480   6.844
 4524SOL     OW14470   5.995   0.149   5.010
 4524SOL    HW114471   5.933   0.072   5.024
 4524SOL    HW214472   5.959   0.209   4.939
 4525SOL     OW14473   6.310   1.500   5.486
 4525SOL    HW114474   6.352   1.410   5.472
 4525SOL    HW214475   6.290   1.542   5.397
 4526SOL     OW14476   3.818   0.741   0.392
 4526SOL    HW114477   3.878   0.661   0.396
 4526SOL    HW214478   3.810   0.780   0.483
 4527SOL     OW14479   3.860   1.464   3.279
 4527SOL    HW114480   3.955   1.444   3.305
 4527SOL    HW214481   3.830   1.547   3.326
 4528SOL     OW14482   6.058   0.638   6.422
 4528SOL    HW114483   5.975   0.589   6.397
 4528SOL    HW214484   6.041   0.695   6.502
 4529SOL     OW14485   3.718   6.477   3.609
 4529SOL    HW114486   3.644   6.463   3.676
 4529SOL    HW214487   3.706   6.415   3.533
 4530SOL     OW14488   0.596   3.003   5.281
 4530SOL    HW114489   0.647   2.921   5.255
 4530SOL    HW214490   0.500   2.980   5.296
 4531SOL     OW14491   0.040   3.384   3.439
 4531SOL    HW114492   0.004   3.441   3.365
 4531SOL    HW214493   7.011   3.298   3.442
 4532SOL     OW14494   6.130   2.035   0.527
 4532SOL    HW114495   6.103   1.999   0.617
 4532SOL    HW214496   6.057   2.093   0.491
 4533SOL     OW14497   2.911   5.810   2.943
 4533SOL    HW114498   2.869   5.730   2.985
 4533SOL    HW214499   2.840   5.871   2.908
 4534SOL     OW14500   6.006   4.185   5.933
 4534SOL    HW114501   6.062   4.230   5.864
 4534SOL    HW214502   6.062   4.163   6.013
 4535SOL     OW14503   4.856   2.953   2.625
 4535SOL    HW114504   4.838   3.043   2.665
 4535SOL    HW214505   4.949   2.925   2.647
 4536SOL     OW14506   6.824   1.212   4.616
 4536SOL    HW114507   6.837   1.203   4.715
 4536SOL    HW214508   6.868   1.296   4.584
 4537SOL     OW14509   4.012   3.025   6.005
 4537SOL    HW114510   4.060   3.066   5.928
 4537SOL    HW214511   3.928   2.981   5.972
 4538SOL     OW14512   2.902   1.057   2.341
 4538SOL    HW114513   2.833   1.078   2.272
 4538SOL    HW214514   2.981   1.014   2.298
 4539SOL     OW14515   1.185   1.788   2.465
 4539SOL    HW114516   1.090   1.818   2.458
 4539SOL    HW214517   1.222   1.773   2.373
 4540SOL     OW14518   3.076   3.158   4.524
 4540SOL    HW114519   3.039   3.195   4.439
 4540SOL    HW214520   3.098   3.233   4.587
 4541SOL     OW14521   5.552   1.625   1.144
 4541SOL    HW114522   5.516   1.703   1.195
 4541SOL    HW214523   5.564   1.651   1.048
 4542SOL     OW14524   4.623   0.448   3.706
 4542SOL    HW114525   4.554   0.488   3.645
 4542SOL    HW214526   4.650   0.516   3.774
 4543SOL     OW14527   5.525   1.846   1.867
 4543SOL    HW114528   5.620   1.834   1.894
 4543SOL    HW214529   5.513   1.936   1.825
 4544SOL     OW14530   3.871   4.813   6.676
 4544SOL    HW114531   3.796   4.763   6.720
 4544SOL    HW214532   3.861   4.911   6.696
 4545SOL     OW14533   4.017   2.186   5.762
 4545SOL    HW114534   4.115   2.166   5.762
 4545SOL    HW214535   3.981   2.173   5.854
 4546SOL     OW14536   1.023   6.577   6.151
 4546SOL    HW114537   0.940   6.578   6.208
 4546SOL    HW214538   1.100   6.611   6.205
 4547SOL     OW14539   4.804   2.416   1.548
 4547SOL    HW114540   4.870   2.348   1.516
 4547SOL    HW214541   4.738   2.436   1.475
 4548SOL     OW14542   1.452   3.273   3.753
 4548SOL    HW114543   1.386   3.346   3.772
 4548SOL    HW214544   1.463   3.217   3.835
 4549SOL     OW14545   5.330   2.411   2.764
 4549SOL    HW114546   5.285   2.482   2.818
 4549SOL    HW214547   5.298   2.321   2.794
 4550SOL     OW14548   1.060   6.077   4.550
 4550SOL    HW114549   1.130   6.009   4.573
 4550SOL    HW214550   1.007   6.044   4.471
 4551SOL     OW14551   0.590   2.737   5.895
 4551SOL    HW114552   0.638   2.804   5.951
 4551SOL    HW214553   0.615   2.750   5.799
 4552SOL     OW14554   7.006   3.143   4.269
 4552SOL    HW114555   0.027   3.230   4.244
 4552SOL    HW214556   6.909   3.148   4.246
 4553SOL     OW14557   4.762   4.841   0.444
 4553SOL    HW114558   4.777   4.772   0.514
 4553SOL    HW214559   4.698   4.910   0.478
 4554SOL     OW14560   5.584   0.086   2.736
 4554SOL    HW114561   5.598   0.097   2.638
 4554SOL    HW214562   5.659   0.132   2.785
 4555SOL     OW14563   5.251   1.529   6.886
 4555SOL    HW114564   5.285   1.584   6.962
 4555SOL    HW214565   5.262   1.432   6.907
 4556SOL     OW14566   4.504   1.283   4.261
 4556SOL    HW114567   4.478   1.379   4.252
 4556SOL    HW214568   4.556   1.255   4.180
 4557SOL     OW14569   5.196   0.377   5.880
 4557SOL    HW114570   5.161   0.379   5.787
 4557SOL    HW214571   5.191   0.469   5.920
 4558SOL     OW14572   6.521   2.796   5.938
 4558SOL    HW114573   6.563   2.806   6.029
 4558SOL    HW214574   6.442   2.735   5.945
 4559SOL     OW14575   0.954   6.758   1.191
 4559SOL    HW114576   0.876   6.790   1.136
 4559SOL    HW214577   0.922   6.691   1.258
 4560SOL     OW14578   4.892   2.972   3.026
 4560SOL    HW114579   4.982   2.971   3.068
 4560SOL    HW214580   4.824   3.001   3.094
 4561SOL     OW14581   2.943   0.421   6.230
 4561SOL    HW114582   2.989   0.399   6.144
 4561SOL    HW214583   2.898   0.339   6.266
 4562SOL     OW14584   3.330   5.236   5.847
 4562SOL    HW114585   3.278   5.192   5.773
 4562SOL    HW214586   3.404   5.176   5.876
 4563SOL     OW14587   5.524   2.263   6.533
 4563SOL    HW114588   5.489   2.357   6.532
 4563SOL    HW214589   5.624   2.265   6.541
 4564SOL     OW14590   1.790   5.870   6.923
 4564SOL    HW114591   1.706   5.854   6.975
 4564SOL    HW214592   1.846   5.939   6.970
 4565SOL     OW14593   1.955   0.498   4.389
 4565SOL    HW114594   1.876   0.443   4.361
 4565SOL    HW214595   1.929   0.594   4.396
 4566SOL     OW14596   0.847   1.974   0.292
 4566SOL    HW114597   0.786   1.943   0.219
 4566SOL    HW214598   0.920   1.906   0.305
 4567SOL     OW14599   6.783   1.139   0.841
 4567SOL    HW114600   6.716   1.209   0.866
 4567SOL    HW214601   6.790   1.072   0.914
 4568SOL     OW14602   3.292   4.948   5.056
 4568SOL    HW114603   3.197   4.957   5.086
 4568SOL    HW214604   3.296   4.953   4.957
 4569SOL     OW14605   0.390   1.964   4.468
 4569SOL    HW114606   0.451   1.985   4.392
 4569SOL    HW214607   0.438   1.908   4.535
 4570SOL     OW14608   0.056   4.963   4.094
 4570SOL    HW114609   0.040   4.991   4.000
 4570SOL    HW214610   6.997   4.984   4.149
 4571SOL     OW14611   3.419   3.346   4.526
 4571SOL    HW114612   3.355   3.306   4.591
 4571SOL    HW214613   3.494   3.282   4.509
 4572SOL     OW14614   2.155   6.136   1.585
 4572SOL    HW114615   2.132   6.135   1.682
 4572SOL    HW214616   2.083   6.181   1.533
 4573SOL     OW14617   5.733   7.017   0.755
 4573SOL    HW114618   5.664   6.994   0.686
 4573SOL    HW214619   5.809   6.952   0.750
 4574SOL     OW14620   0.991   4.550   2.566
 4574SOL    HW114621   1.089   4.567   2.562
 4574SOL    HW214622   0.969   4.468   2.513
 4575SOL     OW14623   6.580   0.056   2.284
 4575SOL    HW114624   6.652   0.083   2.221
 4575SOL    HW214625   6.608   6.997   2.334
 4576SOL     OW14626   3.222   5.699   5.066
 4576SOL    HW114627   3.139   5.726   5.019
 4576SOL    HW214628   3.212   5.713   5.165
 4577SOL     OW14629   0.721   2.655   3.633
 4577SOL    HW114630   0.707   2.638   3.730
 4577SOL    HW214631   0.815   2.632   3.607
 4578SOL     OW14632   0.141   4.044   3.727
 4578SOL    HW114633   0.139   4.079   3.821
 4578SOL    HW214634   0.234   4.017   3.703
 4579SOL     OW14635   5.585   2.104   4.076
 4579SOL    HW114636   5.594   2.196   4.037
 4579SOL    HW214637   5.489   2.078   4.077
 4580SOL     OW14638   6.970   5.356   0.689
 4580SOL    HW114639   6.973   5.278   0.626
 4580SOL    HW214640   6.934   5.326   0.777
 4581SOL     OW14641   3.789   5.936   3.234
 4581SOL    HW114642   3.816   6.016   3.180
 4581SOL    HW214643   3.690   5.926   3.231
 4582SOL     OW14644   4.654   6.791   2.566
 4582SOL    HW114645   4.623   6.725   2.499
 4582SOL    HW214646   4.632   6.884   2.535
 4583SOL     OW14647   4.941   2.108   5.267
 4583SOL    HW114648   4.945   2.192   5.213
 4583SOL    HW214649   4.911   2.032   5.209
 4584SOL     OW14650   0.648   4.591   5.377
 4584SOL    HW114651   0.601   4.668   5.335
 4584SOL    HW214652   0.581   4.522   5.405
 4585SOL     OW14653   3.904   6.360   2.843
 4585SOL    HW114654   3.887   6.271   2.801
 4585SOL    HW214655   3.973   6.409   2.789
 4586SOL     OW14656   3.359   5.828   2.019
 4586SOL    HW114657   3.355   5.892   2.095
 4586SOL    HW214658   3.450   5.788   2.013
 4587SOL     OW14659   2.055   4.262   0.923
 4587SOL    HW114660   1.989   4.198   0.961
 4587SOL    HW214661   2.133   4.272   0.986
 4588SOL     OW14662   4.602   4.048   5.246
 4588SOL    HW114663   4.661   4.024   5.323
 4588SOL    HW214664   4.506   4.043   5.275
 4589SOL     OW14665   0.129   1.914   3.944
 4589SOL    HW114666   0.197   1.950   4.008
 4589SOL    HW214667   0.060   1.862   3.994
 4590SOL     OW14668   5.037   5.750   2.672
 4590SOL    HW114669   5.136   5.736   2.679
 4590SOL    HW214670   4.996   5.675   2.620
 4591SOL     OW14671   6.082   5.641   5.131
 4591SOL    HW114672   6.082   5.568   5.063
 4591SOL    HW214673   6.137   5.718   5.097
 4592SOL     OW14674   3.251   2.035   5.741
 4592SOL    HW114675   3.232   2.038   5.839
 4592SOL    HW214676   3.178   2.083   5.692
 4593SOL     OW14677   3.492   6.528   2.150
 4593SOL    HW114678   3.409   6.581   2.171
 4593SOL    HW214679   3.466   6.442   2.108
 4594SOL     OW14680   2.872   1.292   2.524
 4594SOL    HW114681   2.887   1.199   2.491
 4594SOL    HW214682   2.957   1.344   2.517
 4595SOL     OW14683   4.357   2.339   5.768
 4595SOL    HW114684   4.319   2.258   5.813
 4595SOL    HW214685   4.287   2.409   5.761
 4596SOL     OW14686   6.059   6.945   1.890
 4596SOL    HW114687   6.114   6.943   1.807
 4596SOL    HW214688   6.111   6.903   1.965
 4597SOL     OW14689   6.426   4.731   6.873
 4597SOL    HW114690   6.358   4.717   6.945
 4597SOL    HW214691   6.408   4.666   6.798
 4598SOL     OW14692   3.251   4.976   0.118
 4598SOL    HW114693   3.204   4.908   0.174
 4598SOL    HW214694   3.239   5.066   0.160
 4599SOL     OW14695   1.545   4.985   0.582
 4599SOL    HW114696   1.587   5.007   0.494
 4599SOL    HW214697   1.462   5.040   0.594
 4600SOL     OW14698   3.187   5.250   1.395
 4600SOL    HW114699   3.136   5.256   1.309
 4600SOL    HW214700   3.274   5.202   1.378
 4601SOL     OW14701   2.024   6.070   4.980
 4601SOL    HW114702   2.031   6.073   4.880
 4601SOL    HW214703   1.973   5.989   5.008
 4602SOL     OW14704   2.208   0.642   1.122
 4602SOL    HW114705   2.305   0.622   1.131
 4602SOL    HW214706   2.174   0.682   1.208
 4603SOL     OW14707   3.328   0.147   2.165
 4603SOL    HW114708   3.265   0.201   2.110
 4603SOL    HW214709   3.404   0.205   2.195
 4604SOL     OW14710   2.973   6.920   2.291
 4604SOL    HW114711   2.933   6.830   2.273
 4604SOL    HW214712   2.905   6.978   2.336
 4605SOL     OW14713   5.142   0.402   5.609
 4605SOL    HW114714   5.148   0.311   5.568
 4605SOL    HW214715   5.196   0.467   5.555
 4606SOL     OW14716   6.925   6.504   5.383
 4606SOL    HW114717   6.913   6.426   5.445
 4606SOL    HW214718   6.843   6.517   5.328
 4607SOL     OW14719   2.711   1.818   1.085
 4607SOL    HW114720   2.733   1.860   1.173
 4607SOL    HW214721   2.611   1.818   1.072
 4608SOL     OW14722   1.552   3.515   5.739
 4608SOL    HW114723   1.632   3.514   5.799
 4608SOL    HW214724   1.563   3.447   5.667
 4609SOL     OW14725   4.304   6.841   6.056
 4609SOL    HW114726   4.267   6.916   6.002
 4609SOL    HW214727   4.403   6.833   6.040
 4610SOL     OW14728   0.596   3.298   6.688
 4610SOL    HW114729   0.564   3.207   6.711
 4610SOL    HW214730   0.522   3.364   6.702
 4611SOL     OW14731   0.973   3.871   0.261
 4611SOL    HW114732   1.058   3.818   0.258
 4611SOL    HW214733   0.897   3.815   0.229
 4612SOL     OW14734   2.142   0.224   6.297
 4612SOL    HW114735   2.160   0.165   6.376
 4612SOL    HW214736   2.228   0.261   6.262
 4613SOL     OW14737   2.968   5.671   1.928
 4613SOL    HW114738   2.994   5.763   1.957
 4613SOL    HW214739   2.878   5.674   1.883
 4614SOL     OW14740   2.124   5.619   0.168
 4614SOL    HW114741   2.170   5.531   0.183
 4614SOL    HW214742   2.186   5.681   0.121
 4615SOL     OW14743   0.197   2.514   0.098
 4615SOL    HW114744   0.104   2.480   0.114
 4615SOL    HW214745   0.262   2.463   0.156
 4616SOL     OW14746   5.486   0.996   6.920
 4616SOL    HW114747   5.533   0.935   6.984
 4616SOL    HW214748   5.463   0.945   6.837
 4617SOL     OW14749   0.177   3.027   1.892
 4617SOL    HW114750   0.259   3.066   1.850
 4617SOL    HW214751   0.157   3.076   1.978
 4618SOL     OW14752   0.785   1.826   6.154
 4618SOL    HW114753   0.729   1.902   6.121
 4618SOL    HW214754   0.814   1.770   6.076
 4619SOL     OW14755   3.307   0.984   4.085
 4619SOL    HW114756   3.379   0.956   4.021
 4619SOL    HW214757   3.240   0.910   4.092
 4620SOL     OW14758   2.104   4.239   6.215
 4620SOL    HW114759   2.166   4.167   6.185
 4620SOL    HW214760   2.021   4.237   6.160
 4621SOL     OW14761   0.253   5.927   5.929
 4621SOL    HW114762   0.339   5.971   5.901
 4621SOL    HW214763   0.184   5.940   5.858
 4622SOL     OW14764   2.462   3.317   1.193
 4622SOL    HW114765   2.392   3.261   1.148
 4622SOL    HW214766   2.438   3.414   1.186
 4623SOL     OW14767   5.854   4.478   1.890
 4623SOL    HW114768   5.936   4.524   1.924
 4623SOL    HW214769   5.798   4.448   1.968
 4624SOL     OW14770   4.907   0.198   5.432
 4624SOL    HW114771   4.825   0.174   5.485
 4624SOL    HW214772   4.912   0.139   5.351
 4625SOL     OW14773   0.685   2.945   6.710
 4625SOL    HW114774   0.765   2.942   6.650
 4625SOL    HW214775   0.690   2.870   6.776
 4626SOL     OW14776   6.043   5.046   1.829
 4626SOL    HW114777   6.051   4.971   1.764
 4626SOL    HW214778   6.045   5.011   1.923
 4627SOL     OW14779   2.226   0.842   6.043
 4627SOL    HW114780   2.274   0.789   5.974
 4627SOL    HW214781   2.260   0.819   6.134
 4628SOL     OW14782   6.898   4.237   1.983
 4628SOL    HW114783   6.865   4.146   1.957
 4628SOL    HW214784   6.850   4.306   1.931
 4629SOL     OW14785   3.390   5.091   5.390
 4629SOL    HW114786   3.350   5.175   5.427
 4629SOL    HW214787   3.341   5.012   5.425
 4630SOL     OW14788   1.892   0.078   3.009
 4630SOL    HW114789   1.842   0.157   2.975
 4630SOL    HW214790   1.982   0.074   2.965
 4631SOL     OW14791   2.359   0.154   2.733
 4631SOL    HW114792   2.445   0.118   2.771
 4631SOL    HW214793   2.359   0.253   2.741
 4632SOL     OW14794   4.908   5.065   3.944
 4632SOL    HW114795   4.853   5.091   3.865
 4632SOL    HW214796   5.004   5.088   3.926
 4633SOL     OW14797   5.951   2.279   5.537
 4633SOL    HW114798   5.949   2.183   5.509
 4633SOL    HW214799   6.040   2.300   5.577
 4634SOL     OW14800   3.202   4.377   0.765
 4634SOL    HW114801   3.171   4.293   0.721
 4634SOL    HW214802   3.160   4.385   0.855
 4635SOL     OW14803   5.481   4.161   1.304
 4635SOL    HW114804   5.468   4.181   1.206
 4635SOL    HW214805   5.420   4.085   1.330
 4636SOL     OW14806   1.909   5.440   0.850
 4636SOL    HW114807   1.924   5.349   0.890
 4636SOL    HW214808   1.997   5.478   0.820
 4637SOL     OW14809   1.414   0.992   5.450
 4637SOL    HW114810   1.497   0.941   5.427
 4637SOL    HW214811   1.385   0.969   5.543
 4638SOL     OW14812   5.213   3.494   6.100
 4638SOL    HW114813   5.293   3.531   6.145
 4638SOL    HW214814   5.133   3.503   6.159
 4639SOL     OW14815   6.938   3.654   5.201
 4639SOL    HW114816   6.869   3.717   5.236
 4639SOL    HW214817   6.950   3.669   5.103
 4640SOL     OW14818   5.610   4.201   2.650
 4640SOL    HW114819   5.612   4.301   2.652
 4640SOL    HW214820   5.589   4.170   2.557
 4641SOL     OW14821   2.563   4.669   5.303
 4641SOL    HW114822   2.472   4.637   5.275
 4641SOL    HW214823   2.599   4.731   5.233
 4642SOL     OW14824   5.649   5.762   4.541
 4642SOL    HW114825   5.633   5.730   4.448
 4642SOL    HW214826   5.724   5.710   4.582
 4643SOL     OW14827   3.618   2.832   1.530
 4643SOL    HW114828   3.611   2.809   1.433
 4643SOL    HW214829   3.534   2.877   1.560
 4644SOL     OW14830   2.383   4.938   5.026
 4644SOL    HW114831   2.438   5.000   4.970
 4644SOL    HW214832   2.435   4.910   5.106
 4645SOL     OW14833   1.890   5.847   5.061
 4645SOL    HW114834   1.885   5.749   5.040
 4645SOL    HW214835   1.807   5.875   5.109
 4646SOL     OW14836   3.661   0.176   1.898
 4646SOL    HW114837   3.612   0.094   1.869
 4646SOL    HW214838   3.610   0.257   1.870
 4647SOL     OW14839   6.659   0.458   4.877
 4647SOL    HW114840   6.606   0.374   4.892
 4647SOL    HW214841   6.720   0.446   4.799
 4648SOL     OW14842   2.350   5.003   2.804
 4648SOL    HW114843   2.290   4.948   2.861
 4648SOL    HW214844   2.445   4.988   2.830
 4649SOL     OW14845   5.635   0.193   6.059
 4649SOL    HW114846   5.688   0.278   6.059
 4649SOL    HW214847   5.620   0.164   5.964
 4650SOL     OW14848   6.862   4.684   1.998
 4650SOL    HW114849   6.803   4.759   2.028
 4650SOL    HW214850   6.936   4.721   1.941
 4651SOL     OW14851   0.350   1.993   1.418
 4651SOL    HW114852   0.300   1.914   1.383
 4651SOL    HW214853   0.331   2.073   1.361
 4652SOL     OW14854   0.144   6.249   5.821
 4652SOL    HW114855   0.052   6.231   5.857
 4652SOL    HW214856   0.211   6.237   5.894
 4653SOL     OW14857   0.640   5.839   6.755
 4653SOL    HW114858   0.562   5.899   6.773
 4653SOL    HW214859   0.677   5.858   6.665
 4654SOL     OW14860   1.060   1.261   6.489
 4654SOL    HW114861   1.022   1.316   6.414
 4654SOL    HW214862   0.991   1.196   6.521
 4655SOL     OW14863   0.460   5.333   3.358
 4655SOL    HW114864   0.391   5.298   3.422
 4655SOL    HW214865   0.529   5.263   3.340
 4656SOL     OW14866   1.880   6.675   3.201
 4656SOL    HW114867   1.859   6.634   3.112
 4656SOL    HW214868   1.795   6.698   3.247
 4657SOL     OW14869   5.860   0.192   6.846
 4657SOL    HW114870   5.921   0.181   6.924
 4657SOL    HW214871   5.915   0.205   6.763
 4658SOL     OW14872   5.394   0.957   3.437
 4658SOL    HW114873   5.356   0.898   3.365
 4658SOL    HW214874   5.466   0.907   3.485
 4659SOL     OW14875   2.209   2.435   4.376
 4659SOL    HW114876   2.297   2.409   4.417
 4659SOL    HW214877   2.225   2.493   4.296
 4660SOL     OW14878   6.769   0.696   5.886
 4660SOL    HW114879   6.850   0.640   5.901
 4660SOL    HW214880   6.701   0.644   5.834
 4661SOL     OW14881   4.100   3.318   3.427
 4661SOL    HW114882   4.012   3.366   3.423
 4661SOL    HW214883   4.173   3.383   3.445
 4662SOL     OW14884   5.246   0.635   4.911
 4662SOL    HW114885   5.180   0.707   4.890
 4662SOL    HW214886   5.253   0.623   5.010
 4663SOL     OW14887   0.326   1.858   2.595
 4663SOL    HW114888   0.292   1.944   2.557
 4663SOL    HW214889   0.304   1.854   2.692
 4664SOL     OW14890   3.456   2.417   6.906
 4664SOL    HW114891   3.367   2.454   6.878
 4664SOL    HW214892   3.478   2.338   6.849
 4665SOL     OW14893   5.358   0.866   0.211
 4665SOL    HW114894   5.339   0.961   0.191
 4665SOL    HW214895   5.454   0.846   0.191
 4666SOL     OW14896   2.034   1.177   0.582
 4666SOL    HW114897   2.053   1.155   0.486
 4666SOL    HW214898   1.952   1.233   0.587
 4667SOL     OW14899   0.681   5.348   5.881
 4667SOL    HW114900   0.590   5.361   5.842
 4667SOL    HW214901   0.674   5.303   5.970
 4668SOL     OW14902   5.892   1.968   4.460
 4668SOL    HW114903   5.810   1.966   4.517
 4668SOL    HW214904   5.938   2.056   4.470
 4669SOL     OW14905   2.870   0.304   0.608
 4669SOL    HW114906   2.929   0.367   0.556
 4669SOL    HW214907   2.925   0.251   0.671
 4670SOL     OW14908   1.988   1.148   4.326
 4670SOL    HW114909   2.003   1.139   4.425
 4670SOL    HW214910   2.015   1.064   4.280
 4671SOL     OW14911   5.803   3.355   1.162
 4671SOL    HW114912   5.777   3.330   1.255
 4671SOL    HW214913   5.730   3.328   1.099
 4672SOL     OW14914   2.313   3.716   5.825
 4672SOL    HW114915   2.215   3.720   5.843
 4672SOL    HW214916   2.328   3.708   5.726
 4673SOL     OW14917   3.513   0.536   2.645
 4673SOL    HW114918   3.560   0.537   2.557
 4673SOL    HW214919   3.420   0.570   2.634
 4674SOL     OW14920   4.319   6.436   6.172
 4674SOL    HW114921   4.288   6.522   6.214
 4674SOL    HW214922   4.419   6.435   6.170
 4675SOL     OW14923   1.359   4.084   6.317
 4675SOL    HW114924   1.443   4.138   6.301
 4675SOL    HW214925   1.307   4.079   6.232
 4676SOL     OW14926   1.116   5.641   4.098
 4676SOL    HW114927   1.038   5.670   4.041
 4676SOL    HW214928   1.192   5.613   4.040
 4677SOL     OW14929   1.003   3.637   0.738
 4677SOL    HW114930   0.972   3.721   0.694
 4677SOL    HW214931   0.936   3.610   0.808
 4678SOL     OW14932   2.407   4.507   2.514
 4678SOL    HW114933   2.462   4.589   2.495
 4678SOL    HW214934   2.424   4.478   2.609
 4679SOL     OW14935   4.391   0.090   1.571
 4679SOL    HW114936   4.393   0.086   1.671
 4679SOL    HW214937   4.345   0.009   1.535
 4680SOL     OW14938   2.225   0.855   0.946
 4680SOL    HW114939   2.192   0.813   1.031
 4680SOL    HW214940   2.307   0.807   0.915
 4681SOL     OW14941   4.776   5.283   1.493
 4681SOL    HW114942   4.719   5.360   1.522
 4681SOL    HW214943   4.871   5.314   1.483
 4682SOL     OW14944   3.803   4.043   6.881
 4682SOL    HW114945   3.789   3.981   6.958
 4682SOL    HW214946   3.868   4.115   6.906
 4683SOL     OW14947   6.305   4.873   4.245
 4683SOL    HW114948   6.205   4.871   4.244
 4683SOL    HW214949   6.338   4.846   4.336
 4684SOL     OW14950   5.415   0.135   0.273
 4684SOL    HW114951   5.359   0.216   0.257
 4684SOL    HW214952   5.428   0.122   0.371
 4685SOL     OW14953   3.030   3.915   5.305
 4685SOL    HW114954   2.946   3.867   5.329
 4685SOL    HW214955   3.014   3.973   5.225
 4686SOL     OW14956   3.353   5.684   0.499
 4686SOL    HW114957   3.272   5.740   0.481
 4686SOL    HW214958   3.376   5.688   0.596
 4687SOL     OW14959   3.086   0.705   2.857
 4687SOL    HW114960   3.102   0.613   2.892
 4687SOL    HW214961   2.988   0.720   2.845
 4688SOL     OW14962   5.835   3.327   5.381
 4688SOL    HW114963   5.868   3.379   5.302
 4688SOL    HW214964   5.802   3.391   5.451
 4689SOL     OW14965   5.673   0.794   2.204
 4689SOL    HW114966   5.702   0.855   2.277
 4689SOL    HW214967   5.647   0.705   2.244
 4690SOL     OW14968   2.053   2.361   1.008
 4690SOL    HW114969   2.150   2.339   1.011
 4690SOL    HW214970   1.999   2.279   1.033
 4691SOL     OW14971   6.625   4.091   1.542
 4691SOL    HW114972   6.620   4.019   1.613
 4691SOL    HW214973   6.633   4.180   1.586
 4692SOL     OW14974   5.597   3.325   2.082
 4692SOL    HW114975   5.513   3.352   2.131
 4692SOL    HW214976   5.676   3.364   2.129
 4693SOL     OW14977   1.790   1.086   3.723
 4693SOL    HW114978   1.758   0.996   3.754
 4693SOL    HW214979   1.749   1.157   3.780
 4694SOL     OW14980   1.965   0.901   0.416
 4694SOL    HW114981   2.012   0.812   0.411
 4694SOL    HW214982   2.023   0.972   0.376
 4695SOL     OW14983   1.323   6.065   1.583
 4695SOL    HW114984   1.249   6.121   1.618
 4695SOL    HW214985   1.387   6.121   1.531
 4696SOL     OW14986   1.967   5.347   5.990
 4696SOL    HW114987   1.932   5.349   5.896
 4696SOL    HW214988   1.896   5.315   6.052
 4697SOL     OW14989   4.157   5.109   1.435
 4697SOL    HW114990   4.157   5.202   1.473
 4697SOL    HW214991   4.178   5.044   1.508
 4698SOL     OW14992   5.229   1.348   3.774
 4698SOL    HW114993   5.310   1.330   3.830
 4698SOL    HW214994   5.159   1.392   3.830
 4699SOL     OW14995   1.645   6.976   2.439
 4699SOL    HW114996   1.567   6.996   2.498
 4699SOL    HW214997   1.720   0.017   2.459
 4700SOL     OW14998   5.881   2.008   2.328
 4700SOL    HW114999   5.896   2.067   2.407
 4700SOL    HW215000   5.809   1.941   2.348
 4701SOL     OW15001   3.027   2.334   1.655
 4701SOL    HW115002   3.013   2.379   1.743
 4701SOL    HW215003   3.125   2.323   1.638
 4702SOL     OW15004   5.471   4.955   6.721
 4702SOL    HW115005   5.415   4.888   6.770
 4702SOL    HW215006   5.564   4.920   6.712
 4703SOL     OW15007   0.926   5.290   3.469
 4703SOL    HW115008   0.891   5.349   3.395
 4703SOL    HW215009   0.849   5.240   3.510
 4704SOL     OW15010   1.143   5.371   5.228
 4704SOL    HW115011   1.215   5.332   5.286
 4704SOL    HW215012   1.184   5.430   5.159
 4705SOL     OW15013   3.565   1.944   1.584
 4705SOL    HW115014   3.469   1.920   1.567
 4705SOL    HW215015   3.571   2.041   1.606
 4706SOL     OW15016   2.610   1.301   0.416
 4706SOL    HW115017   2.677   1.355   0.467
 4706SOL    HW215018   2.519   1.338   0.431
 4707SOL     OW15019   1.536   6.373   1.782
 4707SOL    HW115020   1.478   6.454   1.797
 4707SOL    HW215021   1.632   6.400   1.782
 4708SOL     OW15022   1.018   2.511   4.622
 4708SOL    HW115023   1.090   2.495   4.690
 4708SOL    HW215024   1.031   2.449   4.544
 4709SOL     OW15025   4.894   3.798   5.274
 4709SOL    HW115026   4.860   3.749   5.194
 4709SOL    HW215027   4.956   3.738   5.326
 4710SOL     OW15028   6.429   6.003   4.805
 4710SOL    HW115029   6.423   6.042   4.713
 4710SOL    HW215030   6.505   6.045   4.854
 4711SOL     OW15031   5.084   3.904   2.880
 4711SOL    HW115032   5.179   3.880   2.862
 4711SOL    HW215033   5.038   3.827   2.925
 4712SOL     OW15034   4.858   4.480   5.582
 4712SOL    HW115035   4.920   4.458   5.657
 4712SOL    HW215036   4.843   4.398   5.526
 4713SOL     OW15037   6.215   4.204   1.215
 4713SOL    HW115038   6.264   4.144   1.278
 4713SOL    HW215039   6.269   4.285   1.197
 4714SOL     OW15040   4.601   1.656   6.489
 4714SOL    HW115041   4.696   1.662   6.519
 4714SOL    HW215042   4.545   1.620   6.564
 4715SOL     OW15043   6.129   1.172   2.061
 4715SOL    HW115044   6.129   1.099   2.129
 4715SOL    HW215045   6.120   1.260   2.108
 4716SOL     OW15046   4.061   4.872   6.019
 4716SOL    HW115047   4.062   4.782   5.976
 4716SOL    HW215048   3.983   4.878   6.081
 4717SOL     OW15049   2.673   5.002   5.564
 4717SOL    HW115050   2.683   5.069   5.638
 4717SOL    HW215051   2.736   5.025   5.490
 4718SOL     OW15052   4.942   4.361   0.867
 4718SOL    HW115053   4.936   4.455   0.832
 4718SOL    HW215054   5.038   4.340   0.888
 4719SOL     OW15055   0.391   3.989   3.672
 4719SOL    HW115056   0.462   4.003   3.740
 4719SOL    HW215057   0.430   3.946   3.590
 4720SOL     OW15058   2.296   3.540   6.699
 4720SOL    HW115059   2.247   3.604   6.639
 4720SOL    HW215060   2.244   3.525   6.782
 4721SOL     OW15061   6.456   2.763   2.742
 4721SOL    HW115062   6.477   2.858   2.719
 4721SOL    HW215063   6.366   2.759   2.785
 4722SOL     OW15064   1.239   5.342   0.149
 4722SOL    HW115065   1.206   5.248   0.133
 4722SOL    HW215066   1.235   5.361   0.247
 4723SOL     OW15067   4.017   3.937   0.198
 4723SOL    HW115068   3.918   3.945   0.192
 4723SOL    HW215069   4.041   3.885   0.280
 4724SOL     OW15070   0.780   6.360   4.621
 4724SOL    HW115071   0.744   6.270   4.596
 4724SOL    HW215072   0.772   6.373   4.720
 4725SOL     OW15073   5.292   5.700   1.052
 4725SOL    HW115074   5.254   5.792   1.064
 4725SOL    HW215075   5.240   5.651   0.983
 4726SOL     OW15076   1.190   3.404   5.537
 4726SOL    HW115077   1.135   3.449   5.608
 4726SOL    HW215078   1.276   3.455   5.525
 4727SOL     OW15079   0.137   5.215   1.369
 4727SOL    HW115080   0.207   5.157   1.327
 4727SOL    HW215081   0.182   5.286   1.423
 4728SOL     OW15082   6.784   1.808   4.860
 4728SOL    HW115083   6.806   1.852   4.773
 4728SOL    HW215084   6.694   1.765   4.854
 4729SOL     OW15085   5.853   1.553   1.793
 4729SOL    HW115086   5.865   1.465   1.748
 4729SOL    HW215087   5.779   1.547   1.860
 4730SOL     OW15088   2.926   7.020   4.449
 4730SOL    HW115089   3.010   0.046   4.427
 4730SOL    HW215090   2.900   0.017   4.543
 4731SOL     OW15091   3.293   6.491   0.441
 4731SOL    HW115092   3.198   6.521   0.434
 4731SOL    HW215093   3.340   6.508   0.354
 4732SOL     OW15094   0.583   5.010   4.482
 4732SOL    HW115095   0.577   5.105   4.449
 4732SOL    HW215096   0.603   5.010   4.580
 4733SOL     OW15097   1.851   3.545   3.338
 4733SOL    HW115098   1.756   3.533   3.308
 4733SOL    HW215099   1.904   3.464   3.314
 4734SOL     OW15100   4.509   3.340   6.765
 4734SOL    HW115101   4.604   3.328   6.794
 4734SOL    HW215102   4.470   3.419   6.812
 4735SOL     OW15103   0.038   0.375   5.062
 4735SOL    HW115104   0.067   0.293   5.112
 4735SOL    HW215105   0.016   0.350   4.968
 4736SOL     OW15106   6.590   2.022   3.747
 4736SOL    HW115107   6.526   2.076   3.802
 4736SOL    HW215108   6.570   2.035   3.650
 4737SOL     OW15109   2.130   4.973   0.253
 4737SOL    HW115110   2.121   4.970   0.352
 4737SOL    HW215111   2.062   5.036   0.215
 4738SOL     OW15112   1.465   6.523   3.552
 4738SOL    HW115113   1.522   6.499   3.630
 4738SOL    HW215114   1.444   6.621   3.555
 4739SOL     OW15115   5.966   3.067   3.265
 4739SOL    HW115116   6.048   3.123   3.261
 4739SOL    HW215117   5.962   3.020   3.353
 4740SOL     OW15118   1.200   0.818   1.977
 4740SOL    HW115119   1.103   0.822   2.001
 4740SOL    HW215120   1.219   0.730   1.932
 4741SOL     OW15121   4.336   4.504   1.909
 4741SOL    HW115122   4.360   4.409   1.885
 4741SOL    HW215123   4.401   4.538   1.976
 4742SOL     OW15124   2.389   6.018   2.202
 4742SOL    HW115125   2.420   6.051   2.112
 4742SOL    HW215126   2.436   6.069   2.274
 4743SOL     OW15127   2.306   2.608   0.377
 4743SOL    HW115128   2.209   2.612   0.399
 4743SOL    HW215129   2.320   2.550   0.297
 4744SOL     OW15130   1.687   3.111   4.849
 4744SOL    HW115131   1.628   3.184   4.814
 4744SOL    HW215132   1.777   3.118   4.806
 4745SOL     OW15133   3.007   5.945   4.959
 4745SOL    HW115134   2.979   5.850   4.952
 4745SOL    HW215135   3.070   5.968   4.885
 4746SOL     OW15136   6.386   0.480   0.518
 4746SOL    HW115137   6.473   0.466   0.470
 4746SOL    HW215138   6.395   0.449   0.613
 4747SOL     OW15139   6.382   2.689   1.534
 4747SOL    HW115140   6.331   2.637   1.465
 4747SOL    HW215141   6.319   2.722   1.604
 4748SOL     OW15142   2.004   0.863   1.236
 4748SOL    HW115143   2.068   0.912   1.295
 4748SOL    HW215144   1.913   0.867   1.277
 4749SOL     OW15145   1.604   0.030   6.456
 4749SOL    HW115146   1.642   6.962   6.436
 4749SOL    HW215147   1.655   0.072   6.531
 4750SOL     OW15148   0.119   1.642   4.592
 4750SOL    HW115149   0.082   1.558   4.631
 4750SOL    HW215150   0.097   1.719   4.651
 4751SOL     OW15151   1.067   3.409   6.552
 4751SOL    HW115152   1.087   3.498   6.593
 4751SOL    HW215153   1.149   3.375   6.506
 4752SOL     OW15154   2.915   6.239   1.741
 4752SOL    HW115155   2.884   6.318   1.794
 4752SOL    HW215156   2.894   6.253   1.644
 4753SOL     OW15157   0.029   6.839   4.542
 4753SOL    HW115158   7.007   6.837   4.453
 4753SOL    HW215159   0.128   6.828   4.531
 4754SOL     OW15160   0.824   0.027   5.280
 4754SOL    HW115161   0.802   0.116   5.320
 4754SOL    HW215162   0.865   6.991   5.349
 4755SOL     OW15163   2.543   1.895   0.670
 4755SOL    HW115164   2.465   1.872   0.611
 4755SOL    HW215165   2.609   1.948   0.617
 4756SOL     OW15166   5.471   3.019   1.155
 4756SOL    HW115167   5.445   2.934   1.200
 4756SOL    HW215168   5.570   3.032   1.162
 4757SOL     OW15169   2.172   2.105   1.255
 4757SOL    HW115170   2.093   2.165   1.264
 4757SOL    HW215171   2.255   2.159   1.242
 4758SOL     OW15172   5.091   4.624   5.149
 4758SOL    HW115173   5.159   4.631   5.076
 4758SOL    HW215174   5.057   4.716   5.170
 4759SOL     OW15175   6.069   4.979   5.429
 4759SOL    HW115176   6.010   4.901   5.447
 4759SOL    HW215177   6.105   4.973   5.336
 4760SOL     OW15178   1.403   2.171   0.935
 4760SOL    HW115179   1.324   2.213   0.980
 4760SOL    HW215180   1.371   2.109   0.864
 4761SOL     OW15181   1.117   5.976   5.839
 4761SOL    HW115182   1.151   5.996   5.930
 4761SOL    HW215183   1.116   6.060   5.785
 4762SOL     OW15184   3.051   6.489   2.444
 4762SOL    HW115185   3.148   6.473   2.428
 4762SOL    HW215186   3.028   6.459   2.536
 4763SOL     OW15187   5.852   5.263   4.819
 4763SOL    HW115188   5.876   5.325   4.743
 4763SOL    HW215189   5.795   5.313   4.885
 4764SOL     OW15190   4.156   3.482   4.898
 4764SOL    HW115191   4.204   3.477   4.811
 4764SOL    HW215192   4.211   3.534   4.964
 4765SOL     OW15193   6.425   5.002   4.864
 4765SOL    HW115194   6.491   4.973   4.934
 4765SOL    HW215195   6.343   4.945   4.869
 4766SOL     OW15196   3.072   0.414   3.488
 4766SOL    HW115197   3.076   0.314   3.496
 4766SOL    HW215198   3.137   0.444   3.417
 4767SOL     OW15199   4.581   5.550   6.260
 4767SOL    HW115200   4.511   5.491   6.221
 4767SOL    HW215201   4.559   5.568   6.356
 4768SOL     OW15202   0.336   0.955   4.935
 4768SOL    HW115203   0.380   0.865   4.945
 4768SOL    HW215204   0.304   0.966   4.841
 4769SOL     OW15205   3.470   6.800   1.477
 4769SOL    HW115206   3.521   6.851   1.546
 4769SOL    HW215207   3.450   6.708   1.511
 4770SOL     OW15208   2.601   0.261   3.710
 4770SOL    HW115209   2.552   0.277   3.796
 4770SOL    HW215210   2.678   0.325   3.704
 4771SOL     OW15211   4.140   4.184   5.704
 4771SOL    HW115212   4.080   4.202   5.782
 4771SOL    HW215213   4.144   4.265   5.645
 4772SOL     OW15214   2.191   2.481   1.474
 4772SOL    HW115215   2.262   2.523   1.417
 4772SOL    HW215216   2.197   2.517   1.567
 4773SOL     OW15217   6.332   6.054   3.785
 4773SOL    HW115218   6.235   6.031   3.776
 4773SOL    HW215219   6.356   6.124   3.717
 4774SOL     OW15220   0.935   4.182   0.914
 4774SOL    HW115221   1.034   4.173   0.920
 4774SOL    HW215222   0.904   4.256   0.974
 4775SOL     OW15223   3.261   0.716   1.975
 4775SOL    HW115224   3.286   0.723   2.072
 4775SOL    HW215225   3.259   0.807   1.935
 4776SOL     OW15226   3.545   5.519   1.697
 4776SOL    HW115227   3.467   5.459   1.716
 4776SOL    HW215228   3.540   5.552   1.603
 4777SOL     OW15229   2.909   4.334   1.302
 4777SOL    HW115230   2.868   4.320   1.212
 4777SOL    HW215231   2.837   4.327   1.372
 4778SOL     OW15232   4.852   3.856   1.876
 4778SOL    HW115233   4.886   3.892   1.963
 4778SOL    HW215234   4.809   3.929   1.823
 4779SOL     OW15235   5.328   0.693   3.294
 4779SOL    HW115236   5.341   0.706   3.195
 4779SOL    HW215237   5.346   0.597   3.317
 4780SOL     OW15238   1.699   6.351   6.027
 4780SOL    HW115239   1.699   6.254   6.001
 4780SOL    HW215240   1.792   6.388   6.017
 4781SOL     OW15241   2.392   5.445   2.471
 4781SOL    HW115242   2.397   5.454   2.371
 4781SOL    HW215243   2.353   5.356   2.494
 4782SOL     OW15244   5.503   6.124   6.415
 4782SOL    HW115245   5.485   6.222   6.408
 4782SOL    HW215246   5.547   6.104   6.502
 4783SOL     OW15247   6.173   4.527   1.526
 4783SOL    HW115248   6.102   4.457   1.516
 4783SOL    HW215249   6.258   4.496   1.483
 4784SOL     OW15250   6.004   4.731   5.151
 4784SOL    HW115251   5.990   4.708   5.248
 4784SOL    HW215252   6.066   4.663   5.110
 4785SOL     OW15253   6.405   0.249   0.788
 4785SOL    HW115254   6.491   0.269   0.741
 4785SOL    HW215255   6.386   0.151   0.782
 4786SOL     OW15256   1.556   2.956   2.466
 4786SOL    HW115257   1.643   3.006   2.471
 4786SOL    HW215258   1.481   3.020   2.485
 4787SOL     OW15259   3.488   2.002   2.182
 4787SOL    HW115260   3.540   1.925   2.218
 4787SOL    HW215261   3.550   2.080   2.169
 4788SOL     OW15262   1.089   5.301   4.289
 4788SOL    HW115263   1.055   5.226   4.232
 4788SOL    HW215264   1.164   5.347   4.241
 4789SOL     OW15265   6.095   0.168   0.780
 4789SOL    HW115266   6.022   0.173   0.711
 4789SOL    HW215267   6.129   0.260   0.799
 4790SOL     OW15268   4.806   1.062   0.248
 4790SOL    HW115269   4.774   0.995   0.315
 4790SOL    HW215270   4.736   1.074   0.177
 4791SOL     OW15271   4.719   6.984   2.814
 4791SOL    HW115272   4.713   6.940   2.724
 4791SOL    HW215273   4.675   0.051   2.810
 4792SOL     OW15274   2.468   2.359   1.796
 4792SOL    HW115275   2.440   2.319   1.884
 4792SOL    HW215276   2.392   2.352   1.731
 4793SOL     OW15277   1.155   6.970   5.936
 4793SOL    HW115278   1.201   6.909   5.872
 4793SOL    HW215279   1.147   6.925   6.025
 4794SOL     OW15280   3.628   0.749   2.070
 4794SOL    HW115281   3.690   0.753   2.148
 4794SOL    HW215282   3.536   0.725   2.102
 4795SOL     OW15283   6.355   3.224   4.447
 4795SOL    HW115284   6.342   3.188   4.355
 4795SOL    HW215285   6.380   3.321   4.442
 4796SOL     OW15286   6.132   3.879   1.207
 4796SOL    HW115287   6.199   3.814   1.244
 4796SOL    HW215288   6.119   3.861   1.110
 4797SOL     OW15289   0.454   4.769   5.273
 4797SOL    HW115290   0.378   4.827   5.303
 4797SOL    HW215291   0.421   4.703   5.206
 4798SOL     OW15292   0.040   3.912   4.588
 4798SOL    HW115293   0.060   3.925   4.685
 4798SOL    HW215294   0.012   3.818   4.572
 4799SOL     OW15295   3.852   1.300   4.886
 4799SOL    HW115296   3.829   1.387   4.929
 4799SOL    HW215297   3.774   1.237   4.895
 4800SOL     OW15298   1.657   1.497   4.178
 4800SOL    HW115299   1.585   1.495   4.248
 4800SOL    HW215300   1.689   1.591   4.166
 4801SOL     OW15301   0.748   2.737   0.853
 4801SOL    HW115302   0.662   2.779   0.825
 4801SOL    HW215303   0.752   2.644   0.818
 4802SOL     OW15304   2.330   0.515   2.370
 4802SOL    HW115305   2.331   0.583   2.297
 4802SOL    HW215306   2.405   0.534   2.434
 4803SOL     OW15307   1.351   0.031   0.464
 4803SOL    HW115308   1.430   0.023   0.525
 4803SOL    HW215309   1.270   0.053   0.518
 4804SOL     OW15310   3.983   5.273   0.026
 4804SOL    HW115311   4.044   5.321   0.089
 4804SOL    HW215312   3.888   5.298   0.046
 4805SOL     OW15313   0.833   2.073   0.972
 4805SOL    HW115314   0.776   1.991   0.978
 4805SOL    HW215315   0.850   2.109   1.063
 4806SOL     OW15316   0.746   2.768   2.948
 4806SOL    HW115317   0.654   2.805   2.936
 4806SOL    HW215318   0.770   2.710   2.870
 4807SOL     OW15319   6.997   6.372   0.779
 4807SOL    HW115320   6.990   6.402   0.874
 4807SOL    HW215321   6.921   6.311   0.758
 4808SOL     OW15322   4.898   3.278   1.209
 4808SOL    HW115323   4.823   3.311   1.267
 4808SOL    HW215324   4.904   3.178   1.218
 4809SOL     OW15325   4.387   6.009   6.787
 4809SOL    HW115326   4.297   6.015   6.830
 4809SOL    HW215327   4.457   6.039   6.852
 4810SOL     OW15328   0.821   0.485   1.332
 4810SOL    HW115329   0.772   0.458   1.249
 4810SOL    HW215330   0.771   0.560   1.376
 4811SOL     OW15331   4.509   6.057   2.778
 4811SOL    HW115332   4.562   6.106   2.847
 4811SOL    HW215333   4.533   6.091   2.687
 4812SOL     OW15334   6.697   5.283   4.211
 4812SOL    HW115335   6.619   5.318   4.159
 4812SOL    HW215336   6.767   5.354   4.217
 4813SOL     OW15337   5.652   2.739   2.374
 4813SOL    HW115338   5.708   2.658   2.392
 4813SOL    HW215339   5.589   2.753   2.450
 4814SOL     OW15340   6.991   3.027   1.699
 4814SOL    HW115341   7.005   3.122   1.670
 4814SOL    HW215342   0.025   3.009   1.779
 4815SOL     OW15343   4.203   6.265   2.263
 4815SOL    HW115344   4.231   6.214   2.345
 4815SOL    HW215345   4.104   6.262   2.255
 4816SOL     OW15346   5.333   5.568   3.286
 4816SOL    HW115347   5.429   5.561   3.259
 4816SOL    HW215348   5.275   5.571   3.204
 4817SOL     OW15349   6.886   1.468   6.907
 4817SOL    HW115350   6.956   1.468   6.836
 4817SOL    HW215351   6.912   1.405   6.980
 4818SOL     OW15352   0.637   6.753   4.264
 4818SOL    HW115353   0.668   6.848   4.262
 4818SOL    HW215354   0.594   6.731   4.176
 4819SOL     OW15355   1.613   2.911   0.556
 4819SOL    HW115356   1.658   2.936   0.470
 4819SOL    HW215357   1.683   2.899   0.627
 4820SOL     OW15358   0.236   3.140   2.457
 4820SOL    HW115359   0.245   3.174   2.550
 4820SOL    HW215360   0.159   3.077   2.451
 4821SOL     OW15361   6.873   5.686   3.169
 4821SOL    HW115362   6.804   5.678   3.097
 4821SOL    HW215363   6.915   5.777   3.166
 4822SOL     OW15364   1.833   3.812   4.559
 4822SOL    HW115365   1.872   3.868   4.487
 4822SOL    HW215366   1.765   3.749   4.520
 4823SOL     OW15367   1.697   3.198   1.751
 4823SOL    HW115368   1.661   3.176   1.842
 4823SOL    HW215369   1.690   3.297   1.736
 4824SOL     OW15370   5.914   1.391   6.291
 4824SOL    HW115371   6.001   1.341   6.285
 4824SOL    HW215372   5.923   1.479   6.246
 4825SOL     OW15373   1.572   6.844   3.903
 4825SOL    HW115374   1.541   6.752   3.927
 4825SOL    HW215375   1.659   6.839   3.854
 4826SOL     OW15376   3.913   0.646   1.705
 4826SOL    HW115377   3.885   0.588   1.782
 4826SOL    HW215378   3.927   0.590   1.624
 4827SOL     OW15379   0.050   2.087   0.817
 4827SOL    HW115380   0.075   2.176   0.779
 4827SOL    HW215381   6.976   2.088   0.845
 4828SOL     OW15382   4.798   1.092   4.370
 4828SOL    HW115383   4.703   1.106   4.398
 4828SOL    HW215384   4.860   1.122   4.443
 4829SOL     OW15385   4.347   6.901   4.766
 4829SOL    HW115386   4.395   6.872   4.683
 4829SOL    HW215387   4.250   6.917   4.745
 4830SOL     OW15388   2.844   6.205   3.206
 4830SOL    HW115389   2.866   6.283   3.147
 4830SOL    HW215390   2.774   6.149   3.162
 4831SOL     OW15391   3.136   4.597   5.343
 4831SOL    HW115392   3.076   4.544   5.284
 4831SOL    HW215393   3.104   4.692   5.347
 4832SOL     OW15394   3.533   3.935   4.359
 4832SOL    HW115395   3.577   3.869   4.297
 4832SOL    HW215396   3.512   3.889   4.445
 4833SOL     OW15397   6.457   3.490   4.425
 4833SOL    HW115398   6.456   3.482   4.325
 4833SOL    HW215399   6.539   3.539   4.454
 4834SOL     OW15400   1.475   4.963   1.332
 4834SOL    HW115401   1.400   4.904   1.305
 4834SOL    HW215402   1.447   5.020   1.409
 4835SOL     OW15403   6.906   2.608   5.590
 4835SOL    HW115404   6.879   2.666   5.513
 4835SOL    HW215405   6.834   2.610   5.660
 4836SOL     OW15406   4.716   1.530   5.757
 4836SOL    HW115407   4.639   1.467   5.767
 4836SOL    HW215408   4.801   1.479   5.747
 4837SOL     OW15409   0.313   3.556   3.875
 4837SOL    HW115410   0.336   3.593   3.786
 4837SOL    HW215411   0.358   3.609   3.947
 4838SOL     OW15412   2.764   3.665   5.802
 4838SOL    HW115413   2.751   3.727   5.725
 4838SOL    HW215414   2.747   3.571   5.773
 4839SOL     OW15415   2.377   1.186   0.703
 4839SOL    HW115416   2.369   1.235   0.790
 4839SOL    HW215417   2.384   1.253   0.629
 4840SOL     OW15418   6.058   4.311   4.099
 4840SOL    HW115419   6.157   4.311   4.083
 4840SOL    HW215420   6.035   4.245   4.170
 4841SOL     OW15421   3.394   6.197   3.411
 4841SOL    HW115422   3.406   6.295   3.394
 4841SOL    HW215423   3.478   6.160   3.450
 4842SOL     OW15424   3.670   5.506   3.235
 4842SOL    HW115425   3.749   5.454   3.268
 4842SOL    HW215426   3.591   5.487   3.293
 4843SOL     OW15427   0.030   1.751   0.345
 4843SOL    HW115428   6.977   1.689   0.322
 4843SOL    HW215429   0.042   1.818   0.272
 4844SOL     OW15430   2.057   5.432   5.371
 4844SOL    HW115431   2.144   5.479   5.387
 4844SOL    HW215432   1.991   5.460   5.440
 4845SOL     OW15433   4.956   3.808   4.963
 4845SOL    HW115434   4.882   3.754   5.002
 4845SOL    HW215435   5.001   3.861   5.035
 4846SOL     OW15436   6.711   3.613   4.519
 4846SOL    HW115437   6.691   3.707   4.547
 4846SOL    HW215438   6.802   3.587   4.551
 4847SOL     OW15439   2.806   6.291   5.957
 4847SOL    HW115440   2.789   6.389   5.948
 4847SOL    HW215441   2.798   6.265   6.053
 4848SOL     OW15442   3.753   0.980   4.154
 4848SOL    HW115443   3.669   1.006   4.201
 4848SOL    HW215444   3.750   1.009   4.059
 4849SOL     OW15445   2.004   6.594   1.429
 4849SOL    HW115446   2.052   6.655   1.366
 4849SOL    HW215447   2.024   6.621   1.523
 4850SOL     OW15448   3.930   0.221   0.960
 4850SOL    HW115449   3.909   0.169   0.878
 4850SOL    HW215450   4.028   0.242   0.962
 4851SOL     OW15451   3.623   4.461   6.430
 4851SOL    HW115452   3.533   4.468   6.474
 4851SOL    HW215453   3.686   4.412   6.489
 4852SOL     OW15454   5.833   5.102   5.416
 4852SOL    HW115455   5.930   5.082   5.426
 4852SOL    HW215456   5.821   5.182   5.358
 4853SOL     OW15457   4.058   0.027   2.466
 4853SOL    HW115458   4.021   6.964   2.501
 4853SOL    HW215459   4.144   0.009   2.418
 4854SOL     OW15460   5.390   6.553   1.911
 4854SOL    HW115461   5.445   6.634   1.928
 4854SOL    HW215462   5.406   6.520   1.818
 4855SOL     OW15463   5.062   4.738   5.909
 4855SOL    HW115464   4.963   4.726   5.902
 4855SOL    HW215465   5.104   4.713   5.822
 4856SOL     OW15466   0.648   3.658   2.533
 4856SOL    HW115467   0.674   3.600   2.610
 4856SOL    HW215468   0.673   3.613   2.448
 4857SOL     OW15469   2.399   2.558   5.197
 4857SOL    HW115470   2.365   2.639   5.244
 4857SOL    HW215471   2.450   2.501   5.262
 4858SOL     OW15472   1.077   6.207   5.039
 4858SOL    HW115473   1.114   6.136   4.980
 4858SOL    HW215474   1.149   6.274   5.061
 4859SOL     OW15475   0.146   6.348   2.515
 4859SOL    HW115476   0.202   6.320   2.594
 4859SOL    HW215477   0.097   6.432   2.537
 4860SOL     OW15478   4.288   5.360   1.478
 4860SOL    HW115479   4.253   5.344   1.570
 4860SOL    HW215480   4.355   5.290   1.455
 4861SOL     OW15481   0.503   4.012   6.208
 4861SOL    HW115482   0.479   3.969   6.120
 4861SOL    HW215483   0.511   3.941   6.278
 4862SOL     OW15484   2.380   5.738   4.430
 4862SOL    HW115485   2.417   5.696   4.513
 4862SOL    HW215486   2.413   5.832   4.423
 4863SOL     OW15487   4.925   2.510   2.813
 4863SOL    HW115488   4.886   2.598   2.839
 4863SOL    HW215489   5.024   2.511   2.828
 4864SOL     OW15490   1.789   1.413   1.089
 4864SOL    HW115491   1.843   1.496   1.085
 4864SOL    HW215492   1.739   1.409   1.176
 4865SOL     OW15493   3.783   6.136   5.415
 4865SOL    HW115494   3.765   6.223   5.461
 4865SOL    HW215495   3.877   6.107   5.434
 4866SOL     OW15496   0.261   4.656   1.659
 4866SOL    HW115497   0.330   4.664   1.731
 4866SOL    HW215498   0.280   4.722   1.586
 4867SOL     OW15499   4.944   5.336   3.649
 4867SOL    HW115500   5.008   5.360   3.722
 4867SOL    HW215501   4.851   5.334   3.685
 4868SOL     OW15502   1.492   6.635   1.819
 4868SOL    HW115503   1.539   6.659   1.903
 4868SOL    HW215504   1.441   6.714   1.785
 4869SOL     OW15505   6.078   1.619   1.130
 4869SOL    HW115506   6.096   1.606   1.033
 4869SOL    HW215507   6.137   1.558   1.183
 4870SOL     OW15508   6.746   0.213   0.994
 4870SOL    HW115509   6.810   0.149   1.038
 4870SOL    HW215510   6.798   0.279   0.941
 4871SOL     OW15511   0.961   3.087   4.325
 4871SOL    HW115512   0.993   3.166   4.377
 4871SOL    HW215513   1.010   3.005   4.355
 4872SOL     OW15514   0.665   0.461   3.803
 4872SOL    HW115515   0.739   0.528   3.800
 4872SOL    HW215516   0.638   0.447   3.898
 4873SOL     OW15517   1.119   5.968   4.894
 4873SOL    HW115518   1.152   5.876   4.916
 4873SOL    HW215519   1.098   5.974   4.797
 4874SOL     OW15520   5.326   3.034   3.747
 4874SOL    HW115521   5.231   3.045   3.719
 4874SOL    HW215522   5.337   3.062   3.842
 4875SOL     OW15523   6.279   2.662   6.447
 4875SOL    HW115524   6.364   2.712   6.465
 4875SOL    HW215525   6.202   2.709   6.490
 4876SOL     OW15526   0.178   1.535   0.059
 4876SOL    HW115527   0.182   1.630   0.089
 4876SOL    HW215528   0.223   1.526   6.993
 4877SOL     OW15529   6.422   1.564   1.243
 4877SOL    HW115530   6.403   1.662   1.244
 4877SOL    HW215531   6.503   1.544   1.297
 4878SOL     OW15532   6.836   2.586   1.756
 4878SOL    HW115533   6.881   2.556   1.840
 4878SOL    HW215534   6.820   2.685   1.760
 4879SOL     OW15535   4.447   6.169   3.402
 4879SOL    HW115536   4.425   6.122   3.316
 4879SOL    HW215537   4.362   6.192   3.450
 4880SOL     OW15538   6.241   2.419   6.144
 4880SOL    HW115539   6.276   2.512   6.138
 4880SOL    HW215540   6.174   2.412   6.218
 4881SOL     OW15541   3.030   5.298   6.608
 4881SOL    HW115542   3.035   5.395   6.584
 4881SOL    HW215543   2.934   5.270   6.613
 4882SOL     OW15544   4.868   0.014   6.341
 4882SOL    HW115545   4.911   0.104   6.330
 4882SOL    HW215546   4.879   6.984   6.256
 4883SOL     OW15547   6.122   5.421   0.476
 4883SOL    HW115548   6.135   5.485   0.552
 4883SOL    HW215549   6.200   5.428   0.413
 4884SOL     OW15550   3.756   6.542   2.239
 4884SOL    HW115551   3.788   6.474   2.173
 4884SOL    HW215552   3.660   6.564   2.221
 4885SOL     OW15553   2.093   6.637   2.831
 4885SOL    HW115554   2.127   6.726   2.801
 4885SOL    HW215555   2.170   6.575   2.846
 4886SOL     OW15556   6.205   0.706   6.172
 4886SOL    HW115557   6.151   0.690   6.255
 4886SOL    HW215558   6.148   0.753   6.104
 4887SOL     OW15559   0.421   1.809   5.510
 4887SOL    HW115560   0.440   1.789   5.414
 4887SOL    HW215561   0.485   1.879   5.542
 4888SOL     OW15562   3.341   5.368   1.726
 4888SOL    HW115563   3.259   5.348   1.781
 4888SOL    HW215564   3.314   5.416   1.643
 4889SOL     OW15565   1.258   3.046   6.456
 4889SOL    HW115566   1.229   2.984   6.529
 4889SOL    HW215567   1.192   3.042   6.381
 4890SOL     OW15568   1.257   0.201   4.732
 4890SOL    HW115569   1.328   0.175   4.666
 4890SOL    HW215570   1.174   0.150   4.713
 4891SOL     OW15571   1.477   3.865   1.033
 4891SOL    HW115572   1.461   3.882   0.936
 4891SOL    HW215573   1.565   3.903   1.060
 4892SOL     OW15574   2.202   5.940   1.386
 4892SOL    HW115575   2.105   5.917   1.382
 4892SOL    HW215576   2.218   6.004   1.461
 4893SOL     OW15577   0.950   3.269   6.348
 4893SOL    HW115578   0.993   3.302   6.433
 4893SOL    HW215579   0.917   3.346   6.295
 4894SOL     OW15580   1.755   1.394   3.393
 4894SOL    HW115581   1.719   1.481   3.360
 4894SOL    HW215582   1.691   1.354   3.459
 4895SOL     OW15583   5.678   3.962   0.105
 4895SOL    HW115584   5.735   3.907   0.166
 4895SOL    HW215585   5.679   4.057   0.135
 4896SOL     OW15586   4.404   5.948   3.183
 4896SOL    HW115587   4.406   5.888   3.102
 4896SOL    HW215588   4.310   5.975   3.202
 4897SOL     OW15589   3.034   5.658   5.863
 4897SOL    HW115590   2.966   5.655   5.789
 4897SOL    HW215591   2.992   5.697   5.945
 4898SOL     OW15592   5.814   2.370   4.809
 4898SOL    HW115593   5.908   2.348   4.836
 4898SOL    HW215594   5.783   2.451   4.859
 4899SOL     OW15595   5.247   4.284   4.561
 4899SOL    HW115596   5.177   4.237   4.615
 4899SOL    HW215597   5.323   4.310   4.620
 4900SOL     OW15598   0.769   6.669   5.389
 4900SOL    HW115599   0.802   6.746   5.444
 4900SOL    HW215600   0.754   6.700   5.295
 4901SOL     OW15601   0.712   6.285   3.389
 4901SOL    HW115602   0.640   6.220   3.363
 4901SOL    HW215603   0.695   6.373   3.345
 4902SOL     OW15604   3.061   4.798   2.017
 4902SOL    HW115605   3.072   4.812   1.919
 4902SOL    HW215606   2.995   4.725   2.034
 4903SOL     OW15607   5.495   6.089   5.967
 4903SOL    HW115608   5.488   6.167   5.904
 4903SOL    HW215609   5.483   6.004   5.915
 4904SOL     OW15610   3.594   6.048   3.606
 4904SOL    HW115611   3.639   6.013   3.689
 4904SOL    HW215612   3.572   5.971   3.546
 4905SOL     OW15613   6.375   3.462   3.130
 4905SOL    HW115614   6.390   3.557   3.106
 4905SOL    HW215615   6.410   3.403   3.058
 4906SOL     OW15616   5.132   0.472   1.514
 4906SOL    HW115617   5.082   0.494   1.597
 4906SOL    HW215618   5.068   0.454   1.440
 4907SOL     OW15619   2.239   1.836   2.227
 4907SOL    HW115620   2.258   1.845   2.129
 4907SOL    HW215621   2.309   1.778   2.268
 4908SOL     OW15622   3.558   5.760   6.813
 4908SOL    HW115623   3.592   5.821   6.884
 4908SOL    HW215624   3.634   5.729   6.757
 4909SOL     OW15625   6.030   0.052   5.640
 4909SOL    HW115626   5.952   0.112   5.621
 4909SOL    HW215627   6.018   6.988   5.592
 4910SOL     OW15628   5.947   0.213   6.383
 4910SOL    HW115629   5.852   0.204   6.411
 4910SOL    HW215630   5.952   0.251   6.291
 4911SOL     OW15631   0.647   2.937   6.065
 4911SOL    HW115632   0.556   2.928   6.107
 4911SOL    HW215633   0.655   3.026   6.021
 4912SOL     OW15634   2.629   2.405   2.115
 4912SOL    HW115635   2.720   2.395   2.075
 4912SOL    HW215636   2.637   2.422   2.213
 4913SOL     OW15637   2.960   3.317   2.321
 4913SOL    HW115638   2.908   3.300   2.405
 4913SOL    HW215639   3.032   3.383   2.339
 4914SOL     OW15640   1.651   6.419   2.596
 4914SOL    HW115641   1.593   6.343   2.568
 4914SOL    HW215642   1.631   6.499   2.539
 4915SOL     OW15643   3.180   5.820   3.252
 4915SOL    HW115644   3.108   5.887   3.234
 4915SOL    HW215645   3.255   5.833   3.186
 4916SOL     OW15646   1.937   1.513   2.445
 4916SOL    HW115647   1.844   1.487   2.419
 4916SOL    HW215648   1.939   1.537   2.542
 4917SOL     OW15649   2.292   5.456   6.666
 4917SOL    HW115650   2.299   5.368   6.712
 4917SOL    HW215651   2.330   5.527   6.726
 4918SOL     OW15652   2.118   0.674   3.327
 4918SOL    HW115653   2.201   0.618   3.338
 4918SOL    HW215654   2.056   0.629   3.263
 4919SOL     OW15655   2.695   3.066   1.609
 4919SOL    HW115656   2.691   2.994   1.678
 4919SOL    HW215657   2.630   3.139   1.632
 4920SOL     OW15658   4.238   0.897   0.531
 4920SOL    HW115659   4.225   0.827   0.460
 4920SOL    HW215660   4.266   0.853   0.616
 4921SOL     OW15661   1.527   4.433   1.827
 4921SOL    HW115662   1.495   4.518   1.869
 4921SOL    HW215663   1.613   4.404   1.869
 4922SOL     OW15664   0.925   2.680   5.662
 4922SOL    HW115665   0.830   2.704   5.640
 4922SOL    HW215666   0.987   2.732   5.604
 4923SOL     OW15667   3.461   1.998   0.629
 4923SOL    HW115668   3.373   2.044   0.642
 4923SOL    HW215669   3.492   1.961   0.717
 4924SOL     OW15670   0.539   3.811   4.475
 4924SOL    HW115671   0.473   3.768   4.414
 4924SOL    HW215672   0.629   3.770   4.461
 4925SOL     OW15673   4.941   5.671   6.167
 4925SOL    HW115674   4.853   5.645   6.127
 4925SOL    HW215675   4.932   5.758   6.215
 4926SOL     OW15676   3.940   2.485   1.627
 4926SOL    HW115677   3.890   2.567   1.656
 4926SOL    HW215678   3.874   2.415   1.598
 4927SOL     OW15679   3.718   3.752   2.875
 4927SOL    HW115680   3.692   3.796   2.961
 4927SOL    HW215681   3.737   3.655   2.892
 4928SOL     OW15682   0.575   6.374   0.417
 4928SOL    HW115683   0.539   6.439   0.485
 4928SOL    HW215684   0.649   6.320   0.459
 4929SOL     OW15685   0.787   5.123   4.258
 4929SOL    HW115686   0.762   5.034   4.297
 4929SOL    HW215687   0.717   5.190   4.282
 4930SOL     OW15688   6.818   2.528   0.639
 4930SOL    HW115689   6.836   2.581   0.556
 4930SOL    HW215690   6.719   2.522   0.653
 4931SOL     OW15691   0.075   0.638   0.917
 4931SOL    HW115692   0.166   0.650   0.878
 4931SOL    HW215693   0.077   0.563   0.983
 4932SOL     OW15694   4.110   2.170   1.014
 4932SOL    HW115695   4.074   2.207   1.100
 4932SOL    HW215696   4.081   2.228   0.938
 4933SOL     OW15697   2.927   0.965   5.551
 4933SOL    HW115698   2.971   0.918   5.474
 4933SOL    HW215699   2.948   0.917   5.636
 4934SOL     OW15700   1.321   5.888   5.366
 4934SOL    HW115701   1.358   5.816   5.307
 4934SOL    HW215702   1.301   5.969   5.310
 4935SOL     OW15703   1.495   1.150   0.217
 4935SOL    HW115704   1.523   1.181   0.126
 4935SOL    HW215705   1.548   1.070   0.243
 4936SOL     OW15706   4.565   5.785   1.266
 4936SOL    HW115707   4.641   5.835   1.308
 4936SOL    HW215708   4.491   5.774   1.332
 4937SOL     OW15709   1.220   2.936   5.824
 4937SOL    HW115710   1.259   3.028   5.825
 4937SOL    HW215711   1.122   2.942   5.804
 4938SOL     OW15712   3.416   4.976   1.870
 4938SOL    HW115713   3.448   4.886   1.898
 4938SOL    HW215714   3.365   5.018   1.945
 4939SOL     OW15715   1.045   1.619   1.821
 4939SOL    HW115716   0.967   1.573   1.777
 4939SOL    HW215717   1.074   1.696   1.766
 4940SOL     OW15718   0.109   1.891   5.390
 4940SOL    HW115719   0.198   1.924   5.420
 4940SOL    HW215720   0.045   1.892   5.468
 4941SOL     OW15721   4.329   2.220   5.463
 4941SOL    HW115722   4.293   2.169   5.542
 4941SOL    HW215723   4.408   2.274   5.492
 4942SOL     OW15724   0.093   1.604   3.664
 4942SOL    HW115725   0.113   1.699   3.640
 4942SOL    HW215726   0.012   1.573   3.614
 4943SOL     OW15727   4.890   2.680   6.889
 4943SOL    HW115728   4.971   2.717   6.842
 4943SOL    HW215729   4.881   2.583   6.868
 4944SOL     OW15730   0.817   5.161   0.186
 4944SOL    HW115731   0.738   5.135   0.241
 4944SOL    HW215732   0.787   5.219   0.111
 4945SOL     OW15733   2.049   0.500   5.443
 4945SOL    HW115734   1.999   0.551   5.374
 4945SOL    HW215735   2.016   0.405   5.444
 4946SOL     OW15736   2.898   5.227   0.257
 4946SOL    HW115737   2.960   5.305   0.246
 4946SOL    HW215738   2.805   5.260   0.272
 4947SOL     OW15739   1.362   0.711   1.379
 4947SOL    HW115740   1.289   0.665   1.430
 4947SOL    HW215741   1.409   0.775   1.440
 4948SOL     OW15742   1.901   2.383   1.977
 4948SOL    HW115743   1.803   2.382   1.998
 4948SOL    HW215744   1.935   2.289   1.975
 4949SOL     OW15745   6.952   4.452   6.438
 4949SOL    HW115746   0.023   4.471   6.409
 4949SOL    HW215747   6.950   4.432   6.536
 4950SOL     OW15748   3.558   4.440   5.809
 4950SOL    HW115749   3.541   4.387   5.892
 4950SOL    HW215750   3.491   4.414   5.739
 4951SOL     OW15751   5.128   5.807   2.993
 4951SOL    HW115752   5.114   5.809   2.894
 4951SOL    HW215753   5.110   5.715   3.027
 4952SOL     OW15754   0.446   0.190   6.588
 4952SOL    HW115755   0.530   0.214   6.637
 4952SOL    HW215756   0.469   0.149   6.500
 4953SOL     OW15757   0.740   2.171   4.647
 4953SOL    HW115758   0.791   2.239   4.700
 4953SOL    HW215759   0.794   2.144   4.567
 4954SOL     OW15760   3.055   4.016   4.753
 4954SOL    HW115761   2.992   3.941   4.733
 4954SOL    HW215762   3.104   4.042   4.669
 4955SOL     OW15763   4.192   5.585   5.602
 4955SOL    HW115764   4.178   5.487   5.586
 4955SOL    HW215765   4.121   5.637   5.554
 4956SOL     OW15766   3.159   0.284   5.180
 4956SOL    HW115767   3.078   0.289   5.239
 4956SOL    HW215768   3.130   0.273   5.085
 4957SOL     OW15769   5.667   4.711   6.146
 4957SOL    HW115770   5.620   4.663   6.221
 4957SOL    HW215771   5.697   4.645   6.078
 4958SOL     OW15772   4.219   5.953   0.471
 4958SOL    HW115773   4.185   5.864   0.503
 4958SOL    HW215774   4.303   5.940   0.420
 4959SOL     OW15775   0.380   2.107   2.980
 4959SOL    HW115776   0.281   2.102   2.990
 4959SOL    HW215777   0.423   2.058   3.056
 4960SOL     OW15778   4.646   5.094   4.067
 4960SOL    HW115779   4.729   5.069   4.017
 4960SOL    HW215780   4.589   5.013   4.079
 4961SOL     OW15781   3.188   1.870   1.218
 4961SOL    HW115782   3.228   1.899   1.305
 4961SOL    HW215783   3.255   1.883   1.145
 4962SOL     OW15784   1.304   4.296   0.721
 4962SOL    HW115785   1.252   4.381   0.729
 4962SOL    HW215786   1.402   4.318   0.716
 4963SOL     OW15787   0.780   3.932   6.282
 4963SOL    HW115788   0.869   3.969   6.308
 4963SOL    HW215789   0.753   3.971   6.194
 4964SOL     OW15790   2.459   6.682   4.487
 4964SOL    HW115791   2.551   6.675   4.449
 4964SOL    HW215792   2.446   6.613   4.558
 4965SOL     OW15793   1.620   6.054   2.788
 4965SOL    HW115794   1.647   6.105   2.870
 4965SOL    HW215795   1.678   5.974   2.777
 4966SOL     OW15796   3.091   6.735   4.212
 4966SOL    HW115797   3.023   6.791   4.166
 4966SOL    HW215798   3.181   6.778   4.204
 4967SOL     OW15799   4.369   4.738   4.869
 4967SOL    HW115800   4.454   4.787   4.889
 4967SOL    HW215801   4.364   4.656   4.927
 4968SOL     OW15802   6.937   2.819   3.006
 4968SOL    HW115803   0.006   2.844   3.037
 4968SOL    HW215804   6.900   2.892   2.949
 4969SOL     OW15805   0.451   5.809   4.468
 4969SOL    HW115806   0.516   5.760   4.526
 4969SOL    HW215807   0.471   5.790   4.372
 4970SOL     OW15808   1.196   1.475   1.386
 4970SOL    HW115809   1.225   1.482   1.291
 4970SOL    HW215810   1.114   1.530   1.400
 4971SOL     OW15811   6.846   6.086   2.538
 4971SOL    HW115812   6.843   6.027   2.618
 4971SOL    HW215813   6.940   6.114   2.520
 4972SOL     OW15814   0.356   4.128   0.762
 4972SOL    HW115815   0.450   4.121   0.794
 4972SOL    HW215816   0.353   4.185   0.680
 4973SOL     OW15817   6.524   1.136   1.041
 4973SOL    HW115818   6.507   1.233   1.024
 4973SOL    HW215819   6.616   1.125   1.078
 4974SOL     OW15820   3.678   6.235   5.199
 4974SOL    HW115821   3.728   6.171   5.257
 4974SOL    HW215822   3.606   6.186   5.150
 4975SOL     OW15823   5.177   4.829   1.162
 4975SOL    HW115824   5.270   4.842   1.127
 4975SOL    HW215825   5.148   4.735   1.147
 4976SOL     OW15826   2.122   6.839   3.159
 4976SOL    HW115827   2.211   6.804   3.186
 4976SOL    HW215828   2.056   6.763   3.156
 4977SOL     OW15829   1.677   4.215   5.831
 4977SOL    HW115830   1.735   4.287   5.867
 4977SOL    HW215831   1.654   4.234   5.735
 4978SOL     OW15832   5.275   4.657   4.932
 4978SOL    HW115833   5.310   4.751   4.934
 4978SOL    HW215834   5.249   4.634   4.838
 4979SOL     OW15835   2.090   6.758   5.917
 4979SOL    HW115836   2.041   6.836   5.879
 4979SOL    HW215837   2.079   6.679   5.856
 4980SOL     OW15838   5.249   3.376   3.800
 4980SOL    HW115839   5.345   3.372   3.775
 4980SOL    HW215840   5.192   3.356   3.720
 4981SOL     OW15841   3.074   4.837   2.504
 4981SOL    HW115842   3.125   4.873   2.426
 4981SOL    HW215843   2.984   4.806   2.474
 4982SOL     OW15844   3.945   1.612   5.729
 4982SOL    HW115845   3.894   1.529   5.749
 4982SOL    HW215846   4.029   1.588   5.680
 4983SOL     OW15847   5.831   5.574   2.956
 4983SOL    HW115848   5.860   5.658   2.909
 4983SOL    HW215849   5.886   5.562   3.038
 4984SOL     OW15850   4.792   3.954   3.100
 4984SOL    HW115851   4.798   3.855   3.085
 4984SOL    HW215852   4.804   4.002   3.013
 4985SOL     OW15853   5.501   0.388   2.475
 4985SOL    HW115854   5.465   0.418   2.563
 4985SOL    HW215855   5.589   0.342   2.489
 4986SOL     OW15856   1.083   4.995   1.695
 4986SOL    HW115857   1.125   4.916   1.651
 4986SOL    HW215858   1.004   4.966   1.748
 4987SOL     OW15859   0.552   1.211   2.534
 4987SOL    HW115860   0.599   1.126   2.556
 4987SOL    HW215861   0.502   1.243   2.614
 4988SOL     OW15862   6.403   5.790   3.689
 4988SOL    HW115863   6.308   5.773   3.661
 4988SOL    HW215864   6.406   5.870   3.749
 4989SOL     OW15865   4.715   0.398   3.299
 4989SOL    HW115866   4.645   0.376   3.231
 4989SOL    HW215867   4.783   0.459   3.258
 4990SOL     OW15868   4.415   2.511   4.886
 4990SOL    HW115869   4.384   2.440   4.823
 4990SOL    HW215870   4.340   2.538   4.947
 4991SOL     OW15871   1.524   4.597   5.960
 4991SOL    HW115872   1.570   4.593   6.049
 4991SOL    HW215873   1.573   4.661   5.900
 4992SOL     OW15874   0.776   3.482   3.727
 4992SOL    HW115875   0.719   3.410   3.766
 4992SOL    HW215876   0.751   3.570   3.768
 4993SOL     OW15877   3.341   6.288   3.959
 4993SOL    HW115878   3.256   6.329   3.994
 4993SOL    HW215879   3.397   6.257   4.036
 4994SOL     OW15880   3.409   4.624   5.365
 4994SOL    HW115881   3.427   4.704   5.307
 4994SOL    HW215882   3.310   4.610   5.372
 4995SOL     OW15883   0.289   0.531   5.904
 4995SOL    HW115884   0.249   0.440   5.897
 4995SOL    HW215885   0.385   0.525   5.930
 4996SOL     OW15886   6.844   1.536   4.297
 4996SOL    HW115887   6.925   1.485   4.269
 4996SOL    HW215888   6.779   1.474   4.340
 4997SOL     OW15889   4.009   1.815   1.289
 4997SOL    HW115890   4.090   1.849   1.336
 4997SOL    HW215891   4.021   1.826   1.190
 4998SOL     OW15892   0.595   3.572   3.556
 4998SOL    HW115893   0.664   3.532   3.617
 4998SOL    HW215894   0.632   3.656   3.516
 4999SOL     OW15895   0.686   3.064   4.364
 4999SOL    HW115896   0.639   3.022   4.286
 4999SOL    HW215897   0.785   3.056   4.352
 5000SOL     OW15898   3.576   5.690   2.947
 5000SOL    HW115899   3.641   5.616   2.928
 5000SOL    HW215900   3.483   5.657   2.936
 5001SOL     OW15901   0.424   5.847   3.214
 5001SOL    HW115902   0.494   5.829   3.145
 5001SOL    HW215903   0.354   5.776   3.210
 5002SOL     OW15904   1.089   3.732   3.934
 5002SOL    HW115905   1.105   3.746   4.032
 5002SOL    HW215906   1.071   3.636   3.916
 5003SOL     OW15907   4.200   0.873   3.685
 5003SOL    HW115908   4.253   0.946   3.641
 5003SOL    HW215909   4.262   0.804   3.721
 5004SOL     OW15910   3.214   5.088   6.614
 5004SOL    HW115911   3.170   5.178   6.622
 5004SOL    HW215912   3.288   5.093   6.548
 5005SOL     OW15913   2.992   2.467   0.130
 5005SOL    HW115914   3.063   2.430   0.190
 5005SOL    HW215915   2.983   2.409   0.049
 5006SOL     OW15916   4.669   1.746   1.498
 5006SOL    HW115917   4.592   1.759   1.560
 5006SOL    HW215918   4.724   1.830   1.494
 5007SOL     OW15919   5.942   6.341   2.055
 5007SOL    HW115920   5.908   6.270   1.993
 5007SOL    HW215921   5.977   6.298   2.138
 5008SOL     OW15922   5.224   6.504   2.313
 5008SOL    HW115923   5.208   6.439   2.387
 5008SOL    HW215924   5.292   6.572   2.341
 5009SOL     OW15925   6.655   2.268   0.595
 5009SOL    HW115926   6.713   2.305   0.523
 5009SOL    HW215927   6.579   2.331   0.612
 5010SOL     OW15928   3.378   3.878   1.274
 5010SOL    HW115929   3.300   3.867   1.335
 5010SOL    HW215930   3.354   3.845   1.183
 5011SOL     OW15931   2.279   3.206   6.846
 5011SOL    HW115932   2.188   3.248   6.849
 5011SOL    HW215933   2.349   3.276   6.854
 5012SOL     OW15934   5.923   1.662   5.873
 5012SOL    HW115935   5.877   1.670   5.784
 5012SOL    HW215936   6.006   1.717   5.873
 5013SOL     OW15937   5.722   6.828   5.720
 5013SOL    HW115938   5.716   6.921   5.757
 5013SOL    HW215939   5.761   6.767   5.789
 5014SOL     OW15940   6.209   3.290   1.658
 5014SOL    HW115941   6.252   3.305   1.747
 5014SOL    HW215942   6.277   3.252   1.595
 5015SOL     OW15943   5.554   6.651   3.803
 5015SOL    HW115944   5.584   6.722   3.740
 5015SOL    HW215945   5.483   6.688   3.863
 5016SOL     OW15946   1.956   3.592   5.908
 5016SOL    HW115947   1.994   3.675   5.868
 5016SOL    HW215948   2.015   3.514   5.886
 5017SOL     OW15949   0.352   3.504   1.715
 5017SOL    HW115950   0.388   3.411   1.724
 5017SOL    HW215951   0.424   3.566   1.684
 5018SOL     OW15952   1.342   0.243   0.796
 5018SOL    HW115953   1.380   0.259   0.887
 5018SOL    HW215954   1.299   0.153   0.793
 5019SOL     OW15955   1.548   5.468   5.159
 5019SOL    HW115956   1.588   5.396   5.216
 5019SOL    HW215957   1.621   5.521   5.115
 5020SOL     OW15958   2.392   6.953   4.558
 5020SOL    HW115959   2.475   7.008   4.554
 5020SOL    HW215960   2.417   6.856   4.561
 5021SOL     OW15961   1.765   1.006   0.581
 5021SOL    HW115962   1.853   0.984   0.540
 5021SOL    HW215963   1.753   0.953   0.665
 5022SOL     OW15964   6.649   3.051   1.497
 5022SOL    HW115965   6.625   3.003   1.581
 5022SOL    HW215966   6.712   2.995   1.443
 5023SOL     OW15967   6.919   4.268   2.566
 5023SOL    HW115968   7.009   4.310   2.558
 5023SOL    HW215969   6.920   4.203   2.643
 5024SOL     OW15970   4.593   3.660   1.602
 5024SOL    HW115971   4.667   3.593   1.612
 5024SOL    HW215972   4.568   3.667   1.506
 5025SOL     OW15973   4.122   1.384   4.197
 5025SOL    HW115974   4.030   1.353   4.219
 5025SOL    HW215975   4.157   1.332   4.119
 5026SOL     OW15976   4.423   0.154   4.788
 5026SOL    HW115977   4.341   0.204   4.757
 5026SOL    HW215978   4.405   0.056   4.785
 5027SOL     OW15979   5.245   6.974   0.172
 5027SOL    HW115980   5.329   7.016   0.206
 5027SOL    HW215981   5.196   0.016   0.114
 5028SOL     OW15982   6.510   1.615   2.403
 5028SOL    HW115983   6.520   1.713   2.389
 5028SOL    HW215984   6.598   1.576   2.432
 5029SOL     OW15985   6.266   1.917   2.867
 5029SOL    HW115986   6.184   1.915   2.810
 5029SOL    HW215987   6.252   1.860   2.948
 5030SOL     OW15988   0.232   4.440   6.858
 5030SOL    HW115989   0.269   4.381   6.930
 5030SOL    HW215990   0.200   4.383   6.782
 5031SOL     OW15991   6.838   6.618   6.440
 5031SOL    HW115992   6.929   6.617   6.482
 5031SOL    HW215993   6.799   6.709   6.446
 5032SOL     OW15994   2.496   3.402   5.370
 5032SOL    HW115995   2.560   3.441   5.304
 5032SOL    HW215996   2.546   3.346   5.437
 5033SOL     OW15997   2.065   0.633   7.000
 5033SOL    HW115998   2.095   0.729   7.001
 5033SOL    HW215999   1.966   0.629   7.007
 5034SOL     OW16000   4.458   6.645   4.254
 5034SOL    HW116001   4.489   6.614   4.344
 5034SOL    HW216002   4.402   6.573   4.212
 5035SOL     OW16003   1.863   3.695   3.833
 5035SOL    HW116004   1.773   3.662   3.860
 5035SOL    HW216005   1.864   3.795   3.838
 5036SOL     OW16006   6.901   2.384   5.359
 5036SOL    HW116007   6.888   2.370   5.457
 5036SOL    HW216008   6.882   2.479   5.336
 5037SOL     OW16009   4.324   4.243   1.124
 5037SOL    HW116010   4.311   4.200   1.035
 5037SOL    HW216011   4.291   4.181   1.196
 5038SOL     OW16012   3.655   3.775   3.928
 5038SOL    HW116013   3.657   3.691   3.874
 5038SOL    HW216014   3.738   3.828   3.913
 5039SOL     OW16015   0.873   3.314   6.978
 5039SOL    HW116016   0.859   3.304   6.879
 5039SOL    HW216017   0.954   3.263   7.006
 5040SOL     OW16018   0.358   0.022   5.871
 5040SOL    HW116019   0.364   0.021   5.771
 5040SOL    HW216020   0.283   6.986   5.900
 5041SOL     OW16021   6.745   3.653   1.975
 5041SOL    HW116022   6.716   3.746   1.999
 5041SOL    HW216023   6.693   3.621   1.896
 5042SOL     OW16024   0.494   2.625   6.156
 5042SOL    HW116025   0.451   2.688   6.220
 5042SOL    HW216026   0.501   2.669   6.066
 5043SOL     OW16027   4.320   6.432   1.037
 5043SOL    HW116028   4.293   6.339   1.016
 5043SOL    HW216029   4.239   6.487   1.056
 5044SOL     OW16030   5.808   4.932   0.741
 5044SOL    HW116031   5.834   4.981   0.823
 5044SOL    HW216032   5.711   4.947   0.722
 5045SOL     OW16033   6.186   3.659   6.393
 5045SOL    HW116034   6.090   3.685   6.388
 5045SOL    HW216035   6.210   3.604   6.314
 5046SOL     OW16036   3.505   3.345   3.263
 5046SOL    HW116037   3.464   3.423   3.310
 5046SOL    HW216038   3.525   3.371   3.168
 5047SOL     OW16039   1.112   3.562   3.037
 5047SOL    HW116040   1.045   3.630   3.067
 5047SOL    HW216041   1.081   3.520   2.951
 5048SOL     OW16042   1.863   1.307   5.695
 5048SOL    HW116043   1.839   1.321   5.791
 5048SOL    HW216044   1.951   1.350   5.676
 5049SOL     OW16045   5.087   1.291   6.484
 5049SOL    HW116046   5.093   1.380   6.528
 5049SOL    HW216047   4.991   1.267   6.470
 5050SOL     OW16048   1.743   0.425   1.283
 5050SOL    HW116049   1.831   0.449   1.242
 5050SOL    HW216050   1.702   0.350   1.232
 5051SOL     OW16051   3.899   5.227   1.125
 5051SOL    HW116052   3.989   5.198   1.090
 5051SOL    HW216053   3.828   5.192   1.065
 5052SOL     OW16054   2.560   1.010   5.785
 5052SOL    HW116055   2.620   0.988   5.862
 5052SOL    HW216056   2.580   0.948   5.709
 5053SOL     OW16057   0.157   0.004   2.163
 5053SOL    HW116058   0.063   6.996   2.174
 5053SOL    HW216059   0.158   0.096   2.124
 5054SOL     OW16060   3.748   5.152   3.958
 5054SOL    HW116061   3.740   5.114   4.050
 5054SOL    HW216062   3.824   5.218   3.956
 5055SOL     OW16063   6.318   3.069   6.602
 5055SOL    HW116064   6.258   3.144   6.632
 5055SOL    HW216065   6.283   2.982   6.638
 5056SOL     OW16066   4.986   4.195   5.205
 5056SOL    HW116067   5.042   4.113   5.211
 5056SOL    HW216068   4.912   4.180   5.139
 5057SOL     OW16069   1.012   6.159   2.546
 5057SOL    HW116070   0.914   6.176   2.555
 5057SOL    HW216071   1.054   6.150   2.637
 5058SOL     OW16072   3.282   4.877   5.566
 5058SOL    HW116073   3.373   4.835   5.561
 5058SOL    HW216074   3.223   4.821   5.624
 5059SOL     OW16075   0.755   0.321   2.028
 5059SOL    HW116076   0.718   0.245   2.082
 5059SOL    HW216077   0.685   0.391   2.017
 5060SOL     OW16078   6.518   1.756   5.409
 5060SOL    HW116079   6.557   1.788   5.495
 5060SOL    HW216080   6.487   1.662   5.419
 5061SOL     OW16081   5.597   4.218   0.206
 5061SOL    HW116082   5.560   4.262   0.124
 5061SOL    HW216083   5.549   4.252   0.287
 5062SOL     OW16084   0.567   0.232   1.088
 5062SOL    HW116085   0.493   0.177   1.126
 5062SOL    HW216086   0.640   0.172   1.055
 5063SOL     OW16087   1.194   6.515   1.733
 5063SOL    HW116088   1.287   6.535   1.702
 5063SOL    HW216089   1.131   6.582   1.694
 5064SOL     OW16090   4.861   3.114   6.738
 5064SOL    HW116091   4.959   3.105   6.752
 5064SOL    HW216092   4.830   3.202   6.774
 5065SOL     OW16093   2.183   6.261   5.720
 5065SOL    HW116094   2.125   6.340   5.739
 5065SOL    HW216095   2.248   6.284   5.646
 5066SOL     OW16096   5.178   4.786   1.432
 5066SOL    HW116097   5.174   4.809   1.334
 5066SOL    HW216098   5.085   4.773   1.467
 5067SOL     OW16099   4.681   0.852   0.471
 5067SOL    HW116100   4.771   0.830   0.508
 5067SOL    HW216101   4.618   0.777   0.488
 5068SOL     OW16102   2.675   4.947   1.351
 5068SOL    HW116103   2.772   4.952   1.324
 5068SOL    HW216104   2.667   4.960   1.450
 5069SOL     OW16105   0.791   4.579   3.535
 5069SOL    HW116106   0.709   4.560   3.481
 5069SOL    HW216107   0.801   4.509   3.606
 5070SOL     OW16108   5.151   2.921   4.038
 5070SOL    HW116109   5.229   2.982   4.047
 5070SOL    HW216110   5.066   2.971   4.052
 5071SOL     OW16111   4.242   1.162   6.799
 5071SOL    HW116112   4.314   1.120   6.745
 5071SOL    HW216113   4.282   1.230   6.860
 5072SOL     OW16114   1.380   4.298   1.413
 5072SOL    HW116115   1.412   4.236   1.484
 5072SOL    HW216116   1.306   4.255   1.361
 5073SOL     OW16117   3.884   1.566   3.775
 5073SOL    HW116118   3.788   1.543   3.764
 5073SOL    HW216119   3.898   1.613   3.862
 5074SOL     OW16120   3.223   4.138   6.074
 5074SOL    HW116121   3.241   4.107   6.167
 5074SOL    HW216122   3.163   4.219   6.077
 5075SOL     OW16123   0.090   5.321   4.580
 5075SOL    HW116124   7.022   5.321   4.624
 5075SOL    HW216125   0.158   5.358   4.644
 5076SOL     OW16126   3.391   6.977   1.269
 5076SOL    HW116127   3.485   6.982   1.235
 5076SOL    HW216128   3.381   6.898   1.330
 5077SOL     OW16129   0.287   2.129   2.533
 5077SOL    HW116130   0.238   2.192   2.472
 5077SOL    HW216131   0.385   2.149   2.530
 5078SOL     OW16132   1.214   1.204   3.629
 5078SOL    HW116133   1.291   1.189   3.691
 5078SOL    HW216134   1.181   1.117   3.593
 5079SOL     OW16135   3.739   5.343   5.214
 5079SOL    HW116136   3.823   5.385   5.182
 5079SOL    HW216137   3.708   5.274   5.148
 5080SOL     OW16138   5.785   6.522   5.638
 5080SOL    HW116139   5.828   6.603   5.599
 5080SOL    HW216140   5.754   6.462   5.565
 5081SOL     OW16141   3.388   3.598   3.342
 5081SOL    HW116142   3.373   3.647   3.428
 5081SOL    HW216143   3.300   3.572   3.303
 5082SOL     OW16144   6.063   5.833   4.871
 5082SOL    HW116145   6.125   5.850   4.948
 5082SOL    HW216146   5.983   5.892   4.880
 5083SOL     OW16147   1.822   5.548   1.794
 5083SOL    HW116148   1.905   5.584   1.751
 5083SOL    HW216149   1.831   5.552   1.893
 5084SOL     OW16150   2.044   6.192   3.867
 5084SOL    HW116151   2.118   6.154   3.924
 5084SOL    HW216152   1.985   6.250   3.923
 5085SOL     OW16153   6.333   2.675   6.160
 5085SOL    HW116154   6.289   2.747   6.107
 5085SOL    HW216155   6.301   2.680   6.255
 5086SOL     OW16156   6.805   5.194   3.594
 5086SOL    HW116157   6.874   5.265   3.582
 5086SOL    HW216158   6.714   5.235   3.597
 5087SOL     OW16159   0.316   5.647   5.781
 5087SOL    HW116160   0.252   5.666   5.706
 5087SOL    HW216161   0.285   5.693   5.864
 5088SOL     OW16162   5.606   0.200   6.752
 5088SOL    HW116163   5.531   0.139   6.777
 5088SOL    HW216164   5.683   0.185   6.813
 5089SOL     OW16165   5.148   3.320   3.533
 5089SOL    HW116166   5.201   3.243   3.497
 5089SOL    HW216167   5.201   3.404   3.529
 5090SOL     OW16168   1.657   4.901   1.142
 5090SOL    HW116169   1.725   4.846   1.191
 5090SOL    HW216170   1.578   4.917   1.202
 5091SOL     OW16171   1.401   5.515   2.719
 5091SOL    HW116172   1.407   5.562   2.808
 5091SOL    HW216173   1.386   5.418   2.734
 5092SOL     OW16174   3.583   2.523   1.743
 5092SOL    HW116175   3.664   2.581   1.736
 5092SOL    HW216176   3.607   2.440   1.794
 5093SOL     OW16177   0.585   2.225   1.590
 5093SOL    HW116178   0.522   2.230   1.668
 5093SOL    HW216179   0.670   2.274   1.613
 5094SOL     OW16180   7.016   0.274   6.387
 5094SOL    HW116181   0.012   0.275   6.485
 5094SOL    HW216182   6.919   0.253   6.371
 5095SOL     OW16183   2.708   6.770   5.546
 5095SOL    HW116184   2.728   6.841   5.478
 5095SOL    HW216185   2.791   6.717   5.565
 5096SOL     OW16186   4.029   4.838   1.715
 5096SOL    HW116187   4.044   4.740   1.728
 5096SOL    HW216188   3.930   4.856   1.711
 5097SOL     OW16189   0.944   0.338   6.207
 5097SOL    HW116190   0.995   0.252   6.210
 5097SOL    HW216191   1.007   0.415   6.213
 5098SOL     OW16192   0.275   2.277   2.777
 5098SOL    HW116193   0.289   2.234   2.688
 5098SOL    HW216194   0.319   2.222   2.848
 5099SOL     OW16195   0.642   0.138   4.672
 5099SOL    HW116196   0.656   0.237   4.666
 5099SOL    HW216197   0.576   0.109   4.603
 5100SOL     OW16198   5.257   6.725   5.920
 5100SOL    HW116199   5.168   6.755   5.886
 5100SOL    HW216200   5.324   6.729   5.846
 5101SOL     OW16201   4.494   5.932   0.358
 5101SOL    HW116202   4.540   6.021   0.357
 5101SOL    HW216203   4.471   5.905   0.264
 5102SOL     OW16204   3.472   6.708   5.107
 5102SOL    HW116205   3.449   6.626   5.160
 5102SOL    HW216206   3.433   6.788   5.151
 5103SOL     OW16207   1.071   0.774   4.458
 5103SOL    HW116208   1.152   0.717   4.476
 5103SOL    HW216209   1.004   0.720   4.408
 5104SOL     OW16210   1.293   6.929   1.106
 5104SOL    HW116211   1.363   6.868   1.142
 5104SOL    HW216212   1.261   6.989   1.180
 5105SOL     OW16213   2.653   3.306   6.763
 5105SOL    HW116214   2.588   3.325   6.689
 5105SOL    HW216215   2.738   3.355   6.745
 5106SOL     OW16216   3.017   0.235   2.363
 5106SOL    HW116217   3.002   0.191   2.275
 5106SOL    HW216218   3.109   0.273   2.367
 5107SOL     OW16219   1.525   6.775   5.757
 5107SOL    HW116220   1.434   6.777   5.716
 5107SOL    HW216221   1.525   6.712   5.834
 5108SOL     OW16222   3.178   3.535   3.850
 5108SOL    HW116223   3.242   3.543   3.927
 5108SOL    HW216224   3.177   3.441   3.817
 5109SOL     OW16225   7.013   1.250   1.316
 5109SOL    HW116226   0.059   1.323   1.305
 5109SOL    HW216227   6.923   1.291   1.330
 5110SOL     OW16228   2.254   5.873   5.753
 5110SOL    HW116229   2.155   5.858   5.749
 5110SOL    HW216230   2.302   5.785   5.746
 5111SOL     OW16231   1.669   0.939   0.297
 5111SOL    HW116232   1.755   0.929   0.246
 5111SOL    HW216233   1.690   0.967   0.391
 5112SOL     OW16234   0.121   6.540   3.566
 5112SOL    HW116235   0.063   6.556   3.487
 5112SOL    HW216236   0.207   6.499   3.536
 5113SOL     OW16237   1.028   6.954   6.594
 5113SOL    HW116238   0.983   6.981   6.508
 5113SOL    HW216239   0.969   6.978   6.671
 5114SOL     OW16240   4.280   4.967   0.293
 5114SOL    HW116241   4.257   5.004   0.203
 5114SOL    HW216242   4.236   4.878   0.305
 5115SOL     OW16243   1.971   3.717   5.226
 5115SOL    HW116244   2.025   3.795   5.194
 5115SOL    HW216245   2.002   3.690   5.317
 5116SOL     OW16246   0.253   3.851   1.226
 5116SOL    HW116247   0.212   3.929   1.274
 5116SOL    HW216248   0.313   3.884   1.154
 5117SOL     OW16249   2.526   4.528   4.260
 5117SOL    HW116250   2.486   4.438   4.246
 5117SOL    HW216251   2.625   4.522   4.254
 5118SOL     OW16252   4.553   6.468   1.198
 5118SOL    HW116253   4.466   6.425   1.172
 5118SOL    HW216254   4.582   6.531   1.126
 5119SOL     OW16255   5.999   0.163   2.429
 5119SOL    HW116256   6.059   0.215   2.368
 5119SOL    HW216257   5.975   0.077   2.385
 5120SOL     OW16258   4.557   1.164   2.643
 5120SOL    HW116259   4.645   1.202   2.615
 5120SOL    HW216260   4.499   1.154   2.562
 5121SOL     OW16261   0.591   3.855   5.533
 5121SOL    HW116262   0.625   3.919   5.602
 5121SOL    HW216263   0.505   3.890   5.495
 5122SOL     OW16264   1.540   6.502   3.828
 5122SOL    HW116265   1.635   6.515   3.858
 5122SOL    HW216266   1.479   6.505   3.907
 5123SOL     OW16267   5.465   4.515   2.112
 5123SOL    HW116268   5.507   4.550   2.028
 5123SOL    HW216269   5.465   4.586   2.182
 5124SOL     OW16270   2.773   6.122   6.795
 5124SOL    HW116271   2.675   6.125   6.815
 5124SOL    HW216272   2.797   6.197   6.734
 5125SOL     OW16273   6.849   2.375   5.863
 5125SOL    HW116274   6.883   2.336   5.949
 5125SOL    HW216275   6.750   2.389   5.870
 5126SOL     OW16276   5.087   3.305   6.360
 5126SOL    HW116277   5.030   3.384   6.338
 5126SOL    HW216278   5.153   3.330   6.431
 5127SOL     OW16279   5.504   2.990   6.699
 5127SOL    HW116280   5.473   2.978   6.793
 5127SOL    HW216281   5.586   3.047   6.698
 5128SOL     OW16282   0.742   0.161   6.910
 5128SOL    HW116283   0.744   0.071   6.867
 5128SOL    HW216284   0.745   0.151   7.009
 5129SOL     OW16285   4.112   2.198   2.261
 5129SOL    HW116286   4.178   2.124   2.274
 5129SOL    HW216287   4.159   2.286   2.261
 5130SOL     OW16288   1.059   6.474   4.791
 5130SOL    HW116289   0.991   6.425   4.845
 5130SOL    HW216290   1.080   6.422   4.708
 5131SOL     OW16291   3.757   4.935   3.484
 5131SOL    HW116292   3.793   4.868   3.549
 5131SOL    HW216293   3.814   5.017   3.487
 5132SOL     OW16294   3.370   1.163   6.777
 5132SOL    HW116295   3.409   1.093   6.718
 5132SOL    HW216296   3.420   1.249   6.765
 5133SOL     OW16297   4.876   4.084   6.874
 5133SOL    HW116298   4.824   4.124   6.799
 5133SOL    HW216299   4.919   4.157   6.927
 5134SOL     OW16300   5.959   6.077   0.684
 5134SOL    HW116301   5.991   5.998   0.737
 5134SOL    HW216302   6.035   6.116   0.633
 5135SOL     OW16303   6.831   2.993   2.748
 5135SOL    HW116304   6.756   3.029   2.693
 5135SOL    HW216305   6.910   3.055   2.742
 5136SOL     OW16306   1.290   1.350   5.893
 5136SOL    HW116307   1.387   1.342   5.870
 5136SOL    HW216308   1.264   1.447   5.890
 5137SOL     OW16309   5.779   1.053   4.224
 5137SOL    HW116310   5.796   0.961   4.187
 5137SOL    HW216311   5.790   1.121   4.151
 5138SOL     OW16312   3.187   2.987   3.708
 5138SOL    HW116313   3.234   2.999   3.796
 5138SOL    HW216314   3.249   2.944   3.643
 5139SOL     OW16315   2.656   0.528   5.757
 5139SOL    HW116316   2.604   0.530   5.672
 5139SOL    HW216317   2.593   0.515   5.834
 5140SOL     OW16318   3.413   3.343   6.572
 5140SOL    HW116319   3.335   3.280   6.567
 5140SOL    HW216320   3.443   3.367   6.480
 5141SOL     OW16321   6.901   2.888   1.358
 5141SOL    HW116322   6.871   2.816   1.296
 5141SOL    HW216323   7.001   2.887   1.364
 5142SOL     OW16324   0.322   6.976   2.433
 5142SOL    HW116325   0.315   7.022   2.344
 5142SOL    HW216326   0.285   0.013   2.504
 5143SOL     OW16327   6.780   6.691   2.242
 5143SOL    HW116328   6.843   6.627   2.199
 5143SOL    HW216329   6.708   6.640   2.289
 5144SOL     OW16330   2.120   3.042   5.410
 5144SOL    HW116331   2.178   3.115   5.373
 5144SOL    HW216332   2.171   2.990   5.478
 5145SOL     OW16333   2.366   5.397   6.370
 5145SOL    HW116334   2.308   5.395   6.451
 5145SOL    HW216335   2.325   5.341   6.298
 5146SOL     OW16336   5.500   5.693   6.754
 5146SOL    HW116337   5.570   5.764   6.754
 5146SOL    HW216338   5.481   5.664   6.660
 5147SOL     OW16339   4.395   2.433   3.210
 5147SOL    HW116340   4.360   2.340   3.194
 5147SOL    HW216341   4.372   2.491   3.133
 5148SOL     OW16342   0.476   0.484   6.534
 5148SOL    HW116343   0.408   0.415   6.560
 5148SOL    HW216344   0.552   0.481   6.599
 5149SOL     OW16345   4.527   4.943   4.357
 5149SOL    HW116346   4.593   4.900   4.418
 5149SOL    HW216347   4.536   4.902   4.266
 5150SOL     OW16348   6.606   6.889   3.773
 5150SOL    HW116349   6.521   6.837   3.780
 5150SOL    HW216350   6.590   6.971   3.718
 5151SOL     OW16351   6.073   6.142   2.222
 5151SOL    HW116352   6.026   6.156   2.309
 5151SOL    HW216353   6.054   6.050   2.188
 5152SOL     OW16354   1.806   1.455   0.061
 5152SOL    HW116355   1.781   1.381   0.123
 5152SOL    HW216356   1.822   1.418   6.992
 5153SOL     OW16357   1.110   2.217   0.982
 5153SOL    HW116358   1.114   2.267   0.895
 5153SOL    HW216359   1.015   2.195   1.003
 5154SOL     OW16360   6.781   2.981   1.030
 5154SOL    HW116361   6.742   3.073   1.027
 5154SOL    HW216362   6.881   2.988   1.037
 5155SOL     OW16363   1.474   1.650   6.767
 5155SOL    HW116364   1.394   1.597   6.738
 5155SOL    HW216365   1.556   1.614   6.722
 5156SOL     OW16366   5.738   6.026   5.051
 5156SOL    HW116367   5.681   5.961   5.001
 5156SOL    HW216368   5.797   5.976   5.115
 5157SOL     OW16369   3.696   0.109   1.520
 5157SOL    HW116370   3.636   0.186   1.542
 5157SOL    HW216371   3.730   0.118   1.427
 5158SOL     OW16372   1.507   2.222   1.693
 5158SOL    HW116373   1.590   2.235   1.747
 5158SOL    HW216374   1.427   2.231   1.752
 5159SOL     OW16375   6.322   3.070   6.011
 5159SOL    HW116376   6.272   3.134   5.952
 5159SOL    HW216377   6.351   2.991   5.957
 5160SOL     OW16378   6.304   0.030   3.563
 5160SOL    HW116379   6.289   6.971   3.507
 5160SOL    HW216380   6.402   0.046   3.574
 5161SOL     OW16381   1.929   3.078   0.528
 5161SOL    HW116382   1.905   2.999   0.583
 5161SOL    HW216383   1.891   3.067   0.436
 5162SOL     OW16384   6.551   0.189   3.945
 5162SOL    HW116385   6.516   0.283   3.944
 5162SOL    HW216386   6.488   0.130   3.894
 5163SOL     OW16387   3.205   0.490   2.174
 5163SOL    HW116388   3.177   0.462   2.082
 5163SOL    HW216389   3.133   0.545   2.216
 5164SOL     OW16390   2.991   3.532   6.964
 5164SOL    HW116391   2.911   3.500   7.015
 5164SOL    HW216392   2.982   3.504   6.869
 5165SOL     OW16393   1.986   3.914   6.390
 5165SOL    HW116394   1.892   3.945   6.405
 5165SOL    HW216395   2.012   3.929   6.295
 5166SOL     OW16396   0.806   4.669   0.931
 5166SOL    HW116397   0.874   4.740   0.911
 5166SOL    HW216398   0.844   4.580   0.908
 5167SOL     OW16399   5.583   3.492   5.522
 5167SOL    HW116400   5.571   3.483   5.423
 5167SOL    HW216401   5.495   3.478   5.567
 5168SOL     OW16402   4.459   2.163   2.917
 5168SOL    HW116403   4.423   2.231   2.853
 5168SOL    HW216404   4.467   2.075   2.871
 5169SOL     OW16405   4.299   5.641   4.565
 5169SOL    HW116406   4.224   5.591   4.522
 5169SOL    HW216407   4.378   5.640   4.504
 5170SOL     OW16408   1.834   3.249   6.618
 5170SOL    HW116409   1.861   3.180   6.685
 5170SOL    HW216410   1.837   3.340   6.660
 5171SOL     OW16411   2.502   5.805   6.157
 5171SOL    HW116412   2.411   5.835   6.184
 5171SOL    HW216413   2.525   5.842   6.067
 5172SOL     OW16414   6.155   5.537   4.897
 5172SOL    HW116415   6.232   5.571   4.844
 5172SOL    HW216416   6.070   5.573   4.858
 5173SOL     OW16417   4.183   5.190   5.915
 5173SOL    HW116418   4.209   5.123   5.845
 5173SOL    HW216419   4.099   5.237   5.885
 5174SOL     OW16420   2.373   6.507   4.029
 5174SOL    HW116421   2.300   6.439   4.024
 5174SOL    HW216422   2.413   6.506   4.121
 5175SOL     OW16423   2.920   3.274   0.213
 5175SOL    HW116424   2.955   3.182   0.233
 5175SOL    HW216425   2.927   3.331   0.295
 5176SOL     OW16426   6.039   6.027   6.717
 5176SOL    HW116427   6.042   5.936   6.758
 5176SOL    HW216428   6.133   6.060   6.702
 5177SOL     OW16429   6.286   7.003   0.702
 5177SOL    HW116430   6.263   6.923   0.757
 5177SOL    HW216431   6.212   0.048   0.709
 5178SOL     OW16432   0.937   4.224   1.396
 5178SOL    HW116433   0.968   4.281   1.473
 5178SOL    HW216434   0.837   4.230   1.389
 5179SOL     OW16435   4.734   5.844   2.985
 5179SOL    HW116436   4.703   5.807   3.073
 5179SOL    HW216437   4.730   5.944   2.988
 5180SOL     OW16438   2.106   5.800   2.680
 5180SOL    HW116439   2.012   5.821   2.653
 5180SOL    HW216440   2.111   5.793   2.780
 5181SOL     OW16441   6.875   0.025   5.926
 5181SOL    HW116442   6.868   0.124   5.931
 5181SOL    HW216443   6.881   7.009   6.018
 5182SOL     OW16444   2.682   6.536   3.284
 5182SOL    HW116445   2.676   6.581   3.373
 5182SOL    HW216446   2.599   6.482   3.268
 5183SOL     OW16447   4.398   2.025   3.569
 5183SOL    HW116448   4.342   1.945   3.591
 5183SOL    HW216449   4.415   2.028   3.470
 5184SOL     OW16450   2.553   1.368   3.213
 5184SOL    HW116451   2.537   1.360   3.311
 5184SOL    HW216452   2.652   1.366   3.195
 5185SOL     OW16453   6.526   0.716   2.005
 5185SOL    HW116454   6.547   0.639   2.066
 5185SOL    HW216455   6.611   0.763   1.981
 5186SOL     OW16456   6.942   3.805   6.658
 5186SOL    HW116457   6.856   3.755   6.662
 5186SOL    HW216458   6.927   3.894   6.615
 5187SOL     OW16459   1.285   4.609   5.350
 5187SOL    HW116460   1.250   4.521   5.381
 5187SOL    HW216461   1.373   4.596   5.304
 5188SOL     OW16462   5.779   6.926   2.580
 5188SOL    HW116463   5.830   6.940   2.665
 5188SOL    HW216464   5.810   6.840   2.538
 5189SOL     OW16465   5.247   0.216   6.327
 5189SOL    HW116466   5.227   0.122   6.354
 5189SOL    HW216467   5.346   0.231   6.327
 5190SOL     OW16468   1.971   4.563   0.315
 5190SOL    HW116469   2.067   4.591   0.322
 5190SOL    HW216470   1.912   4.640   0.337
 5191SOL     OW16471   2.849   4.812   1.730
 5191SOL    HW116472   2.833   4.749   1.806
 5191SOL    HW216473   2.946   4.811   1.706
 5192SOL     OW16474   1.469   4.743   2.454
 5192SOL    HW116475   1.549   4.701   2.412
 5192SOL    HW216476   1.404   4.768   2.382
 5193SOL     OW16477   5.731   0.859   5.489
 5193SOL    HW116478   5.753   0.956   5.474
 5193SOL    HW216479   5.715   0.844   5.587
 5194SOL     OW16480   4.838   1.239   5.938
 5194SOL    HW116481   4.853   1.145   5.969
 5194SOL    HW216482   4.897   1.301   5.991
 5195SOL     OW16483   0.664   0.630   5.068
 5195SOL    HW116484   0.567   0.649   5.051
 5195SOL    HW216485   0.710   0.714   5.096
 5196SOL     OW16486   6.352   6.786   3.497
 5196SOL    HW116487   6.377   6.814   3.590
 5196SOL    HW216488   6.261   6.744   3.498
 5197SOL     OW16489   1.011   2.861   4.602
 5197SOL    HW116490   0.924   2.911   4.596
 5197SOL    HW216491   1.031   2.842   4.699
 5198SOL     OW16492   5.705   5.122   3.694
 5198SOL    HW116493   5.759   5.045   3.729
 5198SOL    HW216494   5.764   5.179   3.636
 5199SOL     OW16495   0.621   4.677   1.663
 5199SOL    HW116496   0.554   4.723   1.721
 5199SOL    HW216497   0.616   4.578   1.679
 5200SOL     OW16498   7.012   3.653   4.590
 5200SOL    HW116499   0.039   3.620   4.510
 5200SOL    HW216500   6.983   3.576   4.646
 5201SOL     OW16501   0.590   5.272   4.382
 5201SOL    HW116502   0.499   5.291   4.345
 5201SOL    HW216503   0.620   5.349   4.438
 5202SOL     OW16504   1.172   4.680   2.208
 5202SOL    HW116505   1.094   4.680   2.146
 5202SOL    HW216506   1.141   4.702   2.301
 5203SOL     OW16507   0.514   2.913   0.146
 5203SOL    HW116508   0.608   2.937   0.122
 5203SOL    HW216509   0.512   2.874   0.238
 5204SOL     OW16510   4.614   4.013   6.902
 5204SOL    HW116511   4.712   4.004   6.882
 5204SOL    HW216512   4.574   4.080   6.840
 5205SOL     OW16513   1.654   0.154   1.106
 5205SOL    HW116514   1.623   0.060   1.112
 5205SOL    HW216515   1.671   0.178   1.010
 5206SOL     OW16516   0.358   4.095   4.805
 5206SOL    HW116517   0.396   4.055   4.721
 5206SOL    HW216518   0.349   4.194   4.793
 5207SOL     OW16519   1.696   4.487   4.198
 5207SOL    HW116520   1.630   4.503   4.271
 5207SOL    HW216521   1.683   4.395   4.161
 5208SOL     OW16522   4.393   1.164   0.153
 5208SOL    HW116523   4.397   1.252   0.106
 5208SOL    HW216524   4.473   1.109   0.129
 5209SOL     OW16525   5.724   5.835   2.815
 5209SOL    HW116526   5.653   5.852   2.747
 5209SOL    HW216527   5.761   5.922   2.848
 5210SOL     OW16528   4.539   4.780   3.241
 5210SOL    HW116529   4.571   4.731   3.322
 5210SOL    HW216530   4.571   4.733   3.159
 5211SOL     OW16531   3.931   3.643   2.492
 5211SOL    HW116532   3.837   3.611   2.507
 5211SOL    HW216533   3.940   3.736   2.526
 5212SOL     OW16534   0.980   1.748   0.280
 5212SOL    HW116535   0.884   1.719   0.271
 5212SOL    HW216536   1.031   1.677   0.328
 5213SOL     OW16537   4.369   2.507   6.566
 5213SOL    HW116538   4.464   2.529   6.586
 5213SOL    HW216539   4.363   2.412   6.535
 5214SOL     OW16540   5.524   1.850   6.355
 5214SOL    HW116541   5.547   1.759   6.321
 5214SOL    HW216542   5.493   1.907   6.278
 5215SOL     OW16543   5.504   5.234   2.396
 5215SOL    HW116544   5.598   5.230   2.362
 5215SOL    HW216545   5.481   5.329   2.416
 5216SOL     OW16546   4.436   5.546   1.179
 5216SOL    HW116547   4.492   5.466   1.200
 5216SOL    HW216548   4.486   5.629   1.203
 5217SOL     OW16549   3.153   4.876   3.717
 5217SOL    HW116550   3.156   4.918   3.626
 5217SOL    HW216551   3.059   4.854   3.741
 5218SOL     OW16552   1.685   0.014   4.405
 5218SOL    HW116553   1.759   0.015   4.338
 5218SOL    HW216554   1.673   6.944   4.441
 5219SOL     OW16555   2.558   5.708   0.478
 5219SOL    HW116556   2.494   5.779   0.506
 5219SOL    HW216557   2.530   5.672   0.388
 5220SOL     OW16558   0.786   6.772   2.540
 5220SOL    HW116559   0.779   6.755   2.638
 5220SOL    HW216560   0.759   6.690   2.489
 5221SOL     OW16561   5.362   1.781   4.747
 5221SOL    HW116562   5.323   1.747   4.662
 5221SOL    HW216563   5.290   1.794   4.814
 5222SOL     OW16564   1.277   0.053   2.314
 5222SOL    HW116565   1.357   0.101   2.349
 5222SOL    HW216566   1.256   6.997   2.373
 5223SOL     OW16567   5.375   6.882   1.215
 5223SOL    HW116568   5.345   6.899   1.309
 5223SOL    HW216569   5.299   6.846   1.162
 5224SOL     OW16570   5.628   1.868   2.896
 5224SOL    HW116571   5.675   1.829   2.817
 5224SOL    HW216572   5.536   1.898   2.869
 5225SOL     OW16573   5.102   6.152   5.169
 5225SOL    HW116574   5.021   6.094   5.177
 5225SOL    HW216575   5.098   6.224   5.238
 5226SOL     OW16576   1.539   6.386   4.249
 5226SOL    HW116577   1.532   6.472   4.198
 5226SOL    HW216578   1.635   6.361   4.260
 5227SOL     OW16579   6.208   4.614   2.769
 5227SOL    HW116580   6.264   4.696   2.782
 5227SOL    HW216581   6.261   4.533   2.793
 5228SOL     OW16582   5.790   0.498   1.231
 5228SOL    HW116583   5.811   0.426   1.297
 5228SOL    HW216584   5.795   0.462   1.138
 5229SOL     OW16585   1.266   4.605   5.042
 5229SOL    HW116586   1.246   4.620   5.139
 5229SOL    HW216587   1.190   4.556   5.000
 5230SOL     OW16588   1.367   5.975   6.886
 5230SOL    HW116589   1.407   5.905   6.944
 5230SOL    HW216590   1.440   6.032   6.847
 5231SOL     OW16591   3.660   2.980   3.903
 5231SOL    HW116592   3.751   3.005   3.937
 5231SOL    HW216593   3.665   2.961   3.805
 5232SOL     OW16594   4.551   2.804   6.049
 5232SOL    HW116595   4.578   2.715   6.012
 5232SOL    HW216596   4.621   2.871   6.027
 5233SOL     OW16597   0.507   0.548   2.457
 5233SOL    HW116598   0.572   0.530   2.531
 5233SOL    HW216599   0.492   0.647   2.450
 5234SOL     OW16600   3.805   6.309   1.263
 5234SOL    HW116601   3.886   6.354   1.224
 5234SOL    HW216602   3.834   6.236   1.325
 5235SOL     OW16603   1.107   3.574   1.301
 5235SOL    HW116604   1.093   3.606   1.207
 5235SOL    HW216605   1.019   3.549   1.342
 5236SOL     OW16606   5.175   3.142   0.719
 5236SOL    HW116607   5.231   3.103   0.791
 5236SOL    HW216608   5.108   3.206   0.758
 5237SOL     OW16609   2.317   1.866   4.567
 5237SOL    HW116610   2.335   1.941   4.630
 5237SOL    HW216611   2.378   1.789   4.587
 5238SOL     OW16612   1.640   4.234   1.233
 5238SOL    HW116613   1.540   4.236   1.240
 5238SOL    HW216614   1.679   4.215   1.323
 5239SOL     OW16615   2.958   3.775   4.713
 5239SOL    HW116616   2.861   3.751   4.706
 5239SOL    HW216617   3.008   3.732   4.638
 5240SOL     OW16618   3.361   2.109   4.867
 5240SOL    HW116619   3.276   2.160   4.852
 5240SOL    HW216620   3.421   2.161   4.928
 5241SOL     OW16621   2.382   5.564   6.030
 5241SOL    HW116622   2.285   5.560   6.053
 5241SOL    HW216623   2.424   5.641   6.078
 5242SOL     OW16624   5.058   1.367   6.056
 5242SOL    HW116625   5.107   1.293   6.102
 5242SOL    HW216626   5.101   1.454   6.079
 5243SOL     OW16627   0.899   4.374   1.081
 5243SOL    HW116628   0.970   4.358   1.149
 5243SOL    HW216629   0.821   4.419   1.124
 5244SOL     OW16630   5.381   3.806   6.750
 5244SOL    HW116631   5.349   3.900   6.761
 5244SOL    HW216632   5.450   3.786   6.820
 5245SOL     OW16633   4.999   3.968   6.416
 5245SOL    HW116634   4.929   3.928   6.475
 5245SOL    HW216635   4.963   3.978   6.323
 5246SOL     OW16636   0.913   3.510   2.655
 5246SOL    HW116637   0.968   3.449   2.711
 5246SOL    HW216638   0.972   3.554   2.587
 5247SOL     OW16639   0.807   4.968   1.225
 5247SOL    HW116640   0.804   5.026   1.144
 5247SOL    HW216641   0.856   5.016   1.298
 5248SOL     OW16642   4.603   0.964   6.465
 5248SOL    HW116643   4.551   0.888   6.505
 5248SOL    HW216644   4.668   0.928   6.398
 5249SOL     OW16645   1.216   5.510   5.486
 5249SOL    HW116646   1.135   5.463   5.453
 5249SOL    HW216647   1.196   5.552   5.575
 5250SOL     OW16648   0.203   1.332   6.174
 5250SOL    HW116649   0.290   1.380   6.180
 5250SOL    HW216650   0.199   1.260   6.244
 5251SOL     OW16651   6.871   2.730   1.126
 5251SOL    HW116652   6.911   2.690   1.043
 5251SOL    HW216653   6.849   2.826   1.109
 5252SOL     OW16654   3.974   6.157   0.469
 5252SOL    HW116655   4.041   6.098   0.424
 5252SOL    HW216656   4.021   6.237   0.508
 5253SOL     OW16657   5.730   2.856   3.759
 5253SOL    HW116658   5.788   2.848   3.840
 5253SOL    HW216659   5.726   2.951   3.729
 5254SOL     OW16660   4.398   1.022   3.884
 5254SOL    HW116661   4.399   0.924   3.901
 5254SOL    HW216662   4.483   1.050   3.840
 5255SOL     OW16663   3.131   6.658   4.844
 5255SOL    HW116664   3.219   6.640   4.799
 5255SOL    HW216665   3.114   6.756   4.843
 5256SOL     OW16666   6.103   6.631   3.488
 5256SOL    HW116667   6.006   6.639   3.464
 5256SOL    HW216668   6.112   6.594   3.581
 5257SOL     OW16669   3.283   1.287   1.701
 5257SOL    HW116670   3.303   1.383   1.719
 5257SOL    HW216671   3.368   1.237   1.684
 5258SOL     OW16672   6.121   2.393   1.819
 5258SOL    HW116673   6.104   2.451   1.739
 5258SOL    HW216674   6.202   2.337   1.802
 5259SOL     OW16675   5.162   4.795   2.768
 5259SOL    HW116676   5.149   4.779   2.865
 5259SOL    HW216677   5.079   4.771   2.718
 5260SOL     OW16678   5.438   3.337   1.189
 5260SOL    HW116679   5.392   3.403   1.249
 5260SOL    HW216680   5.441   3.247   1.233
 5261SOL     OW16681   1.778   2.304   4.821
 5261SOL    HW116682   1.840   2.225   4.818
 5261SOL    HW216683   1.824   2.384   4.784
 5262SOL     OW16684   2.755   0.065   1.984
 5262SOL    HW116685   2.762   7.010   1.922
 5262SOL    HW216686   2.708   0.037   2.068
 5263SOL     OW16687   0.824   6.333   0.577
 5263SOL    HW116688   0.874   6.419   0.588
 5263SOL    HW216689   0.821   6.308   0.480
 5264SOL     OW16690   0.538   2.602   0.612
 5264SOL    HW116691   0.479   2.523   0.629
 5264SOL    HW216692   0.634   2.573   0.621
 5265SOL     OW16693   4.928   4.928   2.169
 5265SOL    HW116694   4.908   4.836   2.137
 5265SOL    HW216695   4.846   4.985   2.163
 5266SOL     OW16696   1.965   0.158   0.915
 5266SOL    HW116697   1.979   0.225   0.842
 5266SOL    HW216698   1.938   0.070   0.875
 5267SOL     OW16699   5.249   4.631   4.677
 5267SOL    HW116700   5.270   4.729   4.674
 5267SOL    HW216701   5.314   4.581   4.621
 5268SOL     OW16702   5.654   4.615   4.370
 5268SOL    HW116703   5.579   4.657   4.421
 5268SOL    HW216704   5.634   4.622   4.272
 5269SOL     OW16705   1.461   5.371   4.480
 5269SOL    HW116706   1.441   5.276   4.456
 5269SOL    HW216707   1.379   5.427   4.464
 5270SOL     OW16708   6.157   2.850   2.743
 5270SOL    HW116709   6.076   2.872   2.797
 5270SOL    HW216710   6.146   2.885   2.650
 5271SOL     OW16711   4.930   4.799   4.841
 5271SOL    HW116712   4.972   4.819   4.753
 5271SOL    HW216713   4.919   4.884   4.893
 5272SOL     OW16714   1.422   1.086   4.127
 5272SOL    HW116715   1.352   1.098   4.056
 5272SOL    HW216716   1.438   1.173   4.173
 5273SOL     OW16717   0.451   1.106   3.979
 5273SOL    HW116718   0.370   1.119   4.037
 5273SOL    HW216719   0.517   1.048   4.026
 5274SOL     OW16720   6.527   5.314   3.600
 5274SOL    HW116721   6.525   5.402   3.647
 5274SOL    HW216722   6.452   5.309   3.535
 5275SOL     OW16723   2.300   0.104   6.816
 5275SOL    HW116724   2.212   0.056   6.821
 5275SOL    HW216725   2.375   0.038   6.822
 5276SOL     OW16726   0.240   6.757   1.008
 5276SOL    HW116727   0.220   6.718   0.918
 5276SOL    HW216728   0.280   6.848   0.996
 5277SOL     OW16729   1.020   1.997   2.724
 5277SOL    HW116730   1.002   1.906   2.762
 5277SOL    HW216731   0.952   2.062   2.759
 5278SOL     OW16732   1.263   4.903   6.245
 5278SOL    HW116733   1.290   4.858   6.330
 5278SOL    HW216734   1.264   4.837   6.170
 5279SOL     OW16735   2.327   6.141   6.432
 5279SOL    HW116736   2.406   6.080   6.434
 5279SOL    HW216737   2.252   6.099   6.484
 5280SOL     OW16738   4.109   6.709   5.090
 5280SOL    HW116739   4.130   6.801   5.056
 5280SOL    HW216740   4.167   6.688   5.169
 5281SOL     OW16741   2.893   0.637   4.966
 5281SOL    HW116742   2.896   0.665   4.871
 5281SOL    HW216743   2.797   0.623   4.993
 5282SOL     OW16744   1.341   6.803   1.681
 5282SOL    HW116745   1.247   6.825   1.708
 5282SOL    HW216746   1.352   6.820   1.583
 5283SOL     OW16747   0.861   0.980   4.573
 5283SOL    HW116748   0.948   0.940   4.546
 5283SOL    HW216749   0.871   1.021   4.664
 5284SOL     OW16750   4.145   2.655   1.453
 5284SOL    HW116751   4.081   2.596   1.503
 5284SOL    HW216752   4.223   2.601   1.423
 5285SOL     OW16753   1.548   1.972   4.242
 5285SOL    HW116754   1.488   1.973   4.162
 5285SOL    HW216755   1.614   2.048   4.236
 5286SOL     OW16756   6.118   3.717   0.622
 5286SOL    HW116757   6.027   3.684   0.647
 5286SOL    HW216758   6.117   3.817   0.618
 5287SOL     OW16759   2.819   5.537   1.565
 5287SOL    HW116760   2.901   5.544   1.622
 5287SOL    HW216761   2.833   5.466   1.495
 5288SOL     OW16762   4.182   0.777   2.043
 5288SOL    HW116763   4.160   0.776   1.946
 5288SOL    HW216764   4.175   0.870   2.078
 5289SOL     OW16765   2.223   4.798   6.683
 5289SOL    HW116766   2.263   4.721   6.633
 5289SOL    HW216767   2.133   4.820   6.644
 5290SOL     OW16768   1.539   2.786   5.137
 5290SOL    HW116769   1.626   2.738   5.132
 5290SOL    HW216770   1.540   2.849   5.215
 5291SOL     OW16771   2.796   4.848   4.526
 5291SOL    HW116772   2.825   4.883   4.437
 5291SOL    HW216773   2.739   4.767   4.512
 5292SOL     OW16774   6.881   3.850   6.227
 5292SOL    HW116775   6.781   3.859   6.224
 5292SOL    HW216776   6.915   3.886   6.314
 5293SOL     OW16777   2.356   6.306   4.354
 5293SOL    HW116778   2.283   6.287   4.420
 5293SOL    HW216779   2.444   6.281   4.394
 5294SOL     OW16780   3.911   0.975   5.245
 5294SOL    HW116781   3.883   1.036   5.319
 5294SOL    HW216782   3.964   0.899   5.282
 5295SOL     OW16783   2.647   1.622   2.624
 5295SOL    HW116784   2.594   1.540   2.647
 5295SOL    HW216785   2.589   1.703   2.633
 5296SOL     OW16786   4.801   5.071   1.661
 5296SOL    HW116787   4.712   5.082   1.705
 5296SOL    HW216788   4.808   5.132   1.582
 5297SOL     OW16789   2.567   5.094   0.508
 5297SOL    HW116790   2.605   5.003   0.524
 5297SOL    HW216791   2.632   5.163   0.540
 5298SOL     OW16792   2.351   0.506   0.437
 5298SOL    HW116793   2.408   0.545   0.364
 5298SOL    HW216794   2.389   0.417   0.464
 5299SOL     OW16795   2.905   1.569   0.815
 5299SOL    HW116796   2.957   1.487   0.792
 5299SOL    HW216797   2.961   1.630   0.872
 5300SOL     OW16798   2.241   4.356   0.067
 5300SOL    HW116799   2.246   4.257   0.071
 5300SOL    HW216800   2.146   4.384   0.052
 5301SOL     OW16801   5.500   0.476   5.718
 5301SOL    HW116802   5.483   0.572   5.740
 5301SOL    HW216803   5.415   0.424   5.724
 5302SOL     OW16804   5.527   6.070   3.004
 5302SOL    HW116805   5.534   5.974   3.029
 5302SOL    HW216806   5.443   6.085   2.952
 5303SOL     OW16807   0.478   5.063   6.113
 5303SOL    HW116808   0.448   5.055   6.018
 5303SOL    HW216809   0.520   4.976   6.142
 5304SOL     OW16810   6.596   0.462   1.326
 5304SOL    HW116811   6.641   0.543   1.290
 5304SOL    HW216812   6.522   0.489   1.388
 5305SOL     OW16813   1.708   5.116   3.292
 5305SOL    HW116814   1.638   5.161   3.236
 5305SOL    HW216815   1.740   5.034   3.245
 5306SOL     OW16816   0.015   3.701   5.721
 5306SOL    HW116817   6.952   3.751   5.705
 5306SOL    HW216818   7.020   3.603   5.718
 5307SOL     OW16819   6.238   1.844   1.705
 5307SOL    HW116820   6.213   1.941   1.707
 5307SOL    HW216821   6.336   1.835   1.725
 5308SOL     OW16822   1.401   4.309   2.959
 5308SOL    HW116823   1.310   4.307   3.001
 5308SOL    HW216824   1.471   4.298   3.030
 5309SOL     OW16825   5.808   6.369   2.772
 5309SOL    HW116826   5.808   6.346   2.675
 5309SOL    HW216827   5.804   6.469   2.783
 5310SOL     OW16828   5.889   2.908   2.831
 5310SOL    HW116829   5.861   2.830   2.776
 5310SOL    HW216830   5.865   2.993   2.783
 5311SOL     OW16831   5.905   0.194   0.511
 5311SOL    HW116832   5.982   0.178   0.449
 5311SOL    HW216833   5.824   0.148   0.476
 5312SOL     OW16834   6.940   6.073   0.663
 5312SOL    HW116835   6.878   6.145   0.633
 5312SOL    HW216836   6.888   6.001   0.709
 5313SOL     OW16837   0.595   5.033   5.593
 5313SOL    HW116838   0.593   5.100   5.518
 5313SOL    HW216839   0.527   5.058   5.662
 5314SOL     OW16840   6.546   0.852   1.692
 5314SOL    HW116841   6.496   0.886   1.612
 5314SOL    HW216842   6.529   0.912   1.770
 5315SOL     OW16843   4.329   1.494   3.955
 5315SOL    HW116844   4.236   1.524   3.975
 5315SOL    HW216845   4.376   1.565   3.901
 5316SOL     OW16846   0.420   2.616   4.959
 5316SOL    HW116847   0.419   2.644   4.863
 5316SOL    HW216848   0.507   2.643   5.001
 5317SOL     OW16849   6.941   1.719   6.431
 5317SOL    HW116850   6.984   1.731   6.342
 5317SOL    HW216851   6.984   1.642   6.479
 5318SOL     OW16852   6.401   3.359   6.973
 5318SOL    HW116853   6.364   3.268   6.993
 5318SOL    HW216854   6.385   3.380   6.877
 5319SOL     OW16855   4.296   6.716   1.254
 5319SOL    HW116856   4.205   6.691   1.284
 5319SOL    HW216857   4.310   6.684   1.160
 5320SOL     OW16858   3.263   5.928   1.131
 5320SOL    HW116859   3.225   5.957   1.219
 5320SOL    HW216860   3.358   5.958   1.125
 5321SOL     OW16861   1.696   3.699   4.994
 5321SOL    HW116862   1.768   3.715   4.926
 5321SOL    HW216863   1.716   3.752   5.076
 5322SOL     OW16864   5.303   6.796   2.101
 5322SOL    HW116865   5.352   6.794   2.188
 5322SOL    HW216866   5.205   6.786   2.118
 5323SOL     OW16867   4.195   1.675   5.318
 5323SOL    HW116868   4.258   1.609   5.359
 5323SOL    HW216869   4.233   1.767   5.329
 5324SOL     OW16870   2.118   1.723   0.469
 5324SOL    HW116871   2.122   1.664   0.388
 5324SOL    HW216872   2.028   1.765   0.474
 5325SOL     OW16873   2.621   1.988   4.794
 5325SOL    HW116874   2.654   2.011   4.885
 5325SOL    HW216875   2.523   2.004   4.789
 5326SOL     OW16876   6.009   6.739   2.470
 5326SOL    HW116877   6.086   6.784   2.517
 5326SOL    HW216878   6.043   6.659   2.421
 5327SOL     OW16879   5.898   2.492   5.143
 5327SOL    HW116880   5.888   2.496   5.242
 5327SOL    HW216881   5.969   2.426   5.119
 5328SOL     OW16882   4.049   4.657   6.892
 5328SOL    HW116883   4.032   4.751   6.861
 5328SOL    HW216884   4.004   4.593   6.830
 5329SOL     OW16885   1.450   6.666   6.540
 5329SOL    HW116886   1.462   6.587   6.599
 5329SOL    HW216887   1.534   6.720   6.538
 5330SOL     OW16888   2.351   3.680   0.711
 5330SOL    HW116889   2.314   3.697   0.802
 5330SOL    HW216890   2.451   3.684   0.713
 5331SOL     OW16891   6.397   0.709   6.748
 5331SOL    HW116892   6.462   0.647   6.789
 5331SOL    HW216893   6.370   0.779   6.814
 5332SOL     OW16894   1.348   4.996   2.258
 5332SOL    HW116895   1.403   4.988   2.175
 5332SOL    HW216896   1.253   5.014   2.234
 5333SOL     OW16897   0.840   6.236   3.999
 5333SOL    HW116898   0.852   6.284   4.086
 5333SOL    HW216899   0.876   6.143   4.007
 5334SOL     OW16900   2.845   0.284   4.319
 5334SOL    HW116901   2.762   0.229   4.325
 5334SOL    HW216902   2.885   0.293   4.411
 5335SOL     OW16903   6.701   5.622   0.803
 5335SOL    HW116904   6.603   5.604   0.791
 5335SOL    HW216905   6.744   5.629   0.714
 5336SOL     OW16906   1.732   3.840   2.447
 5336SOL    HW116907   1.713   3.920   2.504
 5336SOL    HW216908   1.802   3.783   2.492
 5337SOL     OW16909   4.595   4.680   1.023
 5337SOL    HW116910   4.594   4.752   1.092
 5337SOL    HW216911   4.631   4.718   0.937
 5338SOL     OW16912   6.370   2.126   6.404
 5338SOL    HW116913   6.453   2.094   6.449
 5338SOL    HW216914   6.393   2.175   6.320
 5339SOL     OW16915   6.523   2.419   3.759
 5339SOL    HW116916   6.598   2.366   3.718
 5339SOL    HW216917   6.492   2.373   3.842
 5340SOL     OW16918   5.419   2.093   6.849
 5340SOL    HW116919   5.352   2.075   6.778
 5340SOL    HW216920   5.501   2.037   6.833
 5341SOL     OW16921   4.557   0.347   0.014
 5341SOL    HW116922   4.467   0.350   0.057
 5341SOL    HW216923   4.617   0.415   0.057
 5342SOL     OW16924   3.817   0.997   5.792
 5342SOL    HW116925   3.875   1.030   5.717
 5342SOL    HW216926   3.721   1.004   5.766
 5343SOL     OW16927   4.007   3.866   2.271
 5343SOL    HW116928   4.105   3.860   2.288
 5343SOL    HW216929   3.958   3.871   2.358
 5344SOL     OW16930   1.995   2.578   2.900
 5344SOL    HW116931   1.903   2.541   2.899
 5344SOL    HW216932   2.059   2.508   2.932
 5345SOL     OW16933   4.290   6.877   1.471
 5345SOL    HW116934   4.282   6.821   1.388
 5345SOL    HW216935   4.250   6.828   1.548
 5346SOL     OW16936   3.226   6.659   2.909
 5346SOL    HW116937   3.310   6.699   2.945
 5346SOL    HW216938   3.148   6.714   2.940
 5347SOL     OW16939   6.921   1.925   1.156
 5347SOL    HW116940   6.969   1.997   1.205
 5347SOL    HW216941   6.859   1.966   1.089
 5348SOL     OW16942   0.699   0.613   6.818
 5348SOL    HW116943   0.659   0.623   6.909
 5348SOL    HW216944   0.721   0.517   6.801
 5349SOL     OW16945   6.759   0.637   1.180
 5349SOL    HW116946   6.732   0.685   1.097
 5349SOL    HW216947   6.848   0.670   1.211
 5350SOL     OW16948   2.292   1.449   6.643
 5350SOL    HW116949   2.196   1.474   6.652
 5350SOL    HW216950   2.348   1.514   6.695
 5351SOL     OW16951   4.749   6.535   1.639
 5351SOL    HW116952   4.670   6.554   1.581
 5351SOL    HW216953   4.805   6.617   1.647
 5352SOL     OW16954   3.413   5.596   3.668
 5352SOL    HW116955   3.496   5.607   3.613
 5352SOL    HW216956   3.414   5.507   3.712
 5353SOL     OW16957   5.698   5.606   5.448
 5353SOL    HW116958   5.669   5.690   5.401
 5353SOL    HW216959   5.783   5.573   5.408
 5354SOL     OW16960   1.132   4.076   1.532
 5354SOL    HW116961   1.058   4.110   1.475
 5354SOL    HW216962   1.097   4.010   1.598
 5355SOL     OW16963   4.428   2.410   4.423
 5355SOL    HW116964   4.471   2.500   4.418
 5355SOL    HW216965   4.498   2.340   4.412
 5356SOL     OW16966   6.364   3.762   1.339
 5356SOL    HW116967   6.453   3.758   1.385
 5356SOL    HW216968   6.306   3.688   1.373
 5357SOL     OW16969   3.938   0.003   0.011
 5357SOL    HW116970   4.024   6.979   0.032
 5357SOL    HW216971   3.917   7.015   6.936
 5358SOL     OW16972   5.084   3.030   0.482
 5358SOL    HW116973   5.096   3.076   0.569
 5358SOL    HW216974   5.071   2.932   0.498
 5359SOL     OW16975   2.053   1.329   0.136
 5359SOL    HW116976   2.075   1.301   0.042
 5359SOL    HW216977   1.972   1.387   0.135
 5360SOL     OW16978   3.697   6.712   6.689
 5360SOL    HW116979   3.630   6.665   6.631
 5360SOL    HW216980   3.651   6.784   6.740
 5361SOL     OW16981   1.741   0.870   5.624
 5361SOL    HW116982   1.706   0.868   5.530
 5361SOL    HW216983   1.751   0.777   5.658
 5362SOL     OW16984   4.949   5.213   3.132
 5362SOL    HW116985   4.919   5.118   3.141
 5362SOL    HW216986   4.964   5.235   3.036
 5363SOL     OW16987   0.664   4.950   6.305
 5363SOL    HW116988   0.699   4.996   6.387
 5363SOL    HW216989   0.740   4.915   6.251
 5364SOL     OW16990   0.296   6.370   0.760
 5364SOL    HW116991   0.259   6.279   0.776
 5364SOL    HW216992   0.222   6.432   0.735
 5365SOL     OW16993   4.529   1.938   5.627
 5365SOL    HW116994   4.613   1.987   5.605
 5365SOL    HW216995   4.540   1.888   5.712
 5366SOL     OW16996   4.138   3.221   0.522
 5366SOL    HW116997   4.184   3.183   0.602
 5366SOL    HW216998   4.042   3.193   0.521
 5367SOL     OW16999   0.459   4.819   1.824
 5367SOL    HW117000   0.385   4.875   1.862
 5367SOL    HW217001   0.540   4.827   1.882
 5368SOL     OW17002   5.889   2.079   3.390
 5368SOL    HW117003   5.919   1.997   3.341
 5368SOL    HW217004   5.944   2.158   3.360
 5369SOL     OW17005   2.055   4.428   3.195
 5369SOL    HW117006   2.094   4.519   3.209
 5369SOL    HW217007   2.069   4.400   3.100
 5370SOL     OW17008   3.604   2.756   1.269
 5370SOL    HW117009   3.688   2.756   1.214
 5370SOL    HW217010   3.524   2.764   1.210
 5371SOL     OW17011   1.015   4.099   5.131
 5371SOL    HW117012   1.006   4.140   5.040
 5371SOL    HW217013   1.104   4.053   5.138
 5372SOL     OW17014   2.633   5.233   2.711
 5372SOL    HW117015   2.704   5.222   2.641
 5372SOL    HW217016   2.677   5.246   2.800
 5373SOL     OW17017   3.627   4.957   3.806
 5373SOL    HW117018   3.547   4.907   3.840
 5373SOL    HW217019   3.644   5.035   3.866
 5374SOL     OW17020   2.778   2.130   6.844
 5374SOL    HW117021   2.704   2.196   6.853
 5374SOL    HW217022   2.764   2.074   6.763
 5375SOL     OW17023   1.396   4.200   4.508
 5375SOL    HW117024   1.488   4.165   4.526
 5375SOL    HW217025   1.377   4.194   4.410
 5376SOL     OW17026   1.423   3.659   1.218
 5376SOL    HW117027   1.445   3.570   1.179
 5376SOL    HW217028   1.440   3.730   1.150
 5377SOL     OW17029   0.558   0.664   1.101
 5377SOL    HW117030   0.633   0.598   1.104
 5377SOL    HW217031   0.471   0.617   1.119
 5378SOL     OW17032   5.427   0.915   0.486
 5378SOL    HW117033   5.467   1.004   0.510
 5378SOL    HW217034   5.371   0.925   0.404
 5379SOL     OW17035   0.309   6.097   2.262
 5379SOL    HW117036   0.360   6.083   2.177
 5379SOL    HW217037   0.316   6.192   2.290
 5380SOL     OW17038   3.297   0.525   3.353
 5380SOL    HW117039   3.325   0.494   3.262
 5380SOL    HW217040   3.378   0.533   3.412
 5381SOL     OW17041   5.927   4.149   1.270
 5381SOL    HW117042   6.001   4.086   1.245
 5381SOL    HW217043   5.876   4.173   1.188
 5382SOL     OW17044   2.543   0.784   1.562
 5382SOL    HW117045   2.631   0.821   1.535
 5382SOL    HW217046   2.538   0.777   1.662
 5383SOL     OW17047   2.336   2.080   4.744
 5383SOL    HW117048   2.376   2.171   4.759
 5383SOL    HW217049   2.273   2.059   4.819
 5384SOL     OW17050   5.881   6.733   4.342
 5384SOL    HW117051   5.803   6.795   4.340
 5384SOL    HW217052   5.896   6.702   4.436
 5385SOL     OW17053   3.539   3.898   2.402
 5385SOL    HW117054   3.471   3.966   2.375
 5385SOL    HW217055   3.575   3.921   2.493
 5386SOL     OW17056   5.431   6.367   4.410
 5386SOL    HW117057   5.355   6.391   4.349
 5386SOL    HW217058   5.514   6.353   4.356
 5387SOL     OW17059   3.135   5.280   1.956
 5387SOL    HW117060   3.112   5.365   2.002
 5387SOL    HW217061   3.102   5.202   2.010
 5388SOL     OW17062   5.446   6.482   2.698
 5388SOL    HW117063   5.371   6.415   2.705
 5388SOL    HW217064   5.471   6.513   2.790
 5389SOL     OW17065   4.702   1.977   1.279
 5389SOL    HW117066   4.768   1.946   1.348
 5389SOL    HW217067   4.622   2.015   1.324
 5390SOL     OW17068   6.201   5.022   5.663
 5390SOL    HW117069   6.158   5.036   5.573
 5390SOL    HW217070   6.157   5.081   5.730
 5391SOL     OW17071   2.518   2.676   0.577
 5391SOL    HW117072   2.459   2.658   0.498
 5391SOL    HW217073   2.611   2.691   0.546
 5392SOL     OW17074   6.276   3.450   2.249
 5392SOL    HW117075   6.318   3.541   2.245
 5392SOL    HW217076   6.221   3.442   2.332
 5393SOL     OW17077   6.915   6.814   6.772
 5393SOL    HW117078   6.974   6.839   6.695
 5393SOL    HW217079   6.956   6.846   6.858
 5394SOL     OW17080   1.197   3.850   5.861
 5394SOL    HW117081   1.108   3.816   5.831
 5394SOL    HW217082   1.218   3.935   5.814
 5395SOL     OW17083   3.787   1.059   0.264
 5395SOL    HW117084   3.877   1.094   0.289
 5395SOL    HW217085   3.757   0.993   0.334
 5396SOL     OW17086   5.379   3.622   2.097
 5396SOL    HW117087   5.375   3.522   2.107
 5396SOL    HW217088   5.287   3.659   2.089
 5397SOL     OW17089   0.074   3.758   1.482
 5397SOL    HW117090   0.091   3.674   1.534
 5397SOL    HW217091   0.155   3.816   1.486
 5398SOL     OW17092   3.003   2.682   1.676
 5398SOL    HW117093   3.076   2.647   1.617
 5398SOL    HW217094   2.974   2.610   1.739
 5399SOL     OW17095   1.819   6.184   1.825
 5399SOL    HW117096   1.750   6.117   1.797
 5399SOL    HW217097   1.812   6.265   1.766
 5400SOL     OW17098   3.344   4.544   0.451
 5400SOL    HW117099   3.257   4.552   0.500
 5400SOL    HW217100   3.384   4.454   0.467
 5401SOL     OW17101   6.192   3.177   2.297
 5401SOL    HW117102   6.245   3.258   2.272
 5401SOL    HW217103   6.135   3.149   2.220
 5402SOL     OW17104   1.331   6.393   2.049
 5402SOL    HW117105   1.426   6.423   2.057
 5402SOL    HW217106   1.283   6.451   1.983
 5403SOL     OW17107   0.140   3.525   6.456
 5403SOL    HW117108   0.179   3.441   6.419
 5403SOL    HW217109   0.040   3.519   6.453
 5404SOL     OW17110   1.640   2.909   3.748
 5404SOL    HW117111   1.702   2.977   3.708
 5404SOL    HW217112   1.566   2.957   3.796
 5405SOL     OW17113   6.380   5.254   5.786
 5405SOL    HW117114   6.445   5.194   5.832
 5405SOL    HW217115   6.310   5.283   5.851
 5406SOL     OW17116   1.798   0.850   6.499
 5406SOL    HW117117   1.729   0.782   6.521
 5406SOL    HW217118   1.765   0.908   6.424
 5407SOL     OW17119   3.803   3.355   0.002
 5407SOL    HW117120   3.851   3.288   0.059
 5407SOL    HW217121   3.710   3.324   7.008
 5408SOL     OW17122   2.379   0.600   6.848
 5408SOL    HW117123   2.426   0.587   6.935
 5408SOL    HW217124   2.339   0.513   6.819
 5409SOL     OW17125   3.633   0.896   2.674
 5409SOL    HW117126   3.560   0.874   2.610
 5409SOL    HW217127   3.645   0.995   2.679
 5410SOL     OW17128   2.566   1.911   2.107
 5410SOL    HW117129   2.582   1.970   2.187
 5410SOL    HW217130   2.643   1.920   2.044
 5411SOL     OW17131   0.429   5.508   5.401
 5411SOL    HW117132   0.331   5.484   5.401
 5411SOL    HW217133   0.464   5.505   5.308
 5412SOL     OW17134   6.037   2.529   0.459
 5412SOL    HW117135   6.036   2.432   0.437
 5412SOL    HW217136   5.958   2.574   0.417
 5413SOL     OW17137   2.151   1.385   1.601
 5413SOL    HW117138   2.180   1.446   1.674
 5413SOL    HW217139   2.229   1.363   1.542
 5414SOL     OW17140   3.861   1.569   5.002
 5414SOL    HW117141   3.863   1.656   4.952
 5414SOL    HW217142   3.819   1.584   5.091
 5415SOL     OW17143   6.532   5.105   2.113
 5415SOL    HW117144   6.435   5.127   2.116
 5415SOL    HW217145   6.582   5.160   2.180
 5416SOL     OW17146   4.381   5.040   5.013
 5416SOL    HW117147   4.411   5.019   4.920
 5416SOL    HW217148   4.402   4.963   5.073
 5417SOL     OW17149   3.229   0.243   4.589
 5417SOL    HW117150   3.318   0.242   4.633
 5417SOL    HW217151   3.224   0.171   4.520
 5418SOL     OW17152   3.923   6.999   3.224
 5418SOL    HW117153   3.934   6.958   3.134
 5418SOL    HW217154   4.005   6.983   3.279
 5419SOL     OW17155   3.659   5.270   6.833
 5419SOL    HW117156   3.628   5.179   6.858
 5419SOL    HW217157   3.581   5.324   6.801
 5420SOL     OW17158   1.728   1.947   2.557
 5420SOL    HW117159   1.785   1.951   2.639
 5420SOL    HW217160   1.750   2.025   2.498
 5421SOL     OW17161   1.772   3.971   2.039
 5421SOL    HW117162   1.732   3.895   2.089
 5421SOL    HW217163   1.798   3.940   1.947
 5422SOL     OW17164   2.342   3.550   1.164
 5422SOL    HW117165   2.343   3.634   1.111
 5422SOL    HW217166   2.281   3.561   1.243
 5423SOL     OW17167   5.826   3.089   6.886
 5423SOL    HW117168   5.736   3.127   6.905
 5423SOL    HW217169   5.832   3.063   6.790
 5424SOL     OW17170   5.238   3.594   4.358
 5424SOL    HW117171   5.166   3.644   4.405
 5424SOL    HW217172   5.309   3.658   4.327
 5425SOL     OW17173   5.247   1.007   5.027
 5425SOL    HW117174   5.328   1.030   4.972
 5425SOL    HW217175   5.165   1.043   4.983
 5426SOL     OW17176   6.204   6.882   4.808
 5426SOL    HW117177   6.293   6.856   4.845
 5426SOL    HW217178   6.131   6.838   4.862
 5427SOL     OW17179   4.629   5.919   6.315
 5427SOL    HW117180   4.682   5.980   6.374
 5427SOL    HW217181   4.549   5.885   6.365
 5428SOL     OW17182   1.277   0.434   0.607
 5428SOL    HW117183   1.347   0.438   0.535
 5428SOL    HW217184   1.304   0.366   0.675
 5429SOL     OW17185   0.804   2.636   6.589
 5429SOL    HW117186   0.837   2.718   6.543
 5429SOL    HW217187   0.870   2.608   6.658
 5430SOL     OW17188   1.579   2.710   6.185
 5430SOL    HW117189   1.609   2.616   6.201
 5430SOL    HW217190   1.626   2.746   6.104
 5431SOL     OW17191   3.810   6.374   5.586
 5431SOL    HW117192   3.774   6.423   5.507
 5431SOL    HW217193   3.898   6.414   5.612
 5432SOL     OW17194   5.086   6.922   0.990
 5432SOL    HW117195   5.102   7.018   1.010
 5432SOL    HW217196   5.045   6.877   1.070
 5433SOL     OW17197   0.470   1.809   4.917
 5433SOL    HW117198   0.487   1.789   4.821
 5433SOL    HW217199   0.464   1.908   4.931
 5434SOL     OW17200   2.464   0.228   5.851
 5434SOL    HW117201   2.442   0.285   5.930
 5434SOL    HW217202   2.494   0.138   5.882
 5435SOL     OW17203   4.320   0.607   1.720
 5435SOL    HW117204   4.280   0.576   1.806
 5435SOL    HW217205   4.328   0.706   1.721
 5436SOL     OW17206   4.603   4.432   2.750
 5436SOL    HW117207   4.536   4.358   2.739
 5436SOL    HW217208   4.558   4.512   2.788
 5437SOL     OW17209   3.128   3.782   6.936
 5437SOL    HW117210   3.051   3.838   6.907
 5437SOL    HW217211   3.096   3.691   6.963
 5438SOL     OW17212   6.178   1.886   1.197
 5438SOL    HW117213   6.139   1.822   1.131
 5438SOL    HW217214   6.193   1.975   1.154
 5439SOL     OW17215   0.875   2.933   1.450
 5439SOL    HW117216   0.928   3.016   1.463
 5439SOL    HW217217   0.924   2.871   1.389
 5440SOL     OW17218   0.823   2.179   1.223
 5440SOL    HW117219   0.779   2.101   1.268
 5440SOL    HW217220   0.791   2.264   1.266
 5441SOL     OW17221   3.407   2.040   3.152
 5441SOL    HW117222   3.408   2.055   3.251
 5441SOL    HW217223   3.314   2.055   3.117
 5442SOL     OW17224   3.895   0.626   2.159
 5442SOL    HW117225   3.965   0.587   2.219
 5442SOL    HW217226   3.876   0.563   2.084
 5443SOL     OW17227   2.976   6.929   5.782
 5443SOL    HW117228   3.038   6.857   5.814
 5443SOL    HW217229   2.900   6.939   5.846
 5444SOL     OW17230   0.196   6.937   3.496
 5444SOL    HW117231   0.212   6.861   3.558
 5444SOL    HW217232   0.183   7.021   3.549
 5445SOL     OW17233   5.505   3.799   2.248
 5445SOL    HW117234   5.452   3.727   2.202
 5445SOL    HW217235   5.589   3.816   2.198
 5446SOL     OW17236   5.970   5.656   5.745
 5446SOL    HW117237   5.945   5.583   5.682
 5446SOL    HW217238   6.021   5.618   5.822
 5447SOL     OW17239   4.272   2.220   6.904
 5447SOL    HW117240   4.241   2.213   6.809
 5447SOL    HW217241   4.246   2.309   6.941
 5448SOL     OW17242   5.561   2.315   5.312
 5448SOL    HW117243   5.648   2.269   5.293
 5448SOL    HW217244   5.544   2.384   5.242
 5449SOL     OW17245   0.958   3.539   6.820
 5449SOL    HW117246   1.052   3.571   6.838
 5449SOL    HW217247   0.929   3.479   6.894
 5450SOL     OW17248   1.893   0.186   1.541
 5450SOL    HW117249   1.906   0.164   1.445
 5450SOL    HW217250   1.807   0.235   1.553
 5451SOL     OW17251   0.894   5.990   3.247
 5451SOL    HW117252   0.800   6.023   3.240
 5451SOL    HW217253   0.943   6.043   3.316
 5452SOL     OW17254   2.378   4.253   6.766
 5452SOL    HW117255   2.421   4.171   6.804
 5452SOL    HW217256   2.366   4.241   6.667
 5453SOL     OW17257   5.708   5.235   6.912
 5453SOL    HW117258   5.631   5.224   6.974
 5453SOL    HW217259   5.758   5.148   6.905
 5454SOL     OW17260   6.732   4.572   6.969
 5454SOL    HW117261   6.656   4.559   0.010
 5454SOL    HW217262   6.704   4.634   6.896
 5455SOL     OW17263   6.635   3.208   0.953
 5455SOL    HW117264   6.556   3.263   0.979
 5455SOL    HW217265   6.610   3.150   0.875
 5456SOL     OW17266   3.193   0.126   7.003
 5456SOL    HW117267   3.145   0.039   6.992
 5456SOL    HW217268   3.204   0.169   6.913
 5457SOL     OW17269   6.060   2.784   0.538
 5457SOL    HW117270   6.072   2.686   0.552
 5457SOL    HW217271   6.136   2.834   0.580
 5458SOL     OW17272   2.185   4.459   6.795
 5458SOL    HW117273   2.244   4.381   6.817
 5458SOL    HW217274   2.229   4.515   6.725
 5459SOL     OW17275   1.549   4.690   6.675
 5459SOL    HW117276   1.592   4.621   6.617
 5459SOL    HW217277   1.452   4.667   6.687
 5460SOL     OW17278   3.042   0.265   1.220
 5460SOL    HW117279   2.967   0.282   1.283
 5460SOL    HW217280   3.007   0.266   1.126
 5461SOL     OW17281   4.562   0.319   4.951
 5461SOL    HW117282   4.650   0.277   4.932
 5461SOL    HW217283   4.490   0.266   4.906
 5462SOL     OW17284   1.589   0.362   0.670
 5462SOL    HW117285   1.506   0.338   0.721
 5462SOL    HW217286   1.622   0.452   0.699
 5463SOL     OW17287   6.546   2.508   0.675
 5463SOL    HW117288   6.559   2.514   0.773
 5463SOL    HW217289   6.546   2.599   0.635
 5464SOL     OW17290   2.208   0.249   4.435
 5464SOL    HW117291   2.274   0.319   4.409
 5464SOL    HW217292   2.157   0.279   4.515
 5465SOL     OW17293   2.977   0.346   4.966
 5465SOL    HW117294   2.976   0.442   4.996
 5465SOL    HW217295   2.883   0.315   4.950
 5466SOL     OW17296   4.744   4.158   4.377
 5466SOL    HW117297   4.644   4.164   4.386
 5466SOL    HW217298   4.773   4.065   4.396
 5467SOL     OW17299   5.225   1.364   2.586
 5467SOL    HW117300   5.231   1.302   2.508
 5467SOL    HW217301   5.146   1.339   2.642
 5468SOL     OW17302   4.490   2.173   4.816
 5468SOL    HW117303   4.469   2.247   4.753
 5468SOL    HW217304   4.539   2.100   4.768
 5469SOL     OW17305   4.088   4.002   6.241
 5469SOL    HW117306   4.054   3.984   6.149
 5469SOL    HW217307   4.014   3.989   6.307
 5470SOL     OW17308   1.941   5.224   3.940
 5470SOL    HW117309   2.019   5.261   3.890
 5470SOL    HW217310   1.965   5.214   4.036
 5471SOL     OW17311   0.248   5.570   1.912
 5471SOL    HW117312   0.186   5.646   1.933
 5471SOL    HW217313   0.206   5.484   1.940
 5472SOL     OW17314   4.041   4.637   5.872
 5472SOL    HW117315   3.959   4.593   5.836
 5472SOL    HW217316   4.088   4.686   5.799
 5473SOL     OW17317   1.343   3.581   3.502
 5473SOL    HW117318   1.431   3.628   3.510
 5473SOL    HW217319   1.348   3.513   3.428
 5474SOL     OW17320   1.711   5.613   3.906
 5474SOL    HW117321   1.614   5.588   3.912
 5474SOL    HW217322   1.733   5.677   3.980
 5475SOL     OW17323   2.950   2.143   1.414
 5475SOL    HW117324   2.903   2.227   1.442
 5475SOL    HW217325   3.022   2.122   1.480
 5476SOL     OW17326   1.038   3.021   6.278
 5476SOL    HW117327   0.989   3.098   6.318
 5476SOL    HW217328   0.980   2.974   6.212
 5477SOL     OW17329   2.262   2.954   2.929
 5477SOL    HW117330   2.252   2.857   2.951
 5477SOL    HW217331   2.256   3.008   3.013
 5478SOL     OW17332   5.607   5.851   5.333
 5478SOL    HW117333   5.529   5.857   5.396
 5478SOL    HW217334   5.615   5.936   5.281
 5479SOL     OW17335   4.963   0.882   4.637
 5479SOL    HW117336   4.998   0.841   4.721
 5479SOL    HW217337   4.887   0.828   4.602
 5480SOL     OW17338   0.895   3.454   4.282
 5480SOL    HW117339   0.812   3.429   4.333
 5480SOL    HW217340   0.972   3.399   4.315
 5481SOL     OW17341   3.958   0.020   3.904
 5481SOL    HW117342   4.020   0.088   3.866
 5481SOL    HW217343   4.002   6.952   3.902
 5482SOL     OW17344   2.223   4.610   1.124
 5482SOL    HW117345   2.144   4.592   1.065
 5482SOL    HW217346   2.217   4.703   1.161
 5483SOL     OW17347   6.959   2.669   5.987
 5483SOL    HW117348   6.950   2.603   5.913
 5483SOL    HW217349   0.032   2.701   5.991
 5484SOL     OW17350   4.740   1.149   4.870
 5484SOL    HW117351   4.641   1.144   4.861
 5484SOL    HW217352   4.783   1.122   4.784
 5485SOL     OW17353   2.481   0.247   5.572
 5485SOL    HW117354   2.501   0.344   5.563
 5485SOL    HW217355   2.460   0.226   5.668
 5486SOL     OW17356   2.791   6.096   5.275
 5486SOL    HW117357   2.801   6.117   5.372
 5486SOL    HW217358   2.879   6.105   5.229
 5487SOL     OW17359   3.699   4.829   5.889
 5487SOL    HW117360   3.789   4.872   5.875
 5487SOL    HW217361   3.628   4.899   5.882
 5488SOL     OW17362   6.540   1.437   0.988
 5488SOL    HW117363   6.467   1.505   0.996
 5488SOL    HW217364   6.620   1.468   1.040
 5489SOL     OW17365   6.831   4.296   2.988
 5489SOL    HW117366   6.772   4.217   3.006
 5489SOL    HW217367   6.786   4.379   3.020
 5490SOL     OW17368   1.265   6.534   2.839
 5490SOL    HW117369   1.352   6.577   2.815
 5490SOL    HW217370   1.266   6.508   2.935
 5491SOL     OW17371   6.532   4.537   0.209
 5491SOL    HW117372   6.514   4.462   0.146
 5491SOL    HW217373   6.547   4.500   0.301
 5492SOL     OW17374   0.128   1.967   6.165
 5492SOL    HW117375   0.042   1.946   6.118
 5492SOL    HW217376   0.189   2.015   6.103
 5493SOL     OW17377   3.641   3.931   1.375
 5493SOL    HW117378   3.700   3.854   1.397
 5493SOL    HW217379   3.568   3.900   1.314
 5494SOL     OW17380   5.940   4.150   5.523
 5494SOL    HW117381   5.929   4.147   5.424
 5494SOL    HW217382   6.011   4.085   5.550
 5495SOL     OW17383   5.912   6.814   0.738
 5495SOL    HW117384   5.856   6.759   0.675
 5495SOL    HW217385   6.009   6.796   0.721
 5496SOL     OW17386   3.740   0.566   4.296
 5496SOL    HW117387   3.804   0.632   4.336
 5496SOL    HW217388   3.670   0.544   4.364
 5497SOL     OW17389   1.326   0.372   5.803
 5497SOL    HW117390   1.239   0.397   5.847
 5497SOL    HW217391   1.361   0.288   5.845
 5498SOL     OW17392   1.158   5.196   1.898
 5498SOL    HW117393   1.114   5.123   1.845
 5498SOL    HW217394   1.161   5.169   1.995
 5499SOL     OW17395   1.629   0.086   4.825
 5499SOL    HW117396   1.596   0.109   4.917
 5499SOL    HW217397   1.560   0.113   4.758
 5500SOL     OW17398   2.705   1.136   0.805
 5500SOL    HW117399   2.694   1.038   0.824
 5500SOL    HW217400   2.616   1.179   0.794
 5501SOL     OW17401   3.636   3.705   6.503
 5501SOL    HW117402   3.654   3.799   6.472
 5501SOL    HW217403   3.538   3.685   6.492
 5502SOL     OW17404   4.595   2.632   6.945
 5502SOL    HW117405   4.508   2.681   6.946
 5502SOL    HW217406   4.642   2.646   0.010
 5503SOL     OW17407   6.471   4.101   0.997
 5503SOL    HW117408   6.567   4.074   0.990
 5503SOL    HW217409   6.430   4.060   1.078
 5504SOL     OW17410   3.532   1.579   6.931
 5504SOL    HW117411   3.449   1.529   6.954
 5504SOL    HW217412   3.591   1.523   6.872
 5505SOL     OW17413   2.822   4.994   3.472
 5505SOL    HW117414   2.876   4.913   3.451
 5505SOL    HW217415   2.879   5.060   3.521
 5506SOL     OW17416   0.529   3.322   5.963
 5506SOL    HW117417   0.439   3.340   5.923
 5506SOL    HW217418   0.522   3.321   6.063
 5507SOL     OW17419   2.452   0.051   0.112
 5507SOL    HW117420   2.534   0.016   0.157
 5507SOL    HW217421   2.478   0.125   0.050
 5508SOL     OW17422   6.866   0.896   6.378
 5508SOL    HW117423   6.954   0.853   6.399
 5508SOL    HW217424   6.830   0.941   6.459
 5509SOL     OW17425   0.006   4.855   1.094
 5509SOL    HW117426   0.010   4.772   1.039
 5509SOL    HW217427   7.004   4.832   1.188
 5510SOL     OW17428   4.238   5.082   0.063
 5510SOL    HW117429   4.326   5.099   0.019
 5510SOL    HW217430   4.170   5.146   0.027
 5511SOL     OW17431   0.448   1.828   5.835
 5511SOL    HW117432   0.443   1.904   5.899
 5511SOL    HW217433   0.471   1.862   5.744
 5512SOL     OW17434   3.113   0.938   2.191
 5512SOL    HW117435   3.142   0.868   2.256
 5512SOL    HW217436   3.193   0.975   2.144
 5513SOL     OW17437   3.951   4.237   0.175
 5513SOL    HW117438   3.998   4.319   0.208
 5513SOL    HW217439   3.954   4.166   0.245
 5514SOL     OW17440   3.263   1.235   0.101
 5514SOL    HW117441   3.277   1.314   0.040
 5514SOL    HW217442   3.269   1.151   0.048
 5515SOL     OW17443   2.865   6.338   2.301
 5515SOL    HW117444   2.914   6.379   2.378
 5515SOL    HW217445   2.855   6.240   2.317
 5516SOL     OW17446   2.185   2.038   5.463
 5516SOL    HW117447   2.091   2.039   5.496
 5516SOL    HW217448   2.200   2.117   5.403
 5517SOL     OW17449   1.286   2.988   3.000
 5517SOL    HW117450   1.304   2.890   3.000
 5517SOL    HW217451   1.360   3.036   2.954
 5518SOL     OW17452   4.167   4.601   6.502
 5518SOL    HW117453   4.068   4.592   6.496
 5518SOL    HW217454   4.197   4.675   6.443
 5519SOL     OW17455   4.861   2.765   3.881
 5519SOL    HW117456   4.795   2.750   3.808
 5519SOL    HW217457   4.813   2.782   3.967
 5520SOL     OW17458   4.843   6.832   1.649
 5520SOL    HW117459   4.834   6.867   1.743
 5520SOL    HW217460   4.886   6.902   1.592
 5521SOL     OW17461   5.231   6.163   1.655
 5521SOL    HW117462   5.182   6.146   1.741
 5521SOL    HW217463   5.164   6.185   1.584
 5522SOL     OW17464   6.041   5.868   0.870
 5522SOL    HW117465   6.113   5.936   0.885
 5522SOL    HW217466   5.972   5.876   0.941
 5523SOL     OW17467   5.532   1.078   1.261
 5523SOL    HW117468   5.564   1.148   1.198
 5523SOL    HW217469   5.598   1.003   1.263
 5524SOL     OW17470   2.934   1.663   4.025
 5524SOL    HW117471   2.847   1.659   4.073
 5524SOL    HW217472   2.959   1.572   3.993
 5525SOL     OW17473   6.023   1.258   1.416
 5525SOL    HW117474   6.083   1.339   1.413
 5525SOL    HW217475   6.070   1.181   1.374
 5526SOL     OW17476   5.160   4.463   3.459
 5526SOL    HW117477   5.160   4.440   3.557
 5526SOL    HW217478   5.130   4.558   3.448
 5527SOL     OW17479   5.877   1.665   3.763
 5527SOL    HW117480   5.861   1.732   3.836
 5527SOL    HW217481   5.970   1.629   3.772
 5528SOL     OW17482   0.675   1.164   0.315
 5528SOL    HW117483   0.739   1.241   0.308
 5528SOL    HW217484   0.721   1.085   0.354
 5529SOL     OW17485   3.454   0.382   2.251
 5529SOL    HW117486   3.368   0.427   2.229
 5529SOL    HW217487   3.520   0.449   2.284
 5530SOL     OW17488   6.464   2.183   0.918
 5530SOL    HW117489   6.527   2.237   0.972
 5530SOL    HW217490   6.504   2.093   0.900
 5531SOL     OW17491   2.282   4.043   1.077
 5531SOL    HW117492   2.332   3.974   1.128
 5531SOL    HW217493   2.217   4.089   1.138
 5532SOL     OW17494   1.377   3.005   0.473
 5532SOL    HW117495   1.403   3.082   0.414
 5532SOL    HW217496   1.457   2.974   0.525
 5533SOL     OW17497   3.369   1.665   2.548
 5533SOL    HW117498   3.325   1.626   2.467
 5533SOL    HW217499   3.445   1.724   2.520
 5534SOL     OW17500   1.205   0.491   4.836
 5534SOL    HW117501   1.250   0.573   4.801
 5534SOL    HW217502   1.242   0.410   4.790
 5535SOL     OW17503   0.464   1.952   3.568
 5535SOL    HW117504   0.486   1.889   3.643
 5535SOL    HW217505   0.513   2.038   3.582
 5536SOL     OW17506   4.037   6.235   4.364
 5536SOL    HW117507   4.031   6.333   4.380
 5536SOL    HW217508   3.945   6.196   4.357
 5537SOL     OW17509   3.032   1.560   3.385
 5537SOL    HW117510   3.057   1.612   3.303
 5537SOL    HW217511   2.952   1.602   3.428
 5538SOL     OW17512   4.164   5.239   5.206
 5538SOL    HW117513   4.092   5.176   5.235
 5538SOL    HW217514   4.183   5.226   5.109
 5539SOL     OW17515   2.813   4.371   0.505
 5539SOL    HW117516   2.733   4.397   0.451
 5539SOL    HW217517   2.891   4.429   0.480
 5540SOL     OW17518   5.301   5.272   1.658
 5540SOL    HW117519   5.348   5.247   1.743
 5540SOL    HW217520   5.295   5.192   1.599
 5541SOL     OW17521   4.540   1.013   5.549
 5541SOL    HW117522   4.586   1.018   5.460
 5541SOL    HW217523   4.469   0.942   5.545
 5542SOL     OW17524   5.175   4.559   6.419
 5542SOL    HW117525   5.226   4.644   6.409
 5542SOL    HW217526   5.215   4.504   6.492
 5543SOL     OW17527   0.391   2.226   6.542
 5543SOL    HW117528   0.472   2.167   6.533
 5543SOL    HW217529   0.396   2.300   6.475
 5544SOL     OW17530   5.840   1.053   6.901
 5544SOL    HW117531   5.832   1.128   6.967
 5544SOL    HW217532   5.811   0.968   6.945
 5545SOL     OW17533   2.705   2.511   1.768
 5545SOL    HW117534   2.783   2.458   1.800
 5545SOL    HW217535   2.620   2.461   1.785
 5546SOL     OW17536   2.915   4.911   5.829
 5546SOL    HW117537   2.829   4.897   5.879
 5546SOL    HW217538   2.937   4.828   5.778
 5547SOL     OW17539   3.760   6.079   4.741
 5547SOL    HW117540   3.713   5.993   4.720
 5547SOL    HW217541   3.858   6.068   4.723
 5548SOL     OW17542   0.072   2.897   5.448
 5548SOL    HW117543   0.074   2.874   5.545
 5548SOL    HW217544   7.005   2.935   5.425
 5549SOL     OW17545   3.347   4.661   6.801
 5549SOL    HW117546   3.372   4.682   6.896
 5549SOL    HW217547   3.305   4.742   6.759
 5550SOL     OW17548   3.411   6.828   2.458
 5550SOL    HW117549   3.478   6.859   2.526
 5550SOL    HW217550   3.334   6.892   2.456
 5551SOL     OW17551   0.178   1.692   3.311
 5551SOL    HW117552   0.275   1.715   3.323
 5551SOL    HW217553   0.170   1.601   3.271
 5552SOL     OW17554   0.454   2.846   0.741
 5552SOL    HW117555   0.483   2.755   0.711
 5552SOL    HW217556   0.432   2.902   0.661
 5553SOL     OW17557   5.374   6.450   6.982
 5553SOL    HW117558   5.350   6.441   6.886
 5553SOL    HW217559   5.317   6.521   0.002
 5554SOL     OW17560   2.996   1.405   4.476
 5554SOL    HW117561   3.093   1.432   4.472
 5554SOL    HW217562   2.987   1.321   4.528
 5555SOL     OW17563   0.716   6.075   1.987
 5555SOL    HW117564   0.703   6.164   1.942
 5555SOL    HW217565   0.785   6.022   1.937
 5556SOL     OW17566   0.395   1.160   4.354
 5556SOL    HW117567   0.319   1.175   4.291
 5556SOL    HW217568   0.413   1.062   4.361
 5557SOL     OW17569   2.773   0.740   3.630
 5557SOL    HW117570   2.766   0.823   3.686
 5557SOL    HW217571   2.720   0.752   3.546
 5558SOL     OW17572   5.070   2.210   4.553
 5558SOL    HW117573   5.148   2.273   4.562
 5558SOL    HW217574   5.006   2.226   4.628
 5559SOL     OW17575   2.947   0.303   0.953
 5559SOL    HW117576   2.967   0.215   0.909
 5559SOL    HW217577   3.014   0.371   0.924
 5560SOL     OW17578   6.934   0.678   4.327
 5560SOL    HW117579   6.936   0.746   4.401
 5560SOL    HW217580   6.884   0.597   4.358
 5561SOL     OW17581   1.771   4.012   3.119
 5561SOL    HW117582   1.817   3.952   3.184
 5561SOL    HW217583   1.719   3.956   3.054
 5562SOL     OW17584   2.491   2.775   6.251
 5562SOL    HW117585   2.404   2.806   6.289
 5562SOL    HW217586   2.530   2.705   6.311
 5563SOL     OW17587   4.232   4.136   1.689
 5563SOL    HW117588   4.143   4.121   1.732
 5563SOL    HW217589   4.295   4.174   1.756
 5564SOL     OW17590   6.091   3.774   1.947
 5564SOL    HW117591   6.110   3.684   1.985
 5564SOL    HW217592   6.039   3.828   2.013
 5565SOL     OW17593   3.133   2.813   5.510
 5565SOL    HW117594   3.140   2.908   5.481
 5565SOL    HW217595   3.068   2.805   5.585
 5566SOL     OW17596   1.963   4.943   0.487
 5566SOL    HW117597   1.923   4.860   0.524
 5566SOL    HW217598   1.913   5.023   0.521
 5567SOL     OW17599   2.235   5.746   3.419
 5567SOL    HW117600   2.276   5.731   3.329
 5567SOL    HW217601   2.177   5.669   3.442
 5568SOL     OW17602   3.952   2.478   1.199
 5568SOL    HW117603   4.026   2.443   1.256
 5568SOL    HW217604   3.871   2.420   1.209
 5569SOL     OW17605   5.714   2.248   6.874
 5569SOL    HW117606   5.812   2.254   6.894
 5569SOL    HW217607   5.661   2.282   6.952
 5570SOL     OW17608   0.252   3.387   5.916
 5570SOL    HW117609   0.208   3.299   5.898
 5570SOL    HW217610   0.254   3.441   5.832
 5571SOL     OW17611   6.682   4.629   6.497
 5571SOL    HW117612   6.614   4.556   6.492
 5571SOL    HW217613   6.772   4.589   6.513
 5572SOL     OW17614   5.625   2.856   5.371
 5572SOL    HW117615   5.543   2.838   5.317
 5572SOL    HW217616   5.645   2.954   5.368
 5573SOL     OW17617   0.607   4.154   0.189
 5573SOL    HW117618   0.605   4.055   0.198
 5573SOL    HW217619   0.606   4.196   0.280
 5574SOL     OW17620   0.021   5.783   4.639
 5574SOL    HW117621   0.039   5.700   4.692
 5574SOL    HW217622   0.092   5.850   4.658
 5575SOL     OW17623   1.382   1.078   1.368
 5575SOL    HW117624   1.448   1.107   1.437
 5575SOL    HW217625   1.429   1.031   1.293
 5576SOL     OW17626   5.710   5.753   0.451
 5576SOL    HW117627   5.787   5.705   0.493
 5576SOL    HW217628   5.741   5.842   0.418
 5577SOL     OW17629   2.141   3.753   4.903
 5577SOL    HW117630   2.208   3.813   4.947
 5577SOL    HW217631   2.153   3.660   4.936
 5578SOL     OW17632   3.099   1.805   5.815
 5578SOL    HW117633   3.156   1.844   5.742
 5578SOL    HW217634   3.152   1.737   5.866
 5579SOL     OW17635   4.940   4.809   1.548
 5579SOL    HW117636   4.893   4.898   1.541
 5579SOL    HW217637   4.970   4.795   1.642
 5580SOL     OW17638   5.049   0.834   1.390
 5580SOL    HW117639   5.045   0.762   1.321
 5580SOL    HW217640   5.007   0.918   1.354
 5581SOL     OW17641   2.297   2.809   0.919
 5581SOL    HW117642   2.214   2.792   0.972
 5581SOL    HW217643   2.376   2.815   0.980
 5582SOL     OW17644   3.929   3.068   3.691
 5582SOL    HW117645   3.859   3.130   3.655
 5582SOL    HW217646   3.931   3.075   3.790
 5583SOL     OW17647   4.222   0.770   0.133
 5583SOL    HW117648   4.309   0.765   0.184
 5583SOL    HW217649   4.195   0.866   0.125
 5584SOL     OW17650   5.320   3.357   3.078
 5584SOL    HW117651   5.320   3.455   3.098
 5584SOL    HW217652   5.343   3.306   3.161
 5585SOL     OW17653   6.928   6.558   4.258
 5585SOL    HW117654   6.974   6.646   4.270
 5585SOL    HW217655   6.857   6.567   4.189
 5586SOL     OW17656   2.042   1.563   6.606
 5586SOL    HW117657   2.003   1.655   6.599
 5586SOL    HW217658   2.029   1.514   6.520
 5587SOL     OW17659   3.726   6.901   3.838
 5587SOL    HW117660   3.785   6.979   3.858
 5587SOL    HW217661   3.780   6.829   3.792
 5588SOL     OW17662   4.264   0.951   5.946
 5588SOL    HW117663   4.358   0.932   5.975
 5588SOL    HW217664   4.204   0.950   6.026
 5589SOL     OW17665   3.181   3.962   6.681
 5589SOL    HW117666   3.257   3.897   6.681
 5589SOL    HW217667   3.202   4.036   6.745
 5590SOL     OW17668   6.709   6.976   3.467
 5590SOL    HW117669   6.770   6.965   3.389
 5590SOL    HW217670   6.685   6.886   3.503
 5591SOL     OW17671   5.234   0.340   0.192
 5591SOL    HW117672   5.260   0.433   0.166
 5591SOL    HW217673   5.150   0.315   0.145
 5592SOL     OW17674   1.826   1.983   2.151
 5592SOL    HW117675   1.883   1.902   2.162
 5592SOL    HW217676   1.812   2.001   2.054
 5593SOL     OW17677   1.876   3.779   4.802
 5593SOL    HW117678   1.874   3.808   4.707
 5593SOL    HW217679   1.965   3.802   4.842
 5594SOL     OW17680   2.518   1.362   6.860
 5594SOL    HW117681   2.483   1.415   6.783
 5594SOL    HW217682   2.539   1.269   6.829
 5595SOL     OW17683   0.426   1.493   6.140
 5595SOL    HW117684   0.496   1.484   6.210
 5595SOL    HW217685   0.466   1.533   6.057
 5596SOL     OW17686   5.033   1.754   3.430
 5596SOL    HW117687   5.034   1.845   3.471
 5596SOL    HW217688   5.062   1.687   3.498
 5597SOL     OW17689   0.845   1.330   6.018
 5597SOL    HW117690   0.916   1.320   6.088
 5597SOL    HW217691   0.808   1.240   5.995
 5598SOL     OW17692   6.984   2.036   4.229
 5598SOL    HW117693   0.053   2.039   4.189
 5598SOL    HW217694   6.970   1.947   4.274
 5599SOL     OW17695   5.232   2.701   3.223
 5599SOL    HW117696   5.275   2.735   3.307
 5599SOL    HW217697   5.240   2.601   3.220
 5600SOL     OW17698   1.783   2.161   2.349
 5600SOL    HW117699   1.802   2.092   2.279
 5600SOL    HW217700   1.858   2.227   2.351
 5601SOL     OW17701   5.712   3.245   5.819
 5601SOL    HW117702   5.732   3.158   5.864
 5601SOL    HW217703   5.652   3.300   5.877
 5602SOL     OW17704   6.535   1.885   2.293
 5602SOL    HW117705   6.474   1.869   2.216
 5602SOL    HW217706   6.629   1.862   2.267
 5603SOL     OW17707   3.571   1.985   6.018
 5603SOL    HW117708   3.499   2.050   5.998
 5603SOL    HW217709   3.570   1.911   5.951
 5604SOL     OW17710   1.354   6.202   3.397
 5604SOL    HW117711   1.391   6.218   3.489
 5604SOL    HW217712   1.290   6.125   3.400
 5605SOL     OW17713   4.654   6.948   4.256
 5605SOL    HW117714   4.559   6.915   4.256
 5605SOL    HW217715   4.660   0.009   4.201
 5606SOL     OW17716   4.826   3.054   0.355
 5606SOL    HW117717   4.918   3.059   0.394
 5606SOL    HW217718   4.774   2.981   0.399
 5607SOL     OW17719   6.626   2.052   2.801
 5607SOL    HW117720   6.618   2.015   2.709
 5607SOL    HW217721   6.647   2.150   2.795
 5608SOL     OW17722   5.038   0.715   3.404
 5608SOL    HW117723   5.132   0.688   3.383
 5608SOL    HW217724   5.024   0.712   3.503
 5609SOL     OW17725   6.914   0.307   0.334
 5609SOL    HW117726   6.986   0.272   0.274
 5609SOL    HW217727   6.853   0.366   0.281
 5610SOL     OW17728   5.847   6.067   0.015
 5610SOL    HW117729   5.750   6.086   0.005
 5610SOL    HW217730   5.867   5.976   7.002
 5611SOL     OW17731   5.832   4.505   2.188
 5611SOL    HW117732   5.923   4.464   2.184
 5611SOL    HW217733   5.831   4.579   2.256
 5612SOL     OW17734   4.016   1.837   0.209
 5612SOL    HW117735   3.961   1.819   0.290
 5612SOL    HW217736   4.099   1.885   0.235
 5613SOL     OW17737   5.710   5.650   5.991
 5613SOL    HW117738   5.614   5.636   5.969
 5613SOL    HW217739   5.765   5.581   5.944
 5614SOL     OW17740   5.082   2.741   4.233
 5614SOL    HW117741   5.090   2.814   4.164
 5614SOL    HW217742   5.160   2.679   4.225
 5615SOL     OW17743   0.402   3.012   3.400
 5615SOL    HW117744   0.336   3.063   3.345
 5615SOL    HW217745   0.491   3.015   3.355
 5616SOL     OW17746   2.130   3.252   2.601
 5616SOL    HW117747   2.141   3.316   2.677
 5616SOL    HW217748   2.175   3.165   2.623
 5617SOL     OW17749   1.424   4.472   6.466
 5617SOL    HW117750   1.386   4.394   6.516
 5617SOL    HW217751   1.523   4.462   6.459
 5618SOL     OW17752   4.930   6.716   2.368
 5618SOL    HW117753   4.938   6.620   2.339
 5618SOL    HW217754   4.918   6.719   2.467
 5619SOL     OW17755   3.468   3.181   3.516
 5619SOL    HW117756   3.501   3.216   3.428
 5619SOL    HW217757   3.434   3.088   3.505
 5620SOL     OW17758   4.922   4.474   4.068
 5620SOL    HW117759   4.905   4.514   3.977
 5620SOL    HW217760   4.914   4.545   4.138
 5621SOL     OW17761   1.148   2.846   6.614
 5621SOL    HW117762   1.200   2.842   6.699
 5621SOL    HW217763   1.145   2.755   6.573
 5622SOL     OW17764   4.715   5.176   4.405
 5622SOL    HW117765   4.752   5.243   4.341
 5622SOL    HW217766   4.615   5.180   4.403
 5623SOL     OW17767   4.535   4.852   4.073
 5623SOL    HW117768   4.436   4.847   4.059
 5623SOL    HW217769   4.581   4.799   4.001
 5624SOL     OW17770   5.076   4.756   3.438
 5624SOL    HW117771   5.006   4.721   3.376
 5624SOL    HW217772   5.104   4.847   3.408
 5625SOL     OW17773   2.841   6.458   6.210
 5625SOL    HW117774   2.815   6.362   6.213
 5625SOL    HW217775   2.763   6.515   6.237
 5626SOL     OW17776   0.488   4.853   6.634
 5626SOL    HW117777   0.466   4.764   6.593
 5626SOL    HW217778   0.404   4.894   6.670
 5627SOL     OW17779   1.250   5.634   0.141
 5627SOL    HW117780   1.253   5.536   0.162
 5627SOL    HW217781   1.305   5.684   0.208
 5628SOL     OW17782   2.239   3.649   0.445
 5628SOL    HW117783   2.181   3.567   0.446
 5628SOL    HW217784   2.299   3.648   0.525
 5629SOL     OW17785   6.994   3.541   3.217
 5629SOL    HW117786   0.036   3.616   3.203
 5629SOL    HW217787   6.910   3.577   3.258
 5630SOL     OW17788   0.911   4.075   0.019
 5630SOL    HW117789   0.910   3.999   0.084
 5630SOL    HW217790   0.847   4.055   6.967
 5631SOL     OW17791   3.599   1.615   1.715
 5631SOL    HW117792   3.681   1.671   1.727
 5631SOL    HW217793   3.601   1.572   1.625
 5632SOL     OW17794   5.101   6.954   5.826
 5632SOL    HW117795   5.063   6.931   5.736
 5632SOL    HW217796   5.190   6.997   5.814
 5633SOL     OW17797   0.908   5.616   5.576
 5633SOL    HW117798   0.935   5.596   5.670
 5633SOL    HW217799   0.810   5.599   5.566
 5634SOL     OW17800   3.090   0.351   1.940
 5634SOL    HW117801   3.160   0.319   1.876
 5634SOL    HW217802   3.002   0.309   1.918
 5635SOL     OW17803   3.262   0.971   1.807
 5635SOL    HW117804   3.198   1.028   1.755
 5635SOL    HW217805   3.346   0.960   1.755
 5636SOL     OW17806   4.940   0.861   5.614
 5636SOL    HW117807   4.993   0.934   5.570
 5636SOL    HW217808   4.992   0.824   5.691
 5637SOL     OW17809   4.650   0.017   4.609
 5637SOL    HW117810   4.736   0.021   4.558
 5637SOL    HW217811   4.602   6.955   4.586
 5638SOL     OW17812   6.861   5.282   1.036
 5638SOL    HW117813   6.880   5.195   0.992
 5638SOL    HW217814   6.773   5.318   1.005
 5639SOL     OW17815   2.081   0.318   1.692
 5639SOL    HW117816   2.025   0.259   1.634
 5639SOL    HW217817   2.080   0.411   1.656
 5640SOL     OW17818   3.338   6.656   3.493
 5640SOL    HW117819   3.410   6.715   3.530
 5640SOL    HW217820   3.304   6.596   3.565
 5641SOL     OW17821   6.976   4.097   3.970
 5641SOL    HW117822   6.886   4.068   4.004
 5641SOL    HW217823   7.008   4.175   4.024
 5642SOL     OW17824   2.482   3.395   6.510
 5642SOL    HW117825   2.405   3.454   6.533
 5642SOL    HW217826   2.453   3.327   6.442
 5643SOL     OW17827   6.055   2.410   4.362
 5643SOL    HW117828   6.120   2.444   4.430
 5643SOL    HW217829   6.103   2.349   4.299
 5644SOL     OW17830   4.156   0.621   4.944
 5644SOL    HW117831   4.121   0.537   4.986
 5644SOL    HW217832   4.222   0.664   5.006
 5645SOL     OW17833   6.738   6.175   4.065
 5645SOL    HW117834   6.718   6.080   4.088
 5645SOL    HW217835   6.651   6.224   4.052
 5646SOL     OW17836   6.817   6.410   3.843
 5646SOL    HW117837   6.831   6.335   3.777
 5646SOL    HW217838   6.832   6.376   3.936
 5647SOL     OW17839   6.919   4.396   6.722
 5647SOL    HW117840   6.939   4.419   6.817
 5647SOL    HW217841   6.979   4.322   6.692
 5648SOL     OW17842   2.322   1.008   5.023
 5648SOL    HW117843   2.243   1.056   5.061
 5648SOL    HW217844   2.297   0.915   5.000
 5649SOL     OW17845   1.287   0.142   5.031
 5649SOL    HW117846   1.228   0.166   5.107
 5649SOL    HW217847   1.240   0.159   4.944
 5650SOL     OW17848   6.388   5.227   6.614
 5650SOL    HW117849   6.398   5.190   6.521
 5650SOL    HW217850   6.291   5.237   6.635
 5651SOL     OW17851   6.089   1.131   2.500
 5651SOL    HW117852   6.034   1.165   2.576
 5651SOL    HW217853   6.094   1.031   2.504
 5652SOL     OW17854   5.709   3.750   0.303
 5652SOL    HW117855   5.774   3.691   0.256
 5652SOL    HW217856   5.621   3.748   0.254
 5653SOL     OW17857   2.285   6.472   6.783
 5653SOL    HW117858   2.217   6.529   6.736
 5653SOL    HW217859   2.297   6.386   6.733
 5654SOL     OW17860   0.764   6.198   6.017
 5654SOL    HW117861   0.849   6.229   5.974
 5654SOL    HW217862   0.768   6.216   6.115
 5655SOL     OW17863   0.188   4.983   3.033
 5655SOL    HW117864   0.268   4.950   3.083
 5655SOL    HW217865   0.148   5.061   3.081
 5656SOL     OW17866   3.524   5.509   6.112
 5656SOL    HW117867   3.540   5.605   6.087
 5656SOL    HW217868   3.596   5.478   6.174
 5657SOL     OW17869   4.006   5.571   2.025
 5657SOL    HW117870   4.097   5.557   2.063
 5657SOL    HW217871   4.010   5.571   1.925
 5658SOL     OW17872   4.995   6.902   4.969
 5658SOL    HW117873   5.061   6.827   4.962
 5658SOL    HW217874   5.014   6.971   4.899
 5659SOL     OW17875   3.473   4.150   2.736
 5659SOL    HW117876   3.467   4.156   2.836
 5659SOL    HW217877   3.388   4.111   2.701
 5660SOL     OW17878   6.213   6.728   0.829
 5660SOL    HW117879   6.132   6.683   0.867
 5660SOL    HW217880   6.266   6.768   0.904
 5661SOL     OW17881   6.696   5.332   4.941
 5661SOL    HW117882   6.646   5.298   4.861
 5661SOL    HW217883   6.722   5.255   4.999
 5662SOL     OW17884   2.132   3.802   4.623
 5662SOL    HW117885   2.177   3.890   4.639
 5662SOL    HW217886   2.115   3.757   4.711
 5663SOL     OW17887   2.016   3.903   0.659
 5663SOL    HW117888   2.031   3.809   0.689
 5663SOL    HW217889   1.992   3.904   0.562
 5664SOL     OW17890   0.299   5.332   2.451
 5664SOL    HW117891   0.247   5.257   2.409
 5664SOL    HW217892   0.267   5.419   2.415
 5665SOL     OW17893   1.824   1.329   5.997
 5665SOL    HW117894   1.843   1.426   6.013
 5665SOL    HW217895   1.870   1.274   6.067
 5666SOL     OW17896   5.843   5.807   6.964
 5666SOL    HW117897   5.916   5.763   6.912
 5666SOL    HW217898   5.808   5.744   0.010
 5667SOL     OW17899   6.539   6.247   3.384
 5667SOL    HW117900   6.566   6.152   3.369
 5667SOL    HW217901   6.473   6.274   3.314
 5668SOL     OW17902   5.724   2.959   5.971
 5668SOL    HW117903   5.780   2.907   5.908
 5668SOL    HW217904   5.636   2.913   5.984
 5669SOL     OW17905   0.069   3.405   4.976
 5669SOL    HW117906   0.101   3.404   5.070
 5669SOL    HW217907   0.008   3.327   4.960
 5670SOL     OW17908   1.719   3.467   2.762
 5670SOL    HW117909   1.713   3.560   2.800
 5670SOL    HW217910   1.752   3.472   2.667
 5671SOL     OW17911   1.412   1.151   5.001
 5671SOL    HW117912   1.424   1.206   4.918
 5671SOL    HW217913   1.494   1.157   5.057
 5672SOL     OW17914   5.538   4.524   5.480
 5672SOL    HW117915   5.604   4.570   5.540
 5672SOL    HW217916   5.573   4.434   5.455
 5673SOL     OW17917   1.901   0.708   1.545
 5673SOL    HW117918   1.846   0.624   1.539
 5673SOL    HW217919   1.850   0.783   1.503
 5674SOL     OW17920   6.615   3.715   1.493
 5674SOL    HW117921   6.580   3.621   1.491
 5674SOL    HW217922   6.671   3.732   1.412
 5675SOL     OW17923   4.317   1.628   5.750
 5675SOL    HW117924   4.242   1.680   5.708
 5675SOL    HW217925   4.349   1.676   5.831
 5676SOL     OW17926   3.442   6.536   1.537
 5676SOL    HW117927   3.392   6.449   1.542
 5676SOL    HW217928   3.530   6.521   1.491
 5677SOL     OW17929   6.952   1.214   4.146
 5677SOL    HW117930   7.013   1.253   4.077
 5677SOL    HW217931   7.000   1.207   4.233
 5678SOL     OW17932   1.884   5.007   3.770
 5678SOL    HW117933   1.919   5.077   3.833
 5678SOL    HW217934   1.844   4.932   3.823
 5679SOL     OW17935   2.906   5.786   5.291
 5679SOL    HW117936   2.852   5.729   5.354
 5679SOL    HW217937   2.865   5.784   5.200
 5680SOL     OW17938   1.985   7.010   5.894
 5680SOL    HW117939   1.956   0.081   5.913
 5680SOL    HW217940   1.911   6.962   5.847
 5681SOL     OW17941   1.991   3.701   0.093
 5681SOL    HW117942   1.905   3.736   0.131
 5681SOL    HW217943   1.980   3.687   7.017
 5682SOL     OW17944   0.812   3.745   3.877
 5682SOL    HW117945   0.911   3.751   3.887
 5682SOL    HW217946   0.773   3.699   3.957
 5683SOL     OW17947   3.897   2.969   4.809
 5683SOL    HW117948   3.966   2.896   4.810
 5683SOL    HW217949   3.943   3.058   4.813
 5684SOL     OW17950   3.121   3.575   3.277
 5684SOL    HW117951   3.044   3.526   3.236
 5684SOL    HW217952   3.102   3.673   3.279
 5685SOL     OW17953   1.369   5.565   2.247
 5685SOL    HW117954   1.273   5.563   2.220
 5685SOL    HW217955   1.376   5.577   2.347
 5686SOL     OW17956   3.580   5.741   0.364
 5686SOL    HW117957   3.495   5.736   0.416
 5686SOL    HW217958   3.569   5.807   0.289
 5687SOL     OW17959   4.664   5.188   5.552
 5687SOL    HW117960   4.736   5.225   5.494
 5687SOL    HW217961   4.705   5.145   5.633
 5688SOL     OW17962   6.031   1.859   2.739
 5688SOL    HW117963   5.963   1.928   2.717
 5688SOL    HW217964   6.011   1.775   2.688
 5689SOL     OW17965   3.820   2.803   5.670
 5689SOL    HW117966   3.848   2.730   5.733
 5689SOL    HW217967   3.782   2.762   5.587
 5690SOL     OW17968   4.952   6.458   2.266
 5690SOL    HW117969   5.043   6.501   2.264
 5690SOL    HW217970   4.918   6.450   2.172
 5691SOL     OW17971   2.189   0.032   2.973
 5691SOL    HW117972   2.268   0.000   2.922
 5691SOL    HW217973   2.160   6.984   3.037
 5692SOL     OW17974   6.004   2.774   0.160
 5692SOL    HW117975   6.025   2.683   0.126
 5692SOL    HW217976   5.920   2.807   0.116
 5693SOL     OW17977   4.808   2.756   2.838
 5693SOL    HW117978   4.851   2.810   2.910
 5693SOL    HW217979   4.815   2.804   2.751
 5694SOL     OW17980   1.272   2.104   4.508
 5694SOL    HW117981   1.235   2.165   4.438
 5694SOL    HW217982   1.367   2.129   4.527
 5695SOL     OW17983   1.600   3.714   3.448
 5695SOL    HW117984   1.564   3.787   3.391
 5695SOL    HW217985   1.606   3.629   3.394
 5696SOL     OW17986   3.746   0.046   5.937
 5696SOL    HW117987   3.841   0.074   5.955
 5696SOL    HW217988   3.731   0.045   5.838
 5697SOL     OW17989   6.614   3.337   0.122
 5697SOL    HW117990   6.592   3.414   0.182
 5697SOL    HW217991   6.539   3.321   0.058
 5698SOL     OW17992   0.935   4.281   2.462
 5698SOL    HW117993   0.872   4.215   2.501
 5698SOL    HW217994   0.902   4.310   2.372
 5699SOL     OW17995   6.535   1.697   4.896
 5699SOL    HW117996   6.602   1.652   4.955
 5699SOL    HW217997   6.453   1.640   4.889
 5700SOL     OW17998   1.142   5.089   3.406
 5700SOL    HW117999   1.161   5.006   3.458
 5700SOL    HW218000   1.058   5.132   3.441
 5701SOL     OW18001   5.282   4.885   1.876
 5701SOL    HW118002   5.233   4.966   1.906
 5701SOL    HW218003   5.274   4.876   1.777
 5702SOL     OW18004   2.051   0.481   6.754
 5702SOL    HW118005   2.080   0.553   6.817
 5702SOL    HW218006   2.124   0.413   6.747
 5703SOL     OW18007   4.400   4.535   0.935
 5703SOL    HW118008   4.483   4.580   0.968
 5703SOL    HW218009   4.336   4.604   0.901
 5704SOL     OW18010   4.347   5.552   4.253
 5704SOL    HW118011   4.439   5.547   4.215
 5704SOL    HW218012   4.314   5.646   4.249
 5705SOL     OW18013   6.069   1.673   2.506
 5705SOL    HW118014   6.141   1.648   2.571
 5705SOL    HW218015   6.109   1.718   2.427
 5706SOL     OW18016   2.446   0.970   6.541
 5706SOL    HW118017   2.527   0.997   6.488
 5706SOL    HW218018   2.421   1.043   6.604
 5707SOL     OW18019   2.837   2.249   5.890
 5707SOL    HW118020   2.870   2.162   5.855
 5707SOL    HW218021   2.782   2.234   5.973
 5708SOL     OW18022   5.693   7.003   2.055
 5708SOL    HW118023   5.763   0.040   2.016
 5708SOL    HW218024   5.649   6.950   1.982
 5709SOL     OW18025   0.672   1.016   2.835
 5709SOL    HW118026   0.632   1.093   2.885
 5709SOL    HW218027   0.600   0.951   2.812
 5710SOL     OW18028   2.912   4.537   6.240
 5710SOL    HW118029   2.978   4.610   6.259
 5710SOL    HW218030   2.831   4.575   6.197
 5711SOL     OW18031   4.673   1.811   4.460
 5711SOL    HW118032   4.613   1.836   4.536
 5711SOL    HW218033   4.671   1.883   4.391
 5712SOL     OW18034   0.024   5.678   6.395
 5712SOL    HW118035   0.025   5.768   6.438
 5712SOL    HW218036   0.118   5.642   6.392
 5713SOL     OW18037   7.008   2.341   3.080
 5713SOL    HW118038   0.051   2.373   3.149
 5713SOL    HW218039   0.031   2.279   3.016
 5714SOL     OW18040   1.990   0.959   6.677
 5714SOL    HW118041   2.062   0.897   6.708
 5714SOL    HW218042   1.935   0.913   6.607
 5715SOL     OW18043   1.536   0.398   3.275
 5715SOL    HW118044   1.627   0.424   3.241
 5715SOL    HW218045   1.482   0.480   3.291
 5716SOL     OW18046   1.871   3.261   5.121
 5716SOL    HW118047   1.893   3.283   5.025
 5716SOL    HW218048   1.940   3.302   5.180
 5717SOL     OW18049   0.643   4.256   0.462
 5717SOL    HW118050   0.736   4.288   0.448
 5717SOL    HW218051   0.641   4.189   0.535
 5718SOL     OW18052   2.094   4.813   5.324
 5718SOL    HW118053   2.038   4.789   5.403
 5718SOL    HW218054   2.159   4.739   5.305
 5719SOL     OW18055   2.296   0.344   6.677
 5719SOL    HW118056   2.341   0.281   6.741
 5719SOL    HW218057   2.365   0.382   6.615
 5720SOL     OW18058   2.254   5.319   3.950
 5720SOL    HW118059   2.330   5.355   3.895
 5720SOL    HW218060   2.203   5.395   3.990
 5721SOL     OW18061   0.716   4.533   1.434
 5721SOL    HW118062   0.692   4.616   1.485
 5721SOL    HW218063   0.811   4.510   1.453
 5722SOL     OW18064   5.186   1.084   4.012
 5722SOL    HW118065   5.250   1.067   4.087
 5722SOL    HW218066   5.092   1.082   4.048
 5723SOL     OW18067   1.483   4.637   1.018
 5723SOL    HW118068   1.387   4.608   1.024
 5723SOL    HW218069   1.488   4.736   1.005
 5724SOL     OW18070   4.867   1.861   6.785
 5724SOL    HW118071   4.960   1.825   6.786
 5724SOL    HW218072   4.863   1.940   6.724
 5725SOL     OW18073   5.209   5.726   6.078
 5725SOL    HW118074   5.261   5.641   6.071
 5725SOL    HW218075   5.121   5.707   6.120
 5726SOL     OW18076   4.650   3.103   6.289
 5726SOL    HW118077   4.695   3.185   6.253
 5726SOL    HW218078   4.713   3.056   6.352
 5727SOL     OW18079   6.009   2.169   3.918
 5727SOL    HW118080   5.990   2.073   3.939
 5727SOL    HW218081   6.068   2.175   3.837
 5728SOL     OW18082   5.698   1.131   6.514
 5728SOL    HW118083   5.630   1.058   6.521
 5728SOL    HW218084   5.763   1.109   6.442
 5729SOL     OW18085   0.702   3.035   5.543
 5729SOL    HW118086   0.780   3.083   5.582
 5729SOL    HW218087   0.714   3.025   5.444
 5730SOL     OW18088   4.039   5.616   6.649
 5730SOL    HW118089   4.068   5.610   6.554
 5730SOL    HW218090   4.096   5.556   6.705
 5731SOL     OW18091   3.487   0.992   4.677
 5731SOL    HW118092   3.564   1.021   4.620
 5731SOL    HW218093   3.505   1.018   4.772
 5732SOL     OW18094   5.846   4.391   3.956
 5732SOL    HW118095   5.932   4.381   4.005
 5732SOL    HW218096   5.864   4.422   3.862
 5733SOL     OW18097   3.086   0.125   0.657
 5733SOL    HW118098   3.086   0.100   0.560
 5733SOL    HW218099   3.166   0.084   0.702
 5734SOL     OW18100   2.510   5.649   6.393
 5734SOL    HW118101   2.492   5.678   6.299
 5734SOL    HW218102   2.474   5.557   6.408
 5735SOL     OW18103   5.018   0.824   2.095
 5735SOL    HW118104   4.988   0.779   2.179
 5735SOL    HW218105   5.110   0.861   2.108
 5736SOL     OW18106   5.906   4.230   0.213
 5736SOL    HW118107   5.920   4.141   0.169
 5736SOL    HW218108   5.808   4.252   0.214
 5737SOL     OW18109   4.330   5.086   1.209
 5737SOL    HW118110   4.410   5.102   1.267
 5737SOL    HW218111   4.248   5.086   1.266
 5738SOL     OW18112   2.854   0.686   0.305
 5738SOL    HW118113   2.822   0.593   0.317
 5738SOL    HW218114   2.848   0.712   0.209
 5739SOL     OW18115   1.943   1.014   5.732
 5739SOL    HW118116   1.872   0.974   5.675
 5739SOL    HW218117   1.976   1.098   5.691
 5740SOL     OW18118   4.978   3.307   1.702
 5740SOL    HW118119   4.945   3.283   1.793
 5740SOL    HW218120   5.036   3.233   1.667
 5741SOL     OW18121   0.527   3.581   4.216
 5741SOL    HW118122   0.517   3.483   4.195
 5741SOL    HW218123   0.618   3.612   4.186
 5742SOL     OW18124   4.911   0.567   3.215
 5742SOL    HW118125   4.884   0.620   3.135
 5742SOL    HW218126   4.963   0.624   3.277
 5743SOL     OW18127   3.478   5.624   0.041
 5743SOL    HW118128   3.447   5.690   6.995
 5743SOL    HW218129   3.572   5.646   0.068
 5744SOL     OW18130   5.121   6.844   2.963
 5744SOL    HW118131   5.166   6.818   3.049
 5744SOL    HW218132   5.028   6.876   2.982
 5745SOL     OW18133   1.241   3.076   1.897
 5745SOL    HW118134   1.159   3.123   1.862
 5745SOL    HW218135   1.287   3.030   1.821
 5746SOL     OW18136   4.756   6.805   3.425
 5746SOL    HW118137   4.715   6.846   3.343
 5746SOL    HW218138   4.704   6.833   3.505
 5747SOL     OW18139   1.103   6.584   0.984
 5747SOL    HW118140   1.179   6.560   1.044
 5747SOL    HW218141   1.042   6.647   1.031
 5748SOL     OW18142   0.520   5.690   0.740
 5748SOL    HW118143   0.421   5.688   0.751
 5748SOL    HW218144   0.553   5.783   0.758
 5749SOL     OW18145   1.685   5.605   6.313
 5749SOL    HW118146   1.776   5.565   6.308
 5749SOL    HW218147   1.682   5.690   6.260
 5750SOL     OW18148   6.499   3.521   4.128
 5750SOL    HW118149   6.587   3.548   4.166
 5750SOL    HW218150   6.511   3.439   4.072
 5751SOL     OW18151   1.257   3.583   4.770
 5751SOL    HW118152   1.288   3.647   4.699
 5751SOL    HW218153   1.324   3.582   4.845
 5752SOL     OW18154   4.885   0.454   0.928
 5752SOL    HW118155   4.864   0.494   0.839
 5752SOL    HW218156   4.932   0.367   0.915
 5753SOL     OW18157   3.547   4.208   5.074
 5753SOL    HW118158   3.526   4.288   5.130
 5753SOL    HW218159   3.471   4.190   5.012
 5754SOL     OW18160   0.666   5.419   1.302
 5754SOL    HW118161   0.752   5.408   1.352
 5754SOL    HW218162   0.603   5.475   1.357
 5755SOL     OW18163   1.288   2.427   6.882
 5755SOL    HW118164   1.269   2.477   6.967
 5755SOL    HW218165   1.383   2.399   6.881
 5756SOL     OW18166   5.918   6.141   1.366
 5756SOL    HW118167   5.953   6.060   1.318
 5756SOL    HW218168   5.819   6.146   1.353
 5757SOL     OW18169   6.571   0.606   4.483
 5757SOL    HW118170   6.530   0.574   4.569
 5757SOL    HW218171   6.660   0.563   4.471
 5758SOL     OW18172   6.064   6.836   3.180
 5758SOL    HW118173   6.023   6.829   3.089
 5758SOL    HW218174   6.113   6.752   3.202
 5759SOL     OW18175   3.651   0.068   1.104
 5759SOL    HW118176   3.602   0.128   1.040
 5759SOL    HW218177   3.708   0.004   1.052
 5760SOL     OW18178   1.153   3.062   0.743
 5760SOL    HW118179   1.189   3.152   0.767
 5760SOL    HW218180   1.221   2.992   0.766
 5761SOL     OW18181   5.919   0.060   4.335
 5761SOL    HW118182   6.004   0.036   4.289
 5761SOL    HW218183   5.938   0.085   4.430
 5762SOL     OW18184   6.654   5.638   6.822
 5762SOL    HW118185   6.750   5.637   6.795
 5762SOL    HW218186   6.605   5.567   6.771
 5763SOL     OW18187   5.874   6.900   6.880
 5763SOL    HW118188   5.780   6.870   6.863
 5763SOL    HW218189   5.879   7.000   6.873
 5764SOL     OW18190   4.804   6.897   3.944
 5764SOL    HW118191   4.813   6.812   3.893
 5764SOL    HW218192   4.711   6.933   3.932
 5765SOL     OW18193   5.813   5.348   2.403
 5765SOL    HW118194   5.798   5.325   2.307
 5765SOL    HW218195   5.845   5.267   2.453
 5766SOL     OW18196   0.088   1.459   4.302
 5766SOL    HW118197   0.091   1.360   4.311
 5766SOL    HW218198   0.074   1.501   4.392
 5767SOL     OW18199   3.736   6.583   0.065
 5767SOL    HW118200   3.656   6.626   0.024
 5767SOL    HW218201   3.813   6.587   0.001
 5768SOL     OW18202   0.386   0.744   4.664
 5768SOL    HW118203   0.481   0.759   4.636
 5768SOL    HW218204   0.381   0.662   4.721
 5769SOL     OW18205   1.732   4.056   6.444
 5769SOL    HW118206   1.696   4.083   6.355
 5769SOL    HW218207   1.728   4.135   6.506
 5770SOL     OW18208   1.712   4.742   1.694
 5770SOL    HW118209   1.640   4.722   1.627
 5770SOL    HW218210   1.774   4.811   1.656
 5771SOL     OW18211   3.298   5.226   3.481
 5771SOL    HW118212   3.256   5.244   3.570
 5771SOL    HW218213   3.336   5.133   3.480
 5772SOL     OW18214   2.682   0.003   2.268
 5772SOL    HW118215   2.712   0.095   2.296
 5772SOL    HW218216   2.678   6.966   2.349
 5773SOL     OW18217   4.591   1.879   2.432
 5773SOL    HW118218   4.576   1.974   2.462
 5773SOL    HW218219   4.550   1.865   2.342
 5774SOL     OW18220   0.167   6.504   2.291
 5774SOL    HW118221   0.235   6.535   2.358
 5774SOL    HW218222   0.133   6.414   2.318
 5775SOL     OW18223   6.766   5.736   1.948
 5775SOL    HW118224   6.716   5.803   1.893
 5775SOL    HW218225   6.748   5.644   1.913
 5776SOL     OW18226   2.460   1.349   4.200
 5776SOL    HW118227   2.446   1.284   4.273
 5776SOL    HW218228   2.418   1.437   4.224
 5777SOL     OW18229   1.891   6.233   2.547
 5777SOL    HW118230   1.881   6.133   2.542
 5777SOL    HW218231   1.804   6.273   2.576
 5778SOL     OW18232   0.692   1.845   0.960
 5778SOL    HW118233   0.731   1.762   0.919
 5778SOL    HW218234   0.650   1.821   1.048
 5779SOL     OW18235   5.818   1.406   5.709
 5779SOL    HW118236   5.813   1.451   5.798
 5779SOL    HW218237   5.901   1.435   5.661
 5780SOL     OW18238   5.257   6.052   4.044
 5780SOL    HW118239   5.243   6.141   4.000
 5780SOL    HW218240   5.168   6.009   4.061
 5781SOL     OW18241   0.519   4.931   5.053
 5781SOL    HW118242   0.438   4.919   4.997
 5781SOL    HW218243   0.505   4.888   5.142
 5782SOL     OW18244   0.876   0.238   0.148
 5782SOL    HW118245   0.905   0.298   0.073
 5782SOL    HW218246   0.781   0.257   0.170
 5783SOL     OW18247   1.293   1.601   0.853
 5783SOL    HW118248   1.265   1.634   0.762
 5783SOL    HW218249   1.377   1.648   0.881
 5784SOL     OW18250   6.383   6.053   6.610
 5784SOL    HW118251   6.413   6.011   6.696
 5784SOL    HW218252   6.362   5.981   6.544
 5785SOL     OW18253   1.120   1.718   0.642
 5785SOL    HW118254   1.196   1.738   0.581
 5785SOL    HW218255   1.091   1.623   0.629
 5786SOL     OW18256   5.847   4.756   1.148
 5786SOL    HW118257   5.940   4.793   1.136
 5786SOL    HW218258   5.853   4.662   1.180
 5787SOL     OW18259   2.989   2.621   5.801
 5787SOL    HW118260   3.009   2.558   5.726
 5787SOL    HW218261   2.934   2.697   5.768
 5788SOL     OW18262   2.473   0.979   3.931
 5788SOL    HW118263   2.457   1.075   3.953
 5788SOL    HW218264   2.393   0.942   3.884
 5789SOL     OW18265   4.276   4.968   6.140
 5789SOL    HW118266   4.307   5.043   6.081
 5789SOL    HW218267   4.204   4.917   6.093
 5790SOL     OW18268   0.496   2.668   3.243
 5790SOL    HW118269   0.571   2.618   3.202
 5790SOL    HW218270   0.411   2.647   3.194
 5791SOL     OW18271   2.465   0.969   2.825
 5791SOL    HW118272   2.437   0.952   2.919
 5791SOL    HW218273   2.405   0.918   2.763
 5792SOL     OW18274   6.471   2.431   2.763
 5792SOL    HW118275   6.398   2.387   2.815
 5792SOL    HW218276   6.440   2.519   2.729
 5793SOL     OW18277   0.233   0.605   3.733
 5793SOL    HW118278   0.146   0.565   3.762
 5793SOL    HW218279   0.305   0.536   3.739
 5794SOL     OW18280   4.619   3.717   7.020
 5794SOL    HW118281   4.718   3.725   0.009
 5794SOL    HW218282   4.583   3.802   6.982
 5795SOL     OW18283   5.736   4.222   6.629
 5795SOL    HW118284   5.713   4.165   6.708
 5795SOL    HW218285   5.800   4.172   6.570
 5796SOL     OW18286   3.823   1.533   0.411
 5796SOL    HW118287   3.818   1.606   0.343
 5796SOL    HW218288   3.897   1.470   0.386
 5797SOL     OW18289   3.008   1.878   4.872
 5797SOL    HW118290   3.021   1.930   4.787
 5797SOL    HW218291   3.018   1.939   4.950
 5798SOL     OW18292   6.928   4.481   4.664
 5798SOL    HW118293   7.020   4.513   4.640
 5798SOL    HW218294   6.862   4.553   4.645
 5799SOL     OW18295   5.335   0.286   4.050
 5799SOL    HW118296   5.413   0.244   4.096
 5799SOL    HW218297   5.366   0.354   3.984
 5800SOL     OW18298   6.054   5.186   0.825
 5800SOL    HW118299   5.977   5.145   0.874
 5800SOL    HW218300   6.033   5.190   0.727
 5801SOL     OW18301   2.043   2.054   3.713
 5801SOL    HW118302   1.955   2.017   3.683
 5801SOL    HW218303   2.065   2.018   3.803
 5802SOL     OW18304   0.718   3.327   5.508
 5802SOL    HW118305   0.659   3.407   5.496
 5802SOL    HW218306   0.782   3.320   5.431
 5803SOL     OW18307   1.739   4.744   0.329
 5803SOL    HW118308   1.748   4.797   0.414
 5803SOL    HW218309   1.654   4.692   0.331
 5804SOL     OW18310   6.165   3.800   4.508
 5804SOL    HW118311   6.155   3.828   4.413
 5804SOL    HW218312   6.224   3.865   4.556
 5805SOL     OW18313   5.164   3.119   6.677
 5805SOL    HW118314   5.200   3.206   6.645
 5805SOL    HW218315   5.194   3.046   6.616
 5806SOL     OW18316   0.922   6.150   0.176
 5806SOL    HW118317   0.932   6.072   0.114
 5806SOL    HW218318   0.854   6.129   0.246
 5807SOL     OW18319   1.708   3.515   1.909
 5807SOL    HW118320   1.743   3.443   1.968
 5807SOL    HW218321   1.772   3.592   1.909
 5808SOL     OW18322   6.502   3.976   2.954
 5808SOL    HW118323   6.402   3.966   2.948
 5808SOL    HW218324   6.539   3.989   2.862
 5809SOL     OW18325   6.933   3.746   4.151
 5809SOL    HW118326   6.936   3.679   4.077
 5809SOL    HW218327   0.003   3.775   4.174
 5810SOL     OW18328   2.584   2.067   2.322
 5810SOL    HW118329   2.673   2.111   2.329
 5810SOL    HW218330   2.512   2.133   2.344
 5811SOL     OW18331   2.367   1.302   3.965
 5811SOL    HW118332   2.321   1.381   3.926
 5811SOL    HW218333   2.396   1.324   4.059
 5812SOL     OW18334   4.669   0.763   4.240
 5812SOL    HW118335   4.570   0.765   4.244
 5812SOL    HW218336   4.707   0.823   4.311
 5813SOL     OW18337   1.199   0.672   5.556
 5813SOL    HW118338   1.133   0.705   5.624
 5813SOL    HW218339   1.283   0.726   5.564
 5814SOL     OW18340   0.595   5.218   1.144
 5814SOL    HW118341   0.564   5.163   1.222
 5814SOL    HW218342   0.634   5.304   1.178
 5815SOL     OW18343   3.357   1.425   2.677
 5815SOL    HW118344   3.354   1.520   2.645
 5815SOL    HW218345   3.401   1.421   2.767
 5816SOL     OW18346   4.765   0.388   0.584
 5816SOL    HW118347   4.865   0.377   0.582
 5816SOL    HW218348   4.729   0.345   0.667
 5817SOL     OW18349   4.916   3.260   4.891
 5817SOL    HW118350   4.948   3.171   4.921
 5817SOL    HW218351   4.961   3.332   4.945
 5818SOL     OW18352   6.217   6.587   6.300
 5818SOL    HW118353   6.181   6.660   6.359
 5818SOL    HW218354   6.213   6.500   6.348
 5819SOL     OW18355   6.034   0.346   1.785
 5819SOL    HW118356   5.994   0.421   1.733
 5819SOL    HW218357   6.019   0.260   1.735
 5820SOL     OW18358   5.508   6.456   3.598
 5820SOL    HW118359   5.506   6.371   3.650
 5820SOL    HW218360   5.518   6.533   3.660
 5821SOL     OW18361   2.574   0.771   1.843
 5821SOL    HW118362   2.525   0.833   1.904
 5821SOL    HW218363   2.627   0.705   1.898
 5822SOL     OW18364   6.966   1.368   2.059
 5822SOL    HW118365   7.008   1.439   2.002
 5822SOL    HW218366   6.911   1.308   2.001
 5823SOL     OW18367   2.326   2.042   4.274
 5823SOL    HW118368   2.321   1.944   4.253
 5823SOL    HW218369   2.236   2.075   4.303
 5824SOL     OW18370   4.946   7.013   3.316
 5824SOL    HW118371   4.960   7.014   3.217
 5824SOL    HW218372   4.904   6.926   3.343
 5825SOL     OW18373   2.733   0.430   0.285
 5825SOL    HW118374   2.645   0.477   0.276
 5825SOL    HW218375   2.718   0.333   0.304
 5826SOL     OW18376   6.289   0.151   5.011
 5826SOL    HW118377   6.285   0.231   5.071
 5826SOL    HW218378   6.196   0.118   4.995
 5827SOL     OW18379   0.747   5.542   5.046
 5827SOL    HW118380   0.699   5.454   5.037
 5827SOL    HW218381   0.805   5.556   4.966
 5828SOL     OW18382   6.980   3.685   1.817
 5828SOL    HW118383   6.891   3.675   1.862
 5828SOL    HW218384   0.025   3.628   1.863
 5829SOL     OW18385   1.998   1.514   1.816
 5829SOL    HW118386   1.928   1.556   1.874
 5829SOL    HW218387   1.958   1.491   1.727
 5830SOL     OW18388   2.918   1.614   6.417
 5830SOL    HW118389   2.987   1.627   6.488
 5830SOL    HW218390   2.942   1.533   6.363
 5831SOL     OW18391   5.520   6.952   3.185
 5831SOL    HW118392   5.470   6.978   3.267
 5831SOL    HW218393   5.462   6.968   3.104
 5832SOL     OW18394   3.976   4.183   5.344
 5832SOL    HW118395   3.981   4.105   5.406
 5832SOL    HW218396   4.056   4.242   5.357
 5833SOL     OW18397   3.461   2.881   4.862
 5833SOL    HW118398   3.432   2.826   4.784
 5833SOL    HW218399   3.397   2.958   4.875
 5834SOL     OW18400   6.233   1.272   1.070
 5834SOL    HW118401   6.271   1.347   1.015
 5834SOL    HW218402   6.240   1.186   1.019
 5835SOL     OW18403   5.434   2.289   3.715
 5835SOL    HW118404   5.389   2.315   3.800
 5835SOL    HW218405   5.524   2.251   3.735
 5836SOL     OW18406   3.639   6.018   2.347
 5836SOL    HW118407   3.612   5.932   2.391
 5836SOL    HW218408   3.680   5.999   2.257
 5837SOL     OW18409   5.012   4.206   6.550
 5837SOL    HW118410   4.924   4.179   6.588
 5837SOL    HW218411   5.044   4.135   6.487
 5838SOL     OW18412   0.787   1.087   5.313
 5838SOL    HW118413   0.869   1.104   5.368
 5838SOL    HW218414   0.710   1.136   5.354
 5839SOL     OW18415   6.530   3.327   2.923
 5839SOL    HW118416   6.554   3.377   2.840
 5839SOL    HW218417   6.461   3.258   2.902
 5840SOL     OW18418   1.870   5.351   6.861
 5840SOL    HW118419   1.814   5.268   6.873
 5840SOL    HW218420   1.949   5.347   6.922
 5841SOL     OW18421   6.776   2.551   3.884
 5841SOL    HW118422   6.729   2.636   3.910
 5841SOL    HW218423   6.841   2.569   3.810
 5842SOL     OW18424   3.750   2.884   0.624
 5842SOL    HW118425   3.726   2.937   0.706
 5842SOL    HW218426   3.783   2.794   0.651
 5843SOL     OW18427   1.699   3.751   2.195
 5843SOL    HW118428   1.728   3.785   2.285
 5843SOL    HW218429   1.657   3.661   2.206
 5844SOL     OW18430   1.092   6.310   6.774
 5844SOL    HW118431   1.120   6.329   6.868
 5844SOL    HW218432   1.098   6.212   6.756
 5845SOL     OW18433   0.988   2.505   4.008
 5845SOL    HW118434   0.892   2.496   3.979
 5845SOL    HW218435   0.991   2.552   4.096
 5846SOL     OW18436   0.078   2.904   5.716
 5846SOL    HW118437   0.143   2.872   5.785
 5846SOL    HW218438   7.015   2.853   5.725
 5847SOL     OW18439   2.383   2.705   2.310
 5847SOL    HW118440   2.440   2.729   2.389
 5847SOL    HW218441   2.368   2.786   2.254
 5848SOL     OW18442   1.514   4.306   3.236
 5848SOL    HW118443   1.489   4.329   3.330
 5848SOL    HW218444   1.613   4.319   3.224
 5849SOL     OW18445   2.221   0.265   5.529
 5849SOL    HW118446   2.193   0.283   5.435
 5849SOL    HW218447   2.318   0.287   5.540
 5850SOL     OW18448   0.864   4.873   2.241
 5850SOL    HW118449   0.935   4.840   2.304
 5850SOL    HW218450   0.775   4.871   2.287
 5851SOL     OW18451   5.892   3.764   2.195
 5851SOL    HW118452   5.906   3.801   2.286
 5851SOL    HW218453   5.814   3.809   2.151
 5852SOL     OW18454   4.359   5.815   2.798
 5852SOL    HW118455   4.344   5.771   2.710
 5852SOL    HW218456   4.403   5.903   2.784
 5853SOL     OW18457   3.523   4.752   5.630
 5853SOL    HW118458   3.593   4.759   5.701
 5853SOL    HW218459   3.536   4.667   5.579
 5854SOL     OW18460   6.738   1.214   6.094
 5854SOL    HW118461   6.717   1.220   5.996
 5854SOL    HW218462   6.706   1.297   6.140
 5855SOL     OW18463   0.754   1.046   4.315
 5855SOL    HW118464   0.763   1.145   4.301
 5855SOL    HW218465   0.772   1.024   4.410
 5856SOL     OW18466   1.808   4.377   3.916
 5856SOL    HW118467   1.766   4.291   3.945
 5856SOL    HW218468   1.781   4.450   3.979
 5857SOL     OW18469   6.287   3.178   5.428
 5857SOL    HW118470   6.189   3.165   5.445
 5857SOL    HW218471   6.320   3.104   5.370
 5858SOL     OW18472   3.591   0.961   2.338
 5858SOL    HW118473   3.686   0.932   2.352
 5858SOL    HW218474   3.584   1.009   2.251
 5859SOL     OW18475   6.120   6.407   0.651
 5859SOL    HW118476   6.073   6.442   0.570
 5859SOL    HW218477   6.158   6.317   0.631
 5860SOL     OW18478   1.779   3.884   1.506
 5860SOL    HW118479   1.871   3.881   1.469
 5860SOL    HW218480   1.724   3.811   1.464
 5861SOL     OW18481   6.492   2.565   4.475
 5861SOL    HW118482   6.469   2.662   4.463
 5861SOL    HW218483   6.514   2.526   4.386
 5862SOL     OW18484   4.510   4.477   3.082
 5862SOL    HW118485   4.444   4.405   3.103
 5862SOL    HW218486   4.488   4.519   2.994
 5863SOL     OW18487   2.586   1.067   6.942
 5863SOL    HW118488   2.602   1.116   0.005
 5863SOL    HW218489   2.667   1.077   6.883
 5864SOL     OW18490   4.786   4.781   1.314
 5864SOL    HW118491   4.820   4.875   1.304
 5864SOL    HW218492   4.811   4.745   1.404
 5865SOL     OW18493   4.703   0.994   3.128
 5865SOL    HW118494   4.785   0.978   3.183
 5865SOL    HW218495   4.673   0.908   3.087
 5866SOL     OW18496   4.204   0.327   6.116
 5866SOL    HW118497   4.154   0.333   6.030
 5866SOL    HW218498   4.298   0.357   6.102
 5867SOL     OW18499   0.265   2.640   1.594
 5867SOL    HW118500   0.344   2.699   1.608
 5867SOL    HW218501   0.296   2.549   1.565
 5868SOL     OW18502   1.804   6.683   5.328
 5868SOL    HW118503   1.744   6.675   5.409
 5868SOL    HW218504   1.899   6.693   5.358
 5869SOL     OW18505   2.865   4.900   3.754
 5869SOL    HW118506   2.773   4.926   3.723
 5869SOL    HW218507   2.903   4.972   3.811
 5870SOL     OW18508   5.155   5.055   4.673
 5870SOL    HW118509   5.146   4.959   4.646
 5870SOL    HW218510   5.177   5.111   4.593
 5871SOL     OW18511   3.045   3.125   6.780
 5871SOL    HW118512   2.982   3.107   6.855
 5871SOL    HW218513   3.138   3.101   6.808
 5872SOL     OW18514   3.085   6.384   5.658
 5872SOL    HW118515   3.087   6.313   5.728
 5872SOL    HW218516   3.178   6.420   5.645
 5873SOL     OW18517   2.681   3.553   7.016
 5873SOL    HW118518   2.638   3.594   6.936
 5873SOL    HW218519   2.610   3.512   0.052
 5874SOL     OW18520   1.701   4.022   1.071
 5874SOL    HW118521   1.681   4.105   1.123
 5874SOL    HW218522   1.767   4.043   0.999
 5875SOL     OW18523   3.849   1.850   7.018
 5875SOL    HW118524   3.922   1.836   0.061
 5875SOL    HW218525   3.760   1.836   0.040
 5876SOL     OW18526   3.337   4.471   6.283
 5876SOL    HW118527   3.290   4.391   6.321
 5876SOL    HW218528   3.417   4.440   6.230
 5877SOL     OW18529   0.269   0.011   3.117
 5877SOL    HW118530   0.233   0.086   3.172
 5877SOL    HW218531   0.367   0.024   3.103
 5878SOL     OW18532   5.255   4.872   3.091
 5878SOL    HW118533   5.304   4.958   3.076
 5878SOL    HW218534   5.319   4.796   3.090
 5879SOL     OW18535   3.921   3.514   5.854
 5879SOL    HW118536   3.821   3.517   5.847
 5879SOL    HW218537   3.947   3.468   5.939
 5880SOL     OW18538   5.190   2.521   5.401
 5880SOL    HW118539   5.168   2.424   5.407
 5880SOL    HW218540   5.271   2.541   5.457
 5881SOL     OW18541   1.606   5.713   2.160
 5881SOL    HW118542   1.525   5.654   2.172
 5881SOL    HW218543   1.680   5.660   2.118
 5882SOL     OW18544   1.953   5.560   5.701
 5882SOL    HW118545   1.863   5.523   5.721
 5882SOL    HW218546   2.023   5.491   5.718
 5883SOL     OW18547   0.473   4.360   1.078
 5883SOL    HW118548   0.379   4.379   1.107
 5883SOL    HW218549   0.532   4.436   1.105
 5884SOL     OW18550   6.215   2.125   3.533
 5884SOL    HW118551   6.161   2.198   3.575
 5884SOL    HW218552   6.195   2.038   3.579
 5885SOL     OW18553   0.105   5.076   6.920
 5885SOL    HW118554   0.023   5.102   6.870
 5885SOL    HW218555   0.080   5.030   7.005
 5886SOL     OW18556   1.601   3.991   3.331
 5886SOL    HW118557   1.607   4.028   3.238
 5886SOL    HW218558   1.620   4.064   3.397
 5887SOL     OW18559   2.069   2.794   1.082
 5887SOL    HW118560   2.095   2.781   1.177
 5887SOL    HW218561   2.064   2.892   1.062
 5888SOL     OW18562   3.428   6.586   0.793
 5888SOL    HW118563   3.349   6.532   0.821
 5888SOL    HW218564   3.476   6.540   0.718
 5889SOL     OW18565   5.917   0.652   1.935
 5889SOL    HW118566   5.852   0.669   2.010
 5889SOL    HW218567   5.866   0.640   1.850
 5890SOL     OW18568   2.308   5.923   2.529
 5890SOL    HW118569   2.252   5.883   2.602
 5890SOL    HW218570   2.403   5.894   2.540
 5891SOL     OW18571   2.660   3.462   0.851
 5891SOL    HW118572   2.613   3.383   0.812
 5891SOL    HW218573   2.653   3.540   0.789
 5892SOL     OW18574   1.185   4.186   1.216
 5892SOL    HW118575   1.091   4.205   1.243
 5892SOL    HW218576   1.200   4.087   1.215
 5893SOL     OW18577   0.830   6.460   2.102
 5893SOL    HW118578   0.772   6.431   2.026
 5893SOL    HW218579   0.841   6.560   2.098
 5894SOL     OW18580   2.205   5.248   6.209
 5894SOL    HW118581   2.204   5.151   6.236
 5894SOL    HW218582   2.150   5.259   6.126
 5895SOL     OW18583   5.550   3.556   4.629
 5895SOL    HW118584   5.498   3.588   4.708
 5895SOL    HW218585   5.629   3.614   4.614
 5896SOL     OW18586   5.471   2.569   1.883
 5896SOL    HW118587   5.559   2.547   1.840
 5896SOL    HW218588   5.482   2.570   1.982
 5897SOL     OW18589   4.343   2.553   0.536
 5897SOL    HW118590   4.347   2.504   0.448
 5897SOL    HW218591   4.436   2.573   0.566
 5898SOL     OW18592   2.029   1.393   5.351
 5898SOL    HW118593   2.119   1.389   5.393
 5898SOL    HW218594   2.007   1.487   5.327
 5899SOL     OW18595   6.890   5.730   5.968
 5899SOL    HW118596   6.985   5.742   5.996
 5899SOL    HW218597   6.836   5.699   6.047
 5900SOL     OW18598   5.871   6.638   3.342
 5900SOL    HW118599   5.896   6.665   3.249
 5900SOL    HW218600   5.779   6.671   3.363
 5901SOL     OW18601   1.647   0.884   5.337
 5901SOL    HW118602   1.745   0.903   5.326
 5901SOL    HW218603   1.624   0.802   5.284
 5902SOL     OW18604   5.022   4.439   5.819
 5902SOL    HW118605   5.107   4.422   5.769
 5902SOL    HW218606   5.026   4.393   5.908
 5903SOL     OW18607   6.208   2.273   5.827
 5903SOL    HW118608   6.251   2.340   5.886
 5903SOL    HW218609   6.220   2.299   5.731
 5904SOL     OW18610   2.095   4.749   1.840
 5904SOL    HW118611   2.183   4.741   1.792
 5904SOL    HW218612   2.026   4.784   1.777
 5905SOL     OW18613   5.674   1.062   4.460
 5905SOL    HW118614   5.681   1.155   4.496
 5905SOL    HW218615   5.716   1.058   4.369
 5906SOL     OW18616   4.868   1.276   5.680
 5906SOL    HW118617   4.781   1.275   5.630
 5906SOL    HW218618   4.853   1.245   5.773
 5907SOL     OW18619   1.729   3.539   6.064
 5907SOL    HW118620   1.758   3.483   6.142
 5907SOL    HW218621   1.809   3.564   6.010
 5908SOL     OW18622   4.784   2.842   5.934
 5908SOL    HW118623   4.866   2.900   5.929
 5908SOL    HW218624   4.798   2.759   5.881
 5909SOL     OW18625   6.837   4.786   3.958
 5909SOL    HW118626   6.807   4.881   3.944
 5909SOL    HW218627   6.908   4.764   3.891
 5910SOL     OW18628   2.435   3.980   0.848
 5910SOL    HW118629   2.386   3.978   0.761
 5910SOL    HW218630   2.375   4.016   0.920
 5911SOL     OW18631   5.722   6.920   6.472
 5911SOL    HW118632   5.799   6.900   6.413
 5911SOL    HW218633   5.645   6.860   6.450
 5912SOL     OW18634   6.778   3.412   6.658
 5912SOL    HW118635   6.695   3.358   6.649
 5912SOL    HW218636   6.818   3.429   6.568
 5913SOL     OW18637   1.345   1.845   5.937
 5913SOL    HW118638   1.379   1.853   5.844
 5913SOL    HW218639   1.399   1.903   5.998
 5914SOL     OW18640   1.934   6.135   1.178
 5914SOL    HW118641   1.920   6.198   1.102
 5914SOL    HW218642   1.852   6.080   1.192
 5915SOL     OW18643   4.879   3.393   2.543
 5915SOL    HW118644   4.811   3.320   2.544
 5915SOL    HW218645   4.936   3.384   2.461
 5916SOL     OW18646   3.070   0.143   5.984
 5916SOL    HW118647   3.029   0.128   5.894
 5916SOL    HW218648   3.051   0.237   6.014
 5917SOL     OW18649   3.704   2.869   2.879
 5917SOL    HW118650   3.782   2.814   2.849
 5917SOL    HW218651   3.647   2.891   2.801
 5918SOL     OW18652   2.159   3.052   4.288
 5918SOL    HW118653   2.188   2.995   4.365
 5918SOL    HW218654   2.189   3.010   4.202
 5919SOL     OW18655   1.117   3.181   0.019
 5919SOL    HW118656   1.144   3.139   0.105
 5919SOL    HW218657   1.184   3.251   7.016
 5920SOL     OW18658   4.015   6.457   6.699
 5920SOL    HW118659   4.069   6.404   6.633
 5920SOL    HW218660   3.985   6.542   6.656
 5921SOL     OW18661   4.237   5.517   4.986
 5921SOL    HW118662   4.239   5.503   5.085
 5921SOL    HW218663   4.265   5.432   4.941
 5922SOL     OW18664   5.727   4.093   1.917
 5922SOL    HW118665   5.681   4.176   1.951
 5922SOL    HW218666   5.734   4.098   1.818
 5923SOL     OW18667   0.579   6.710   3.589
 5923SOL    HW118668   0.518   6.718   3.511
 5923SOL    HW218669   0.636   6.791   3.596
 5924SOL     OW18670   5.466   2.421   4.368
 5924SOL    HW118671   5.474   2.434   4.467
 5924SOL    HW218672   5.551   2.382   4.332
 5925SOL     OW18673   6.185   6.340   1.033
 5925SOL    HW118674   6.097   6.381   1.010
 5925SOL    HW218675   6.247   6.411   1.067
 5926SOL     OW18676   3.667   5.040   1.859
 5926SOL    HW118677   3.701   5.129   1.830
 5926SOL    HW218678   3.567   5.042   1.863
 5927SOL     OW18679   2.518   5.778   2.351
 5927SOL    HW118680   2.445   5.788   2.284
 5927SOL    HW218681   2.601   5.746   2.306
 5928SOL     OW18682   1.117   0.086   1.868
 5928SOL    HW118683   1.094   0.180   1.890
 5928SOL    HW218684   1.194   0.056   1.924
 5929SOL     OW18685   1.409   0.128   5.964
 5929SOL    HW118686   1.490   0.113   5.907
 5929SOL    HW218687   1.355   0.044   5.968
 5930SOL     OW18688   6.859   2.080   4.891
 5930SOL    HW118689   6.849   2.135   4.974
 5930SOL    HW218690   6.816   1.991   4.905
 5931SOL     OW18691   5.823   5.079   0.985
 5931SOL    HW118692   5.795   4.997   1.035
 5931SOL    HW218693   5.828   5.157   1.048
 5932SOL     OW18694   2.433   6.241   0.670
 5932SOL    HW118695   2.381   6.252   0.754
 5932SOL    HW218696   2.477   6.151   0.670
 5933SOL     OW18697   6.274   3.923   2.831
 5933SOL    HW118698   6.323   3.883   2.754
 5933SOL    HW218699   6.189   3.964   2.799
 5934SOL     OW18700   3.765   3.916   3.105
 5934SOL    HW118701   3.775   3.836   3.164
 5934SOL    HW218702   3.764   3.999   3.161
 5935SOL     OW18703   3.595   2.903   3.657
 5935SOL    HW118704   3.508   2.900   3.607
 5935SOL    HW218705   3.667   2.861   3.601
 5936SOL     OW18706   5.422   5.855   6.386
 5936SOL    HW118707   5.453   5.933   6.442
 5936SOL    HW218708   5.399   5.887   6.295
 5937SOL     OW18709   1.815   3.524   1.126
 5937SOL    HW118710   1.839   3.618   1.148
 5937SOL    HW218711   1.897   3.467   1.131
 5938SOL     OW18712   2.027   4.626   1.445
 5938SOL    HW118713   2.060   4.708   1.491
 5938SOL    HW218714   2.105   4.568   1.420
 5939SOL     OW18715   3.440   0.479   3.126
 5939SOL    HW118716   3.487   0.567   3.123
 5939SOL    HW218717   3.437   0.440   3.034
 5940SOL     OW18718   4.124   5.962   3.683
 5940SOL    HW118719   4.142   5.896   3.610
 5940SOL    HW218720   4.027   5.958   3.709
 5941SOL     OW18721   6.127   4.728   1.944
 5941SOL    HW118722   6.083   4.762   1.860
 5941SOL    HW218723   6.134   4.802   2.010
 5942SOL     OW18724   4.851   1.710   5.511
 5942SOL    HW118725   4.783   1.644   5.544
 5942SOL    HW218726   4.835   1.728   5.414
 5943SOL     OW18727   1.117   5.909   6.760
 5943SOL    HW118728   1.200   5.956   6.790
 5943SOL    HW218729   1.088   5.844   6.830
 5944SOL     OW18730   4.278   1.937   2.555
 5944SOL    HW118731   4.325   1.858   2.594
 5944SOL    HW218732   4.343   2.014   2.548
 5945SOL     OW18733   7.003   4.875   5.297
 5945SOL    HW118734   7.012   4.776   5.295
 5945SOL    HW218735   6.912   4.900   5.329
 5946SOL     OW18736   3.849   2.932   5.194
 5946SOL    HW118737   3.814   2.998   5.128
 5946SOL    HW218738   3.932   2.969   5.237
 5947SOL     OW18739   4.260   3.337   1.687
 5947SOL    HW118740   4.279   3.427   1.726
 5947SOL    HW218741   4.163   3.315   1.698
 5948SOL     OW18742   3.882   4.869   2.323
 5948SOL    HW118743   3.796   4.907   2.290
 5948SOL    HW218744   3.957   4.904   2.267
 5949SOL     OW18745   4.513   4.694   1.795
 5949SOL    HW118746   4.446   4.637   1.748
 5949SOL    HW218747   4.585   4.636   1.834
 5950SOL     OW18748   6.002   2.931   3.550
 5950SOL    HW118749   5.914   2.895   3.518
 5950SOL    HW218750   6.056   2.856   3.587
 5951SOL     OW18751   1.797   5.729   4.179
 5951SOL    HW118752   1.731   5.795   4.216
 5951SOL    HW218753   1.881   5.731   4.233
 5952SOL     OW18754   6.796   6.774   5.024
 5952SOL    HW118755   6.894   6.796   5.024
 5952SOL    HW218756   6.765   6.757   4.930
 5953SOL     OW18757   0.288   3.550   6.111
 5953SOL    HW118758   0.345   3.506   6.180
 5953SOL    HW218759   0.270   3.485   6.036
 5954SOL     OW18760   0.193   5.478   6.617
 5954SOL    HW118761   0.109   5.432   6.586
 5954SOL    HW218762   0.190   5.488   6.717
 5955SOL     OW18763   5.520   5.739   2.407
 5955SOL    HW118764   5.448   5.726   2.339
 5955SOL    HW218765   5.511   5.830   2.448
 5956SOL     OW18766   5.990   1.838   0.339
 5956SOL    HW118767   5.943   1.919   0.373
 5956SOL    HW218768   6.054   1.805   0.408
 5957SOL     OW18769   5.367   6.843   6.140
 5957SOL    HW118770   5.314   6.822   6.057
 5957SOL    HW218771   5.458   6.873   6.114
 5958SOL     OW18772   0.793   5.205   1.841
 5958SOL    HW118773   0.854   5.284   1.835
 5958SOL    HW218774   0.738   5.211   1.924
 5959SOL     OW18775   2.270   1.483   6.137
 5959SOL    HW118776   2.266   1.494   6.236
 5959SOL    HW218777   2.347   1.423   6.113
 5960SOL     OW18778   3.092   0.815   4.052
 5960SOL    HW118779   3.043   0.808   3.966
 5960SOL    HW218780   3.110   0.724   4.088
 5961SOL     OW18781   2.991   0.804   5.766
 5961SOL    HW118782   2.970   0.720   5.817
 5961SOL    HW218783   3.012   0.877   5.831
 5962SOL     OW18784   5.199   5.476   2.242
 5962SOL    HW118785   5.236   5.411   2.308
 5962SOL    HW218786   5.221   5.569   2.271
 5963SOL     OW18787   4.025   3.648   2.071
 5963SOL    HW118788   3.962   3.585   2.116
 5963SOL    HW218789   4.031   3.732   2.124
 5964SOL     OW18790   1.140   4.532   5.654
 5964SOL    HW118791   1.142   4.619   5.606
 5964SOL    HW218792   1.118   4.458   5.590
 5965SOL     OW18793   2.703   2.153   5.047
 5965SOL    HW118794   2.655   2.116   5.126
 5965SOL    HW218795   2.687   2.252   5.041
 5966SOL     OW18796   2.026   6.522   3.886
 5966SOL    HW118797   1.997   6.611   3.850
 5966SOL    HW218798   2.088   6.478   3.820
 5967SOL     OW18799   4.773   6.942   2.225
 5967SOL    HW118800   4.785   6.859   2.279
 5967SOL    HW218801   4.827   7.016   2.265
 5968SOL     OW18802   0.308   2.879   4.391
 5968SOL    HW118803   0.314   2.787   4.352
 5968SOL    HW218804   0.212   2.905   4.400
 5969SOL     OW18805   5.430   3.187   3.298
 5969SOL    HW118806   5.369   3.146   3.366
 5969SOL    HW218807   5.499   3.120   3.272
 5970SOL     OW18808   1.406   2.950   3.411
 5970SOL    HW118809   1.332   2.987   3.355
 5970SOL    HW218810   1.459   3.026   3.451
 5971SOL     OW18811   2.331   6.754   2.321
 5971SOL    HW118812   2.350   6.822   2.250
 5971SOL    HW218813   2.273   6.795   2.391
 5972SOL     OW18814   4.744   6.215   0.714
 5972SOL    HW118815   4.729   6.212   0.615
 5972SOL    HW218816   4.659   6.192   0.762
 5973SOL     OW18817   1.644   4.230   4.108
 5973SOL    HW118818   1.548   4.205   4.101
 5973SOL    HW218819   1.690   4.169   4.173
 5974SOL     OW18820   0.921   3.771   6.637
 5974SOL    HW118821   0.920   3.679   6.678
 5974SOL    HW218822   0.873   3.768   6.550
 5975SOL     OW18823   2.388   2.909   0.682
 5975SOL    HW118824   2.434   2.842   0.624
 5975SOL    HW218825   2.380   2.873   0.775
 5976SOL     OW18826   3.196   3.495   5.212
 5976SOL    HW118827   3.113   3.477   5.159
 5976SOL    HW218828   3.217   3.415   5.269
 5977SOL     OW18829   1.081   3.284   2.740
 5977SOL    HW118830   1.157   3.291   2.804
 5977SOL    HW218831   1.116   3.275   2.647
 5978SOL     OW18832   5.064   5.762   2.211
 5978SOL    HW118833   5.011   5.693   2.260
 5978SOL    HW218834   5.036   5.763   2.115
 5979SOL     OW18835   0.435   0.453   3.506
 5979SOL    HW118836   0.478   0.363   3.514
 5979SOL    HW218837   0.504   0.521   3.484
 5980SOL     OW18838   6.054   4.160   6.789
 5980SOL    HW118839   6.033   4.109   6.705
 5980SOL    HW218840   6.093   4.248   6.766
 5981SOL     OW18841   4.421   0.716   2.021
 5981SOL    HW118842   4.428   0.624   2.060
 5981SOL    HW218843   4.330   0.753   2.041
 5982SOL     OW18844   6.752   1.829   6.596
 5982SOL    HW118845   6.809   1.782   6.529
 5982SOL    HW218846   6.749   1.775   6.680
 5983SOL     OW18847   1.053   0.971   4.260
 5983SOL    HW118848   1.105   0.908   4.318
 5983SOL    HW218849   0.956   0.966   4.285
 5984SOL     OW18850   0.003   0.145   5.255
 5984SOL    HW118851   0.037   0.178   5.343
 5984SOL    HW218852   6.927   0.129   5.261
 5985SOL     OW18853   4.297   2.286   4.169
 5985SOL    HW118854   4.315   2.188   4.167
 5985SOL    HW218855   4.373   2.333   4.214
 5986SOL     OW18856   3.526   2.983   2.697
 5986SOL    HW118857   3.506   2.947   2.605
 5986SOL    HW218858   3.444   2.977   2.753
 5987SOL     OW18859   3.821   0.526   5.429
 5987SOL    HW118860   3.838   0.463   5.353
 5987SOL    HW218861   3.723   0.545   5.435
 5988SOL     OW18862   3.750   0.577   4.030
 5988SOL    HW118863   3.836   0.627   4.040
 5988SOL    HW218864   3.723   0.540   4.119
 5989SOL     OW18865   2.822   0.781   6.114
 5989SOL    HW118866   2.801   0.879   6.114
 5989SOL    HW218867   2.747   0.731   6.159
 5990SOL     OW18868   3.114   4.710   1.702
 5990SOL    HW118869   3.080   4.616   1.700
 5990SOL    HW218870   3.214   4.709   1.692
 5991SOL     OW18871   2.916   5.162   3.907
 5991SOL    HW118872   2.934   5.201   3.817
 5991SOL    HW218873   2.824   5.185   3.937
 5992SOL     OW18874   4.662   0.593   3.978
 5992SOL    HW118875   4.687   0.627   4.069
 5992SOL    HW218876   4.600   0.515   3.988
 5993SOL     OW18877   2.966   5.677   4.931
 5993SOL    HW118878   2.968   5.593   4.877
 5993SOL    HW218879   2.873   5.690   4.968
 5994SOL     OW18880   0.198   1.765   2.140
 5994SOL    HW118881   0.153   1.765   2.229
 5994SOL    HW218882   0.137   1.808   2.072
 5995SOL     OW18883   6.883   3.931   1.410
 5995SOL    HW118884   6.787   3.901   1.407
 5995SOL    HW218885   6.941   3.853   1.434
 5996SOL     OW18886   0.858   5.135   6.015
 5996SOL    HW118887   0.944   5.083   6.015
 5996SOL    HW218888   0.841   5.170   6.107
 5997SOL     OW18889   0.420   6.328   2.308
 5997SOL    HW118890   0.513   6.295   2.324
 5997SOL    HW218891   0.384   6.367   2.393
 5998SOL     OW18892   5.241   1.741   3.017
 5998SOL    HW118893   5.149   1.718   2.985
 5998SOL    HW218894   5.234   1.792   3.103
 5999SOL     OW18895   1.544   1.376   2.606
 5999SOL    HW118896   1.595   1.316   2.667
 5999SOL    HW218897   1.570   1.471   2.624
 6000SOL     OW18898   4.490   6.037   2.246
 6000SOL    HW118899   4.396   6.073   2.252
 6000SOL    HW218900   4.545   6.099   2.191
 6001SOL     OW18901   6.248   1.905   0.037
 6001SOL    HW118902   6.238   1.862   6.970
 6001SOL    HW218903   6.168   1.962   0.056
 6002SOL     OW18904   1.669   0.236   1.972
 6002SOL    HW118905   1.732   0.211   1.899
 6002SOL    HW218906   1.719   0.279   2.047
 6003SOL     OW18907   4.798   4.051   4.048
 6003SOL    HW118908   4.875   4.087   4.101
 6003SOL    HW218909   4.781   3.956   4.075
 6004SOL     OW18910   6.967   3.819   2.740
 6004SOL    HW118911   0.011   3.884   2.704
 6004SOL    HW218912   6.921   3.773   2.664
 6005SOL     OW18913   3.155   5.983   2.843
 6005SOL    HW118914   3.067   5.935   2.854
 6005SOL    HW218915   3.181   5.982   2.747
 6006SOL     OW18916   2.182   6.515   0.176
 6006SOL    HW118917   2.105   6.578   0.173
 6006SOL    HW218918   2.263   6.561   0.212
 6007SOL     OW18919   5.528   2.530   3.625
 6007SOL    HW118920   5.520   2.607   3.689
 6007SOL    HW218921   5.474   2.453   3.658
 6008SOL     OW18922   3.592   4.879   6.530
 6008SOL    HW118923   3.658   4.813   6.565
 6008SOL    HW218924   3.524   4.832   6.475
 6009SOL     OW18925   3.240   2.152   4.267
 6009SOL    HW118926   3.257   2.054   4.279
 6009SOL    HW218927   3.240   2.174   4.170
 6010SOL     OW18928   1.244   3.274   3.531
 6010SOL    HW118929   1.296   3.318   3.605
 6010SOL    HW218930   1.222   3.343   3.461
 6011SOL     OW18931   6.348   3.103   3.116
 6011SOL    HW118932   6.267   3.054   3.081
 6011SOL    HW218933   6.330   3.134   3.209
 6012SOL     OW18934   6.627   3.429   0.419
 6012SOL    HW118935   6.727   3.426   0.426
 6012SOL    HW218936   6.601   3.492   0.346
 6013SOL     OW18937   5.714   1.253   2.379
 6013SOL    HW118938   5.760   1.264   2.291
 6013SOL    HW218939   5.660   1.334   2.400
 6014SOL     OW18940   6.135   0.419   0.887
 6014SOL    HW118941   6.222   0.408   0.935
 6014SOL    HW218942   6.126   0.513   0.854
 6015SOL     OW18943   5.581   1.951   4.682
 6015SOL    HW118944   5.528   1.869   4.703
 6015SOL    HW218945   5.521   2.020   4.642
 6016SOL     OW18946   2.199   6.694   5.316
 6016SOL    HW118947   2.149   6.780   5.319
 6016SOL    HW218948   2.282   6.705   5.260
 6017SOL     OW18949   6.675   4.656   2.700
 6017SOL    HW118950   6.706   4.562   2.691
 6017SOL    HW218951   6.614   4.678   2.624
 6018SOL     OW18952   2.267   4.841   0.873
 6018SOL    HW118953   2.189   4.802   0.921
 6018SOL    HW218954   2.260   4.821   0.776
 6019SOL     OW18955   4.376   0.128   4.199
 6019SOL    HW118956   4.378   0.137   4.099
 6019SOL    HW218957   4.351   0.034   4.223
 6020SOL     OW18958   3.819   0.329   2.759
 6020SOL    HW118959   3.818   0.317   2.659
 6020SOL    HW218960   3.763   0.408   2.783
 6021SOL     OW18961   3.915   1.318   2.940
 6021SOL    HW118962   3.846   1.295   3.008
 6021SOL    HW218963   3.985   1.246   2.937
 6022SOL     OW18964   4.391   1.928   4.926
 6022SOL    HW118965   4.414   2.016   4.884
 6022SOL    HW218966   4.297   1.903   4.902
 6023SOL     OW18967   6.715   1.251   2.553
 6023SOL    HW118968   6.801   1.228   2.506
 6023SOL    HW218969   6.640   1.248   2.488
 6024SOL     OW18970   0.754   5.032   2.692
 6024SOL    HW118971   0.763   5.116   2.745
 6024SOL    HW218972   0.660   5.021   2.660
 6025SOL     OW18973   4.485   2.062   1.426
 6025SOL    HW118974   4.475   2.054   1.525
 6025SOL    HW218975   4.468   2.157   1.398
 6026SOL     OW18976   0.457   4.433   5.458
 6026SOL    HW118977   0.470   4.345   5.412
 6026SOL    HW218978   0.377   4.428   5.518
 6027SOL     OW18979   3.059   3.733   0.545
 6027SOL    HW118980   3.131   3.717   0.478
 6027SOL    HW218981   2.973   3.697   0.511
 6028SOL     OW18982   1.560   3.592   0.324
 6028SOL    HW118983   1.489   3.592   0.394
 6028SOL    HW218984   1.534   3.652   0.250
 6029SOL     OW18985   1.695   5.285   1.423
 6029SOL    HW118986   1.603   5.314   1.398
 6029SOL    HW218987   1.715   5.197   1.380
 6030SOL     OW18988   2.329   0.233   1.263
 6030SOL    HW118989   2.256   0.200   1.202
 6030SOL    HW218990   2.362   0.157   1.319
 6031SOL     OW18991   5.153   0.347   5.116
 6031SOL    HW118992   5.078   0.370   5.177
 6031SOL    HW218993   5.119   0.343   5.022
 6032SOL     OW18994   0.288   3.318   2.665
 6032SOL    HW118995   0.282   3.275   2.756
 6032SOL    HW218996   0.372   3.372   2.661
 6033SOL     OW18997   1.087   0.471   4.463
 6033SOL    HW118998   1.070   0.416   4.382
 6033SOL    HW218999   1.185   0.472   4.484
 6034SOL     OW19000   2.218   3.930   5.602
 6034SOL    HW119001   2.168   3.986   5.536
 6034SOL    HW219002   2.307   3.905   5.564
 6035SOL     OW19003   6.097   1.405   4.203
 6035SOL    HW119004   6.181   1.452   4.230
 6035SOL    HW219005   6.073   1.338   4.274
 6036SOL     OW19006   0.059   0.307   4.785
 6036SOL    HW119007   0.147   0.301   4.831
 6036SOL    HW219008   0.037   0.218   4.744
 6037SOL     OW19009   6.615   4.952   4.676
 6037SOL    HW119010   6.603   5.001   4.590
 6037SOL    HW219011   6.539   4.974   4.738
 6038SOL     OW19012   4.775   3.869   6.539
 6038SOL    HW119013   4.694   3.847   6.484
 6038SOL    HW219014   4.816   3.785   6.574
 6039SOL     OW19015   3.451   4.101   3.015
 6039SOL    HW119016   3.352   4.102   3.026
 6039SOL    HW219017   3.495   4.100   3.105
 6040SOL     OW19018   0.479   1.864   0.179
 6040SOL    HW119019   0.494   1.807   0.260
 6040SOL    HW219020   0.459   1.958   0.208
 6041SOL     OW19021   0.558   2.791   0.402
 6041SOL    HW119022   0.548   2.709   0.458
 6041SOL    HW219023   0.639   2.842   0.430
 6042SOL     OW19024   5.140   5.128   3.599
 6042SOL    HW119025   5.101   5.211   3.560
 6042SOL    HW219026   5.239   5.139   3.608
 6043SOL     OW19027   1.049   4.667   4.278
 6043SOL    HW119028   1.057   4.693   4.374
 6043SOL    HW219029   0.976   4.719   4.235
 6044SOL     OW19030   1.148   0.567   1.895
 6044SOL    HW119031   1.057   0.574   1.854
 6044SOL    HW219032   1.159   0.477   1.937
 6045SOL     OW19033   7.007   3.931   1.759
 6045SOL    HW119034   0.020   3.923   1.666
 6045SOL    HW219035   6.983   3.840   1.794
 6046SOL     OW19036   2.773   2.841   0.837
 6046SOL    HW119037   2.751   2.855   0.740
 6046SOL    HW219038   2.804   2.928   0.876
 6047SOL     OW19039   6.994   6.457   4.736
 6047SOL    HW119040   0.030   6.377   4.736
 6047SOL    HW219041   6.930   6.452   4.659
 6048SOL     OW19042   4.728   6.594   5.065
 6048SOL    HW119043   4.758   6.652   4.989
 6048SOL    HW219044   4.710   6.651   5.145
 6049SOL     OW19045   6.394   5.270   1.017
 6049SOL    HW119046   6.478   5.325   1.016
 6049SOL    HW219047   6.317   5.326   0.985
 6050SOL     OW19048   4.811   4.542   5.121
 6050SOL    HW119049   4.779   4.559   5.214
 6050SOL    HW219050   4.907   4.513   5.123
 6051SOL     OW19051   1.912   1.886   3.011
 6051SOL    HW119052   1.917   1.787   3.008
 6051SOL    HW219053   1.818   1.915   3.029
 6052SOL     OW19054   6.624   0.926   0.381
 6052SOL    HW119055   6.603   1.023   0.393
 6052SOL    HW219056   6.539   0.875   0.372
 6053SOL     OW19057   1.854   0.208   6.258
 6053SOL    HW119058   1.807   0.198   6.345
 6053SOL    HW219059   1.953   0.201   6.272
 6054SOL     OW19060   2.418   4.870   0.294
 6054SOL    HW119061   2.488   4.898   0.229
 6054SOL    HW219062   2.419   4.931   0.374
 6055SOL     OW19063   5.011   0.498   4.487
 6055SOL    HW119064   5.037   0.535   4.576
 6055SOL    HW219065   5.076   0.427   4.460
 6056SOL     OW19066   4.838   2.358   6.345
 6056SOL    HW119067   4.848   2.435   6.282
 6056SOL    HW219068   4.826   2.274   6.293
 6057SOL     OW19069   3.503   0.992   5.757
 6057SOL    HW119070   3.452   0.931   5.696
 6057SOL    HW219071   3.460   0.993   5.847
 6058SOL     OW19072   5.746   1.747   4.357
 6058SOL    HW119073   5.753   1.648   4.341
 6058SOL    HW219074   5.828   1.779   4.403
 6059SOL     OW19075   0.250   4.914   6.255
 6059SOL    HW119076   0.225   5.008   6.278
 6059SOL    HW219077   0.179   4.851   6.287
 6060SOL     OW19078   4.393   6.866   5.566
 6060SOL    HW119079   4.410   6.781   5.616
 6060SOL    HW219080   4.476   6.893   5.516
 6061SOL     OW19081   2.440   1.843   6.550
 6061SOL    HW119082   2.350   1.887   6.538
 6061SOL    HW219083   2.460   1.788   6.469
 6062SOL     OW19084   2.550   0.273   4.132
 6062SOL    HW119085   2.575   0.353   4.079
 6062SOL    HW219086   2.597   0.192   4.097
 6063SOL     OW19087   4.390   0.105   6.936
 6063SOL    HW119088   4.382   0.070   0.007
 6063SOL    HW219089   4.439   0.192   6.936
 6064SOL     OW19090   1.458   5.823   3.566
 6064SOL    HW119091   1.485   5.731   3.537
 6064SOL    HW219092   1.535   5.870   3.607
 6065SOL     OW19093   0.364   0.449   0.794
 6065SOL    HW119094   0.289   0.417   0.736
 6065SOL    HW219095   0.383   0.545   0.773
 6066SOL     OW19096   4.493   2.934   6.654
 6066SOL    HW119097   4.582   2.977   6.644
 6066SOL    HW219098   4.478   2.909   6.749
 6067SOL     OW19099   6.267   1.726   6.830
 6067SOL    HW119100   6.187   1.693   6.781
 6067SOL    HW219101   6.313   1.649   6.875
 6068SOL     OW19102   4.649   2.750   4.916
 6068SOL    HW119103   4.551   2.734   4.904
 6068SOL    HW219104   4.680   2.818   4.849
 6069SOL     OW19105   6.414   3.831   4.282
 6069SOL    HW119106   6.474   3.782   4.219
 6069SOL    HW219107   6.319   3.804   4.265
 6070SOL     OW19108   4.271   2.199   6.262
 6070SOL    HW119109   4.315   2.218   6.350
 6070SOL    HW219110   4.209   2.274   6.239
 6071SOL     OW19111   4.229   6.212   4.881
 6071SOL    HW119112   4.252   6.196   4.785
 6071SOL    HW219113   4.313   6.212   4.936
 6072SOL     OW19114   0.435   1.916   0.786
 6072SOL    HW119115   0.379   1.914   0.869
 6072SOL    HW219116   0.527   1.881   0.807
 6073SOL     OW19117   6.712   2.516   1.239
 6073SOL    HW119118   6.774   2.594   1.225
 6073SOL    HW219119   6.672   2.521   1.330
 6074SOL     OW19120   0.441   0.167   4.237
 6074SOL    HW119121   0.416   0.112   4.157
 6074SOL    HW219122   0.372   0.237   4.252
 6075SOL     OW19123   5.714   4.034   6.856
 6075SOL    HW119124   5.770   3.957   6.828
 6075SOL    HW219125   5.729   4.053   6.953
 6076SOL     OW19126   1.944   6.077   4.278
 6076SOL    HW119127   2.015   6.076   4.207
 6076SOL    HW219128   1.958   6.001   4.341
 6077SOL     OW19129   6.050   5.899   2.092
 6077SOL    HW119130   6.076   5.891   1.996
 6077SOL    HW219131   5.972   5.839   2.110
 6078SOL     OW19132   2.616   4.649   3.640
 6078SOL    HW119133   2.578   4.558   3.657
 6078SOL    HW219134   2.666   4.648   3.553
 6079SOL     OW19135   2.113   1.446   0.381
 6079SOL    HW119136   2.114   1.434   0.282
 6079SOL    HW219137   2.024   1.419   0.417
 6080SOL     OW19138   5.764   2.435   2.195
 6080SOL    HW119139   5.695   2.363   2.198
 6080SOL    HW219140   5.833   2.413   2.127
 6081SOL     OW19141   0.383   3.833   3.014
 6081SOL    HW119142   0.359   3.918   2.967
 6081SOL    HW219143   0.343   3.755   2.966
 6082SOL     OW19144   4.222   1.797   3.977
 6082SOL    HW119145   4.175   1.763   4.058
 6082SOL    HW219146   4.155   1.824   3.908
 6083SOL     OW19147   1.547   6.723   0.195
 6083SOL    HW119148   1.466   6.698   0.247
 6083SOL    HW219149   1.590   6.803   0.237
 6084SOL     OW19150   0.840   4.859   5.640
 6084SOL    HW119151   0.890   4.941   5.669
 6084SOL    HW219152   0.744   4.883   5.623
 6085SOL     OW19153   5.119   4.011   1.050
 6085SOL    HW119154   5.123   3.964   0.962
 6085SOL    HW219155   5.023   4.020   1.079
 6086SOL     OW19156   2.780   1.630   3.509
 6086SOL    HW119157   2.774   1.705   3.575
 6086SOL    HW219158   2.697   1.574   3.515
 6087SOL     OW19159   5.067   6.811   6.733
 6087SOL    HW119160   5.016   6.785   6.815
 6087SOL    HW219161   5.037   6.902   6.704
 6088SOL     OW19162   0.433   0.087   4.497
 6088SOL    HW119163   0.405   0.081   4.401
 6088SOL    HW219164   0.382   0.160   4.543
 6089SOL     OW19165   0.415   3.363   0.106
 6089SOL    HW119166   0.373   3.352   0.196
 6089SOL    HW219167   0.350   3.336   0.035
 6090SOL     OW19168   0.030   6.127   4.483
 6090SOL    HW119169   0.067   6.074   4.559
 6090SOL    HW219170   7.009   6.210   4.517
 6091SOL     OW19171   5.799   1.831   1.927
 6091SOL    HW119172   5.814   1.777   1.845
 6091SOL    HW219173   5.838   1.784   2.006
 6092SOL     OW19174   1.810   2.317   1.691
 6092SOL    HW119175   1.816   2.388   1.621
 6092SOL    HW219176   1.857   2.347   1.774
 6093SOL     OW19177   0.773   3.582   1.369
 6093SOL    HW119178   0.712   3.579   1.290
 6093SOL    HW219179   0.787   3.489   1.403
 6094SOL     OW19180   1.186   0.893   1.146
 6094SOL    HW119181   1.283   0.872   1.140
 6094SOL    HW219182   1.172   0.965   1.214
 6095SOL     OW19183   6.780   3.828   5.687
 6095SOL    HW119184   6.723   3.829   5.769
 6095SOL    HW219185   6.721   3.825   5.606
 6096SOL     OW19186   3.721   1.783   3.162
 6096SOL    HW119187   3.777   1.807   3.083
 6096SOL    HW219188   3.626   1.773   3.134
 6097SOL     OW19189   2.988   2.174   2.138
 6097SOL    HW119190   3.079   2.199   2.103
 6097SOL    HW219191   2.922   2.244   2.111
 6098SOL     OW19192   1.736   2.212   5.771
 6098SOL    HW119193   1.758   2.295   5.822
 6098SOL    HW219194   1.637   2.201   5.767
 6099SOL     OW19195   6.206   5.262   4.827
 6099SOL    HW119196   6.198   5.362   4.829
 6099SOL    HW219197   6.290   5.235   4.873
 6100SOL     OW19198   6.488   2.760   0.046
 6100SOL    HW119199   6.522   2.694   0.113
 6100SOL    HW219200   6.564   2.812   0.008
 6101SOL     OW19201   6.298   1.543   4.909
 6101SOL    HW119202   6.306   1.448   4.937
 6101SOL    HW219203   6.230   1.551   4.836
 6102SOL     OW19204   2.819   0.618   5.516
 6102SOL    HW119205   2.757   0.601   5.439
 6102SOL    HW219206   2.772   0.669   5.587
 6103SOL     OW19207   6.638   6.904   5.932
 6103SOL    HW119208   6.623   6.841   6.008
 6103SOL    HW219209   6.728   6.946   5.941
 6104SOL     OW19210   0.960   2.695   6.882
 6104SOL    HW119211   0.876   2.743   6.906
 6104SOL    HW219212   0.997   2.649   6.963
 6105SOL     OW19213   3.418   5.917   4.352
 6105SOL    HW119214   3.512   5.912   4.317
 6105SOL    HW219215   3.374   6.000   4.317
 6106SOL     OW19216   3.177   5.747   5.338
 6106SOL    HW119217   3.080   5.771   5.334
 6106SOL    HW219218   3.187   5.659   5.384
 6107SOL     OW19219   2.213   4.368   5.430
 6107SOL    HW119220   2.300   4.326   5.403
 6107SOL    HW219221   2.139   4.302   5.416
 6108SOL     OW19222   0.267   2.477   4.728
 6108SOL    HW119223   0.363   2.454   4.744
 6108SOL    HW219224   0.211   2.443   4.804
 6109SOL     OW19225   6.625   4.700   1.294
 6109SOL    HW119226   6.651   4.603   1.292
 6109SOL    HW219227   6.696   4.752   1.342
 6110SOL     OW19228   2.878   1.460   4.742
 6110SOL    HW119229   2.785   1.423   4.738
 6110SOL    HW219230   2.923   1.448   4.654
 6111SOL     OW19231   1.087   5.045   2.920
 6111SOL    HW119232   1.016   4.991   2.875
 6111SOL    HW219233   1.112   5.002   3.006
 6112SOL     OW19234   0.270   1.828   2.877
 6112SOL    HW119235   0.214   1.903   2.911
 6112SOL    HW219236   0.293   1.766   2.953
 6113SOL     OW19237   1.693   6.159   5.247
 6113SOL    HW119238   1.616   6.164   5.310
 6113SOL    HW219239   1.778   6.147   5.299
 6114SOL     OW19240   4.944   5.604   0.676
 6114SOL    HW119241   4.941   5.581   0.579
 6114SOL    HW219242   4.867   5.560   0.723
 6115SOL     OW19243   5.928   5.129   2.493
 6115SOL    HW119244   5.860   5.108   2.563
 6115SOL    HW219245   5.894   5.102   2.403
 6116SOL     OW19246   4.292   0.872   1.763
 6116SOL    HW119247   4.193   0.874   1.766
 6116SOL    HW219248   4.329   0.874   1.856
 6117SOL     OW19249   5.236   0.528   4.650
 6117SOL    HW119250   5.302   0.594   4.616
 6117SOL    HW219251   5.234   0.531   4.750
 6118SOL     OW19252   5.935   0.230   3.490
 6118SOL    HW119253   5.949   0.140   3.447
 6118SOL    HW219254   6.023   0.277   3.498
 6119SOL     OW19255   6.856   5.026   4.224
 6119SOL    HW119256   6.780   5.007   4.162
 6119SOL    HW219257   6.826   5.086   4.298
 6120SOL     OW19258   2.650   1.069   3.073
 6120SOL    HW119259   2.564   1.067   3.125
 6120SOL    HW219260   2.640   1.132   2.996
 6121SOL     OW19261   6.919   2.419   4.564
 6121SOL    HW119262   6.863   2.394   4.643
 6121SOL    HW219263   6.952   2.336   4.519
 6122SOL     OW19264   5.127   5.554   3.465
 6122SOL    HW119265   5.031   5.563   3.441
 6122SOL    HW219266   5.182   5.543   3.382
 6123SOL     OW19267   5.651   0.965   1.943
 6123SOL    HW119268   5.560   0.931   1.917
 6123SOL    HW219269   5.685   0.911   2.020
 6124SOL     OW19270   3.642   0.330   5.775
 6124SOL    HW119271   3.569   0.382   5.731
 6124SOL    HW219272   3.638   0.234   5.747
 6125SOL     OW19273   2.107   5.215   1.627
 6125SOL    HW119274   2.067   5.287   1.571
 6125SOL    HW219275   2.040   5.185   1.695
 6126SOL     OW19276   5.388   5.483   2.496
 6126SOL    HW119277   5.356   5.481   2.590
 6126SOL    HW219278   5.404   5.577   2.468
 6127SOL     OW19279   2.407   4.921   1.703
 6127SOL    HW119280   2.404   4.823   1.723
 6127SOL    HW219281   2.483   4.939   1.641
 6128SOL     OW19282   5.122   1.879   0.528
 6128SOL    HW119283   5.154   1.814   0.458
 6128SOL    HW219284   5.198   1.900   0.590
 6129SOL     OW19285   5.865   4.917   3.830
 6129SOL    HW119286   5.834   4.833   3.874
 6129SOL    HW219287   5.963   4.910   3.809
 6130SOL     OW19288   5.292   3.365   2.168
 6130SOL    HW119289   5.295   3.288   2.105
 6130SOL    HW219290   5.212   3.357   2.228
 6131SOL     OW19291   6.561   0.878   5.353
 6131SOL    HW119292   6.512   0.813   5.410
 6131SOL    HW219293   6.566   0.844   5.260
 6132SOL     OW19294   5.803   2.442   0.624
 6132SOL    HW119295   5.831   2.488   0.540
 6132SOL    HW219296   5.736   2.370   0.601
 6133SOL     OW19297   0.904   4.310   0.432
 6133SOL    HW119298   0.896   4.324   0.333
 6133SOL    HW219299   0.965   4.379   0.470
 6134SOL     OW19300   4.773   3.309   6.121
 6134SOL    HW119301   4.791   3.288   6.025
 6134SOL    HW219302   4.703   3.380   6.128
 6135SOL     OW19303   5.786   6.788   1.345
 6135SOL    HW119304   5.803   6.734   1.262
 6135SOL    HW219305   5.720   6.740   1.403
 6136SOL     OW19306   0.440   1.843   1.645
 6136SOL    HW119307   0.413   1.917   1.583
 6136SOL    HW219308   0.363   1.819   1.704
 6137SOL     OW19309   2.579   7.011   5.932
 6137SOL    HW119310   2.613   7.009   6.027
 6137SOL    HW219311   2.512   6.937   5.920
 6138SOL     OW19312   4.384   0.668   3.114
 6138SOL    HW119313   4.301   0.708   3.075
 6138SOL    HW219314   4.369   0.571   3.133
 6139SOL     OW19315   1.988   4.591   4.202
 6139SOL    HW119316   2.050   4.530   4.251
 6139SOL    HW219317   1.897   4.549   4.198
 6140SOL     OW19318   1.786   6.626   1.190
 6140SOL    HW119319   1.784   6.722   1.217
 6140SOL    HW219320   1.848   6.575   1.250
 6141SOL     OW19321   6.227   6.178   6.057
 6141SOL    HW119322   6.155   6.161   5.990
 6141SOL    HW219323   6.215   6.115   6.134
 6142SOL     OW19324   0.708   4.781   2.030
 6142SOL    HW119325   0.775   4.818   2.094
 6142SOL    HW219326   0.617   4.786   2.070
 6143SOL     OW19327   6.301   4.792   6.291
 6143SOL    HW119328   6.316   4.725   6.218
 6143SOL    HW219329   6.217   4.842   6.274
 6144SOL     OW19330   0.578   4.693   3.846
 6144SOL    HW119331   0.594   4.783   3.887
 6144SOL    HW219332   0.536   4.703   3.756
 6145SOL     OW19333   5.257   6.235   3.139
 6145SOL    HW119334   5.160   6.260   3.139
 6145SOL    HW219335   5.266   6.141   3.174
 6146SOL     OW19336   5.627   0.988   3.151
 6146SOL    HW119337   5.537   0.990   3.108
 6146SOL    HW219338   5.644   1.075   3.198
 6147SOL     OW19339   1.867   3.191   3.283
 6147SOL    HW119340   1.953   3.206   3.235
 6147SOL    HW219341   1.805   3.138   3.224
 6148SOL     OW19342   6.668   6.571   4.653
 6148SOL    HW119343   6.578   6.582   4.695
 6148SOL    HW219344   6.732   6.636   4.694
 6149SOL     OW19345   2.161   6.352   3.690
 6149SOL    HW119346   2.163   6.315   3.598
 6149SOL    HW219347   2.118   6.287   3.752
 6150SOL     OW19348   4.593   5.294   5.890
 6150SOL    HW119349   4.596   5.370   5.825
 6150SOL    HW219350   4.686   5.273   5.920
 6151SOL     OW19351   5.109   2.268   5.427
 6151SOL    HW119352   5.023   2.285   5.379
 6151SOL    HW219353   5.124   2.170   5.435
 6152SOL     OW19354   6.658   4.401   6.718
 6152SOL    HW119355   6.654   4.365   6.624
 6152SOL    HW219356   6.753   4.423   6.740
 6153SOL     OW19357   4.981   3.274   0.864
 6153SOL    HW119358   5.028   3.309   0.945
 6153SOL    HW219359   4.948   3.350   0.809
 6154SOL     OW19360   5.336   2.984   2.927
 6154SOL    HW119361   5.282   3.068   2.922
 6154SOL    HW219362   5.403   2.984   2.852
 6155SOL     OW19363   0.899   3.842   4.782
 6155SOL    HW119364   0.806   3.808   4.792
 6155SOL    HW219365   0.963   3.773   4.816
 6156SOL     OW19366   6.946   0.518   3.239
 6156SOL    HW119367   0.013   0.555   3.213
 6156SOL    HW219368   6.874   0.570   3.196
 6157SOL     OW19369   2.005   1.746   3.430
 6157SOL    HW119370   2.039   1.721   3.339
 6157SOL    HW219371   2.063   1.818   3.469
 6158SOL     OW19372   4.414   0.725   0.327
 6158SOL    HW119373   4.450   0.817   0.335
 6158SOL    HW219374   4.424   0.677   0.415
 6159SOL     OW19375   5.266   3.347   6.567
 6159SOL    HW119376   5.257   3.424   6.630
 6159SOL    HW219377   5.357   3.348   6.526
 6160SOL     OW19378   6.193   5.126   1.532
 6160SOL    HW119379   6.211   5.143   1.435
 6160SOL    HW219380   6.096   5.107   1.545
 6161SOL     OW19381   5.798   0.843   6.231
 6161SOL    HW119382   5.798   0.762   6.290
 6161SOL    HW219383   5.876   0.901   6.254
 6162SOL     OW19384   6.136   5.186   3.821
 6162SOL    HW119385   6.087   5.273   3.812
 6162SOL    HW219386   6.086   5.115   3.772
 6163SOL     OW19387   6.464   4.134   2.035
 6163SOL    HW119388   6.419   4.093   1.956
 6163SOL    HW219389   6.453   4.233   2.032
 6164SOL     OW19390   3.989   2.642   0.297
 6164SOL    HW119391   4.059   2.712   0.309
 6164SOL    HW219392   3.909   2.664   0.352
 6165SOL     OW19393   4.425   6.332   6.951
 6165SOL    HW119394   4.466   6.375   0.009
 6165SOL    HW219395   4.344   6.383   6.923
 6166SOL     OW19396   3.187   1.641   6.259
 6166SOL    HW119397   3.238   1.717   6.299
 6166SOL    HW219398   3.090   1.650   6.280
 6167SOL     OW19399   6.578   4.656   3.595
 6167SOL    HW119400   6.518   4.725   3.555
 6167SOL    HW219401   6.604   4.590   3.524
 6168SOL     OW19402   0.384   2.678   2.232
 6168SOL    HW119403   0.285   2.663   2.234
 6168SOL    HW219404   0.422   2.642   2.147
 6169SOL     OW19405   1.618   4.342   2.355
 6169SOL    HW119406   1.548   4.412   2.340
 6169SOL    HW219407   1.703   4.369   2.309
 6170SOL     OW19408   0.234   2.655   4.255
 6170SOL    HW119409   0.181   2.672   4.172
 6170SOL    HW219410   0.172   2.633   4.331
 6171SOL     OW19411   0.065   0.798   6.504
 6171SOL    HW119412   0.045   0.742   6.584
 6171SOL    HW219413   0.161   0.786   6.478
 6172SOL     OW19414   1.206   3.422   4.171
 6172SOL    HW119415   1.301   3.414   4.139
 6172SOL    HW219416   1.158   3.488   4.114
 6173SOL     OW19417   6.339   6.304   3.209
 6173SOL    HW119418   6.293   6.277   3.294
 6173SOL    HW219419   6.278   6.289   3.131
 6174SOL     OW19420   5.794   4.157   2.246
 6174SOL    HW119421   5.719   4.175   2.310
 6174SOL    HW219422   5.758   4.157   2.153
 6175SOL     OW19423   2.969   2.485   5.569
 6175SOL    HW119424   2.888   2.433   5.597
 6175SOL    HW219425   2.966   2.500   5.471
 6176SOL     OW19426   4.595   4.297   6.179
 6176SOL    HW119427   4.520   4.346   6.224
 6176SOL    HW219428   4.682   4.340   6.202
 6177SOL     OW19429   6.344   1.014   1.458
 6177SOL    HW119430   6.283   1.047   1.387
 6177SOL    HW219431   6.342   1.077   1.536
 6178SOL     OW19432   3.914   4.731   1.447
 6178SOL    HW119433   3.839   4.757   1.387
 6178SOL    HW219434   3.883   4.733   1.542
 6179SOL     OW19435   5.628   5.136   4.097
 6179SOL    HW119436   5.631   5.048   4.050
 6179SOL    HW219437   5.684   5.131   4.180
 6180SOL     OW19438   3.219   4.405   6.839
 6180SOL    HW119439   3.120   4.418   6.849
 6180SOL    HW219440   3.262   4.494   6.823
 6181SOL     OW19441   6.338   6.235   6.927
 6181SOL    HW119442   6.424   6.183   6.930
 6181SOL    HW219443   6.310   6.246   6.832
 6182SOL     OW19444   3.103   2.607   0.544
 6182SOL    HW119445   3.076   2.517   0.511
 6182SOL    HW219446   3.203   2.614   0.544
 6183SOL     OW19447   0.608   0.058   0.595
 6183SOL    HW119448   0.591   0.127   0.665
 6183SOL    HW219449   0.576   0.092   0.506
 6184SOL     OW19450   2.243   0.008   5.430
 6184SOL    HW119451   2.227   0.093   5.481
 6184SOL    HW219452   2.276   6.960   5.492
 6185SOL     OW19453   3.578   2.851   5.433
 6185SOL    HW119454   3.510   2.780   5.415
 6185SOL    HW219455   3.611   2.889   5.347
 6186SOL     OW19456   0.526   1.499   1.885
 6186SOL    HW119457   0.585   1.446   1.945
 6186SOL    HW219458   0.462   1.438   1.838
 6187SOL     OW19459   4.275   1.376   5.796
 6187SOL    HW119460   4.287   1.475   5.797
 6187SOL    HW219461   4.177   1.354   5.792
 6188SOL     OW19462   1.071   1.339   4.792
 6188SOL    HW119463   1.089   1.368   4.886
 6188SOL    HW219464   1.154   1.346   4.738
 6189SOL     OW19465   6.415   6.056   1.358
 6189SOL    HW119466   6.493   6.111   1.330
 6189SOL    HW219467   6.331   6.109   1.347
 6190SOL     OW19468   1.141   2.750   4.903
 6190SOL    HW119469   1.212   2.762   4.833
 6190SOL    HW219470   1.120   2.838   4.945
 6191SOL     OW19471   4.133   3.411   0.116
 6191SOL    HW119472   4.136   3.312   0.117
 6191SOL    HW219473   4.198   3.448   0.183
 6192SOL     OW19474   2.960   1.092   0.647
 6192SOL    HW119475   2.880   1.094   0.707
 6192SOL    HW219476   2.931   1.066   0.554
 6193SOL     OW19477   4.458   5.616   6.981
 6193SOL    HW119478   4.539   5.640   6.928
 6193SOL    HW219479   4.485   5.591   0.052
 6194SOL     OW19480   5.979   6.923   6.588
 6194SOL    HW119481   5.917   6.985   6.539
 6194SOL    HW219482   5.957   6.926   6.686
 6195SOL     OW19483   6.206   6.311   6.421
 6195SOL    HW119484   6.203   6.333   6.518
 6195SOL    HW219485   6.300   6.290   6.394
 6196SOL     OW19486   5.651   3.701   2.842
 6196SOL    HW119487   5.666   3.748   2.755
 6196SOL    HW219488   5.727   3.637   2.859
 6197SOL     OW19489   1.937   5.377   1.486
 6197SOL    HW119490   1.921   5.464   1.532
 6197SOL    HW219491   1.851   5.341   1.451
 6198SOL     OW19492   5.978   1.157   6.667
 6198SOL    HW119493   5.995   1.255   6.674
 6198SOL    HW219494   5.944   1.123   6.755
 6199SOL     OW19495   1.403   0.201   6.374
 6199SOL    HW119496   1.322   0.142   6.368
 6199SOL    HW219497   1.480   0.148   6.408
 6200SOL     OW19498   1.391   1.225   2.150
 6200SOL    HW119499   1.331   1.251   2.226
 6200SOL    HW219500   1.339   1.224   2.065
 6201SOL     OW19501   0.563   4.534   3.427
 6201SOL    HW119502   0.532   4.447   3.466
 6201SOL    HW219503   0.487   4.579   3.381
 6202SOL     OW19504   5.668   1.746   2.646
 6202SOL    HW119505   5.686   1.787   2.557
 6202SOL    HW219506   5.707   1.654   2.650
 6203SOL     OW19507   6.284   0.148   1.884
 6203SOL    HW119508   6.204   0.144   1.945
 6203SOL    HW219509   6.329   0.236   1.894
 6204SOL     OW19510   1.808   6.886   4.867
 6204SOL    HW119511   1.745   6.963   4.856
 6204SOL    HW219512   1.899   6.914   4.837
 6205SOL     OW19513   5.138   4.050   3.265
 6205SOL    HW119514   5.063   4.068   3.329
 6205SOL    HW219515   5.113   4.080   3.174
 6206SOL     OW19516   5.994   1.933   4.215
 6206SOL    HW119517   6.001   1.838   4.183
 6206SOL    HW219518   5.972   1.933   4.313
 6207SOL     OW19519   1.486   5.052   4.653
 6207SOL    HW119520   1.390   5.045   4.681
 6207SOL    HW219521   1.544   5.058   4.734
 6208SOL     OW19522   3.939   3.725   6.155
 6208SOL    HW119523   3.967   3.646   6.209
 6208SOL    HW219524   4.003   3.737   6.079
 6209SOL     OW19525   3.257   2.614   1.509
 6209SOL    HW119526   3.349   2.594   1.474
 6209SOL    HW219527   3.203   2.658   1.438
 6210SOL     OW19528   4.905   2.321   4.354
 6210SOL    HW119529   4.991   2.292   4.396
 6210SOL    HW219530   4.922   2.397   4.291
 6211SOL     OW19531   5.682   4.310   5.250
 6211SOL    HW119532   5.609   4.310   5.182
 6211SOL    HW219533   5.734   4.395   5.243
 6212SOL     OW19534   4.194   5.241   4.919
 6212SOL    HW119535   4.232   5.153   4.948
 6212SOL    HW219536   4.099   5.228   4.891
 6213SOL     OW19537   4.381   5.931   0.101
 6213SOL    HW119538   4.336   6.002   0.153
 6213SOL    HW219539   4.444   5.972   0.035
 6214SOL     OW19540   6.701   6.143   6.135
 6214SOL    HW119541   6.616   6.195   6.123
 6214SOL    HW219542   6.679   6.045   6.140
 6215SOL     OW19543   5.405   2.409   5.690
 6215SOL    HW119544   5.393   2.333   5.626
 6215SOL    HW219545   5.452   2.484   5.643
 6216SOL     OW19546   4.452   2.207   3.765
 6216SOL    HW119547   4.521   2.162   3.821
 6216SOL    HW219548   4.427   2.147   3.689
 6217SOL     OW19549   0.338   4.610   3.308
 6217SOL    HW119550   0.244   4.605   3.341
 6217SOL    HW219551   0.345   4.563   3.220
 6218SOL     OW19552   4.807   6.450   0.136
 6218SOL    HW119553   4.827   6.359   0.101
 6218SOL    HW219554   4.891   6.504   0.140
 6219SOL     OW19555   1.956   1.184   6.197
 6219SOL    HW119556   1.891   1.152   6.266
 6219SOL    HW219557   1.978   1.109   6.134
 6220SOL     OW19558   3.499   6.415   0.577
 6220SOL    HW119559   3.409   6.423   0.536
 6220SOL    HW219560   3.566   6.464   0.521
 6221SOL     OW19561   5.468   6.067   6.773
 6221SOL    HW119562   5.525   6.015   6.710
 6221SOL    HW219563   5.488   6.039   6.867
 6222SOL     OW19564   6.780   1.545   1.833
 6222SOL    HW119565   6.753   1.625   1.886
 6222SOL    HW219566   6.781   1.569   1.736
 6223SOL     OW19567   0.305   4.749   4.267
 6223SOL    HW119568   0.282   4.845   4.287
 6223SOL    HW219569   0.252   4.718   4.189
 6224SOL     OW19570   3.637   0.373   6.909
 6224SOL    HW119571   3.639   0.326   6.997
 6224SOL    HW219572   3.675   0.465   6.919
 6225SOL     OW19573   4.710   6.271   6.656
 6225SOL    HW119574   4.719   6.349   6.718
 6225SOL    HW219575   4.755   6.293   6.569
 6226SOL     OW19576   1.386   1.140   4.514
 6226SOL    HW119577   1.337   1.219   4.552
 6226SOL    HW219578   1.476   1.134   4.557
 6227SOL     OW19579   2.745   4.362   5.328
 6227SOL    HW119580   2.795   4.412   5.257
 6227SOL    HW219581   2.784   4.382   5.417
 6228SOL     OW19582   0.597   2.994   3.211
 6228SOL    HW119583   0.616   2.896   3.219
 6228SOL    HW219584   0.683   3.044   3.202
 6229SOL     OW19585   0.090   3.011   4.029
 6229SOL    HW119586   0.027   3.042   4.100
 6229SOL    HW219587   0.069   3.058   3.943
 6230SOL     OW19588   0.145   0.543   1.558
 6230SOL    HW119589   0.059   0.493   1.566
 6230SOL    HW219590   0.196   0.511   1.479
 6231SOL     OW19591   2.298   5.216   6.825
 6231SOL    HW119592   2.302   5.157   6.744
 6231SOL    HW219593   2.341   5.169   6.902
 6232SOL     OW19594   4.039   0.814   6.529
 6232SOL    HW119595   3.995   0.755   6.461
 6232SOL    HW219596   4.066   0.759   6.608
 6233SOL     OW19597   6.992   3.290   1.690
 6233SOL    HW119598   6.924   3.299   1.617
 6233SOL    HW219599   6.950   3.315   1.777
 6234SOL     OW19600   4.813   5.273   4.756
 6234SOL    HW119601   4.906   5.306   4.739
 6234SOL    HW219602   4.748   5.342   4.725
 6235SOL     OW19603   0.474   0.154   2.627
 6235SOL    HW119604   0.408   0.167   2.701
 6235SOL    HW219605   0.562   0.125   2.664
 6236SOL     OW19606   0.147   5.555   1.407
 6236SOL    HW119607   0.238   5.530   1.374
 6236SOL    HW219608   0.148   5.556   1.507
 6237SOL     OW19609   3.223   0.997   1.442
 6237SOL    HW119610   3.271   1.078   1.474
 6237SOL    HW219611   3.142   0.981   1.498
 6238SOL     OW19612   1.989   0.609   3.865
 6238SOL    HW119613   2.083   0.575   3.862
 6238SOL    HW219614   1.925   0.534   3.849
 6239SOL     OW19615   4.664   1.576   4.349
 6239SOL    HW119616   4.697   1.660   4.392
 6239SOL    HW219617   4.565   1.581   4.337
 6240SOL     OW19618   3.543   2.862   4.158
 6240SOL    HW119619   3.577   2.873   4.064
 6240SOL    HW219620   3.446   2.838   4.155
 6241SOL     OW19621   3.205   0.566   3.686
 6241SOL    HW119622   3.146   0.641   3.715
 6241SOL    HW219623   3.162   0.518   3.609
 6242SOL     OW19624   2.490   1.907   3.170
 6242SOL    HW119625   2.455   1.830   3.117
 6242SOL    HW219626   2.470   1.993   3.123
 6243SOL     OW19627   4.363   1.807   6.432
 6243SOL    HW119628   4.449   1.759   6.450
 6243SOL    HW219629   4.303   1.747   6.379
 6244SOL     OW19630   5.318   3.549   2.454
 6244SOL    HW119631   5.386   3.526   2.384
 6244SOL    HW219632   5.232   3.575   2.411
 6245SOL     OW19633   0.126   4.411   2.223
 6245SOL    HW119634   0.171   4.335   2.176
 6245SOL    HW219635   0.031   4.417   2.193
 6246SOL     OW19636   0.006   6.836   3.996
 6246SOL    HW119637   6.945   6.887   3.978
 6246SOL    HW219638   0.019   6.767   3.925
 6247SOL     OW19639   5.880   6.424   3.771
 6247SOL    HW119640   5.903   6.521   3.774
 6247SOL    HW219641   5.956   6.372   3.733
 6248SOL     OW19642   3.526   2.907   5.693
 6248SOL    HW119643   3.528   2.900   5.594
 6248SOL    HW219644   3.481   2.826   5.731
 6249SOL     OW19645   5.880   2.801   1.895
 6249SOL    HW119646   5.857   2.826   1.988
 6249SOL    HW219647   5.797   2.797   1.839
 6250SOL     OW19648   6.021   0.222   0.064
 6250SOL    HW119649   6.001   0.305   0.116
 6250SOL    HW219650   6.048   0.247   6.993
 6251SOL     OW19651   2.904   0.455   3.903
 6251SOL    HW119652   2.955   0.501   3.830
 6251SOL    HW219653   2.957   0.459   3.988
 6252SOL     OW19654   3.318   5.783   6.428
 6252SOL    HW119655   3.247   5.768   6.359
 6252SOL    HW219656   3.406   5.753   6.391
 6253SOL     OW19657   3.781   5.662   4.534
 6253SOL    HW119658   3.820   5.588   4.588
 6253SOL    HW219659   3.854   5.714   4.489
 6254SOL     OW19660   0.347   0.096   1.205
 6254SOL    HW119661   0.248   0.102   1.217
 6254SOL    HW219662   0.390   0.079   1.293
 6255SOL     OW19663   0.912   1.350   0.878
 6255SOL    HW119664   0.951   1.437   0.907
 6255SOL    HW219665   0.959   1.275   0.925
 6256SOL     OW19666   5.531   5.997   2.101
 6256SOL    HW119667   5.586   5.939   2.041
 6256SOL    HW219668   5.546   6.093   2.078
 6257SOL     OW19669   2.975   4.028   1.077
 6257SOL    HW119670   3.040   4.054   1.149
 6257SOL    HW219671   2.984   4.091   1.000
 6258SOL     OW19672   4.543   5.487   5.141
 6258SOL    HW119673   4.466   5.503   5.203
 6258SOL    HW219674   4.525   5.405   5.087
 6259SOL     OW19675   3.515   0.728   4.143
 6259SOL    HW119676   3.489   0.701   4.050
 6259SOL    HW219677   3.594   0.674   4.172
 6260SOL     OW19678   1.682   1.349   6.539
 6260SOL    HW119679   1.776   1.320   6.553
 6260SOL    HW219680   1.649   1.313   6.451
 6261SOL     OW19681   3.853   0.108   0.737
 6261SOL    HW119682   3.886   0.015   0.756
 6261SOL    HW219683   3.812   0.111   0.646
 6262SOL     OW19684   5.449   0.893   2.592
 6262SOL    HW119685   5.496   0.864   2.508
 6262SOL    HW219686   5.459   0.992   2.602
 6263SOL     OW19687   5.148   6.416   5.300
 6263SOL    HW119688   5.246   6.431   5.308
 6263SOL    HW219689   5.107   6.410   5.391
 6264SOL     OW19690   2.561   6.612   0.193
 6264SOL    HW119691   2.484   6.633   0.252
 6264SOL    HW219692   2.530   6.606   0.098
 6265SOL     OW19693   4.721   6.785   6.501
 6265SOL    HW119694   4.659   6.855   6.465
 6265SOL    HW219695   4.682   6.744   6.583
 6266SOL     OW19696   2.613   4.929   2.919
 6266SOL    HW119697   2.567   4.958   3.003
 6266SOL    HW219698   2.707   4.902   2.941
 6267SOL     OW19699   1.735   6.633   4.785
 6267SOL    HW119700   1.643   6.614   4.819
 6267SOL    HW219701   1.766   6.721   4.822
 6268SOL     OW19702   3.024   1.489   0.363
 6268SOL    HW119703   3.065   1.524   0.447
 6268SOL    HW219704   2.926   1.474   0.377
 6269SOL     OW19705   6.580   5.179   0.142
 6269SOL    HW119706   6.481   5.182   0.125
 6269SOL    HW219707   6.619   5.100   0.095
 6270SOL     OW19708   1.914   6.199   0.649
 6270SOL    HW119709   1.911   6.278   0.710
 6270SOL    HW219710   1.994   6.143   0.672
 6271SOL     OW19711   6.643   3.360   5.767
 6271SOL    HW119712   6.547   3.383   5.782
 6271SOL    HW219713   6.699   3.407   5.836
 6272SOL     OW19714   6.952   6.919   0.241
 6272SOL    HW119715   6.873   6.948   0.296
 6272SOL    HW219716   6.999   6.845   0.287
 6273SOL     OW19717   0.625   6.385   1.887
 6273SOL    HW119718   0.608   6.455   1.818
 6273SOL    HW219719   0.560   6.394   1.962
 6274SOL     OW19720   2.989   5.215   3.482
 6274SOL    HW119721   2.962   5.239   3.388
 6274SOL    HW219722   3.087   5.232   3.494
 6275SOL     OW19723   2.631   5.657   6.640
 6275SOL    HW119724   2.584   5.633   6.554
 6275SOL    HW219725   2.688   5.738   6.625
 6276SOL     OW19726   1.927   5.034   2.589
 6276SOL    HW119727   1.890   5.037   2.497
 6276SOL    HW219728   1.956   5.126   2.616
 6277SOL     OW19729   5.716   2.604   1.041
 6277SOL    HW119730   5.627   2.591   1.084
 6277SOL    HW219731   5.723   2.698   1.008
 6278SOL     OW19732   3.263   2.145   0.270
 6278SOL    HW119733   3.218   2.153   0.180
 6278SOL    HW219734   3.218   2.073   0.323
 6279SOL     OW19735   3.273   6.650   1.713
 6279SOL    HW119736   3.341   6.622   1.646
 6279SOL    HW219737   3.196   6.694   1.667
 6280SOL     OW19738   5.664   2.613   6.702
 6280SOL    HW119739   5.569   2.633   6.723
 6280SOL    HW219740   5.681   2.515   6.715
 6281SOL     OW19741   5.379   3.965   5.667
 6281SOL    HW119742   5.356   4.011   5.581
 6281SOL    HW219743   5.476   3.978   5.687
 6282SOL     OW19744   0.116   3.173   5.874
 6282SOL    HW119745   0.085   3.166   5.779
 6282SOL    HW219746   0.039   3.153   5.935
 6283SOL     OW19747   1.926   6.395   4.820
 6283SOL    HW119748   1.894   6.488   4.837
 6283SOL    HW219749   1.848   6.337   4.797
 6284SOL     OW19750   1.427   3.496   5.212
 6284SOL    HW119751   1.509   3.439   5.202
 6284SOL    HW219752   1.430   3.544   5.299
 6285SOL     OW19753   1.596   3.512   3.263
 6285SOL    HW119754   1.570   3.524   3.167
 6285SOL    HW219755   1.543   3.437   3.303
 6286SOL     OW19756   0.264   2.713   6.492
 6286SOL    HW119757   0.178   2.749   6.530
 6286SOL    HW219758   0.340   2.740   6.551
 6287SOL     OW19759   4.792   5.255   5.166
 6287SOL    HW119760   4.711   5.300   5.128
 6287SOL    HW219761   4.764   5.172   5.214
 6288SOL     OW19762   3.094   3.998   6.423
 6288SOL    HW119763   3.142   3.930   6.368
 6288SOL    HW219764   3.109   3.979   6.520
 6289SOL     OW19765   2.517   4.377   5.788
 6289SOL    HW119766   2.446   4.308   5.778
 6289SOL    HW219767   2.591   4.358   5.723
 6290SOL     OW19768   6.075   6.371   4.623
 6290SOL    HW119769   6.156   6.379   4.565
 6290SOL    HW219770   6.095   6.309   4.699
 6291SOL     OW19771   4.141   3.553   2.838
 6291SOL    HW119772   4.092   3.638   2.852
 6291SOL    HW219773   4.162   3.542   2.741
 6292SOL     OW19774   1.782   4.016   4.242
 6292SOL    HW119775   1.767   3.929   4.196
 6292SOL    HW219776   1.876   4.021   4.275
 6293SOL     OW19777   2.829   1.377   6.689
 6293SOL    HW119778   2.772   1.450   6.652
 6293SOL    HW219779   2.923   1.388   6.657
 6294SOL     OW19780   1.540   0.976   2.507
 6294SOL    HW119781   1.497   1.060   2.539
 6294SOL    HW219782   1.636   0.994   2.483
 6295SOL     OW19783   4.863   3.052   6.476
 6295SOL    HW119784   4.852   3.075   6.573
 6295SOL    HW219785   4.952   3.086   6.444
 6296SOL     OW19786   1.262   3.454   0.303
 6296SOL    HW119787   1.169   3.420   0.310
 6296SOL    HW219788   1.299   3.468   0.396
 6297SOL     OW19789   5.740   1.475   4.292
 6297SOL    HW119790   5.708   1.519   4.208
 6297SOL    HW219791   5.662   1.437   4.342
 6298SOL     OW19792   0.137   6.045   0.807
 6298SOL    HW119793   0.063   6.045   0.739
 6298SOL    HW219794   0.106   6.092   0.889
 6299SOL     OW19795   3.528   1.539   3.486
 6299SOL    HW119796   3.551   1.516   3.581
 6299SOL    HW219797   3.501   1.456   3.438
 6300SOL     OW19798   2.946   1.328   7.015
 6300SOL    HW119799   3.008   1.310   6.938
 6300SOL    HW219800   2.978   1.277   0.072
 6301SOL     OW19801   4.543   6.229   0.327
 6301SOL    HW119802   4.506   6.270   0.411
 6301SOL    HW219803   4.545   6.298   0.255
 6302SOL     OW19804   2.294   2.761   6.052
 6302SOL    HW119805   2.370   2.791   5.995
 6302SOL    HW219806   2.296   2.810   6.139
 6303SOL     OW19807   0.103   5.595   4.839
 6303SOL    HW119808   0.145   5.653   4.909
 6303SOL    HW219809   0.165   5.520   4.816
 6304SOL     OW19810   4.080   0.437   4.216
 6304SOL    HW119811   4.073   0.509   4.147
 6304SOL    HW219812   4.098   0.477   4.306
 6305SOL     OW19813   1.267   5.662   5.935
 6305SOL    HW119814   1.322   5.729   5.984
 6305SOL    HW219815   1.195   5.627   5.995
 6306SOL     OW19816   0.311   4.920   4.876
 6306SOL    HW119817   0.236   4.983   4.855
 6306SOL    HW219818   0.397   4.959   4.843
 6307SOL     OW19819   3.704   2.849   2.108
 6307SOL    HW119820   3.611   2.830   2.078
 6307SOL    HW219821   3.705   2.867   2.207
 6308SOL     OW19822   0.572   2.147   0.471
 6308SOL    HW119823   0.630   2.155   0.553
 6308SOL    HW219824   0.491   2.092   0.493
 6309SOL     OW19825   2.736   6.459   4.682
 6309SOL    HW119826   2.650   6.489   4.722
 6309SOL    HW219827   2.794   6.419   4.754
 6310SOL     OW19828   1.546   0.016   2.872
 6310SOL    HW119829   1.633   6.997   2.846
 6310SOL    HW219830   1.536   0.013   2.972
 6311SOL     OW19831   6.122   1.385   6.698
 6311SOL    HW119832   6.118   1.451   6.623
 6311SOL    HW219833   6.213   1.389   6.740
 6312SOL     OW19834   3.371   6.150   6.603
 6312SOL    HW119835   3.428   6.222   6.563
 6312SOL    HW219836   3.323   6.186   6.683
 6313SOL     OW19837   6.154   5.045   4.448
 6313SOL    HW119838   6.089   5.072   4.519
 6313SOL    HW219839   6.187   4.952   4.466
 6314SOL     OW19840   2.033   6.446   2.626
 6314SOL    HW119841   2.015   6.472   2.721
 6314SOL    HW219842   1.977   6.367   2.601
 6315SOL     OW19843   2.205   1.936   3.514
 6315SOL    HW119844   2.245   1.997   3.446
 6315SOL    HW219845   2.146   1.988   3.576
 6316SOL     OW19846   4.655   1.389   4.580
 6316SOL    HW119847   4.640   1.293   4.560
 6316SOL    HW219848   4.645   1.443   4.496
 6317SOL     OW19849   5.497   4.963   2.066
 6317SOL    HW119850   5.454   4.996   2.150
 6317SOL    HW219851   5.427   4.931   2.002
 6318SOL     OW19852   6.819   6.628   0.404
 6318SOL    HW119853   6.742   6.641   0.341
 6318SOL    HW219854   6.905   6.640   0.355
 6319SOL     OW19855   5.737   1.862   3.958
 6319SOL    HW119856   5.679   1.939   3.985
 6319SOL    HW219857   5.811   1.851   4.025
 6320SOL     OW19858   6.020   1.504   5.556
 6320SOL    HW119859   6.119   1.502   5.540
 6320SOL    HW219860   5.992   1.597   5.581
 6321SOL     OW19861   6.847   2.743   6.770
 6321SOL    HW119862   6.799   2.680   6.831
 6321SOL    HW219863   6.881   2.692   6.691
 6322SOL     OW19864   0.812   0.960   2.559
 6322SOL    HW119865   0.910   0.956   2.578
 6322SOL    HW219866   0.761   0.945   2.644
 6323SOL     OW19867   2.518   4.814   1.017
 6323SOL    HW119868   2.595   4.826   0.955
 6323SOL    HW219869   2.434   4.804   0.963
 6324SOL     OW19870   4.319   3.321   1.142
 6324SOL    HW119871   4.332   3.225   1.168
 6324SOL    HW219872   4.246   3.361   1.198
 6325SOL     OW19873   1.461   2.701   3.922
 6325SOL    HW119874   1.371   2.664   3.897
 6325SOL    HW219875   1.529   2.669   3.855
 6326SOL     OW19876   5.270   5.298   5.361
 6326SOL    HW119877   5.182   5.283   5.317
 6326SOL    HW219878   5.313   5.380   5.323
 6327SOL     OW19879   0.163   1.253   3.699
 6327SOL    HW119880   0.119   1.172   3.660
 6327SOL    HW219881   0.151   1.330   3.636
 6328SOL     OW19882   4.454   3.428   5.339
 6328SOL    HW119883   4.513   3.469   5.270
 6328SOL    HW219884   4.380   3.491   5.362
 6329SOL     OW19885   0.371   2.140   5.742
 6329SOL    HW119886   0.452   2.106   5.791
 6329SOL    HW219887   0.400   2.187   5.659
 6330SOL     OW19888   5.367   1.620   3.806
 6330SOL    HW119889   5.364   1.520   3.809
 6330SOL    HW219890   5.450   1.650   3.757
 6331SOL     OW19891   0.694   2.928   3.701
 6331SOL    HW119892   0.596   2.948   3.702
 6331SOL    HW219893   0.709   2.836   3.665
 6332SOL     OW19894   3.341   1.733   6.749
 6332SOL    HW119895   3.289   1.719   6.834
 6332SOL    HW219896   3.438   1.743   6.771
 6333SOL     OW19897   6.123   1.078   1.220
 6333SOL    HW119898   6.076   1.026   1.148
 6333SOL    HW219899   6.152   1.167   1.183
 6334SOL     OW19900   1.495   1.209   1.632
 6334SOL    HW119901   1.480   1.135   1.697
 6334SOL    HW219902   1.410   1.259   1.617
 6335SOL     OW19903   6.511   2.824   6.472
 6335SOL    HW119904   6.512   2.854   6.568
 6335SOL    HW219905   6.524   2.903   6.413
 6336SOL     OW19906   0.699   4.006   5.188
 6336SOL    HW119907   0.679   3.909   5.205
 6336SOL    HW219908   0.792   4.015   5.154
 6337SOL     OW19909   5.076   6.754   5.270
 6337SOL    HW119910   5.163   6.789   5.234
 6337SOL    HW219911   5.091   6.668   5.317
 6338SOL     OW19912   1.081   1.172   3.096
 6338SOL    HW119913   1.051   1.173   3.001
 6338SOL    HW219914   1.179   1.154   3.100
 6339SOL     OW19915   0.307   4.463   4.069
 6339SOL    HW119916   0.354   4.477   3.982
 6339SOL    HW219917   0.234   4.531   4.078
 6340SOL     OW19918   2.509   3.935   0.410
 6340SOL    HW119919   2.559   3.980   0.336
 6340SOL    HW219920   2.567   3.927   0.491
 6341SOL     OW19921   0.682   5.300   2.282
 6341SOL    HW119922   0.673   5.254   2.370
 6341SOL    HW219923   0.773   5.342   2.275
 6342SOL     OW19924   1.816   0.879   0.832
 6342SOL    HW119925   1.835   0.794   0.881
 6342SOL    HW219926   1.897   0.937   0.834
 6343SOL     OW19927   1.110   5.622   0.693
 6343SOL    HW119928   1.023   5.663   0.668
 6343SOL    HW219929   1.094   5.530   0.730
 6344SOL     OW19930   0.138   1.304   3.966
 6344SOL    HW119931   0.135   1.295   3.866
 6344SOL    HW219932   0.164   1.397   3.990
 6345SOL     OW19933   5.729   2.451   2.459
 6345SOL    HW119934   5.729   2.435   2.360
 6345SOL    HW219935   5.644   2.417   2.499
 6346SOL     OW19936   0.217   4.341   5.572
 6346SOL    HW119937   0.270   4.293   5.642
 6346SOL    HW219938   0.213   4.285   5.489
 6347SOL     OW19939   2.043   2.273   3.064
 6347SOL    HW119940   2.073   2.199   3.124
 6347SOL    HW219941   1.987   2.235   2.990
 6348SOL     OW19942   1.122   2.177   5.953
 6348SOL    HW119943   1.134   2.204   6.049
 6348SOL    HW219944   1.172   2.240   5.894
 6349SOL     OW19945   6.971   1.244   0.675
 6349SOL    HW119946   6.888   1.240   0.731
 6349SOL    HW219947   6.993   1.153   0.641
 6350SOL     OW19948   0.674   6.029   1.430
 6350SOL    HW119949   0.747   6.051   1.365
 6350SOL    HW219950   0.680   6.090   1.509
 6351SOL     OW19951   5.740   4.116   1.629
 6351SOL    HW119952   5.747   4.016   1.624
 6351SOL    HW219953   5.829   4.154   1.655
 6352SOL     OW19954   3.559   0.690   4.636
 6352SOL    HW119955   3.541   0.779   4.678
 6352SOL    HW219956   3.564   0.619   4.706
 6353SOL     OW19957   3.612   6.634   6.005
 6353SOL    HW119958   3.654   6.718   6.040
 6353SOL    HW219959   3.660   6.606   5.921
 6354SOL     OW19960   4.524   5.417   1.841
 6354SOL    HW119961   4.465   5.488   1.879
 6354SOL    HW219962   4.613   5.457   1.817
 6355SOL     OW19963   3.181   5.357   0.520
 6355SOL    HW119964   3.131   5.274   0.497
 6355SOL    HW219965   3.228   5.345   0.608
 6356SOL     OW19966   0.379   5.692   6.093
 6356SOL    HW119967   0.389   5.787   6.064
 6356SOL    HW219968   0.467   5.656   6.123
 6357SOL     OW19969   4.901   1.302   1.900
 6357SOL    HW119970   4.943   1.390   1.924
 6357SOL    HW219971   4.970   1.241   1.862
 6358SOL     OW19972   1.354   1.963   5.347
 6358SOL    HW119973   1.345   2.062   5.351
 6358SOL    HW219974   1.288   1.921   5.410
 6359SOL     OW19975   5.425   6.671   0.790
 6359SOL    HW119976   5.404   6.694   0.695
 6359SOL    HW219977   5.456   6.576   0.795
 6360SOL     OW19978   0.568   1.441   1.382
 6360SOL    HW119979   0.589   1.539   1.384
 6360SOL    HW219980   0.623   1.393   1.450
 6361SOL     OW19981   0.504   1.736   0.477
 6361SOL    HW119982   0.433   1.665   0.473
 6361SOL    HW219983   0.462   1.822   0.504
 6362SOL     OW19984   1.289   5.409   0.402
 6362SOL    HW119985   1.312   5.333   0.464
 6362SOL    HW219986   1.357   5.482   0.412
 6363SOL     OW19987   2.167   3.954   2.948
 6363SOL    HW119988   2.203   3.899   2.872
 6363SOL    HW219989   2.136   3.893   3.021
 6364SOL     OW19990   2.593   2.530   4.188
 6364SOL    HW119991   2.635   2.469   4.255
 6364SOL    HW219992   2.629   2.510   4.097
 6365SOL     OW19993   5.717   6.933   2.912
 6365SOL    HW119994   5.658   6.942   2.992
 6365SOL    HW219995   5.667   6.957   2.830
 6366SOL     OW19996   5.877   0.865   5.071
 6366SOL    HW119997   5.836   0.935   5.129
 6366SOL    HW219998   5.966   0.896   5.039
 6367SOL     OW19999   1.087   2.428   2.829
 6367SOL    HW120000   1.172   2.435   2.776
 6367SOL    HW220001   1.109   2.419   2.926
 6368SOL     OW20002   5.108   3.833   4.512
 6368SOL    HW120003   5.130   3.881   4.597
 6368SOL    HW220004   5.138   3.887   4.434
 6369SOL     OW20005   4.173   5.139   0.518
 6369SOL    HW120006   4.162   5.230   0.478
 6369SOL    HW220007   4.193   5.073   0.445
 6370SOL     OW20008   5.450   4.054   4.446
 6370SOL    HW120009   5.363   4.072   4.400
 6370SOL    HW220010   5.471   4.130   4.508
 6371SOL     OW20011   5.188   4.074   1.517
 6371SOL    HW120012   5.102   4.047   1.475
 6371SOL    HW220013   5.227   4.152   1.468
 6372SOL     OW20014   6.300   1.585   1.992
 6372SOL    HW120015   6.317   1.489   2.017
 6372SOL    HW220016   6.226   1.589   1.925
 6373SOL     OW20017   5.227   3.759   1.453
 6373SOL    HW120018   5.274   3.837   1.413
 6373SOL    HW220019   5.135   3.750   1.413
 6374SOL     OW20020   4.454   3.817   6.619
 6374SOL    HW120021   4.496   3.808   6.529
 6374SOL    HW220022   4.457   3.914   6.647
 6375SOL     OW20023   4.760   1.549   2.015
 6375SOL    HW120024   4.766   1.582   1.921
 6375SOL    HW220025   4.836   1.587   2.069
 6376SOL     OW20026   3.437   0.486   0.217
 6376SOL    HW120027   3.450   0.535   0.303
 6376SOL    HW220028   3.347   0.442   0.217
 6377SOL     OW20029   0.726   0.465   0.488
 6377SOL    HW120030   0.811   0.443   0.441
 6377SOL    HW220031   0.744   0.527   0.564
 6378SOL     OW20032   5.124   4.585   2.046
 6378SOL    HW120033   5.106   4.488   2.035
 6378SOL    HW220034   5.200   4.613   1.986
 6379SOL     OW20035   2.035   5.033   6.795
 6379SOL    HW120036   2.053   5.132   6.792
 6379SOL    HW220037   1.981   5.011   6.876
 6380SOL     OW20038   0.912   4.217   5.375
 6380SOL    HW120039   0.928   4.146   5.443
 6380SOL    HW220040   0.923   4.178   5.283
 6381SOL     OW20041   4.629   2.917   0.448
 6381SOL    HW120042   4.596   2.991   0.507
 6381SOL    HW220043   4.590   2.928   0.356
 6382SOL     OW20044   1.419   1.353   0.373
 6382SOL    HW120045   1.445   1.281   0.308
 6382SOL    HW220046   1.374   1.428   0.324
 6383SOL     OW20047   2.425   2.254   2.062
 6383SOL    HW120048   2.503   2.316   2.056
 6383SOL    HW220049   2.458   2.160   2.071
 6384SOL     OW20050   6.093   2.949   1.858
 6384SOL    HW120051   6.003   2.913   1.883
 6384SOL    HW220052   6.085   3.046   1.837
 6385SOL     OW20053   0.294   3.364   0.383
 6385SOL    HW120054   0.272   3.394   0.475
 6385SOL    HW220055   0.210   3.334   0.337
 6386SOL     OW20056   2.621   2.359   0.507
 6386SOL    HW120057   2.608   2.409   0.593
 6386SOL    HW220058   2.533   2.325   0.475
 6387SOL     OW20059   0.434   6.680   0.144
 6387SOL    HW120060   0.407   6.586   0.125
 6387SOL    HW220061   0.447   6.692   0.242
 6388SOL     OW20062   5.747   5.379   2.127
 6388SOL    HW120063   5.742   5.283   2.102
 6388SOL    HW220064   5.656   5.421   2.116
 6389SOL     OW20065   6.647   6.851   0.608
 6389SOL    HW120066   6.680   6.893   0.692
 6389SOL    HW220067   6.717   6.789   0.572
 6390SOL     OW20068   5.091   0.758   6.901
 6390SOL    HW120069   5.066   0.662   6.909
 6390SOL    HW220070   5.074   0.804   6.989
 6391SOL     OW20071   1.321   2.080   4.862
 6391SOL    HW120072   1.232   2.035   4.852
 6391SOL    HW220073   1.386   2.017   4.904
 6392SOL     OW20074   3.855   6.674   3.755
 6392SOL    HW120075   3.889   6.626   3.836
 6392SOL    HW220076   3.818   6.607   3.690
 6393SOL     OW20077   1.086   5.716   6.953
 6393SOL    HW120078   1.140   5.684   0.008
 6393SOL    HW220079   1.010   5.652   6.937
 6394SOL     OW20080   1.941   5.095   1.850
 6394SOL    HW120081   1.948   5.028   1.924
 6394SOL    HW220082   1.846   5.120   1.836
 6395SOL     OW20083   2.162   3.884   3.785
 6395SOL    HW120084   2.167   3.794   3.829
 6395SOL    HW220085   2.076   3.928   3.808
 6396SOL     OW20086   1.646   2.866   5.423
 6396SOL    HW120087   1.587   2.920   5.483
 6396SOL    HW220088   1.697   2.927   5.363
 6397SOL     OW20089   5.675   4.069   4.759
 6397SOL    HW120090   5.589   4.020   4.770
 6397SOL    HW220091   5.700   4.072   4.662
 6398SOL     OW20092   2.069   6.895   2.479
 6398SOL    HW120093   2.046   6.801   2.453
 6398SOL    HW220094   2.110   6.896   2.570
 6399SOL     OW20095   3.409   0.515   6.924
 6399SOL    HW120096   3.493   0.475   6.889
 6399SOL    HW220097   3.413   0.519   0.001
 6400SOL     OW20098   0.570   6.046   3.345
 6400SOL    HW120099   0.635   6.037   3.420
 6400SOL    HW220100   0.505   5.970   3.347
 6401SOL     OW20101   4.311   5.204   3.048
 6401SOL    HW120102   4.214   5.219   3.030
 6401SOL    HW220103   4.360   5.196   2.961
 6402SOL     OW20104   2.511   4.696   5.587
 6402SOL    HW120105   2.541   4.791   5.580
 6402SOL    HW220106   2.511   4.654   5.496
 6403SOL     OW20107   5.058   5.332   5.145
 6403SOL    HW120108   5.108   5.308   5.062
 6403SOL    HW220109   4.967   5.289   5.142
 6404SOL     OW20110   4.844   0.162   1.872
 6404SOL    HW120111   4.777   0.136   1.802
 6404SOL    HW220112   4.797   0.172   1.960
 6405SOL     OW20113   5.244   1.432   3.011
 6405SOL    HW120114   5.340   1.444   2.987
 6405SOL    HW220115   5.202   1.521   3.028
 6406SOL     OW20116   0.086   3.444   2.572
 6406SOL    HW120117   0.169   3.402   2.609
 6406SOL    HW220118   0.024   3.467   2.646
 6407SOL     OW20119   0.408   6.017   2.645
 6407SOL    HW120120   0.360   5.976   2.723
 6407SOL    HW220121   0.372   6.109   2.629
 6408SOL     OW20122   6.948   0.957   2.121
 6408SOL    HW120123   6.928   0.890   2.194
 6408SOL    HW220124   0.007   1.009   2.146
 6409SOL     OW20125   5.087   4.821   3.690
 6409SOL    HW120126   5.143   4.904   3.691
 6409SOL    HW220127   5.075   4.790   3.596
 6410SOL     OW20128   1.678   1.651   0.428
 6410SOL    HW120129   1.746   1.720   0.451
 6410SOL    HW220130   1.666   1.648   0.329
 6411SOL     OW20131   0.248   2.767   1.954
 6411SOL    HW120132   0.347   2.769   1.942
 6411SOL    HW220133   0.209   2.855   1.927
 6412SOL     OW20134   3.478   1.479   0.224
 6412SOL    HW120135   3.557   1.486   0.163
 6412SOL    HW220136   3.467   1.564   0.275
 6413SOL     OW20137   4.785   6.291   3.397
 6413SOL    HW120138   4.814   6.375   3.443
 6413SOL    HW220139   4.781   6.216   3.463
 6414SOL     OW20140   2.175   6.989   0.545
 6414SOL    HW120141   2.229   6.982   0.461
 6414SOL    HW220142   2.225   0.022   0.612
 6415SOL     OW20143   0.474   2.491   3.636
 6415SOL    HW120144   0.545   2.560   3.627
 6415SOL    HW220145   0.416   2.512   3.715
 6416SOL     OW20146   2.610   5.317   6.932
 6416SOL    HW120147   2.661   5.395   6.895
 6416SOL    HW220148   2.634   5.235   6.881
 6417SOL     OW20149   4.402   2.738   6.472
 6417SOL    HW120150   4.392   2.646   6.511
 6417SOL    HW220151   4.460   2.793   6.531
 6418SOL     OW20152   4.695   4.615   0.252
 6418SOL    HW120153   4.653   4.630   0.162
 6418SOL    HW220154   4.623   4.604   0.321
 6419SOL     OW20155   0.527   6.353   6.301
 6419SOL    HW120156   0.432   6.334   6.327
 6419SOL    HW220157   0.542   6.452   6.302
 6420SOL     OW20158   2.421   4.777   4.218
 6420SOL    HW120159   2.467   4.692   4.244
 6420SOL    HW220160   2.331   4.755   4.179
 6421SOL     OW20161   3.853   0.904   2.319
 6421SOL    HW120162   3.895   0.836   2.259
 6421SOL    HW220163   3.916   0.980   2.333
 6422SOL     OW20164   6.291   2.750   4.802
 6422SOL    HW120165   6.268   2.826   4.741
 6422SOL    HW220166   6.288   2.664   4.751
 6423SOL     OW20167   1.624   4.800   4.496
 6423SOL    HW120168   1.697   4.868   4.506
 6423SOL    HW220169   1.557   4.812   4.569
 6424SOL     OW20170   6.620   4.836   5.566
 6424SOL    HW120171   6.677   4.831   5.648
 6424SOL    HW220172   6.666   4.892   5.497
 6425SOL     OW20173   6.702   5.916   4.162
 6425SOL    HW120174   6.732   5.880   4.251
 6425SOL    HW220175   6.654   5.844   4.112
 6426SOL     OW20176   4.561   4.445   4.685
 6426SOL    HW120177   4.517   4.389   4.756
 6426SOL    HW220178   4.650   4.476   4.717
 6427SOL     OW20179   3.873   3.427   3.613
 6427SOL    HW120180   3.799   3.476   3.568
 6427SOL    HW220181   3.837   3.342   3.652
 6428SOL     OW20182   5.384   2.453   0.655
 6428SOL    HW120183   5.290   2.433   0.625
 6428SOL    HW220184   5.397   2.552   0.661
 6429SOL     OW20185   2.142   1.132   5.209
 6429SOL    HW120186   2.109   1.211   5.262
 6429SOL    HW220187   2.182   1.065   5.271
 6430SOL     OW20188   6.305   0.386   5.189
 6430SOL    HW120189   6.282   0.448   5.114
 6430SOL    HW220190   6.381   0.424   5.242
 6431SOL     OW20191   3.873   4.860   1.995
 6431SOL    HW120192   3.842   4.765   2.001
 6431SOL    HW220193   3.799   4.917   1.960
 6432SOL     OW20194   5.354   4.217   5.995
 6432SOL    HW120195   5.284   4.145   5.999
 6432SOL    HW220196   5.335   4.285   6.065
 6433SOL     OW20197   3.270   4.614   6.027
 6433SOL    HW120198   3.363   4.650   6.030
 6433SOL    HW220199   3.272   4.515   6.044
 6434SOL     OW20200   4.951   5.897   6.326
 6434SOL    HW120201   4.911   5.967   6.385
 6434SOL    HW220202   5.045   5.878   6.356
 6435SOL     OW20203   4.403   2.184   1.035
 6435SOL    HW120204   4.428   2.260   0.975
 6435SOL    HW220205   4.305   2.167   1.029
 6436SOL     OW20206   6.590   2.983   3.198
 6436SOL    HW120207   6.664   3.003   3.134
 6436SOL    HW220208   6.502   2.994   3.153
 6437SOL     OW20209   1.473   2.161   5.807
 6437SOL    HW120210   1.384   2.185   5.770
 6437SOL    HW220211   1.483   2.062   5.809
 6438SOL     OW20212   0.430   4.575   0.176
 6438SOL    HW120213   0.367   4.637   0.129
 6438SOL    HW220214   0.378   4.515   0.237
 6439SOL     OW20215   4.965   6.599   3.184
 6439SOL    HW120216   4.986   6.696   3.171
 6439SOL    HW220217   5.017   6.563   3.262
 6440SOL     OW20218   2.849   1.659   6.026
 6440SOL    HW120219   2.884   1.692   5.939
 6440SOL    HW220220   2.816   1.737   6.080
 6441SOL     OW20221   0.078   1.738   2.378
 6441SOL    HW120222   7.003   1.759   2.377
 6441SOL    HW220223   0.115   1.756   2.469
 6442SOL     OW20224   2.984   2.090   5.024
 6442SOL    HW120225   3.061   2.153   5.035
 6442SOL    HW220226   2.904   2.126   5.073
 6443SOL     OW20227   3.941   2.768   6.584
 6443SOL    HW120228   3.898   2.858   6.579
 6443SOL    HW220229   4.000   2.755   6.504
 6444SOL     OW20230   6.374   4.126   4.924
 6444SOL    HW120231   6.327   4.173   4.849
 6444SOL    HW220232   6.417   4.194   4.984
 6445SOL     OW20233   3.048   3.100   3.471
 6445SOL    HW120234   3.124   3.132   3.414
 6445SOL    HW220235   3.084   3.061   3.556
 6446SOL     OW20236   1.431   1.234   6.708
 6446SOL    HW120237   1.514   1.289   6.711
 6446SOL    HW220238   1.360   1.277   6.764
 6447SOL     OW20239   5.858   3.480   2.109
 6447SOL    HW120240   5.954   3.452   2.104
 6447SOL    HW220241   5.852   3.569   2.154
 6448SOL     OW20242   3.392   4.600   1.336
 6448SOL    HW120243   3.478   4.576   1.291
 6448SOL    HW220244   3.381   4.545   1.419
 6449SOL     OW20245   2.798   5.064   0.991
 6449SOL    HW120246   2.766   4.969   0.980
 6449SOL    HW220247   2.725   5.119   1.030
 6450SOL     OW20248   6.846   4.085   6.898
 6450SOL    HW120249   6.774   4.057   6.961
 6450SOL    HW220250   6.807   4.105   6.809
 6451SOL     OW20251   3.795   2.701   1.693
 6451SOL    HW120252   3.730   2.746   1.630
 6451SOL    HW220253   3.848   2.771   1.740
 6452SOL     OW20254   4.029   2.039   3.884
 6452SOL    HW120255   4.093   2.115   3.896
 6452SOL    HW220256   3.976   2.027   3.967
 6453SOL     OW20257   2.158   0.938   2.433
 6453SOL    HW120258   2.143   0.926   2.335
 6453SOL    HW220259   2.072   0.924   2.483
 6454SOL     OW20260   5.000   2.489   3.388
 6454SOL    HW120261   4.953   2.574   3.365
 6454SOL    HW220262   4.934   2.421   3.418
 6455SOL     OW20263   6.613   2.793   3.902
 6455SOL    HW120264   6.604   2.778   3.803
 6455SOL    HW220265   6.540   2.743   3.949
 6456SOL     OW20266   5.838   1.217   2.138
 6456SOL    HW120267   5.928   1.251   2.108
 6456SOL    HW220268   5.770   1.239   2.068
 6457SOL     OW20269   3.565   6.985   2.641
 6457SOL    HW120270   3.629   6.994   2.717
 6457SOL    HW220271   3.608   7.019   2.557
 6458SOL     OW20272   0.116   6.364   3.816
 6458SOL    HW120273   0.052   6.288   3.802
 6458SOL    HW220274   0.148   6.397   3.728
 6459SOL     OW20275   0.801   3.387   3.159
 6459SOL    HW120276   0.807   3.294   3.194
 6459SOL    HW220277   0.808   3.452   3.235
 6460SOL     OW20278   0.416   5.289   6.697
 6460SOL    HW120279   0.433   5.229   6.619
 6460SOL    HW220280   0.360   5.367   6.667
 6461SOL     OW20281   1.417   6.463   1.101
 6461SOL    HW120282   1.409   6.365   1.080
 6461SOL    HW220283   1.454   6.511   1.022
 6462SOL     OW20284   1.557   3.848   5.213
 6462SOL    HW120285   1.471   3.846   5.264
 6462SOL    HW220286   1.552   3.918   5.142
 6463SOL     OW20287   3.926   2.761   1.154
 6463SOL    HW120288   3.992   2.804   1.215
 6463SOL    HW220289   3.937   2.662   1.158
 6464SOL     OW20290   1.039   4.351   4.001
 6464SOL    HW120291   1.042   4.355   4.101
 6464SOL    HW220292   0.958   4.399   3.968
 6465SOL     OW20293   3.505   1.171   3.786
 6465SOL    HW120294   3.449   1.097   3.823
 6465SOL    HW220295   3.449   1.229   3.728
 6466SOL     OW20296   6.009   4.407   0.381
 6466SOL    HW120297   6.092   4.384   0.432
 6466SOL    HW220298   5.988   4.332   0.318
 6467SOL     OW20299   2.289   2.931   0.000
 6467SOL    HW120300   2.335   2.967   0.081
 6467SOL    HW220301   2.333   2.967   6.941
 6468SOL     OW20302   2.752   0.899   1.417
 6468SOL    HW120303   2.787   0.992   1.428
 6468SOL    HW220304   2.691   0.895   1.338
 6469SOL     OW20305   2.427   1.270   1.849
 6469SOL    HW120306   2.394   1.360   1.821
 6469SOL    HW220307   2.389   1.200   1.789
 6470SOL     OW20308   6.990   1.343   0.093
 6470SOL    HW120309   6.951   1.342   0.185
 6470SOL    HW220310   0.023   1.425   0.080
 6471SOL     OW20311   0.612   6.129   5.507
 6471SOL    HW120312   0.619   6.201   5.576
 6471SOL    HW220313   0.684   6.061   5.523
 6472SOL     OW20314   6.821   6.615   2.687
 6472SOL    HW120315   6.774   6.559   2.754
 6472SOL    HW220316   6.773   6.610   2.599
 6473SOL     OW20317   2.279   1.479   3.541
 6473SOL    HW120318   2.188   1.483   3.582
 6473SOL    HW220319   2.271   1.463   3.442
 6474SOL     OW20320   4.159   6.179   5.246
 6474SOL    HW120321   4.096   6.256   5.248
 6474SOL    HW220322   4.201   6.168   5.336
 6475SOL     OW20323   5.940   5.606   2.312
 6475SOL    HW120324   5.911   5.663   2.389
 6475SOL    HW220325   5.907   5.513   2.325
 6476SOL     OW20326   3.711   2.680   6.720
 6476SOL    HW120327   3.715   2.592   6.767
 6476SOL    HW220328   3.803   2.706   6.689
 6477SOL     OW20329   0.440   6.032   2.040
 6477SOL    HW120330   0.412   5.937   2.029
 6477SOL    HW220331   0.540   6.038   2.043
 6478SOL     OW20332   2.911   5.816   1.319
 6478SOL    HW120333   2.971   5.895   1.326
 6478SOL    HW220334   2.820   5.840   1.352
 6479SOL     OW20335   4.210   6.211   3.498
 6479SOL    HW120336   4.137   6.148   3.521
 6479SOL    HW220337   4.172   6.303   3.488
 6480SOL     OW20338   3.594   1.315   6.379
 6480SOL    HW120339   3.621   1.380   6.308
 6480SOL    HW220340   3.519   1.259   6.346
 6481SOL     OW20341   3.904   2.972   1.957
 6481SOL    HW120342   3.935   3.051   2.010
 6481SOL    HW220343   3.842   2.917   2.013
 6482SOL     OW20344   5.239   3.911   5.387
 6482SOL    HW120345   5.270   3.997   5.428
 6482SOL    HW220346   5.318   3.859   5.354
 6483SOL     OW20347   2.038   6.388   5.433
 6483SOL    HW120348   2.103   6.452   5.392
 6483SOL    HW220349   1.989   6.433   5.507
 6484SOL     OW20350   2.842   1.139   3.525
 6484SOL    HW120351   2.748   1.172   3.536
 6484SOL    HW220352   2.853   1.099   3.434
 6485SOL     OW20353   2.757   5.965   4.852
 6485SOL    HW120354   2.848   5.979   4.894
 6485SOL    HW220355   2.767   5.959   4.753
 6486SOL     OW20356   0.751   5.248   2.878
 6486SOL    HW120357   0.668   5.304   2.870
 6486SOL    HW220358   0.779   5.244   2.973
 6487SOL     OW20359   6.468   4.543   4.073
 6487SOL    HW120360   6.545   4.487   4.101
 6487SOL    HW220361   6.493   4.596   3.992
 6488SOL     OW20362   3.894   5.492   4.711
 6488SOL    HW120363   3.992   5.472   4.719
 6488SOL    HW220364   3.841   5.410   4.730
 6489SOL     OW20365   5.294   2.896   5.309
 6489SOL    HW120366   5.348   2.861   5.233
 6489SOL    HW220367   5.213   2.942   5.274
 6490SOL     OW20368   1.889   2.345   0.265
 6490SOL    HW120369   1.868   2.369   0.171
 6490SOL    HW220370   1.811   2.299   0.307
 6491SOL     OW20371   2.066   0.073   1.897
 6491SOL    HW120372   2.096   0.159   1.938
 6491SOL    HW220373   1.971   0.082   1.867
 6492SOL     OW20374   3.960   3.366   5.076
 6492SOL    HW120375   3.898   3.434   5.117
 6492SOL    HW220376   4.038   3.414   5.035
 6493SOL     OW20377   1.582   4.532   4.452
 6493SOL    HW120378   1.578   4.630   4.475
 6493SOL    HW220379   1.493   4.491   4.470
 6494SOL     OW20380   6.646   0.608   1.643
 6494SOL    HW120381   6.576   0.542   1.615
 6494SOL    HW220382   6.602   0.693   1.672
 6495SOL     OW20383   6.766   0.285   2.991
 6495SOL    HW120384   6.775   0.303   3.089
 6495SOL    HW220385   6.799   0.365   2.940
 6496SOL     OW20386   3.341   2.304   1.556
 6496SOL    HW120387   3.389   2.247   1.622
 6496SOL    HW220388   3.390   2.390   1.544
 6497SOL     OW20389   0.029   1.287   0.963
 6497SOL    HW120390   0.083   1.218   1.011
 6497SOL    HW220391   0.004   1.254   0.873
 6498SOL     OW20392   2.182   4.196   4.180
 6498SOL    HW120393   2.191   4.159   4.088
 6498SOL    HW220394   2.185   4.122   4.247
 6499SOL     OW20395   4.874   3.080   3.350
 6499SOL    HW120396   4.832   3.033   3.427
 6499SOL    HW220397   4.902   3.172   3.379
 6500SOL     OW20398   1.774   4.272   3.176
 6500SOL    HW120399   1.764   4.177   3.149
 6500SOL    HW220400   1.868   4.302   3.161
 6501SOL     OW20401   5.537   2.066   2.586
 6501SOL    HW120402   5.561   2.136   2.653
 6501SOL    HW220403   5.520   1.979   2.632
 6502SOL     OW20404   6.701   3.965   2.381
 6502SOL    HW120405   6.656   4.054   2.383
 6502SOL    HW220406   6.800   3.978   2.391
 6503SOL     OW20407   6.757   3.507   5.528
 6503SOL    HW120408   6.849   3.511   5.565
 6503SOL    HW220409   6.705   3.435   5.574
 6504SOL     OW20410   4.056   6.702   6.077
 6504SOL    HW120411   4.150   6.738   6.081
 6504SOL    HW220412   4.043   6.653   5.991
 6505SOL     OW20413   0.065   5.394   1.134
 6505SOL    HW120414   7.008   5.339   1.106
 6505SOL    HW220415   0.069   5.399   1.233
 6506SOL     OW20416   1.323   4.273   2.186
 6506SOL    HW120417   1.325   4.369   2.214
 6506SOL    HW220418   1.350   4.215   2.264
 6507SOL     OW20419   3.899   5.391   0.410
 6507SOL    HW120420   3.813   5.343   0.426
 6507SOL    HW220421   3.881   5.477   0.362
 6508SOL     OW20422   0.535   0.165   3.501
 6508SOL    HW120423   0.490   0.106   3.433
 6508SOL    HW220424   0.634   0.151   3.496
 6509SOL     OW20425   2.703   1.444   0.025
 6509SOL    HW120426   2.794   1.409   0.002
 6509SOL    HW220427   2.641   1.427   6.971
 6510SOL     OW20428   2.925   6.389   5.237
 6510SOL    HW120429   2.988   6.314   5.256
 6510SOL    HW220430   2.976   6.467   5.202
 6511SOL     OW20431   3.141   2.377   0.362
 6511SOL    HW120432   3.059   2.351   0.415
 6511SOL    HW220433   3.180   2.296   0.319
 6512SOL     OW20434   4.285   1.446   0.564
 6512SOL    HW120435   4.242   1.534   0.542
 6512SOL    HW220436   4.281   1.386   0.484
 6513SOL     OW20437   2.856   4.817   2.926
 6513SOL    HW120438   2.945   4.843   2.963
 6513SOL    HW220439   2.866   4.740   2.864
 6514SOL     OW20440   5.371   6.763   5.297
 6514SOL    HW120441   5.381   6.791   5.392
 6514SOL    HW220442   5.402   6.668   5.286
 6515SOL     OW20443   1.122   5.211   2.690
 6515SOL    HW120444   1.108   5.151   2.768
 6515SOL    HW220445   1.036   5.257   2.668
 6516SOL     OW20446   6.344   3.021   1.976
 6516SOL    HW120447   6.359   2.953   2.048
 6516SOL    HW220448   6.246   3.028   1.956
 6517SOL     OW20449   6.929   3.198   0.581
 6517SOL    HW120450   6.919   3.296   0.565
 6517SOL    HW220451   6.990   3.183   0.659
 6518SOL     OW20452   0.743   1.286   2.124
 6518SOL    HW120453   0.663   1.251   2.075
 6518SOL    HW220454   0.724   1.378   2.158
 6519SOL     OW20455   1.002   1.416   3.261
 6519SOL    HW120456   1.014   1.332   3.207
 6519SOL    HW220457   1.071   1.419   3.333
 6520SOL     OW20458   0.228   5.228   0.517
 6520SOL    HW120459   0.233   5.193   0.610
 6520SOL    HW220460   0.310   5.281   0.497
 6521SOL     OW20461   1.873   3.985   3.894
 6521SOL    HW120462   1.806   4.030   3.835
 6521SOL    HW220463   1.879   4.034   3.981
 6522SOL     OW20464   2.597   2.838   5.324
 6522SOL    HW120465   2.555   2.901   5.260
 6522SOL    HW220466   2.531   2.811   5.393
 6523SOL     OW20467   6.098   6.796   0.430
 6523SOL    HW120468   6.119   6.890   0.402
 6523SOL    HW220469   6.047   6.798   0.516
 6524SOL     OW20470   2.820   3.110   0.972
 6524SOL    HW120471   2.864   3.199   0.967
 6524SOL    HW220472   2.777   3.098   1.061
 6525SOL     OW20473   1.180   4.933   3.639
 6525SOL    HW120474   1.134   4.886   3.715
 6525SOL    HW220475   1.268   4.889   3.621
 6526SOL     OW20476   0.925   5.770   0.906
 6526SOL    HW120477   0.830   5.755   0.936
 6526SOL    HW220478   0.932   5.754   0.808
 6527SOL     OW20479   6.936   1.596   0.868
 6527SOL    HW120480   6.885   1.637   0.943
 6527SOL    HW220481   6.991   1.520   0.903
 6528SOL     OW20482   4.210   6.789   6.608
 6528SOL    HW120483   4.228   6.731   6.688
 6528SOL    HW220484   4.205   6.885   6.638
 6529SOL     OW20485   5.432   0.153   1.928
 6529SOL    HW120486   5.484   0.202   1.998
 6529SOL    HW220487   5.394   0.220   1.864
 6530SOL     OW20488   0.289   2.577   3.098
 6530SOL    HW120489   0.349   2.498   3.111
 6530SOL    HW220490   0.275   2.592   3.000
 6531SOL     OW20491   4.069   3.681   4.513
 6531SOL    HW120492   4.053   3.762   4.457
 6531SOL    HW220493   4.037   3.697   4.606
 6532SOL     OW20494   1.651   6.933   0.314
 6532SOL    HW120495   1.602   7.020   0.325
 6532SOL    HW220496   1.749   6.949   0.318
 6533SOL     OW20497   4.862   4.660   2.115
 6533SOL    HW120498   4.807   4.632   2.036
 6533SOL    HW220499   4.953   4.619   2.107
 6534SOL     OW20500   0.269   4.242   3.146
 6534SOL    HW120501   0.170   4.243   3.159
 6534SOL    HW220502   0.315   4.257   3.233
 6535SOL     OW20503   5.184   3.436   4.728
 6535SOL    HW120504   5.089   3.465   4.736
 6535SOL    HW220505   5.203   3.408   4.634
 6536SOL     OW20506   0.861   4.624   5.198
 6536SOL    HW120507   0.797   4.636   5.274
 6536SOL    HW220508   0.939   4.686   5.209
 6537SOL     OW20509   6.490   5.546   3.741
 6537SOL    HW120510   6.481   5.646   3.743
 6537SOL    HW220511   6.413   5.505   3.789
 6538SOL     OW20512   1.271   2.412   5.198
 6538SOL    HW120513   1.359   2.368   5.217
 6538SOL    HW220514   1.284   2.511   5.191
 6539SOL     OW20515   4.993   0.230   6.197
 6539SOL    HW120516   5.077   0.239   6.251
 6539SOL    HW220517   4.967   0.318   6.159
 6540SOL     OW20518   6.485   2.942   5.693
 6540SOL    HW120519   6.392   2.929   5.661
 6540SOL    HW220520   6.497   2.894   5.780
 6541SOL     OW20521   5.463   2.073   5.764
 6541SOL    HW120522   5.425   2.120   5.684
 6541SOL    HW220523   5.448   2.129   5.846
 6542SOL     OW20524   1.130   4.031   3.033
 6542SOL    HW120525   1.199   4.045   3.104
 6542SOL    HW220526   1.044   4.076   3.060
 6543SOL     OW20527   3.550   1.617   4.582
 6543SOL    HW120528   3.560   1.533   4.530
 6543SOL    HW220529   3.484   1.677   4.536
 6544SOL     OW20530   0.693   6.525   0.817
 6544SOL    HW120531   0.681   6.618   0.850
 6544SOL    HW220532   0.736   6.527   0.727
 6545SOL     OW20533   4.746   6.953   1.037
 6545SOL    HW120534   4.753   6.984   0.942
 6545SOL    HW220535   4.659   6.906   1.050
 6546SOL     OW20536   4.761   4.160   6.616
 6546SOL    HW120537   4.743   4.072   6.571
 6546SOL    HW220538   4.689   4.225   6.593
 6547SOL     OW20539   0.468   6.053   5.783
 6547SOL    HW120540   0.530   6.096   5.848
 6547SOL    HW220541   0.520   6.016   5.706
 6548SOL     OW20542   7.000   1.128   5.782
 6548SOL    HW120543   0.059   1.184   5.769
 6548SOL    HW220544   6.921   1.175   5.742
 6549SOL     OW20545   4.189   1.575   2.419
 6549SOL    HW120546   4.280   1.533   2.429
 6549SOL    HW220547   4.147   1.586   2.509
 6550SOL     OW20548   6.565   6.465   3.114
 6550SOL    HW120549   6.481   6.417   3.137
 6550SOL    HW220550   6.565   6.556   3.156
 6551SOL     OW20551   2.842   3.819   0.848
 6551SOL    HW120552   2.850   3.877   0.930
 6551SOL    HW220553   2.921   3.759   0.842
 6552SOL     OW20554   1.933   5.141   0.126
 6552SOL    HW120555   1.891   5.104   0.043
 6552SOL    HW220556   1.982   5.225   0.104
 6553SOL     OW20557   0.381   1.357   3.165
 6553SOL    HW120558   0.422   1.439   3.204
 6553SOL    HW220559   0.281   1.365   3.168
 6554SOL     OW20560   1.405   2.339   4.072
 6554SOL    HW120561   1.485   2.280   4.085
 6554SOL    HW220562   1.417   2.423   4.125
 6555SOL     OW20563   6.969   3.859   3.805
 6555SOL    HW120564   6.992   3.921   3.731
 6555SOL    HW220565   6.993   3.901   3.893
 6556SOL     OW20566   5.151   3.186   2.545
 6556SOL    HW120567   5.120   3.186   2.640
 6556SOL    HW220568   5.123   3.101   2.501
 6557SOL     OW20569   1.761   0.576   2.345
 6557SOL    HW120570   1.736   0.549   2.438
 6557SOL    HW220571   1.860   0.595   2.342
 6558SOL     OW20572   5.529   6.421   6.354
 6558SOL    HW120573   5.493   6.445   6.444
 6558SOL    HW220574   5.475   6.466   6.283
 6559SOL     OW20575   0.114   2.423   6.270
 6559SOL    HW120576   0.196   2.404   6.323
 6559SOL    HW220577   0.076   2.511   6.298
 6560SOL     OW20578   5.933   4.678   0.339
 6560SOL    HW120579   6.009   4.741   0.325
 6560SOL    HW220580   5.968   4.585   0.351
 6561SOL     OW20581   3.638   4.249   6.804
 6561SOL    HW120582   3.682   4.165   6.837
 6561SOL    HW220583   3.664   4.325   6.863
 6562SOL     OW20584   5.497   2.419   1.115
 6562SOL    HW120585   5.516   2.325   1.143
 6562SOL    HW220586   5.417   2.453   1.165
 6563SOL     OW20587   6.399   4.984   5.450
 6563SOL    HW120588   6.474   4.922   5.471
 6563SOL    HW220589   6.336   4.988   5.528
 6564SOL     OW20590   5.873   3.743   3.034
 6564SOL    HW120591   5.790   3.712   3.080
 6564SOL    HW220592   5.950   3.741   3.098
 6565SOL     OW20593   5.302   0.261   2.855
 6565SOL    HW120594   5.373   0.293   2.792
 6565SOL    HW220595   5.335   0.181   2.904
 6566SOL     OW20596   4.951   6.021   3.476
 6566SOL    HW120597   4.962   5.998   3.379
 6566SOL    HW220598   4.988   5.946   3.531
 6567SOL     OW20599   4.088   0.304   1.957
 6567SOL    HW120600   4.043   0.314   1.868
 6567SOL    HW220601   4.035   0.241   2.014
 6568SOL     OW20602   4.222   1.683   0.865
 6568SOL    HW120603   4.310   1.675   0.912
 6568SOL    HW220604   4.189   1.591   0.841
 6569SOL     OW20605   0.724   4.517   4.505
 6569SOL    HW120606   0.681   4.466   4.580
 6569SOL    HW220607   0.687   4.485   4.418
 6570SOL     OW20608   4.590   0.043   2.548
 6570SOL    HW120609   4.678   0.081   2.520
 6570SOL    HW220610   4.516   0.103   2.518
 6571SOL     OW20611   3.484   5.861   3.158
 6571SOL    HW120612   3.462   5.919   3.079
 6571SOL    HW220613   3.507   5.769   3.127
 6572SOL     OW20614   1.596   5.926   4.209
 6572SOL    HW120615   1.524   5.937   4.277
 6572SOL    HW220616   1.557   5.891   4.124
 6573SOL     OW20617   0.954   1.840   3.073
 6573SOL    HW120618   0.934   1.931   3.038
 6573SOL    HW220619   1.006   1.788   3.005
 6574SOL     OW20620   1.822   5.125   2.348
 6574SOL    HW120621   1.804   5.216   2.385
 6574SOL    HW220622   1.847   5.132   2.252
 6575SOL     OW20623   0.110   1.447   3.217
 6575SOL    HW120624   0.125   1.377   3.286
 6575SOL    HW220625   0.056   1.409   3.142
 6576SOL     OW20626   4.812   6.084   1.147
 6576SOL    HW120627   4.873   6.022   1.197
 6576SOL    HW220628   4.773   6.036   1.068
 6577SOL     OW20629   3.371   1.244   4.095
 6577SOL    HW120630   3.354   1.146   4.094
 6577SOL    HW220631   3.459   1.263   4.051
 6578SOL     OW20632   1.244   4.970   0.992
 6578SOL    HW120633   1.258   5.060   1.034
 6578SOL    HW220634   1.237   4.900   1.064
 6579SOL     OW20635   6.739   0.653   4.091
 6579SOL    HW120636   6.796   0.685   4.167
 6579SOL    HW220637   6.655   0.707   4.086
 6580SOL     OW20638   2.069   2.043   0.656
 6580SOL    HW120639   2.119   1.964   0.621
 6580SOL    HW220640   2.082   2.122   0.595
 6581SOL     OW20641   0.637   2.040   1.375
 6581SOL    HW120642   0.589   1.953   1.367
 6581SOL    HW220643   0.619   2.081   1.464
 6582SOL     OW20644   6.143   1.352   2.853
 6582SOL    HW120645   6.092   1.278   2.809
 6582SOL    HW220646   6.236   1.353   2.817
 6583SOL     OW20647   3.728   5.285   0.118
 6583SOL    HW120648   3.701   5.306   0.212
 6583SOL    HW220649   3.677   5.205   0.086
 6584SOL     OW20650   4.285   2.619   6.170
 6584SOL    HW120651   4.278   2.713   6.137
 6584SOL    HW220652   4.241   2.611   6.259
 6585SOL     OW20653   5.542   6.845   1.872
 6585SOL    HW120654   5.618   6.779   1.871
 6585SOL    HW220655   5.562   6.920   1.809
 6586SOL     OW20656   0.237   1.195   6.930
 6586SOL    HW120657   0.252   1.106   6.972
 6586SOL    HW220658   0.258   1.267   6.995
 6587SOL     OW20659   2.248   4.605   5.308
 6587SOL    HW120660   2.238   4.594   5.209
 6587SOL    HW220661   2.238   4.517   5.353
 6588SOL     OW20662   0.123   2.391   0.734
 6588SOL    HW120663   0.105   2.405   0.831
 6588SOL    HW220664   0.041   2.414   0.681
 6589SOL     OW20665   6.805   0.050   2.625
 6589SOL    HW120666   6.882   0.113   2.638
 6589SOL    HW220667   6.743   0.087   2.556
 6590SOL     OW20668   1.262   6.446   4.403
 6590SOL    HW120669   1.342   6.429   4.346
 6590SOL    HW220670   1.255   6.375   4.473
 6591SOL     OW20671   6.246   4.462   3.425
 6591SOL    HW120672   6.209   4.521   3.497
 6591SOL    HW220673   6.244   4.367   3.455
 6592SOL     OW20674   6.245   6.969   3.821
 6592SOL    HW120675   6.257   7.009   3.730
 6592SOL    HW220676   6.288   6.878   3.822
 6593SOL     OW20677   1.653   1.289   2.012
 6593SOL    HW120678   1.564   1.287   2.058
 6593SOL    HW220679   1.652   1.360   1.942
 6594SOL     OW20680   5.141   0.276   6.609
 6594SOL    HW120681   5.167   0.283   6.513
 6594SOL    HW220682   5.071   0.205   6.620
 6595SOL     OW20683   0.899   1.718   5.162
 6595SOL    HW120684   0.869   1.647   5.099
 6595SOL    HW220685   0.844   1.800   5.149
 6596SOL     OW20686   5.189   0.303   2.585
 6596SOL    HW120687   5.212   0.295   2.682
 6596SOL    HW220688   5.147   0.218   2.553
 6597SOL     OW20689   0.772   4.422   1.872
 6597SOL    HW120690   0.732   4.352   1.813
 6597SOL    HW220691   0.868   4.401   1.889
 6598SOL     OW20692   1.805   4.344   4.458
 6598SOL    HW120693   1.760   4.410   4.397
 6598SOL    HW220694   1.899   4.372   4.474
 6599SOL     OW20695   6.906   5.391   6.274
 6599SOL    HW120696   6.814   5.371   6.242
 6599SOL    HW220697   6.922   5.490   6.271
 6600SOL     OW20698   4.645   0.402   5.255
 6600SOL    HW120699   4.707   0.466   5.210
 6600SOL    HW220700   4.622   0.327   5.193
 6601SOL     OW20701   1.432   2.544   1.647
 6601SOL    HW120702   1.424   2.485   1.728
 6601SOL    HW220703   1.342   2.580   1.623
 6602SOL     OW20704   0.948   5.728   1.570
 6602SOL    HW120705   1.011   5.660   1.535
 6602SOL    HW220706   0.925   5.707   1.665
 6603SOL     OW20707   0.178   3.914   2.542
 6603SOL    HW120708   0.212   3.820   2.540
 6603SOL    HW220709   0.251   3.976   2.571
 6604SOL     OW20710   1.952   6.185   3.285
 6604SOL    HW120711   1.864   6.213   3.323
 6604SOL    HW220712   2.021   6.182   3.358
 6605SOL     OW20713   0.205   5.879   1.206
 6605SOL    HW120714   0.272   5.951   1.190
 6605SOL    HW220715   0.218   5.806   1.138
 6606SOL     OW20716   1.994   2.981   2.915
 6606SOL    HW120717   2.093   2.981   2.901
 6606SOL    HW220718   1.968   2.901   2.969
 6607SOL     OW20719   5.635   3.830   3.488
 6607SOL    HW120720   5.538   3.838   3.512
 6607SOL    HW220721   5.667   3.737   3.507
 6608SOL     OW20722   1.297   6.127   6.099
 6608SOL    HW120723   1.205   6.164   6.107
 6608SOL    HW220724   1.364   6.198   6.121
 6609SOL     OW20725   4.583   1.372   6.639
 6609SOL    HW120726   4.502   1.395   6.693
 6609SOL    HW220727   4.555   1.328   6.554
 6610SOL     OW20728   2.857   5.847   1.032
 6610SOL    HW120729   2.886   5.873   1.124
 6610SOL    HW220730   2.777   5.899   1.006
 6611SOL     OW20731   3.489   1.508   4.856
 6611SOL    HW120732   3.395   1.540   4.847
 6611SOL    HW220733   3.546   1.554   4.786
 6612SOL     OW20734   0.189   0.273   6.632
 6612SOL    HW120735   0.277   0.226   6.631
 6612SOL    HW220736   0.198   0.359   6.682
 6613SOL     OW20737   4.569   0.038   0.529
 6613SOL    HW120738   4.549   7.014   0.616
 6613SOL    HW220739   4.582   0.135   0.546
 6614SOL     OW20740   4.125   5.014   0.793
 6614SOL    HW120741   4.056   4.942   0.788
 6614SOL    HW220742   4.112   5.078   0.717
 6615SOL     OW20743   3.688   5.548   5.501
 6615SOL    HW120744   3.616   5.479   5.510
 6615SOL    HW220745   3.671   5.603   5.419
 6616SOL     OW20746   3.747   1.743   6.380
 6616SOL    HW120747   3.799   1.825   6.400
 6616SOL    HW220748   3.809   1.665   6.372
 6617SOL     OW20749   3.538   0.645   3.872
 6617SOL    HW120750   3.521   0.572   3.806
 6617SOL    HW220751   3.622   0.627   3.922
 6618SOL     OW20752   6.065   2.656   4.062
 6618SOL    HW120753   6.149   2.650   4.116
 6618SOL    HW220754   6.023   2.565   4.057
 6619SOL     OW20755   4.988   5.659   4.122
 6619SOL    HW120756   4.977   5.650   4.221
 6619SOL    HW220757   5.009   5.754   4.099
 6620SOL     OW20758   1.038   2.921   3.313
 6620SOL    HW120759   1.013   2.839   3.261
 6620SOL    HW220760   0.987   2.922   3.400
 6621SOL     OW20761   3.656   3.425   4.274
 6621SOL    HW120762   3.677   3.337   4.231
 6621SOL    HW220763   3.719   3.442   4.349
 6622SOL     OW20764   0.881   5.143   1.004
 6622SOL    HW120765   0.931   5.216   1.050
 6622SOL    HW220766   0.822   5.181   0.933
 6623SOL     OW20767   3.036   4.032   5.011
 6623SOL    HW120768   3.048   4.046   4.913
 6623SOL    HW220769   3.008   3.938   5.028
 6624SOL     OW20770   2.404   1.700   3.013
 6624SOL    HW120771   2.493   1.655   3.007
 6624SOL    HW220772   2.364   1.707   2.922
 6625SOL     OW20773   5.743   4.212   5.828
 6625SOL    HW120774   5.833   4.215   5.870
 6625SOL    HW220775   5.674   4.190   5.897
 6626SOL     OW20776   3.070   6.094   5.200
 6626SOL    HW120777   3.064   5.995   5.213
 6626SOL    HW220778   3.077   6.115   5.103
 6627SOL     OW20779   2.076   6.264   4.453
 6627SOL    HW120780   2.083   6.203   4.374
 6627SOL    HW220781   1.980   6.273   4.479
 6628SOL     OW20782   3.682   5.782   4.743
 6628SOL    HW120783   3.741   5.770   4.823
 6628SOL    HW220784   3.718   5.730   4.666
 6629SOL     OW20785   5.124   6.177   6.166
 6629SOL    HW120786   5.128   6.232   6.249
 6629SOL    HW220787   5.169   6.089   6.182
 6630SOL     OW20788   1.895   0.885   0.135
 6630SOL    HW120789   1.988   0.904   0.167
 6630SOL    HW220790   1.881   0.930   0.047
 6631SOL     OW20791   1.741   3.798   6.194
 6631SOL    HW120792   1.681   3.859   6.142
 6631SOL    HW220793   1.714   3.703   6.176
 6632SOL     OW20794   1.777   0.036   0.598
 6632SOL    HW120795   1.721   0.071   0.523
 6632SOL    HW220796   1.787   6.959   0.589
 6633SOL     OW20797   3.770   5.420   5.811
 6633SOL    HW120798   3.788   5.496   5.873
 6633SOL    HW220799   3.729   5.456   5.727
 6634SOL     OW20800   3.443   1.765   3.648
 6634SOL    HW120801   3.494   1.851   3.658
 6634SOL    HW220802   3.506   1.688   3.651
 6635SOL     OW20803   5.039   4.815   4.555
 6635SOL    HW120804   5.085   4.741   4.506
 6635SOL    HW220805   4.949   4.830   4.515
 6636SOL     OW20806   3.912   0.768   0.060
 6636SOL    HW120807   3.981   0.767   0.133
 6636SOL    HW220808   3.821   0.780   0.100
 6637SOL     OW20809   0.465   2.183   0.814
 6637SOL    HW120810   0.427   2.094   0.790
 6637SOL    HW220811   0.562   2.187   0.786
 6638SOL     OW20812   2.934   3.420   4.018
 6638SOL    HW120813   2.849   3.396   3.973
 6638SOL    HW220814   3.004   3.351   3.998
 6639SOL     OW20815   4.704   2.855   0.890
 6639SOL    HW120816   4.667   2.860   0.983
 6639SOL    HW220817   4.751   2.940   0.868
 6640SOL     OW20818   1.715   4.031   4.954
 6640SOL    HW120819   1.708   3.933   4.935
 6640SOL    HW220820   1.788   4.071   4.898
 6641SOL     OW20821   5.488   2.108   1.061
 6641SOL    HW120822   5.473   2.027   1.119
 6641SOL    HW220823   5.551   2.085   0.988
 6642SOL     OW20824   1.889   5.734   0.292
 6642SOL    HW120825   1.973   5.690   0.258
 6642SOL    HW220826   1.810   5.678   0.267
 6643SOL     OW20827   3.682   5.982   6.164
 6643SOL    HW120828   3.629   5.905   6.128
 6643SOL    HW220829   3.770   5.986   6.118
 6644SOL     OW20830   2.323   6.711   3.815
 6644SOL    HW120831   2.376   6.663   3.885
 6644SOL    HW220832   2.313   6.807   3.840
 6645SOL     OW20833   5.968   2.187   6.928
 6645SOL    HW120834   5.944   2.101   6.883
 6645SOL    HW220835   6.066   2.187   6.950
 6646SOL     OW20836   4.206   0.032   5.462
 6646SOL    HW120837   4.263   6.985   5.507
 6646SOL    HW220838   4.261   0.113   5.443
 6647SOL     OW20839   3.875   4.819   0.786
 6647SOL    HW120840   3.803   4.751   0.798
 6647SOL    HW220841   3.839   4.897   0.735
 6648SOL     OW20842   3.148   6.670   5.370
 6648SOL    HW120843   3.177   6.724   5.291
 6648SOL    HW220844   3.219   6.603   5.393
 6649SOL     OW20845   5.084   2.748   6.725
 6649SOL    HW120846   5.063   2.671   6.664
 6649SOL    HW220847   5.126   2.821   6.671
 6650SOL     OW20848   2.125   1.673   4.463
 6650SOL    HW120849   2.090   1.590   4.507
 6650SOL    HW220850   2.121   1.749   4.527
 6651SOL     OW20851   6.714   1.860   6.286
 6651SOL    HW120852   6.615   1.868   6.279
 6651SOL    HW220853   6.737   1.790   6.353
 6652SOL     OW20854   6.564   4.146   0.228
 6652SOL    HW120855   6.656   4.158   0.264
 6652SOL    HW220856   6.549   4.212   0.154
 6653SOL     OW20857   5.666   4.757   0.328
 6653SOL    HW120858   5.744   4.696   0.341
 6653SOL    HW220859   5.667   4.795   0.235
 6654SOL     OW20860   6.585   3.994   3.400
 6654SOL    HW120861   6.619   4.025   3.311
 6654SOL    HW220862   6.545   3.903   3.391
 6655SOL     OW20863   0.309   5.173   1.751
 6655SOL    HW120864   0.288   5.209   1.842
 6655SOL    HW220865   0.407   5.154   1.744
 6656SOL     OW20866   4.287   1.729   3.619
 6656SOL    HW120867   4.220   1.800   3.641
 6656SOL    HW220868   4.247   1.665   3.554
 6657SOL     OW20869   5.952   1.991   3.659
 6657SOL    HW120870   5.859   1.954   3.667
 6657SOL    HW220871   5.953   2.064   3.590
 6658SOL     OW20872   6.747   5.654   5.439
 6658SOL    HW120873   6.656   5.666   5.401
 6658SOL    HW220874   6.812   5.714   5.392
 6659SOL     OW20875   0.883   4.950   1.866
 6659SOL    HW120876   0.854   5.045   1.882
 6659SOL    HW220877   0.824   4.889   1.918
 6660SOL     OW20878   6.545   6.396   4.033
 6660SOL    HW120879   6.603   6.467   4.073
 6660SOL    HW220880   6.452   6.405   4.069
 6661SOL     OW20881   3.932   5.902   4.073
 6661SOL    HW120882   4.003   5.963   4.040
 6661SOL    HW220883   3.971   5.813   4.094
 6662SOL     OW20884   4.077   6.495   2.691
 6662SOL    HW120885   4.172   6.526   2.700
 6662SOL    HW220886   4.051   6.496   2.594
 6663SOL     OW20887   0.756   3.908   6.006
 6663SOL    HW120888   0.829   3.975   5.986
 6663SOL    HW220889   0.668   3.954   6.003
 6664SOL     OW20890   3.196   0.073   1.104
 6664SOL    HW120891   3.254   0.017   1.164
 6664SOL    HW220892   3.165   0.154   1.154
 6665SOL     OW20893   2.557   0.661   6.218
 6665SOL    HW120894   2.481   0.720   6.242
 6665SOL    HW220895   2.604   0.632   6.302
 6666SOL     OW20896   4.092   6.397   5.620
 6666SOL    HW120897   4.140   6.471   5.574
 6666SOL    HW220898   4.152   6.317   5.626
 6667SOL     OW20899   0.972   6.069   6.590
 6667SOL    HW120900   0.873   6.077   6.587
 6667SOL    HW220901   0.999   5.999   6.656
 6668SOL     OW20902   6.746   4.608   0.537
 6668SOL    HW120903   6.786   4.547   0.468
 6668SOL    HW220904   6.810   4.681   0.559
 6669SOL     OW20905   1.053   1.948   3.322
 6669SOL    HW120906   1.018   1.932   3.229
 6669SOL    HW220907   1.116   1.874   3.347
 6670SOL     OW20908   4.058   2.819   0.830
 6670SOL    HW120909   4.055   2.756   0.752
 6670SOL    HW220910   4.134   2.793   0.890
 6671SOL     OW20911   4.173   5.385   0.388
 6671SOL    HW120912   4.086   5.364   0.432
 6671SOL    HW220913   4.165   5.470   0.336
 6672SOL     OW20914   1.562   2.939   1.688
 6672SOL    HW120915   1.632   2.891   1.741
 6672SOL    HW220916   1.557   3.034   1.716
 6673SOL     OW20917   6.514   3.290   3.655
 6673SOL    HW120918   6.488   3.194   3.666
 6673SOL    HW220919   6.493   3.320   3.562
 6674SOL     OW20920   0.475   1.464   0.192
 6674SOL    HW120921   0.446   1.465   0.287
 6674SOL    HW220922   0.395   1.472   0.132
 6675SOL     OW20923   4.749   0.861   6.268
 6675SOL    HW120924   4.775   0.783   6.211
 6675SOL    HW220925   4.832   0.906   6.302
 6676SOL     OW20926   1.307   4.337   4.264
 6676SOL    HW120927   1.332   4.424   4.222
 6676SOL    HW220928   1.209   4.336   4.282
 6677SOL     OW20929   0.922   1.088   6.651
 6677SOL    HW120930   0.980   1.121   6.726
 6677SOL    HW220931   0.827   1.114   6.670
 6678SOL     OW20932   2.520   4.335   6.065
 6678SOL    HW120933   2.541   4.245   6.103
 6678SOL    HW220934   2.543   4.336   5.968
 6679SOL     OW20935   1.435   1.215   3.788
 6679SOL    HW120936   1.522   1.198   3.834
 6679SOL    HW220937   1.380   1.277   3.844
 6680SOL     OW20938   6.230   6.679   1.407
 6680SOL    HW120939   6.283   6.676   1.491
 6680SOL    HW220940   6.217   6.774   1.379
 6681SOL     OW20941   3.451   5.877   1.697
 6681SOL    HW120942   3.419   5.951   1.757
 6681SOL    HW220943   3.380   5.854   1.631
 6682SOL     OW20944   3.486   5.650   5.717
 6682SOL    HW120945   3.428   5.569   5.731
 6682SOL    HW220946   3.569   5.623   5.667
 6683SOL     OW20947   6.737   4.452   6.254
 6683SOL    HW120948   6.734   4.473   6.157
 6683SOL    HW220949   6.830   4.465   6.288
 6684SOL     OW20950   3.337   5.470   0.236
 6684SOL    HW120951   3.384   5.491   0.151
 6684SOL    HW220952   3.350   5.545   0.301
 6685SOL     OW20953   5.136   3.071   6.947
 6685SOL    HW120954   5.059   3.094   7.008
 6685SOL    HW220955   5.126   3.122   6.862
 6686SOL     OW20956   5.116   5.284   4.192
 6686SOL    HW120957   5.190   5.351   4.203
 6686SOL    HW220958   5.053   5.316   4.121
 6687SOL     OW20959   6.466   2.005   1.820
 6687SOL    HW120960   6.459   2.005   1.721
 6687SOL    HW220961   6.444   2.096   1.855
 6688SOL     OW20962   4.552   4.779   0.691
 6688SOL    HW120963   4.596   4.818   0.772
 6688SOL    HW220964   4.612   4.709   0.651
 6689SOL     OW20965   2.119   4.813   5.803
 6689SOL    HW120966   2.116   4.808   5.703
 6689SOL    HW220967   2.126   4.720   5.841
 6690SOL     OW20968   0.569   6.905   6.120
 6690SOL    HW120969   0.495   6.958   6.078
 6690SOL    HW220970   0.605   6.954   6.199
 6691SOL     OW20971   3.124   2.164   2.467
 6691SOL    HW120972   3.198   2.231   2.465
 6691SOL    HW220973   3.142   2.092   2.400
 6692SOL     OW20974   4.228   5.446   2.147
 6692SOL    HW120975   4.155   5.394   2.192
 6692SOL    HW220976   4.305   5.458   2.211
 6693SOL     OW20977   3.707   1.787   4.732
 6693SOL    HW120978   3.642   1.803   4.806
 6693SOL    HW220979   3.662   1.734   4.659
 6694SOL     OW20980   3.377   4.054   1.786
 6694SOL    HW120981   3.371   3.990   1.710
 6694SOL    HW220982   3.306   4.123   1.778
 6695SOL     OW20983   2.380   1.997   0.227
 6695SOL    HW120984   2.461   1.963   0.181
 6695SOL    HW220985   2.317   2.036   0.160
 6696SOL     OW20986   4.155   3.423   4.591
 6696SOL    HW120987   4.112   3.348   4.542
 6696SOL    HW220988   4.150   3.506   4.535
 6697SOL     OW20989   4.315   2.378   2.296
 6697SOL    HW120990   4.350   2.383   2.389
 6697SOL    HW220991   4.298   2.470   2.261
 6698SOL     OW20992   3.321   4.128   1.518
 6698SOL    HW120993   3.315   4.037   1.477
 6698SOL    HW220994   3.417   4.149   1.539
 6699SOL     OW20995   1.195   4.097   5.690
 6699SOL    HW120996   1.251   4.131   5.765
 6699SOL    HW220997   1.252   4.084   5.609
 6700SOL     OW20998   5.583   0.359   0.070
 6700SOL    HW120999   5.612   0.271   0.031
 6700SOL    HW221000   5.625   0.371   0.159
 6701SOL     OW21001   6.302   0.205   1.130
 6701SOL    HW121002   6.233   0.137   1.104
 6701SOL    HW221003   6.369   0.162   1.191
 6702SOL     OW21004   3.299   2.738   1.234
 6702SOL    HW121005   3.315   2.830   1.268
 6702SOL    HW221006   3.200   2.720   1.233
 6703SOL     OW21007   0.172   1.186   0.415
 6703SOL    HW121008   0.163   1.283   0.435
 6703SOL    HW221009   0.088   1.154   0.369
 6704SOL     OW21010   3.078   7.021   6.234
 6704SOL    HW121011   3.054   6.933   6.192
 6704SOL    HW221012   3.094   0.066   6.162
 6705SOL     OW21013   6.806   4.338   2.273
 6705SOL    HW121014   6.747   4.270   2.229
 6705SOL    HW221015   6.829   4.308   2.365
 6706SOL     OW21016   0.384   6.544   1.540
 6706SOL    HW121017   0.301   6.489   1.548
 6706SOL    HW221018   0.416   6.542   1.445
 6707SOL     OW21019   5.062   1.270   2.210
 6707SOL    HW121020   5.099   1.206   2.277
 6707SOL    HW221021   4.991   1.225   2.156
 6708SOL     OW21022   0.731   3.728   1.077
 6708SOL    HW121023   0.728   3.809   1.136
 6708SOL    HW221024   0.715   3.755   0.982
 6709SOL     OW21025   1.929   4.081   2.375
 6709SOL    HW121026   1.857   4.012   2.365
 6709SOL    HW221027   1.981   4.089   2.290
 6710SOL     OW21028   5.199   1.757   0.999
 6710SOL    HW121029   5.119   1.740   1.056
 6710SOL    HW221030   5.182   1.835   0.939
 6711SOL     OW21031   3.638   6.344   6.577
 6711SOL    HW121032   3.625   6.427   6.523
 6711SOL    HW221033   3.709   6.287   6.534
 6712SOL     OW21034   5.750   3.812   1.726
 6712SOL    HW121035   5.739   3.737   1.792
 6712SOL    HW221036   5.675   3.809   1.660
 6713SOL     OW21037   1.489   5.197   4.978
 6713SOL    HW121038   1.574   5.241   5.008
 6713SOL    HW221039   1.434   5.263   4.927
 6714SOL     OW21040   4.792   1.355   1.181
 6714SOL    HW121041   4.720   1.421   1.202
 6714SOL    HW221042   4.858   1.395   1.118
 6715SOL     OW21043   1.527   0.339   6.980
 6715SOL    HW121044   1.437   0.318   6.943
 6715SOL    HW221045   1.535   0.302   0.050
 6716SOL     OW21046   0.134   6.074   2.478
 6716SOL    HW121047   0.212   6.047   2.421
 6716SOL    HW221048   0.130   6.174   2.483
 6717SOL     OW21049   5.621   1.967   5.396
 6717SOL    HW121050   5.580   2.006   5.479
 6717SOL    HW221051   5.686   2.033   5.358
 6718SOL     OW21052   3.841   1.050   1.417
 6718SOL    HW121053   3.939   1.044   1.437
 6718SOL    HW221054   3.803   1.131   1.463
 6719SOL     OW21055   2.106   1.109   0.325
 6719SOL    HW121056   2.205   1.126   0.318
 6719SOL    HW221057   2.058   1.168   0.260
 6720SOL     OW21058   1.668   0.685   6.191
 6720SOL    HW121059   1.626   0.619   6.128
 6720SOL    HW221060   1.681   0.771   6.143
 6721SOL     OW21061   6.079   0.856   0.676
 6721SOL    HW121062   6.053   0.790   0.605
 6721SOL    HW221063   6.005   0.862   0.744
 6722SOL     OW21064   5.534   3.403   6.849
 6722SOL    HW121065   5.586   3.475   6.894
 6722SOL    HW221066   5.437   3.414   6.870
 6723SOL     OW21067   0.914   2.390   5.719
 6723SOL    HW121068   0.981   2.430   5.657
 6723SOL    HW221069   0.942   2.406   5.814
 6724SOL     OW21070   2.082   3.448   4.762
 6724SOL    HW121071   2.146   3.465   4.837
 6724SOL    HW221072   2.061   3.350   4.758
 6725SOL     OW21073   5.531   2.569   3.352
 6725SOL    HW121074   5.506   2.494   3.414
 6725SOL    HW221075   5.571   2.530   3.268
 6726SOL     OW21076   0.626   0.387   5.201
 6726SOL    HW121077   0.640   0.480   5.167
 6726SOL    HW221078   0.656   0.321   5.131
 6727SOL     OW21079   1.365   5.146   5.408
 6727SOL    HW121080   1.333   5.083   5.478
 6727SOL    HW221081   1.409   5.094   5.335
 6728SOL     OW21082   3.463   1.780   3.058
 6728SOL    HW121083   3.464   1.784   2.958
 6728SOL    HW221084   3.443   1.871   3.094
 6729SOL     OW21085   4.396   1.168   2.414
 6729SOL    HW121086   4.316   1.113   2.434
 6729SOL    HW221087   4.439   1.136   2.329
 6730SOL     OW21088   0.579   0.915   1.202
 6730SOL    HW121089   0.620   0.969   1.128
 6730SOL    HW221090   0.592   0.818   1.184
 6731SOL     OW21091   3.573   0.160   6.105
 6731SOL    HW121092   3.631   0.110   6.041
 6731SOL    HW221093   3.500   0.100   6.140
 6732SOL     OW21094   6.866   5.596   4.976
 6732SOL    HW121095   6.795   5.528   4.958
 6732SOL    HW221096   6.946   5.576   4.920
 6733SOL     OW21097   4.844   4.934   6.204
 6733SOL    HW121098   4.885   4.857   6.253
 6733SOL    HW221099   4.898   4.954   6.123
 6734SOL     OW21100   6.461   2.164   4.355
 6734SOL    HW121101   6.510   2.166   4.442
 6734SOL    HW221102   6.493   2.087   4.301
 6735SOL     OW21103   6.378   2.773   3.157
 6735SOL    HW121104   6.302   2.749   3.097
 6735SOL    HW221105   6.464   2.762   3.108
 6736SOL     OW21106   3.470   3.573   0.622
 6736SOL    HW121107   3.540   3.564   0.693
 6736SOL    HW221108   3.513   3.586   0.533
 6737SOL     OW21109   6.918   3.415   0.419
 6737SOL    HW121110   6.933   3.352   0.343
 6737SOL    HW221111   6.968   3.500   0.401
 6738SOL     OW21112   1.254   5.751   3.768
 6738SOL    HW121113   1.335   5.758   3.710
 6738SOL    HW221114   1.194   5.829   3.751
 6739SOL     OW21115   0.099   0.021   4.701
 6739SOL    HW121116   0.094   0.010   4.801
 6739SOL    HW221117   0.047   6.970   4.657
 6740SOL     OW21118   0.731   6.655   3.086
 6740SOL    HW121119   0.699   6.688   2.998
 6740SOL    HW221120   0.781   6.727   3.133
 6741SOL     OW21121   3.882   1.784   6.726
 6741SOL    HW121122   3.967   1.830   6.700
 6741SOL    HW221123   3.875   1.783   6.826
 6742SOL     OW21124   5.547   4.689   3.755
 6742SOL    HW121125   5.506   4.697   3.664
 6742SOL    HW221126   5.475   4.676   3.823
 6743SOL     OW21127   3.997   3.997   0.836
 6743SOL    HW121128   3.997   3.897   0.830
 6743SOL    HW221129   4.023   4.036   0.748
 6744SOL     OW21130   0.095   6.507   6.069
 6744SOL    HW121131   0.062   6.501   5.975
 6744SOL    HW221132   0.121   6.601   6.089
 6745SOL     OW21133   6.989   4.595   5.253
 6745SOL    HW121134   6.986   4.570   5.157
 6745SOL    HW221135   6.977   4.514   5.309
 6746SOL     OW21136   0.954   2.536   2.450
 6746SOL    HW121137   0.985   2.463   2.512
 6746SOL    HW221138   1.031   2.596   2.427
 6747SOL     OW21139   1.739   6.135   5.872
 6747SOL    HW121140   1.677   6.065   5.838
 6747SOL    HW221141   1.811   6.150   5.805
 6748SOL     OW21142   1.956   1.167   4.607
 6748SOL    HW121143   1.968   1.124   4.697
 6748SOL    HW221144   1.949   1.266   4.618
 6749SOL     OW21145   3.759   5.229   1.365
 6749SOL    HW121146   3.796   5.206   1.275
 6749SOL    HW221147   3.717   5.147   1.405
 6750SOL     OW21148   3.576   1.205   5.136
 6750SOL    HW121149   3.585   1.231   5.040
 6750SOL    HW221150   3.489   1.238   5.172
 6751SOL     OW21151   5.126   6.922   4.304
 6751SOL    HW121152   5.092   7.013   4.278
 6751SOL    HW221153   5.223   6.928   4.327
 6752SOL     OW21154   2.197   5.212   1.954
 6752SOL    HW121155   2.119   5.165   1.912
 6752SOL    HW221156   2.174   5.237   2.048
 6753SOL     OW21157   3.707   3.240   5.832
 6753SOL    HW121158   3.727   3.161   5.774
 6753SOL    HW221159   3.733   3.220   5.926
 6754SOL     OW21160   6.670   1.775   1.001
 6754SOL    HW121161   6.696   1.689   1.044
 6754SOL    HW221162   6.625   1.834   1.068
 6755SOL     OW21163   2.838   5.839   5.972
 6755SOL    HW121164   2.912   5.899   6.001
 6755SOL    HW221165   2.814   5.777   6.046
 6756SOL     OW21166   2.235   1.891   5.240
 6756SOL    HW121167   2.214   1.793   5.237
 6756SOL    HW221168   2.197   1.931   5.323
 6757SOL     OW21169   3.841   6.717   0.582
 6757SOL    HW121170   3.874   6.690   0.491
 6757SOL    HW221171   3.817   6.636   0.634
 6758SOL     OW21172   5.493   1.698   3.073
 6758SOL    HW121173   5.554   1.741   3.007
 6758SOL    HW221174   5.398   1.719   3.050
 6759SOL     OW21175   0.788   2.694   2.624
 6759SOL    HW121176   0.833   2.642   2.551
 6759SOL    HW221177   0.700   2.728   2.591
 6760SOL     OW21178   5.071   3.049   3.660
 6760SOL    HW121179   4.989   3.005   3.624
 6760SOL    HW221180   5.050   3.144   3.682
 6761SOL     OW21181   4.156   1.953   4.704
 6761SOL    HW121182   4.121   2.032   4.753
 6761SOL    HW221183   4.093   1.876   4.712
 6762SOL     OW21184   0.054   5.424   3.853
 6762SOL    HW121185   0.091   5.362   3.923
 6762SOL    HW221186   6.979   5.436   3.867
 6763SOL     OW21187   5.302   5.531   5.227
 6763SOL    HW121188   5.206   5.542   5.200
 6763SOL    HW221189   5.358   5.521   5.146
 6764SOL     OW21190   1.735   5.602   0.994
 6764SOL    HW121191   1.721   5.687   0.943
 6764SOL    HW221192   1.775   5.533   0.934
 6765SOL     OW21193   6.820   5.130   2.892
 6765SOL    HW121194   6.856   5.047   2.848
 6765SOL    HW221195   6.734   5.157   2.849
 6766SOL     OW21196   6.240   0.681   0.808
 6766SOL    HW121197   6.190   0.762   0.777
 6766SOL    HW221198   6.337   0.703   0.819
 6767SOL     OW21199   3.044   0.407   0.418
 6767SOL    HW121200   2.993   0.474   0.364
 6767SOL    HW221201   3.025   0.315   0.384
 6768SOL     OW21202   2.004   0.710   0.679
 6768SOL    HW121203   2.021   0.663   0.593
 6768SOL    HW221204   1.995   0.808   0.662
 6769SOL     OW21205   4.280   2.798   1.707
 6769SOL    HW121206   4.265   2.756   1.617
 6769SOL    HW221207   4.336   2.880   1.697
 6770SOL     OW21208   0.360   0.042   1.732
 6770SOL    HW121209   0.438   0.088   1.774
 6770SOL    HW221210   0.351   6.973   1.770
 6771SOL     OW21211   3.932   2.154   2.919
 6771SOL    HW121212   3.838   2.175   2.893
 6771SOL    HW221213   3.985   2.130   2.837
 6772SOL     OW21214   3.077   1.379   2.811
 6772SOL    HW121215   3.091   1.397   2.714
 6772SOL    HW221216   3.132   1.300   2.839
 6773SOL     OW21217   0.266   4.244   2.056
 6773SOL    HW121218   0.243   4.159   2.009
 6773SOL    HW221219   0.364   4.247   2.073
 6774SOL     OW21220   0.852   1.555   6.896
 6774SOL    HW121221   0.811   1.629   6.950
 6774SOL    HW221222   0.793   1.534   6.818
 6775SOL     OW21223   2.648   4.836   0.492
 6775SOL    HW121224   2.726   4.819   0.431
 6775SOL    HW221225   2.572   4.777   0.466
 6776SOL     OW21226   6.274   5.743   7.013
 6776SOL    HW121227   6.261   5.783   0.081
 6776SOL    HW221228   6.371   5.723   6.999
 6777SOL     OW21229   4.366   4.617   6.763
 6777SOL    HW121230   4.280   4.591   6.721
 6777SOL    HW221231   4.353   4.701   6.817
 6778SOL     OW21232   1.035   5.901   3.003
 6778SOL    HW121233   1.073   5.808   3.004
 6778SOL    HW221234   0.986   5.918   3.089
 6779SOL     OW21235   6.874   4.408   0.392
 6779SOL    HW121236   6.912   4.437   0.304
 6779SOL    HW221237   6.935   4.339   0.433
 6780SOL     OW21238   0.249   2.211   1.915
 6780SOL    HW121239   0.316   2.285   1.911
 6780SOL    HW221240   0.246   2.164   1.826
 6781SOL     OW21241   5.381   5.612   5.472
 6781SOL    HW121242   5.336   5.599   5.383
 6781SOL    HW221243   5.479   5.595   5.462
 6782SOL     OW21244   6.050   1.615   2.919
 6782SOL    HW121245   6.115   1.667   2.975
 6782SOL    HW221246   6.092   1.529   2.890
 6783SOL     OW21247   0.412   6.119   6.595
 6783SOL    HW121248   0.380   6.053   6.663
 6783SOL    HW221249   0.350   6.197   6.592
 6784SOL     OW21250   3.214   3.386   0.366
 6784SOL    HW121251   3.214   3.334   0.281
 6784SOL    HW221252   3.297   3.364   0.418
 6785SOL     OW21253   5.485   6.043   2.369
 6785SOL    HW121254   5.505   5.995   2.284
 6785SOL    HW221255   5.561   6.031   2.433
 6786SOL     OW21256   1.730   2.811   5.968
 6786SOL    HW121257   1.824   2.782   5.983
 6786SOL    HW221258   1.724   2.911   5.979
 6787SOL     OW21259   1.351   3.888   2.218
 6787SOL    HW121260   1.415   3.813   2.203
 6787SOL    HW221261   1.399   3.964   2.263
 6788SOL     OW21262   3.065   3.637   0.877
 6788SOL    HW121263   3.033   3.545   0.854
 6788SOL    HW221264   3.144   3.660   0.821
 6789SOL     OW21265   0.553   5.862   2.452
 6789SOL    HW121266   0.608   5.922   2.395
 6789SOL    HW221267   0.493   5.917   2.511
 6790SOL     OW21268   1.647   2.709   0.100
 6790SOL    HW121269   1.660   2.631   0.162
 6790SOL    HW221270   1.590   2.777   0.145
 6791SOL     OW21271   4.333   3.111   6.249
 6791SOL    HW121272   4.427   3.079   6.247
 6791SOL    HW221273   4.316   3.170   6.170
 6792SOL     OW21274   6.816   5.890   0.836
 6792SOL    HW121275   6.852   5.915   0.925
 6792SOL    HW221276   6.781   5.797   0.839
 6793SOL     OW21277   0.482   2.805   1.425
 6793SOL    HW121278   0.477   2.886   1.366
 6793SOL    HW221279   0.571   2.801   1.469
 6794SOL     OW21280   4.859   1.590   5.243
 6794SOL    HW121281   4.790   1.520   5.263
 6794SOL    HW221282   4.838   1.634   5.155
 6795SOL     OW21283   2.968   5.950   6.693
 6795SOL    HW121284   2.901   6.016   6.726
 6795SOL    HW221285   2.997   5.891   6.768
 6796SOL     OW21286   4.510   1.593   3.318
 6796SOL    HW121287   4.596   1.613   3.270
 6796SOL    HW221288   4.438   1.652   3.282
 6797SOL     OW21289   5.813   3.320   2.393
 6797SOL    HW121290   5.832   3.293   2.487
 6797SOL    HW221291   5.750   3.398   2.394
 6798SOL     OW21292   5.447   6.151   2.673
 6798SOL    HW121293   5.383   6.143   2.750
 6798SOL    HW221294   5.403   6.202   2.599
 6799SOL     OW21295   5.587   6.894   0.568
 6799SOL    HW121296   5.502   6.843   0.556
 6799SOL    HW221297   5.662   6.831   0.586
 6800SOL     OW21298   2.172   4.819   6.977
 6800SOL    HW121299   2.219   4.847   6.893
 6800SOL    HW221300   2.080   4.858   6.978
 6801SOL     OW21301   1.577   2.311   2.226
 6801SOL    HW121302   1.598   2.408   2.239
 6801SOL    HW221303   1.641   2.256   2.279
 6802SOL     OW21304   2.355   6.280   1.852
 6802SOL    HW121305   2.442   6.248   1.890
 6802SOL    HW221306   2.294   6.202   1.840
 6803SOL     OW21307   5.255   1.968   0.019
 6803SOL    HW121308   5.170   2.016   7.019
 6803SOL    HW221309   5.333   2.021   7.010
 6804SOL     OW21310   1.610   5.979   3.738
 6804SOL    HW121311   1.710   5.972   3.742
 6804SOL    HW221312   1.583   6.074   3.749
 6805SOL     OW21313   5.832   0.643   4.705
 6805SOL    HW121314   5.873   0.616   4.793
 6805SOL    HW221315   5.905   0.658   4.638
 6806SOL     OW21316   4.585   0.994   5.262
 6806SOL    HW121317   4.680   0.993   5.231
 6806SOL    HW221318   4.536   1.068   5.215
 6807SOL     OW21319   3.036   3.036   0.360
 6807SOL    HW121320   3.028   3.055   0.457
 6807SOL    HW221321   3.010   2.941   0.342
 6808SOL     OW21322   1.115   2.564   5.870
 6808SOL    HW121323   1.080   2.591   5.960
 6808SOL    HW221324   1.071   2.620   5.799
 6809SOL     OW21325   2.585   3.838   6.579
 6809SOL    HW121326   2.491   3.864   6.555
 6809SOL    HW221327   2.640   3.831   6.496
 6810SOL     OW21328   5.997   0.985   2.244
 6810SOL    HW121329   6.016   0.997   2.341
 6810SOL    HW221330   5.932   1.055   2.214
 6811SOL     OW21331   5.728   5.070   1.425
 6811SOL    HW121332   5.710   5.100   1.519
 6811SOL    HW221333   5.773   5.144   1.375
 6812SOL     OW21334   3.225   3.430   2.978
 6812SOL    HW121335   3.299   3.490   3.008
 6812SOL    HW221336   3.154   3.426   3.048
 6813SOL     OW21337   4.219   3.202   0.821
 6813SOL    HW121338   4.307   3.161   0.842
 6813SOL    HW221339   4.145   3.145   0.857
 6814SOL     OW21340   2.329   3.402   0.681
 6814SOL    HW121341   2.240   3.359   0.666
 6814SOL    HW221342   2.319   3.501   0.681
 6815SOL     OW21343   2.121   0.342   1.949
 6815SOL    HW121344   2.074   0.425   1.977
 6815SOL    HW221345   2.124   0.336   1.849
 6816SOL     OW21346   6.552   4.610   0.723
 6816SOL    HW121347   6.568   4.669   0.802
 6816SOL    HW221348   6.620   4.630   0.652
 6817SOL     OW21349   0.082   1.472   5.905
 6817SOL    HW121350   0.119   1.430   5.988
 6817SOL    HW221351   0.128   1.560   5.889
 6818SOL     OW21352   3.822   6.153   3.081
 6818SOL    HW121353   3.729   6.191   3.084
 6818SOL    HW221354   3.851   6.143   2.986
 6819SOL     OW21355   3.620   1.334   3.999
 6819SOL    HW121356   3.624   1.268   3.924
 6819SOL    HW221357   3.711   1.349   4.036
 6820SOL     OW21358   1.073   4.281   3.588
 6820SOL    HW121359   1.012   4.357   3.564
 6820SOL    HW221360   1.025   4.217   3.648
 6821SOL     OW21361   2.483   2.382   4.454
 6821SOL    HW121362   2.427   2.431   4.522
 6821SOL    HW221363   2.550   2.325   4.502
 6822SOL     OW21364   5.352   2.158   6.019
 6822SOL    HW121365   5.292   2.194   6.091
 6822SOL    HW221366   5.404   2.080   6.055
 6823SOL     OW21367   2.987   3.153   3.063
 6823SOL    HW121368   2.939   3.120   2.982
 6823SOL    HW221369   2.947   3.239   3.093
 6824SOL     OW21370   0.864   4.331   0.139
 6824SOL    HW121371   0.824   4.243   0.114
 6824SOL    HW221372   0.952   4.343   0.091
 6825SOL     OW21373   5.085   0.052   2.453
 6825SOL    HW121374   5.052   0.033   2.545
 6825SOL    HW221375   5.153   7.005   2.427
 6826SOL     OW21376   1.545   3.495   2.996
 6826SOL    HW121377   1.482   3.427   2.960
 6826SOL    HW221378   1.624   3.504   2.935
 6827SOL     OW21379   6.038   5.522   6.010
 6827SOL    HW121380   6.026   5.540   6.108
 6827SOL    HW221381   6.114   5.458   5.997
 6828SOL     OW21382   1.356   2.563   1.132
 6828SOL    HW121383   1.394   2.645   1.175
 6828SOL    HW221384   1.359   2.487   1.198
 6829SOL     OW21385   4.841   6.197   3.896
 6829SOL    HW121386   4.870   6.128   3.830
 6829SOL    HW221387   4.776   6.157   3.961
 6830SOL     OW21388   5.319   2.370   3.936
 6830SOL    HW121389   5.354   2.459   3.908
 6830SOL    HW221390   5.233   2.382   3.985
 6831SOL     OW21391   0.564   0.558   5.940
 6831SOL    HW121392   0.614   0.508   6.010
 6831SOL    HW221393   0.553   0.653   5.968
 6832SOL     OW21394   3.288   5.274   2.228
 6832SOL    HW121395   3.226   5.202   2.260
 6832SOL    HW221396   3.289   5.349   2.294
 6833SOL     OW21397   3.904   4.916   0.397
 6833SOL    HW121398   3.986   4.860   0.404
 6833SOL    HW221399   3.889   4.964   0.484
 6834SOL     OW21400   4.039   5.902   2.196
 6834SOL    HW121401   4.011   5.806   2.208
 6834SOL    HW221402   4.056   5.943   2.285
 6835SOL     OW21403   3.975   0.425   5.021
 6835SOL    HW121404   3.954   0.410   5.118
 6835SOL    HW221405   3.891   0.447   4.972
 6836SOL     OW21406   3.404   6.214   0.111
 6836SOL    HW121407   3.322   6.261   0.080
 6836SOL    HW221408   3.464   6.196   0.033
 6837SOL     OW21409   1.613   3.133   2.034
 6837SOL    HW121410   1.549   3.070   2.078
 6837SOL    HW221411   1.690   3.150   2.096
 6838SOL     OW21412   2.643   1.215   0.164
 6838SOL    HW121413   2.659   1.297   0.110
 6838SOL    HW221414   2.645   1.238   0.261
 6839SOL     OW21415   4.224   1.159   0.894
 6839SOL    HW121416   4.302   1.219   0.883
 6839SOL    HW221417   4.180   1.177   0.982
 6840SOL     OW21418   1.158   1.559   6.182
 6840SOL    HW121419   1.151   1.588   6.086
 6840SOL    HW221420   1.249   1.521   6.198
 6841SOL     OW21421   6.567   3.017   6.303
 6841SOL    HW121422   6.585   3.071   6.220
 6841SOL    HW221423   6.566   3.079   6.382
 6842SOL     OW21424   2.417   4.777   3.218
 6842SOL    HW121425   2.456   4.692   3.182
 6842SOL    HW221426   2.448   4.853   3.161
 6843SOL     OW21427   4.915   6.774   6.953
 6843SOL    HW121428   4.838   6.712   6.969
 6843SOL    HW221429   4.888   6.867   6.976
 6844SOL     OW21430   5.241   0.891   5.480
 6844SOL    HW121431   5.167   0.959   5.478
 6844SOL    HW221432   5.237   0.841   5.567
 6845SOL     OW21433   5.004   1.617   2.230
 6845SOL    HW121434   4.946   1.696   2.213
 6845SOL    HW221435   5.087   1.624   2.174
 6846SOL     OW21436   2.304   3.776   6.968
 6846SOL    HW121437   2.249   3.814   0.019
 6846SOL    HW221438   2.398   3.766   6.998
 6847SOL     OW21439   6.435   3.705   3.913
 6847SOL    HW121440   6.447   3.655   3.828
 6847SOL    HW221441   6.433   3.641   3.990
 6848SOL     OW21442   5.904   5.066   3.387
 6848SOL    HW121443   5.903   5.130   3.464
 6848SOL    HW221444   5.818   5.073   3.336
 6849SOL     OW21445   3.782   4.284   6.562
 6849SOL    HW121446   3.731   4.242   6.638
 6849SOL    HW221447   3.856   4.222   6.534
 6850SOL     OW21448   3.777   1.789   3.644
 6850SOL    HW121449   3.816   1.737   3.720
 6850SOL    HW221450   3.777   1.732   3.562
 6851SOL     OW21451   1.894   3.066   3.769
 6851SOL    HW121452   1.880   3.111   3.681
 6851SOL    HW221453   1.922   3.134   3.838
 6852SOL     OW21454   2.692   4.846   0.134
 6852SOL    HW121455   2.755   4.923   0.125
 6852SOL    HW221456   2.655   4.822   0.044
 6853SOL     OW21457   4.775   3.361   6.855
 6853SOL    HW121458   4.785   3.361   6.955
 6853SOL    HW221459   4.815   3.445   6.817
 6854SOL     OW21460   5.390   6.576   6.181
 6854SOL    HW121461   5.374   6.675   6.178
 6854SOL    HW221462   5.331   6.530   6.115
 6855SOL     OW21463   3.919   5.356   3.983
 6855SOL    HW121464   4.003   5.350   4.036
 6855SOL    HW221465   3.844   5.386   4.042
 6856SOL     OW21466   1.099   1.614   6.758
 6856SOL    HW121467   1.039   1.629   6.838
 6856SOL    HW221468   1.099   1.696   6.701
 6857SOL     OW21469   0.965   3.804   5.738
 6857SOL    HW121470   0.881   3.802   5.793
 6857SOL    HW221471   0.957   3.875   5.668
 6858SOL     OW21472   2.375   3.963   1.649
 6858SOL    HW121473   2.400   4.051   1.689
 6858SOL    HW221474   2.405   3.961   1.553
 6859SOL     OW21475   0.931   1.553   2.555
 6859SOL    HW121476   0.951   1.640   2.510
 6859SOL    HW221477   0.840   1.521   2.526
 6860SOL     OW21478   0.674   6.548   2.383
 6860SOL    HW121479   0.730   6.574   2.304
 6860SOL    HW221480   0.678   6.449   2.395
 6861SOL     OW21481   5.414   2.837   5.056
 6861SOL    HW121482   5.367   2.764   5.006
 6861SOL    HW221483   5.511   2.837   5.031
 6862SOL     OW21484   0.855   4.466   5.507
 6862SOL    HW121485   0.868   4.380   5.457
 6862SOL    HW221486   0.789   4.523   5.458
 6863SOL     OW21487   6.298   0.171   5.719
 6863SOL    HW121488   6.331   0.111   5.791
 6863SOL    HW221489   6.228   0.123   5.665
 6864SOL     OW21490   1.382   3.607   6.494
 6864SOL    HW121491   1.392   3.584   6.591
 6864SOL    HW221492   1.448   3.677   6.469
 6865SOL     OW21493   2.361   6.958   3.902
 6865SOL    HW121494   2.376   6.954   4.001
 6865SOL    HW221495   2.283   7.018   3.883
 6866SOL     OW21496   0.670   4.259   1.420
 6866SOL    HW121497   0.592   4.201   1.398
 6866SOL    HW221498   0.640   4.354   1.432
 6867SOL     OW21499   2.118   3.840   6.781
 6867SOL    HW121500   2.140   3.919   6.723
 6867SOL    HW221501   2.180   3.839   6.859
 6868SOL     OW21502   2.225   4.887   4.449
 6868SOL    HW121503   2.325   4.879   4.443
 6868SOL    HW221504   2.186   4.892   4.357
 6869SOL     OW21505   3.362   0.680   6.352
 6869SOL    HW121506   3.263   0.683   6.362
 6869SOL    HW221507   3.385   0.647   6.260
 6870SOL     OW21508   6.303   2.303   0.722
 6870SOL    HW121509   6.360   2.358   0.662
 6870SOL    HW221510   6.358   2.270   0.799
 6871SOL     OW21511   0.606   4.090   2.398
 6871SOL    HW121512   0.672   4.067   2.469
 6871SOL    HW221513   0.572   4.006   2.356
 6872SOL     OW21514   1.848   3.636   0.677
 6872SOL    HW121515   1.861   3.542   0.707
 6872SOL    HW221516   1.861   3.642   0.578
 6873SOL     OW21517   0.832   4.600   3.937
 6873SOL    HW121518   0.739   4.614   3.903
 6873SOL    HW221519   0.836   4.630   4.033
 6874SOL     OW21520   5.234   6.749   3.180
 6874SOL    HW121521   5.235   6.798   3.267
 6874SOL    HW221522   5.269   6.657   3.192
 6875SOL     OW21523   1.606   2.030   0.552
 6875SOL    HW121524   1.571   1.949   0.507
 6875SOL    HW221525   1.531   2.095   0.568
 6876SOL     OW21526   4.612   5.764   3.583
 6876SOL    HW121527   4.624   5.827   3.506
 6876SOL    HW221528   4.522   5.721   3.577
 6877SOL     OW21529   1.526   3.761   2.651
 6877SOL    HW121530   1.576   3.746   2.566
 6877SOL    HW221531   1.581   3.732   2.729
 6878SOL     OW21532   1.996   0.335   4.632
 6878SOL    HW121533   1.944   0.250   4.619
 6878SOL    HW221534   1.959   0.405   4.572
 6879SOL     OW21535   1.833   1.933   0.762
 6879SOL    HW121536   1.763   2.001   0.739
 6879SOL    HW221537   1.918   1.954   0.713
 6880SOL     OW21538   1.518   5.310   6.632
 6880SOL    HW121539   1.603   5.343   6.592
 6880SOL    HW221540   1.444   5.374   6.609
 6881SOL     OW21541   1.175   3.038   0.279
 6881SOL    HW121542   1.087   3.052   0.325
 6881SOL    HW221543   1.247   3.034   0.348
 6882SOL     OW21544   2.956   6.950   6.664
 6882SOL    HW121545   2.908   6.886   6.605
 6882SOL    HW221546   3.044   6.973   6.623
 6883SOL     OW21547   4.977   0.516   6.996
 6883SOL    HW121548   4.905   0.449   7.017
 6883SOL    HW221549   5.037   0.481   6.925
 6884SOL     OW21550   2.158   4.239   2.988
 6884SOL    HW121551   2.103   4.271   2.912
 6884SOL    HW221552   2.175   4.141   2.979
 6885SOL     OW21553   5.685   5.343   5.043
 6885SOL    HW121554   5.673   5.313   5.138
 6885SOL    HW221555   5.596   5.360   5.002
 6886SOL     OW21556   4.866   1.629   6.583
 6886SOL    HW121557   4.931   1.562   6.620
 6886SOL    HW221558   4.871   1.713   6.638
 6887SOL     OW21559   5.670   6.021   6.207
 6887SOL    HW121560   5.598   6.029   6.276
 6887SOL    HW221561   5.640   6.066   6.123
 6888SOL     OW21562   6.127   5.198   6.680
 6888SOL    HW121563   6.134   5.206   6.780
 6888SOL    HW221564   6.039   5.234   6.650
 6889SOL     OW21565   0.609   2.214   6.823
 6889SOL    HW121566   0.637   2.132   6.873
 6889SOL    HW221567   0.682   2.282   6.827
 6890SOL     OW21568   4.799   4.766   3.071
 6890SOL    HW121569   4.864   4.833   3.107
 6890SOL    HW221570   4.832   4.732   2.982
 6891SOL     OW21571   1.602   1.017   0.927
 6891SOL    HW121572   1.696   0.985   0.927
 6891SOL    HW221573   1.550   0.970   0.856
 6892SOL     OW21574   2.606   0.993   4.804
 6892SOL    HW121575   2.547   0.929   4.756
 6892SOL    HW221576   2.564   1.084   4.805
 6893SOL     OW21577   5.893   3.211   0.548
 6893SOL    HW121578   5.987   3.243   0.560
 6893SOL    HW221579   5.888   3.154   0.466
 6894SOL     OW21580   5.473   5.361   0.577
 6894SOL    HW121581   5.501   5.457   0.584
 6894SOL    HW221582   5.540   5.303   0.623
 6895SOL     OW21583   0.576   6.635   1.781
 6895SOL    HW121584   0.521   6.588   1.711
 6895SOL    HW221585   0.627   6.709   1.738
 6896SOL     OW21586   4.351   2.334   4.674
 6896SOL    HW121587   4.271   2.276   4.658
 6896SOL    HW221588   4.389   2.364   4.586
 6897SOL     OW21589   4.791   3.438   5.340
 6897SOL    HW121590   4.817   3.497   5.417
 6897SOL    HW221591   4.748   3.494   5.268
 6898SOL     OW21592   2.431   1.001   1.433
 6898SOL    HW121593   2.488   0.928   1.471
 6898SOL    HW221594   2.480   1.047   1.359
 6899SOL     OW21595   6.332   6.182   2.112
 6899SOL    HW121596   6.396   6.251   2.147
 6899SOL    HW221597   6.245   6.190   2.161
 6900SOL     OW21598   6.364   3.856   5.549
 6900SOL    HW121599   6.463   3.838   5.542
 6900SOL    HW221600   6.325   3.863   5.457
 6901SOL     OW21601   5.033   4.433   6.833
 6901SOL    HW121602   5.079   4.501   6.890
 6901SOL    HW221603   4.937   4.429   6.858
 6902SOL     OW21604   0.732   5.903   5.634
 6902SOL    HW121605   0.816   5.907   5.580
 6902SOL    HW221606   0.752   5.868   5.725
 6903SOL     OW21607   1.694   5.716   4.758
 6903SOL    HW121608   1.741   5.793   4.715
 6903SOL    HW221609   1.606   5.747   4.794
 6904SOL     OW21610   6.298   6.623   5.360
 6904SOL    HW121611   6.337   6.575   5.440
 6904SOL    HW221612   6.325   6.575   5.277
 6905SOL     OW21613   4.851   6.006   5.814
 6905SOL    HW121614   4.819   5.946   5.741
 6905SOL    HW221615   4.929   5.962   5.860
 6906SOL     OW21616   3.175   1.692   3.612
 6906SOL    HW121617   3.273   1.688   3.634
 6906SOL    HW221618   3.163   1.685   3.513
 6907SOL     OW21619   5.668   2.187   0.577
 6907SOL    HW121620   5.579   2.216   0.541
 6907SOL    HW221621   5.671   2.087   0.579
 6908SOL     OW21622   2.841   4.257   0.199
 6908SOL    HW121623   2.917   4.260   0.265
 6908SOL    HW221624   2.848   4.334   0.136
 6909SOL     OW21625   5.887   5.645   2.030
 6909SOL    HW121626   5.910   5.635   2.126
 6909SOL    HW221627   5.900   5.557   1.983
 6910SOL     OW21628   1.347   3.260   2.880
 6910SOL    HW121629   1.387   3.266   2.789
 6910SOL    HW221630   1.414   3.223   2.944
 6911SOL     OW21631   1.943   6.659   5.598
 6911SOL    HW121632   1.843   6.657   5.609
 6911SOL    HW221633   1.969   6.743   5.551
 6912SOL     OW21634   2.563   3.614   6.736
 6912SOL    HW121635   2.588   3.692   6.678
 6912SOL    HW221636   2.468   3.588   6.718
 6913SOL     OW21637   5.236   6.448   5.944
 6913SOL    HW121638   5.157   6.455   6.006
 6913SOL    HW221639   5.278   6.538   5.934
 6914SOL     OW21640   6.322   2.633   2.368
 6914SOL    HW121641   6.322   2.604   2.463
 6914SOL    HW221642   6.231   2.666   2.343
 6915SOL     OW21643   0.430   3.051   2.990
 6915SOL    HW121644   0.496   3.039   3.064
 6915SOL    HW221645   0.471   3.107   2.918
 6916SOL     OW21646   5.052   6.158   6.852
 6916SOL    HW121647   5.046   6.072   6.803
 6916SOL    HW221648   5.116   6.149   6.929
 6917SOL     OW21649   4.983   5.443   1.441
 6917SOL    HW121650   4.950   5.533   1.469
 6917SOL    HW221651   5.082   5.447   1.427
 6918SOL     OW21652   2.143   3.630   1.334
 6918SOL    HW121653   2.203   3.659   1.408
 6918SOL    HW221654   2.052   3.609   1.371
 6919SOL     OW21655   6.114   6.042   3.312
 6919SOL    HW121656   6.068   6.097   3.382
 6919SOL    HW221657   6.088   5.946   3.324
 6920SOL     OW21658   6.014   0.872   5.968
 6920SOL    HW121659   6.036   0.817   5.887
 6920SOL    HW221660   5.977   0.960   5.938
 6921SOL     OW21661   4.442   0.435   4.086
 6921SOL    HW121662   4.501   0.379   4.144
 6921SOL    HW221663   4.384   0.377   4.029
 6922SOL     OW21664   1.561   4.366   6.141
 6922SOL    HW121665   1.550   4.440   6.207
 6922SOL    HW221666   1.475   4.354   6.090
 6923SOL     OW21667   6.064   6.896   2.728
 6923SOL    HW121668   6.034   6.881   2.822
 6923SOL    HW221669   6.064   6.994   2.708
 6924SOL     OW21670   3.047   6.045   1.312
 6924SOL    HW121671   3.003   6.119   1.261
 6924SOL    HW221672   3.075   6.078   1.402
 6925SOL     OW21673   5.974   6.338   5.691
 6925SOL    HW121674   5.949   6.431   5.663
 6925SOL    HW221675   5.893   6.291   5.726
 6926SOL     OW21676   3.108   2.003   0.460
 6926SOL    HW121677   3.013   1.994   0.431
 6926SOL    HW221678   3.118   1.970   0.554
 6927SOL     OW21679   4.924   0.865   0.609
 6927SOL    HW121680   4.938   0.958   0.640
 6927SOL    HW221681   4.971   0.851   0.522
 6928SOL     OW21682   4.948   4.959   1.082
 6928SOL    HW121683   4.990   5.040   1.041
 6928SOL    HW221684   5.019   4.892   1.103
 6929SOL     OW21685   6.467   5.073   1.279
 6929SOL    HW121686   6.550   5.101   1.328
 6929SOL    HW221687   6.448   5.139   1.206
 6930SOL     OW21688   1.428   0.289   1.027
 6930SOL    HW121689   1.485   0.224   1.077
 6930SOL    HW221690   1.411   0.370   1.083
 6931SOL     OW21691   2.935   3.377   0.943
 6931SOL    HW121692   2.859   3.400   0.883
 6931SOL    HW221693   2.928   3.430   1.028
 6932SOL     OW21694   4.848   5.990   0.181
 6932SOL    HW121695   4.798   5.904   0.194
 6932SOL    HW221696   4.937   5.985   0.227
 6933SOL     OW21697   3.586   5.959   6.535
 6933SOL    HW121698   3.587   5.899   6.456
 6933SOL    HW221699   3.505   6.016   6.533
 6934SOL     OW21700   4.883   3.740   0.133
 6934SOL    HW121701   4.943   3.710   0.207
 6934SOL    HW221702   4.802   3.785   0.171
 6935SOL     OW21703   4.893   5.685   1.572
 6935SOL    HW121704   4.986   5.677   1.608
 6935SOL    HW221705   4.887   5.763   1.510
 6936SOL     OW21706   0.771   1.961   5.216
 6936SOL    HW121707   0.783   2.007   5.304
 6936SOL    HW221708   0.828   2.006   5.147
 6937SOL     OW21709   5.249   5.840   6.908
 6937SOL    HW121710   5.181   5.850   6.834
 6937SOL    HW221711   5.330   5.895   6.886
 6938SOL     OW21712   1.572   0.494   4.950
 6938SOL    HW121713   1.516   0.483   5.032
 6938SOL    HW221714   1.525   0.556   4.886
 6939SOL     OW21715   6.109   3.733   3.234
 6939SOL    HW121716   6.179   3.681   3.283
 6939SOL    HW221717   6.151   3.812   3.189
 6940SOL     OW21718   3.134   5.882   0.446
 6940SOL    HW121719   3.126   5.930   0.534
 6940SOL    HW221720   3.043   5.851   0.417
 6941SOL     OW21721   3.427   3.801   2.756
 6941SOL    HW121722   3.423   3.818   2.855
 6941SOL    HW221723   3.492   3.864   2.715
 6942SOL     OW21724   6.759   6.381   1.830
 6942SOL    HW121725   6.836   6.400   1.768
 6942SOL    HW221726   6.715   6.466   1.856
 6943SOL     OW21727   4.235   5.000   6.494
 6943SOL    HW121728   4.328   5.022   6.465
 6943SOL    HW221729   4.171   5.030   6.423
 6944SOL     OW21730   1.170   4.374   5.414
 6944SOL    HW121731   1.226   4.292   5.409
 6944SOL    HW221732   1.074   4.350   5.396
 6945SOL     OW21733   5.342   1.847   0.750
 6945SOL    HW121734   5.347   1.761   0.800
 6945SOL    HW221735   5.388   1.838   0.662
 6946SOL     OW21736   4.427   5.380   3.245
 6946SOL    HW121737   4.367   5.447   3.288
 6946SOL    HW221738   4.374   5.326   3.179
 6947SOL     OW21739   5.647   4.683   5.167
 6947SOL    HW121740   5.629   4.635   5.081
 6947SOL    HW221741   5.564   4.685   5.222
 6948SOL     OW21742   6.941   4.486   0.132
 6948SOL    HW121743   6.989   4.405   0.098
 6948SOL    HW221744   6.865   4.508   0.071
 6949SOL     OW21745   2.397   1.632   3.932
 6949SOL    HW121746   2.309   1.652   3.976
 6949SOL    HW221747   2.411   1.696   3.856
 6950SOL     OW21748   0.154   0.652   4.163
 6950SOL    HW121749   0.173   0.560   4.129
 6950SOL    HW221750   0.074   0.649   4.222
 6951SOL     OW21751   0.300   4.521   6.375
 6951SOL    HW121752   0.399   4.528   6.366
 6951SOL    HW221753   0.264   4.458   6.307
 6952SOL     OW21754   4.395   5.619   3.558
 6952SOL    HW121755   4.308   5.663   3.537
 6952SOL    HW221756   4.380   5.537   3.612
 6953SOL     OW21757   5.683   1.272   0.894
 6953SOL    HW121758   5.734   1.231   0.969
 6953SOL    HW221759   5.721   1.241   0.807
 6954SOL     OW21760   5.992   4.042   0.014
 6954SOL    HW121761   6.089   4.034   0.039
 6954SOL    HW221762   5.984   4.069   6.940
 6955SOL     OW21763   4.579   6.604   2.373
 6955SOL    HW121764   4.631   6.519   2.382
 6955SOL    HW221765   4.573   6.629   2.276
 6956SOL     OW21766   5.699   5.586   2.541
 6956SOL    HW121767   5.714   5.512   2.475
 6956SOL    HW221768   5.633   5.651   2.503
 6957SOL     OW21769   5.467   5.868   5.779
 6957SOL    HW121770   5.377   5.875   5.734
 6957SOL    HW221771   5.536   5.911   5.721
 6958SOL     OW21772   3.023   3.908   3.515
 6958SOL    HW121773   2.965   3.868   3.585
 6958SOL    HW221774   3.118   3.908   3.546
 6959SOL     OW21775   0.705   4.187   2.900
 6959SOL    HW121776   0.792   4.220   2.934
 6959SOL    HW221777   0.683   4.098   2.941
 6960SOL     OW21778   3.360   4.178   0.268
 6960SOL    HW121779   3.297   4.119   0.218
 6960SOL    HW221780   3.454   4.158   0.241
 6961SOL     OW21781   4.909   2.624   5.052
 6961SOL    HW121782   4.818   2.606   5.015
 6961SOL    HW221783   4.903   2.695   5.123
 6962SOL     OW21784   2.508   6.403   6.228
 6962SOL    HW121785   2.502   6.324   6.168
 6962SOL    HW221786   2.515   6.486   6.173
 6963SOL     OW21787   5.629   6.416   1.054
 6963SOL    HW121788   5.532   6.442   1.057
 6963SOL    HW221789   5.653   6.386   0.962
 6964SOL     OW21790   1.496   0.509   5.378
 6964SOL    HW121791   1.504   0.538   5.473
 6964SOL    HW221792   1.416   0.553   5.337
 6965SOL     OW21793   0.681   1.623   0.277
 6965SOL    HW121794   0.645   1.632   0.370
 6965SOL    HW221795   0.643   1.542   0.234
 6966SOL     OW21796   1.361   6.449   1.378
 6966SOL    HW121797   1.396   6.436   1.286
 6966SOL    HW221798   1.404   6.383   1.440
 6967SOL     OW21799   4.084   1.419   6.624
 6967SOL    HW121800   4.117   1.492   6.684
 6967SOL    HW221801   4.036   1.350   6.677
 6968SOL     OW21802   3.822   6.612   2.919
 6968SOL    HW121803   3.757   6.634   2.992
 6968SOL    HW221804   3.828   6.513   2.908
 6969SOL     OW21805   2.165   2.088   1.829
 6969SOL    HW121806   2.208   2.008   1.788
 6969SOL    HW221807   2.211   2.171   1.798
 6970SOL     OW21808   3.938   5.660   5.494
 6970SOL    HW121809   3.851   5.618   5.519
 6970SOL    HW221810   3.929   5.706   5.406
 6971SOL     OW21811   6.540   4.330   0.027
 6971SOL    HW121812   6.601   4.342   6.971
 6971SOL    HW221813   6.455   4.287   7.020
 6972SOL     OW21814   5.276   3.683   1.702
 6972SOL    HW121815   5.205   3.706   1.769
 6972SOL    HW221816   5.248   3.717   1.612
 6973SOL     OW21817   1.995   2.789   3.126
 6973SOL    HW121818   1.940   2.792   3.210
 6973SOL    HW221819   1.993   2.697   3.088
 6974SOL     OW21820   3.870   3.482   3.310
 6974SOL    HW121821   3.963   3.516   3.294
 6974SOL    HW221822   3.846   3.416   3.238
 6975SOL     OW21823   2.698   5.218   4.585
 6975SOL    HW121824   2.645   5.133   4.587
 6975SOL    HW221825   2.738   5.230   4.494
 6976SOL     OW21826   4.499   4.229   5.935
 6976SOL    HW121827   4.499   4.273   6.025
 6976SOL    HW221828   4.489   4.130   5.946
 6977SOL     OW21829   4.064   4.925   1.228
 6977SOL    HW121830   4.076   4.981   1.310
 6977SOL    HW221831   3.978   4.949   1.183
 6978SOL     OW21832   6.628   3.881   2.097
 6978SOL    HW121833   6.658   3.959   2.041
 6978SOL    HW221834   6.643   3.901   2.194
 6979SOL     OW21835   1.913   3.045   1.697
 6979SOL    HW121836   1.914   2.968   1.761
 6979SOL    HW221837   1.852   3.116   1.731
 6980SOL     OW21838   1.775   5.404   2.497
 6980SOL    HW121839   1.688   5.363   2.467
 6980SOL    HW221840   1.756   5.478   2.561
 6981SOL     OW21841   4.130   2.867   6.879
 6981SOL    HW121842   4.095   2.945   6.931
 6981SOL    HW221843   4.060   2.836   6.815
 6982SOL     OW21844   1.545   0.787   3.003
 6982SOL    HW121845   1.483   0.789   3.081
 6982SOL    HW221846   1.493   0.801   2.918
 6983SOL     OW21847   5.050   0.989   4.272
 6983SOL    HW121848   5.026   0.919   4.204
 6983SOL    HW221849   4.969   1.011   4.326
 6984SOL     OW21850   0.694   2.462   3.138
 6984SOL    HW121851   0.776   2.497   3.092
 6984SOL    HW221852   0.721   2.410   3.219
 6985SOL     OW21853   5.691   3.567   7.019
 6985SOL    HW121854   5.727   3.544   0.087
 6985SOL    HW221855   5.767   3.577   6.954
 6986SOL     OW21856   5.003   4.910   5.395
 6986SOL    HW121857   5.065   4.832   5.404
 6986SOL    HW221858   5.009   4.967   5.477
 6987SOL     OW21859   0.269   1.237   6.435
 6987SOL    HW121860   0.232   1.191   6.516
 6987SOL    HW221861   0.364   1.208   6.421
 6988SOL     OW21862   3.363   1.550   6.558
 6988SOL    HW121863   3.421   1.596   6.491
 6988SOL    HW221864   3.341   1.613   6.633
 6989SOL     OW21865   0.637   5.114   2.081
 6989SOL    HW121866   0.625   5.179   2.156
 6989SOL    HW221867   0.661   5.024   2.117
 6990SOL     OW21868   4.021   3.181   1.198
 6990SOL    HW121869   4.035   3.089   1.235
 6990SOL    HW221870   3.988   3.173   1.104
 6991SOL     OW21871   6.133   3.300   2.717
 6991SOL    HW121872   6.201   3.229   2.739
 6991SOL    HW221873   6.055   3.292   2.779
 6992SOL     OW21874   1.092   5.951   0.340
 6992SOL    HW121875   1.004   5.969   0.295
 6992SOL    HW221876   1.106   5.852   0.346
 6993SOL     OW21877   4.921   1.763   1.039
 6993SOL    HW121878   4.915   1.844   0.981
 6993SOL    HW221879   4.874   1.687   0.995
 6994SOL     OW21880   2.384   0.497   3.359
 6994SOL    HW121881   2.479   0.502   3.391
 6994SOL    HW221882   2.382   0.451   3.270
 6995SOL     OW21883   0.261   3.987   1.481
 6995SOL    HW121884   0.190   4.057   1.490
 6995SOL    HW221885   0.349   4.025   1.509
 6996SOL     OW21886   1.261   0.799   6.710
 6996SOL    HW121887   1.172   0.769   6.744
 6996SOL    HW221888   1.253   0.827   6.614
 6997SOL     OW21889   5.305   5.481   6.025
 6997SOL    HW121890   5.366   5.509   5.950
 6997SOL    HW221891   5.335   5.393   6.062
 6998SOL     OW21892   6.279   1.154   0.149
 6998SOL    HW121893   6.272   1.127   0.053
 6998SOL    HW221894   6.367   1.200   0.164
 6999SOL     OW21895   0.272   3.013   6.712
 6999SOL    HW121896   0.215   2.931   6.718
 6999SOL    HW221897   0.215   3.092   6.689
 7000SOL     OW21898   6.835   6.233   3.443
 7000SOL    HW121899   6.740   6.247   3.414
 7000SOL    HW221900   6.896   6.247   3.365
 7001SOL     OW21901   0.744   2.308   4.178
 7001SOL    HW121902   0.720   2.389   4.230
 7001SOL    HW221903   0.701   2.313   4.087
 7002SOL     OW21904   0.797   5.531   3.006
 7002SOL    HW121905   0.761   5.438   2.996
 7002SOL    HW221906   0.896   5.527   3.015
 7003SOL     OW21907   6.713   3.910   0.506
 7003SOL    HW121908   6.787   3.855   0.542
 7003SOL    HW221909   6.625   3.872   0.535
 7004SOL     OW21910   1.553   6.428   0.833
 7004SOL    HW121911   1.589   6.335   0.835
 7004SOL    HW221912   1.455   6.425   0.814
 7005SOL     OW21913   0.888   6.082   1.250
 7005SOL    HW121914   0.919   6.082   1.155
 7005SOL    HW221915   0.956   6.036   1.307
 7006SOL     OW21916   1.342   6.943   4.136
 7006SOL    HW121917   1.363   0.015   4.111
 7006SOL    HW221918   1.425   6.888   4.133
 7007SOL     OW21919   2.109   0.429   5.815
 7007SOL    HW121920   2.045   0.378   5.873
 7007SOL    HW221921   2.129   0.376   5.734
 7008SOL     OW21922   5.480   3.949   2.740
 7008SOL    HW121923   5.496   4.045   2.719
 7008SOL    HW221924   5.424   3.908   2.668
 7009SOL     OW21925   4.727   5.801   1.759
 7009SOL    HW121926   4.646   5.853   1.729
 7009SOL    HW221927   4.778   5.771   1.679
 7010SOL     OW21928   5.261   3.415   1.727
 7010SOL    HW121929   5.164   3.392   1.724
 7010SOL    HW221930   5.272   3.514   1.716
 7011SOL     OW21931   3.279   6.305   6.814
 7011SOL    HW121932   3.357   6.365   6.795
 7011SOL    HW221933   3.234   6.335   6.899
 7012SOL     OW21934   6.612   2.545   0.203
 7012SOL    HW121935   6.669   2.595   0.268
 7012SOL    HW221936   6.533   2.507   0.250
 7013SOL     OW21937   2.794   1.882   0.361
 7013SOL    HW121938   2.768   1.963   0.415
 7013SOL    HW221939   2.739   1.804   0.391
 7014SOL     OW21940   6.298   3.188   1.116
 7014SOL    HW121941   6.348   3.109   1.153
 7014SOL    HW221942   6.207   3.193   1.158
 7015SOL     OW21943   5.250   6.318   0.907
 7015SOL    HW121944   5.159   6.285   0.931
 7015SOL    HW221945   5.289   6.260   0.835
 7016SOL     OW21946   3.070   5.007   1.057
 7016SOL    HW121947   2.976   5.014   1.025
 7016SOL    HW221948   3.099   5.095   1.096
 7017SOL     OW21949   5.950   4.957   5.037
 7017SOL    HW121950   5.984   4.874   5.079
 7017SOL    HW221951   5.960   4.951   4.937
 7018SOL     OW21952   5.561   3.454   4.358
 7018SOL    HW121953   5.540   3.359   4.384
 7018SOL    HW221954   5.584   3.506   4.440
 7019SOL     OW21955   4.319   5.711   2.131
 7019SOL    HW121956   4.380   5.744   2.203
 7019SOL    HW221957   4.263   5.636   2.167
 7020SOL     OW21958   0.483   3.051   6.526
 7020SOL    HW121959   0.401   3.036   6.580
 7020SOL    HW221960   0.562   3.011   6.573
 7021SOL     OW21961   0.896   2.138   5.062
 7021SOL    HW121962   0.843   2.216   5.096
 7021SOL    HW221963   0.991   2.147   5.090
 7022SOL     OW21964   3.117   1.915   0.719
 7022SOL    HW121965   3.153   2.002   0.752
 7022SOL    HW221966   3.018   1.913   0.731
 7023SOL     OW21967   0.390   2.383   0.640
 7023SOL    HW121968   0.438   2.304   0.677
 7023SOL    HW221969   0.296   2.385   0.674
 7024SOL     OW21970   3.936   3.277   4.830
 7024SOL    HW121971   3.941   3.309   4.924
 7024SOL    HW221972   3.979   3.344   4.770
 7025SOL     OW21973   3.596   6.969   0.822
 7025SOL    HW121974   3.650   6.934   0.745
 7025SOL    HW221975   3.609   0.045   0.829
 7026SOL     OW21976   3.412   2.499   1.111
 7026SOL    HW121977   3.358   2.433   1.163
 7026SOL    HW221978   3.396   2.591   1.147
 7027SOL     OW21979   2.576   5.378   3.129
 7027SOL    HW121980   2.494   5.371   3.072
 7027SOL    HW221981   2.553   5.424   3.215
 7028SOL     OW21982   2.883   0.174   3.842
 7028SOL    HW121983   2.790   0.186   3.808
 7028SOL    HW221984   2.917   0.262   3.875
 7029SOL     OW21985   3.420   3.442   4.116
 7029SOL    HW121986   3.367   3.525   4.133
 7029SOL    HW221987   3.501   3.442   4.175
 7030SOL     OW21988   6.685   1.341   4.918
 7030SOL    HW121989   6.628   1.288   4.855
 7030SOL    HW221990   6.640   1.346   5.007
 7031SOL     OW21991   4.459   6.629   0.568
 7031SOL    HW121992   4.555   6.632   0.596
 7031SOL    HW221993   4.443   6.698   0.497
 7032SOL     OW21994   3.989   6.008   4.585
 7032SOL    HW121995   4.067   6.067   4.566
 7032SOL    HW221996   4.003   5.961   4.672
 7033SOL     OW21997   1.960   1.864   5.074
 7033SOL    HW121998   1.976   1.953   5.031
 7033SOL    HW221999   1.881   1.820   5.031
 7034SOL     OW22000   6.390   0.691   3.810
 7034SOL    HW122001   6.425   0.773   3.854
 7034SOL    HW222002   6.394   0.702   3.710
 7035SOL     OW22003   1.822   0.615   0.148
 7035SOL    HW122004   1.831   0.560   0.230
 7035SOL    HW222005   1.850   0.709   0.167
 7036SOL     OW22006   6.781   1.549   2.598
 7036SOL    HW122007   6.750   1.455   2.607
 7036SOL    HW222008   6.770   1.597   2.686
 7037SOL     OW22009   0.973   0.790   6.171
 7037SOL    HW122010   1.039   0.716   6.162
 7037SOL    HW222011   1.022   0.876   6.191
 7038SOL     OW22012   1.378   4.296   6.878
 7038SOL    HW122013   1.353   4.311   6.782
 7038SOL    HW222014   1.478   4.300   6.887
 7039SOL     OW22015   0.735   5.995   2.250
 7039SOL    HW122016   0.727   6.004   2.151
 7039SOL    HW222017   0.832   5.991   2.275
 7040SOL     OW22018   4.892   3.322   4.422
 7040SOL    HW122019   4.909   3.252   4.491
 7040SOL    HW222020   4.893   3.412   4.465
 7041SOL     OW22021   1.768   7.010   4.024
 7041SOL    HW122022   1.736   0.060   4.085
 7041SOL    HW222023   1.689   6.966   3.981
 7042SOL     OW22024   4.775   6.264   5.454
 7042SOL    HW122025   4.783   6.342   5.392
 7042SOL    HW222026   4.779   6.297   5.549
 7043SOL     OW22027   2.433   4.998   1.237
 7043SOL    HW122028   2.530   4.984   1.253
 7043SOL    HW222029   2.403   4.942   1.159
 7044SOL     OW22030   4.866   6.396   4.948
 7044SOL    HW122031   4.792   6.442   4.999
 7044SOL    HW222032   4.841   6.300   4.935
 7045SOL     OW22033   6.564   6.548   1.917
 7045SOL    HW122034   6.599   6.631   1.961
 7045SOL    HW222035   6.483   6.572   1.863
 7046SOL     OW22036   2.725   1.996   4.543
 7046SOL    HW122037   2.713   1.914   4.486
 7046SOL    HW222038   2.700   1.974   4.638
 7047SOL     OW22039   1.110   6.173   1.014
 7047SOL    HW122040   1.135   6.147   0.920
 7047SOL    HW222041   1.039   6.244   1.011
 7048SOL     OW22042   6.840   6.169   4.860
 7048SOL    HW122043   6.785   6.153   4.778
 7048SOL    HW222044   6.937   6.172   4.835
 7049SOL     OW22045   3.646   1.174   2.622
 7049SOL    HW122046   3.610   1.194   2.713
 7049SOL    HW222047   3.603   1.233   2.555
 7050SOL     OW22048   4.217   3.763   0.951
 7050SOL    HW122049   4.293   3.705   0.980
 7050SOL    HW222050   4.137   3.743   1.007
 7051SOL     OW22051   0.546   0.864   1.974
 7051SOL    HW122052   0.495   0.800   2.032
 7051SOL    HW222053   0.544   0.955   2.014
 7052SOL     OW22054   5.058   0.147   2.917
 7052SOL    HW122055   5.024   0.223   2.972
 7052SOL    HW222056   5.141   0.174   2.869
 7053SOL     OW22057   2.123   3.397   3.378
 7053SOL    HW122058   2.143   3.492   3.354
 7053SOL    HW222059   2.108   3.389   3.476
 7054SOL     OW22060   6.429   0.784   0.259
 7054SOL    HW122061   6.347   0.799   0.205
 7054SOL    HW222062   6.410   0.720   0.333
 7055SOL     OW22063   2.853   1.051   0.105
 7055SOL    HW122064   2.766   1.081   0.143
 7055SOL    HW222065   2.928   1.085   0.162
 7056SOL     OW22066   0.524   5.169   1.427
 7056SOL    HW122067   0.568   5.256   1.403
 7056SOL    HW222068   0.559   5.138   1.515
 7057SOL     OW22069   2.864   5.202   4.232
 7057SOL    HW122070   2.805   5.129   4.197
 7057SOL    HW222071   2.844   5.287   4.184
 7058SOL     OW22072   5.485   3.140   6.223
 7058SOL    HW122073   5.531   3.181   6.145
 7058SOL    HW222074   5.513   3.045   6.233
 7059SOL     OW22075   2.022   0.022   5.165
 7059SOL    HW122076   1.956   0.087   5.126
 7059SOL    HW222077   1.999   6.952   5.135
 7060SOL     OW22078   3.881   0.698   1.370
 7060SOL    HW122079   3.915   0.774   1.315
 7060SOL    HW222080   3.920   0.612   1.337
 7061SOL     OW22081   0.627   1.710   1.482
 7061SOL    HW122082   0.695   1.782   1.491
 7061SOL    HW222083   0.544   1.736   1.531
 7062SOL     OW22084   3.364   1.079   3.453
 7062SOL    HW122085   3.290   1.097   3.388
 7062SOL    HW222086   3.337   1.005   3.515
 7063SOL     OW22087   0.963   0.863   1.537
 7063SOL    HW122088   1.056   0.899   1.542
 7063SOL    HW222089   0.905   0.912   1.602
 7064SOL     OW22090   4.050   1.478   5.199
 7064SOL    HW122091   4.083   1.558   5.249
 7064SOL    HW222092   3.996   1.508   5.120
 7065SOL     OW22093   3.854   5.192   5.508
 7065SOL    HW122094   3.770   5.172   5.557
 7065SOL    HW222095   3.833   5.239   5.422
 7066SOL     OW22096   3.882   0.236   0.210
 7066SOL    HW122097   3.897   0.138   0.222
 7066SOL    HW222098   3.792   0.251   0.167
 7067SOL     OW22099   1.785   3.483   7.016
 7067SOL    HW122100   1.798   3.582   7.013
 7067SOL    HW222101   1.874   3.437   7.007
 7068SOL     OW22102   5.265   3.333   4.085
 7068SOL    HW122103   5.187   3.385   4.119
 7068SOL    HW222104   5.269   3.340   3.986
 7069SOL     OW22105   5.823   0.516   6.644
 7069SOL    HW122106   5.865   0.445   6.699
 7069SOL    HW222107   5.841   0.497   6.547
 7070SOL     OW22108   0.085   6.819   5.006
 7070SOL    HW122109   0.152   6.775   4.946
 7070SOL    HW222110   0.090   6.779   5.097
 7071SOL     OW22111   4.671   5.575   6.758
 7071SOL    HW122112   4.716   5.488   6.775
 7071SOL    HW222113   4.680   5.599   6.661
 7072SOL     OW22114   0.731   3.699   6.427
 7072SOL    HW122115   0.758   3.611   6.389
 7072SOL    HW222116   0.757   3.772   6.364
 7073SOL     OW22117   4.961   1.323   3.612
 7073SOL    HW122118   4.875   1.370   3.633
 7073SOL    HW222119   4.980   1.254   3.681
 7074SOL     OW22120   5.742   4.577   2.792
 7074SOL    HW122121   5.689   4.537   2.718
 7074SOL    HW222122   5.723   4.529   2.877
 7075SOL     OW22123   3.244   4.884   3.440
 7075SOL    HW122124   3.331   4.915   3.478
 7075SOL    HW222125   3.262   4.825   3.361
 7076SOL     OW22126   5.576   2.245   2.088
 7076SOL    HW122127   5.658   2.187   2.087
 7076SOL    HW222128   5.521   2.226   2.007
 7077SOL     OW22129   3.649   5.472   1.364
 7077SOL    HW122130   3.691   5.382   1.361
 7077SOL    HW222131   3.587   5.482   1.286
 7078SOL     OW22132   5.650   0.817   0.022
 7078SOL    HW122133   5.697   0.735   7.011
 7078SOL    HW222134   5.607   0.796   0.110
 7079SOL     OW22135   1.252   6.390   5.108
 7079SOL    HW122136   1.197   6.454   5.162
 7079SOL    HW222137   1.343   6.428   5.094
 7080SOL     OW22138   4.273   2.071   5.782
 7080SOL    HW122139   4.276   2.047   5.879
 7080SOL    HW222140   4.339   2.014   5.732
 7081SOL     OW22141   1.648   0.221   0.409
 7081SOL    HW122142   1.591   0.234   0.328
 7081SOL    HW222143   1.610   0.273   0.485
 7082SOL     OW22144   7.017   4.258   3.183
 7082SOL    HW122145   6.956   4.271   3.105
 7082SOL    HW222146   6.978   4.299   3.265
 7083SOL     OW22147   5.823   2.701   2.687
 7083SOL    HW122148   5.878   2.621   2.709
 7083SOL    HW222149   5.729   2.671   2.665
 7084SOL     OW22150   0.849   5.570   6.950
 7084SOL    HW122151   0.814   5.551   6.859
 7084SOL    HW222152   0.807   5.507   7.016
 7085SOL     OW22153   0.349   3.532   2.374
 7085SOL    HW122154   0.367   3.599   2.446
 7085SOL    HW222155   0.319   3.579   2.291
 7086SOL     OW22156   5.575   0.993   3.887
 7086SOL    HW122157   5.557   0.977   3.790
 7086SOL    HW222158   5.642   1.066   3.897
 7087SOL     OW22159   5.223   4.172   2.755
 7087SOL    HW122160   5.130   4.157   2.722
 7087SOL    HW222161   5.224   4.162   2.855
 7088SOL     OW22162   6.127   2.061   5.286
 7088SOL    HW122163   6.186   2.031   5.211
 7088SOL    HW222164   6.181   2.074   5.369
 7089SOL     OW22165   3.110   6.162   1.914
 7089SOL    HW122166   3.121   6.219   1.996
 7089SOL    HW222167   3.043   6.204   1.853
 7090SOL     OW22168   4.270   2.902   1.031
 7090SOL    HW122169   4.171   2.914   1.036
 7090SOL    HW222170   4.312   2.939   1.114
 7091SOL     OW22171   0.197   5.960   0.237
 7091SOL    HW122172   0.264   5.923   0.302
 7091SOL    HW222173   0.104   5.943   0.272
 7092SOL     OW22174   3.974   1.041   6.424
 7092SOL    HW122175   3.994   0.958   6.476
 7092SOL    HW222176   3.918   1.102   6.480
 7093SOL     OW22177   2.655   2.992   1.351
 7093SOL    HW122178   2.643   3.000   1.450
 7093SOL    HW222179   2.690   3.078   1.315
 7094SOL     OW22180   2.879   0.369   5.590
 7094SOL    HW122181   2.832   0.330   5.669
 7094SOL    HW222182   2.842   0.460   5.571
 7095SOL     OW22183   2.481   4.597   4.727
 7095SOL    HW122184   2.390   4.632   4.748
 7095SOL    HW222185   2.534   4.591   4.811
 7096SOL     OW22186   0.263   0.797   1.305
 7096SOL    HW122187   0.234   0.877   1.253
 7096SOL    HW222188   0.293   0.827   1.396
 7097SOL     OW22189   4.391   1.369   1.929
 7097SOL    HW122190   4.466   1.367   1.994
 7097SOL    HW222191   4.421   1.411   1.843
 7098SOL     OW22192   1.409   6.789   3.569
 7098SOL    HW122193   1.348   6.867   3.553
 7098SOL    HW222194   1.503   6.822   3.582
 7099SOL     OW22195   2.898   2.214   3.915
 7099SOL    HW122196   2.919   2.199   3.819
 7099SOL    HW222197   2.967   2.170   3.972
 7100SOL     OW22198   6.023   3.854   1.702
 7100SOL    HW122199   5.934   3.867   1.746
 7100SOL    HW222200   6.078   3.790   1.757
 7101SOL     OW22201   2.599   6.258   5.543
 7101SOL    HW122202   2.697   6.238   5.546
 7101SOL    HW222203   2.550   6.189   5.596
 7102SOL     OW22204   5.259   0.951   2.074
 7102SOL    HW122205   5.290   0.905   1.991
 7102SOL    HW222206   5.278   1.049   2.067
 7103SOL     OW22207   4.890   3.720   2.983
 7103SOL    HW122208   4.877   3.678   2.893
 7103SOL    HW222209   4.940   3.658   3.042
 7104SOL     OW22210   5.255   3.034   3.437
 7104SOL    HW122211   5.298   2.946   3.420
 7104SOL    HW222212   5.188   3.025   3.511
 7105SOL     OW22213   3.343   4.129   3.625
 7105SOL    HW122214   3.315   4.094   3.714
 7105SOL    HW222215   3.267   4.180   3.584
 7106SOL     OW22216   2.851   2.543   1.211
 7106SOL    HW122217   2.871   2.557   1.114
 7106SOL    HW222218   2.839   2.445   1.229
 7107SOL     OW22219   3.515   0.528   6.541
 7107SOL    HW122220   3.459   0.569   6.469
 7107SOL    HW222221   3.599   0.490   6.500
 7108SOL     OW22222   4.892   1.078   2.130
 7108SOL    HW122223   4.938   0.989   2.123
 7108SOL    HW222224   4.855   1.104   2.041
 7109SOL     OW22225   3.003   5.310   6.333
 7109SOL    HW122226   3.022   5.276   6.425
 7109SOL    HW222227   2.960   5.237   6.279
 7110SOL     OW22228   3.703   6.838   4.341
 7110SOL    HW122229   3.728   6.861   4.247
 7110SOL    HW222230   3.702   6.739   4.352
 7111SOL     OW22231   0.020   1.051   5.186
 7111SOL    HW122232   0.069   0.979   5.235
 7111SOL    HW222233   0.086   1.113   5.143
 7112SOL     OW22234   1.217   5.048   4.720
 7112SOL    HW122235   1.179   5.137   4.744
 7112SOL    HW222236   1.204   4.985   4.797
 7113SOL     OW22237   3.715   6.469   5.318
 7113SOL    HW122238   3.686   6.382   5.279
 7113SOL    HW222239   3.635   6.523   5.342
 7114SOL     OW22240   5.656   4.375   0.830
 7114SOL    HW122241   5.607   4.356   0.745
 7114SOL    HW222242   5.668   4.474   0.840
 7115SOL     OW22243   5.698   4.273   6.255
 7115SOL    HW122244   5.735   4.337   6.189
 7115SOL    HW222245   5.773   4.233   6.309
 7116SOL     OW22246   6.186   3.937   3.894
 7116SOL    HW122247   6.243   3.862   3.928
 7116SOL    HW222248   6.236   4.023   3.906
 7117SOL     OW22249   5.804   0.528   3.027
 7117SOL    HW122250   5.802   0.603   3.093
 7117SOL    HW222251   5.867   0.458   3.058
 7118SOL     OW22252   3.952   4.290   5.874
 7118SOL    HW122253   3.921   4.371   5.825
 7118SOL    HW222254   3.889   4.270   5.950
 7119SOL     OW22255   3.291   7.002   5.029
 7119SOL    HW122256   3.377   0.008   4.988
 7119SOL    HW222257   3.307   6.973   5.123
 7120SOL     OW22258   4.225   0.405   0.373
 7120SOL    HW122259   4.272   0.411   0.461
 7120SOL    HW222260   4.265   0.471   0.310
 7121SOL     OW22261   1.870   5.581   2.071
 7121SOL    HW122262   1.928   5.548   2.145
 7121SOL    HW222263   1.898   5.674   2.045
 7122SOL     OW22264   3.365   1.953   0.019
 7122SOL    HW122265   3.412   2.008   6.973
 7122SOL    HW222266   3.266   1.962   0.009
 7123SOL     OW22267   5.336   5.218   6.109
 7123SOL    HW122268   5.304   5.200   6.016
 7123SOL    HW222269   5.436   5.212   6.112
 7124SOL     OW22270   1.165   2.324   1.476
 7124SOL    HW122271   1.119   2.254   1.531
 7124SOL    HW222272   1.106   2.349   1.399
 7125SOL     OW22273   0.399   6.440   2.054
 7125SOL    HW122274   0.311   6.487   2.043
 7125SOL    HW222275   0.413   6.417   2.150
 7126SOL     OW22276   3.072   5.292   1.135
 7126SOL    HW122277   2.977   5.321   1.139
 7126SOL    HW222278   3.123   5.354   1.075
 7127SOL     OW22279   2.379   6.532   5.877
 7127SOL    HW122280   2.467   6.494   5.848
 7127SOL    HW222281   2.310   6.509   5.808
 7128SOL     OW22282   4.298   4.378   6.540
 7128SOL    HW122283   4.271   4.473   6.523
 7128SOL    HW222284   4.259   4.319   6.469
 7129SOL     OW22285   0.666   6.814   0.851
 7129SOL    HW122286   0.658   6.872   0.770
 7129SOL    HW222287   0.604   6.846   0.922
 7130SOL     OW22288   3.324   6.632   4.012
 7130SOL    HW122289   3.306   6.717   4.061
 7130SOL    HW222290   3.257   6.620   3.939
 7131SOL     OW22291   2.777   1.286   2.115
 7131SOL    HW122292   2.844   1.237   2.059
 7131SOL    HW222293   2.822   1.356   2.169
 7132SOL     OW22294   5.409   4.745   0.436
 7132SOL    HW122295   5.362   4.830   0.413
 7132SOL    HW222296   5.497   4.742   0.390
 7133SOL     OW22297   5.313   5.739   2.773
 7133SOL    HW122298   5.332   5.801   2.849
 7133SOL    HW222299   5.361   5.652   2.788
 7134SOL     OW22300   4.582   5.114   6.986
 7134SOL    HW122301   4.660   5.142   6.930
 7134SOL    HW222302   4.586   5.015   7.001
 7135SOL     OW22303   1.923   3.332   0.866
 7135SOL    HW122304   1.875   3.270   0.929
 7135SOL    HW222305   1.973   3.401   0.919
 7136SOL     OW22306   1.758   1.658   1.932
 7136SOL    HW122307   1.704   1.619   1.857
 7136SOL    HW222308   1.701   1.665   2.013
 7137SOL     OW22309   2.619   1.706   1.847
 7137SOL    HW122310   2.623   1.661   1.936
 7137SOL    HW222311   2.655   1.644   1.776
 7138SOL     OW22312   0.844   2.596   0.349
 7138SOL    HW122313   0.844   2.689   0.387
 7138SOL    HW222314   0.752   2.573   0.319
 7139SOL     OW22315   6.013   6.526   0.867
 7139SOL    HW122316   6.065   6.479   0.796
 7139SOL    HW222317   5.915   6.513   0.852
 7140SOL     OW22318   6.240   3.538   0.201
 7140SOL    HW122319   6.219   3.607   0.132
 7140SOL    HW222320   6.218   3.447   0.165
 7141SOL     OW22321   3.548   0.490   0.822
 7141SOL    HW122322   3.464   0.488   0.877
 7141SOL    HW222323   3.550   0.574   0.768
 7142SOL     OW22324   3.543   0.492   4.813
 7142SOL    HW122325   3.452   0.458   4.835
 7142SOL    HW222326   3.590   0.519   4.897
 7143SOL     OW22327   2.679   4.281   6.561
 7143SOL    HW122328   2.729   4.212   6.507
 7143SOL    HW222329   2.686   4.259   6.658
 7144SOL     OW22330   6.655   0.918   6.044
 7144SOL    HW122331   6.675   0.844   5.979
 7144SOL    HW222332   6.556   0.928   6.053
 7145SOL     OW22333   5.143   2.220   6.235
 7145SOL    HW122334   5.201   2.174   6.303
 7145SOL    HW222335   5.062   2.164   6.217
 7146SOL     OW22336   1.227   2.271   5.703
 7146SOL    HW122337   1.243   2.368   5.687
 7146SOL    HW222338   1.158   2.238   5.638
 7147SOL     OW22339   6.267   6.814   2.104
 7147SOL    HW122340   6.361   6.842   2.086
 7147SOL    HW222341   6.218   6.890   2.148
 7148SOL     OW22342   6.113   0.029   1.036
 7148SOL    HW122343   6.077   6.958   1.042
 7148SOL    HW222344   6.090   0.068   0.948
 7149SOL     OW22345   5.455   4.587   5.762
 7149SOL    HW122346   5.467   4.495   5.726
 7149SOL    HW222347   5.517   4.650   5.714
 7150SOL     OW22348   3.387   3.538   6.753
 7150SOL    HW122349   3.335   3.487   6.821
 7150SOL    HW222350   3.408   3.478   6.675
 7151SOL     OW22351   3.894   1.272   0.599
 7151SOL    HW122352   3.948   1.191   0.622
 7151SOL    HW222353   3.857   1.312   0.683
 7152SOL     OW22354   6.422   1.132   6.710
 7152SOL    HW122355   6.496   1.095   6.654
 7152SOL    HW222356   6.442   1.227   6.733
 7153SOL     OW22357   3.762   5.685   0.604
 7153SOL    HW122358   3.710   5.642   0.678
 7153SOL    HW222359   3.700   5.712   0.531
 7154SOL     OW22360   3.805   1.932   1.997
 7154SOL    HW122361   3.768   2.021   2.024
 7154SOL    HW222362   3.764   1.903   1.911
 7155SOL     OW22363   1.289   1.397   1.851
 7155SOL    HW122364   1.270   1.470   1.917
 7155SOL    HW222365   1.235   1.316   1.876
 7156SOL     OW22366   6.024   2.962   5.641
 7156SOL    HW122367   5.982   2.933   5.727
 7156SOL    HW222368   5.998   2.898   5.568
 7157SOL     OW22369   6.931   4.081   5.726
 7157SOL    HW122370   6.857   4.014   5.725
 7157SOL    HW222371   7.013   4.040   5.766
 7158SOL     OW22372   4.644   0.120   4.056
 7158SOL    HW122373   4.664   0.192   4.123
 7158SOL    HW222374   4.701   0.133   3.975
 7159SOL     OW22375   0.322   6.234   3.392
 7159SOL    HW122376   0.301   6.285   3.309
 7159SOL    HW222377   0.304   6.137   3.378
 7160SOL     OW22378   6.735   0.286   3.540
 7160SOL    HW122379   6.694   0.370   3.574
 7160SOL    HW222380   6.775   0.235   3.616
 7161SOL     OW22381   4.071   3.197   2.987
 7161SOL    HW122382   4.080   3.280   3.043
 7161SOL    HW222383   4.137   3.129   3.017
 7162SOL     OW22384   0.666   5.757   1.704
 7162SOL    HW122385   0.675   5.673   1.757
 7162SOL    HW222386   0.697   5.742   1.611
 7163SOL     OW22387   7.006   1.001   1.544
 7163SOL    HW122388   6.965   1.055   1.471
 7163SOL    HW222389   6.951   0.918   1.560
 7164SOL     OW22390   2.304   1.189   6.639
 7164SOL    HW122391   2.319   1.287   6.655
 7164SOL    HW222392   2.260   1.175   6.550
 7165SOL     OW22393   6.125   1.700   0.569
 7165SOL    HW122394   6.107   1.774   0.634
 7165SOL    HW222395   6.221   1.672   0.576
 7166SOL     OW22396   6.653   5.347   6.154
 7166SOL    HW122397   6.563   5.337   6.199
 7166SOL    HW222398   6.641   5.399   6.069
 7167SOL     OW22399   6.394   2.755   5.140
 7167SOL    HW122400   6.428   2.664   5.165
 7167SOL    HW222401   6.429   2.781   5.050
 7168SOL     OW22402   2.237   1.008   1.974
 7168SOL    HW122403   2.168   1.078   1.987
 7168SOL    HW222404   2.244   0.985   1.876
 7169SOL     OW22405   2.255   4.056   6.093
 7169SOL    HW122406   2.310   4.027   6.015
 7169SOL    HW222407   2.176   3.995   6.103
 7170SOL     OW22408   3.749   1.668   0.862
 7170SOL    HW122409   3.735   1.616   0.947
 7170SOL    HW222410   3.708   1.618   0.785
 7171SOL     OW22411   6.879   3.730   0.647
 7171SOL    HW122412   6.829   3.646   0.668
 7171SOL    HW222413   6.955   3.740   0.711
 7172SOL     OW22414   1.222   2.611   3.849
 7172SOL    HW122415   1.167   2.559   3.914
 7172SOL    HW222416   1.197   2.585   3.756
 7173SOL     OW22417   4.845   5.596   5.820
 7173SOL    HW122418   4.780   5.539   5.770
 7173SOL    HW222419   4.805   5.626   5.906
 7174SOL     OW22420   6.489   4.369   1.888
 7174SOL    HW122421   6.444   4.345   1.803
 7174SOL    HW222422   6.461   4.462   1.915
 7175SOL     OW22423   6.794   3.452   5.978
 7175SOL    HW122424   6.729   3.435   6.053
 7175SOL    HW222425   6.877   3.494   6.015
 7176SOL     OW22426   0.715   0.353   5.475
 7176SOL    HW122427   0.765   0.436   5.499
 7176SOL    HW222428   0.679   0.361   5.382
 7177SOL     OW22429   1.244   5.961   4.051
 7177SOL    HW122430   1.309   5.894   4.016
 7177SOL    HW222431   1.293   6.035   4.096
 7178SOL     OW22432   1.982   6.795   5.074
 7178SOL    HW122433   1.932   6.813   4.990
 7178SOL    HW222434   1.956   6.705   5.109
 7179SOL     OW22435   3.604   5.260   5.982
 7179SOL    HW122436   3.555   5.333   6.030
 7179SOL    HW222437   3.638   5.294   5.894
 7180SOL     OW22438   2.017   3.043   1.436
 7180SOL    HW122439   1.994   3.118   1.374
 7180SOL    HW222440   1.968   3.054   1.522
 7181SOL     OW22441   2.535   1.361   6.047
 7181SOL    HW122442   2.478   1.281   6.027
 7181SOL    HW222443   2.548   1.414   5.963
 7182SOL     OW22444   1.728   1.767   4.089
 7182SOL    HW122445   1.642   1.818   4.085
 7182SOL    HW222446   1.800   1.825   4.128
 7183SOL     OW22447   0.369   6.784   1.862
 7183SOL    HW122448   0.399   6.808   1.954
 7183SOL    HW222449   0.433   6.718   1.822
 7184SOL     OW22450   6.810   0.232   4.067
 7184SOL    HW122451   6.732   0.190   4.021
 7184SOL    HW222452   6.820   0.193   4.159
 7185SOL     OW22453   4.342   0.978   4.512
 7185SOL    HW122454   4.291   1.015   4.590
 7185SOL    HW222455   4.306   1.016   4.427
 7186SOL     OW22456   6.990   0.658   6.744
 7186SOL    HW122457   6.940   0.716   6.809
 7186SOL    HW222458   6.925   0.607   6.688
 7187SOL     OW22459   3.352   3.004   3.928
 7187SOL    HW122460   3.452   3.003   3.921
 7187SOL    HW222461   3.325   2.976   4.020
 7188SOL     OW22462   4.306   4.261   0.084
 7188SOL    HW122463   4.244   4.338   0.069
 7188SOL    HW222464   4.382   4.266   0.019
 7189SOL     OW22465   6.498   2.468   5.922
 7189SOL    HW122466   6.520   2.483   6.018
 7189SOL    HW222467   6.418   2.523   5.898
 7190SOL     OW22468   5.624   4.943   0.535
 7190SOL    HW122469   5.627   4.874   0.462
 7190SOL    HW222470   5.530   4.977   0.544
 7191SOL     OW22471   6.684   5.028   3.918
 7191SOL    HW122472   6.616   5.051   3.988
 7191SOL    HW222473   6.638   5.015   3.830
 7192SOL     OW22474   2.969   4.723   6.676
 7192SOL    HW122475   2.890   4.766   6.633
 7192SOL    HW222476   3.005   4.652   6.616
 7193SOL     OW22477   2.947   2.059   2.650
 7193SOL    HW122478   2.865   2.113   2.667
 7193SOL    HW222479   2.996   2.096   2.571
 7194SOL     OW22480   2.975   2.655   6.223
 7194SOL    HW122481   3.009   2.604   6.144
 7194SOL    HW222482   2.931   2.591   6.287
 7195SOL     OW22483   0.759   4.983   4.955
 7195SOL    HW122484   0.664   4.965   4.982
 7195SOL    HW222485   0.808   5.023   5.032
 7196SOL     OW22486   3.302   4.040   2.053
 7196SOL    HW122487   3.353   4.039   1.967
 7196SOL    HW222488   3.207   4.015   2.037
 7197SOL     OW22489   3.207   4.813   6.544
 7197SOL    HW122490   3.204   4.904   6.585
 7197SOL    HW222491   3.133   4.757   6.582
 7198SOL     OW22492   0.619   0.565   2.038
 7198SOL    HW122493   0.681   0.633   2.075
 7198SOL    HW222494   0.525   0.591   2.059
 7199SOL     OW22495   6.374   1.088   2.548
 7199SOL    HW122496   6.368   1.058   2.643
 7199SOL    HW222497   6.282   1.113   2.516
 7200SOL     OW22498   0.942   2.446   0.553
 7200SOL    HW122499   0.920   2.496   0.469
 7200SOL    HW222500   0.975   2.355   0.530
 7201SOL     OW22501   5.162   5.319   3.865
 7201SOL    HW122502   5.202   5.248   3.924
 7201SOL    HW222503   5.232   5.387   3.842
 7202SOL     OW22504   5.028   0.867   5.914
 7202SOL    HW122505   5.083   0.905   5.840
 7202SOL    HW222506   4.997   0.940   5.974
 7203SOL     OW22507   0.463   1.289   1.160
 7203SOL    HW122508   0.519   1.319   1.236
 7203SOL    HW222509   0.508   1.312   1.074
 7204SOL     OW22510   6.161   0.315   2.265
 7204SOL    HW122511   6.249   0.327   2.311
 7204SOL    HW222512   6.160   0.368   2.180
 7205SOL     OW22513   2.753   1.819   3.824
 7205SOL    HW122514   2.739   1.911   3.859
 7205SOL    HW222515   2.835   1.817   3.766
 7206SOL     OW22516   2.067   3.424   0.420
 7206SOL    HW122517   2.082   3.358   0.494
 7206SOL    HW222518   2.019   3.379   0.344
 7207SOL     OW22519   2.047   1.198   3.696
 7207SOL    HW122520   2.036   1.285   3.647
 7207SOL    HW222521   1.958   1.154   3.706
 7208SOL     OW22522   2.492   0.842   4.555
 7208SOL    HW122523   2.421   0.881   4.497
 7208SOL    HW222524   2.581   0.878   4.528
 7209SOL     OW22525   3.565   1.135   2.075
 7209SOL    HW122526   3.588   1.227   2.041
 7209SOL    HW222527   3.618   1.067   2.024
 7210SOL     OW22528   2.766   1.696   3.219
 7210SOL    HW122529   2.777   1.676   3.316
 7210SOL    HW222530   2.698   1.768   3.207
 7211SOL     OW22531   4.579   6.324   4.654
 7211SOL    HW122532   4.572   6.342   4.752
 7211SOL    HW222533   4.675   6.328   4.626
 7212SOL     OW22534   0.129   4.458   5.832
 7212SOL    HW122535   0.208   4.402   5.809
 7212SOL    HW222536   0.074   4.472   5.750
 7213SOL     OW22537   3.537   2.149   6.841
 7213SOL    HW122538   3.630   2.179   6.820
 7213SOL    HW222539   3.476   2.176   6.767
 7214SOL     OW22540   6.735   0.628   6.382
 7214SOL    HW122541   6.675   0.662   6.454
 7214SOL    HW222542   6.820   0.681   6.381
 7215SOL     OW22543   6.146   2.369   2.226
 7215SOL    HW122544   6.118   2.464   2.239
 7215SOL    HW222545   6.178   2.357   2.132
 7216SOL     OW22546   3.549   6.319   3.799
 7216SOL    HW122547   3.592   6.231   3.779
 7216SOL    HW222548   3.454   6.305   3.827
 7217SOL     OW22549   1.538   3.193   3.063
 7217SOL    HW122550   1.525   3.235   3.153
 7217SOL    HW222551   1.635   3.175   3.048
 7218SOL     OW22552   6.263   3.438   4.618
 7218SOL    HW122553   6.343   3.460   4.562
 7218SOL    HW222554   6.276   3.348   4.660
 7219SOL     OW22555   3.529   5.956   2.736
 7219SOL    HW122556   3.528   6.050   2.702
 7219SOL    HW222557   3.619   5.915   2.718
 7220SOL     OW22558   6.564   4.904   4.154
 7220SOL    HW122559   6.466   4.907   4.176
 7220SOL    HW222560   6.599   4.812   4.171
 7221SOL     OW22561   3.878   5.855   3.763
 7221SOL    HW122562   3.799   5.799   3.787
 7221SOL    HW222563   3.951   5.839   3.829
 7222SOL     OW22564   6.778   5.813   4.667
 7222SOL    HW122565   6.875   5.788   4.662
 7222SOL    HW222566   6.726   5.759   4.600
 7223SOL     OW22567   6.766   4.012   1.880
 7223SOL    HW122568   6.686   3.967   1.841
 7223SOL    HW222569   6.848   3.984   1.830
 7224SOL     OW22570   3.808   1.877   2.918
 7224SOL    HW122571   3.894   1.909   2.958
 7224SOL    HW222572   3.738   1.948   2.929
 7225SOL     OW22573   1.686   6.148   1.007
 7225SOL    HW122574   1.592   6.139   0.976
 7225SOL    HW222575   1.744   6.084   0.957
 7226SOL     OW22576   6.433   6.661   0.634
 7226SOL    HW122577   6.512   6.722   0.643
 7226SOL    HW222578   6.357   6.698   0.688
 7227SOL     OW22579   2.037   0.590   2.360
 7227SOL    HW122580   2.025   0.674   2.308
 7227SOL    HW222581   2.127   0.551   2.341
 7228SOL     OW22582   6.906   2.977   2.191
 7228SOL    HW122583   6.949   3.057   2.150
 7228SOL    HW222584   6.821   2.957   2.143
 7229SOL     OW22585   6.735   0.854   5.674
 7229SOL    HW122586   6.786   0.834   5.591
 7229SOL    HW222587   6.771   0.798   5.749
 7230SOL     OW22588   1.920   5.436   4.388
 7230SOL    HW122589   1.838   5.394   4.426
 7230SOL    HW222590   2.000   5.405   4.438
 7231SOL     OW22591   4.417   2.249   6.477
 7231SOL    HW122592   4.515   2.270   6.480
 7231SOL    HW222593   4.402   2.159   6.517
 7232SOL     OW22594   5.293   7.002   3.402
 7232SOL    HW122595   5.259   7.021   3.494
 7232SOL    HW222596   5.237   0.029   3.335
 7233SOL     OW22597   6.865   1.143   4.873
 7233SOL    HW122598   6.814   1.218   4.914
 7233SOL    HW222599   6.834   1.056   4.911
 7234SOL     OW22600   5.071   4.203   3.040
 7234SOL    HW122601   4.976   4.218   3.014
 7234SOL    HW222602   5.108   4.287   3.081
 7235SOL     OW22603   6.918   5.486   1.664
 7235SOL    HW122604   6.865   5.494   1.749
 7235SOL    HW222605   6.928   5.576   1.623
 7236SOL     OW22606   1.222   3.306   2.497
 7236SOL    HW122607   1.215   3.366   2.417
 7236SOL    HW222608   1.318   3.298   2.524
 7237SOL     OW22609   5.388   1.144   0.232
 7237SOL    HW122610   5.390   1.154   0.331
 7237SOL    HW222611   5.317   1.202   0.193
 7238SOL     OW22612   3.832   3.152   0.202
 7238SOL    HW122613   3.750   3.097   0.219
 7238SOL    HW222614   3.901   3.133   0.272
 7239SOL     OW22615   0.163   2.370   2.104
 7239SOL    HW122616   0.186   2.295   2.042
 7239SOL    HW222617   0.137   2.333   2.193
 7240SOL     OW22618   6.974   2.050   6.777
 7240SOL    HW122619   6.881   2.059   6.743
 7240SOL    HW222620   6.988   1.957   6.812
 7241SOL     OW22621   2.116   1.304   1.280
 7241SOL    HW122622   2.112   1.275   1.185
 7241SOL    HW222623   2.125   1.403   1.284
 7242SOL     OW22624   6.495   5.181   4.407
 7242SOL    HW122625   6.558   5.211   4.336
 7242SOL    HW222626   6.402   5.176   4.368
 7243SOL     OW22627   6.236   4.364   6.369
 7243SOL    HW122628   6.170   4.419   6.318
 7243SOL    HW222629   6.229   4.384   6.467
 7244SOL     OW22630   0.585   5.643   0.022
 7244SOL    HW122631   0.518   5.698   6.994
 7244SOL    HW222632   0.670   5.639   6.992
 7245SOL     OW22633   1.015   3.469   0.477
 7245SOL    HW122634   0.930   3.466   0.425
 7245SOL    HW222635   0.997   3.507   0.567
 7246SOL     OW22636   3.739   6.752   4.081
 7246SOL    HW122637   3.672   6.692   4.038
 7246SOL    HW222638   3.770   6.820   4.015
 7247SOL     OW22639   3.258   3.756   5.296
 7247SOL    HW122640   3.168   3.799   5.307
 7247SOL    HW222641   3.247   3.656   5.298
 7248SOL     OW22642   3.578   1.238   4.853
 7248SOL    HW122643   3.623   1.194   4.775
 7248SOL    HW222644   3.550   1.331   4.826
 7249SOL     OW22645   4.040   5.343   2.314
 7249SOL    HW122646   3.968   5.273   2.322
 7249SOL    HW222647   4.005   5.430   2.348
 7250SOL     OW22648   5.244   5.524   5.686
 7250SOL    HW122649   5.277   5.553   5.776
 7250SOL    HW222650   5.307   5.559   5.616
 7251SOL     OW22651   6.746   5.435   5.627
 7251SOL    HW122652   6.745   5.516   5.568
 7251SOL    HW222653   6.809   5.450   5.703
 7252SOL     OW22654   3.369   4.096   2.305
 7252SOL    HW122655   3.350   4.053   2.216
 7252SOL    HW222656   3.391   4.192   2.291
 7253SOL     OW22657   1.679   5.870   5.299
 7253SOL    HW122658   1.692   5.969   5.304
 7253SOL    HW222659   1.743   5.825   5.361
 7254SOL     OW22660   5.118   3.816   3.945
 7254SOL    HW122661   5.121   3.719   3.920
 7254SOL    HW222662   5.024   3.843   3.963
 7255SOL     OW22663   5.113   3.097   6.204
 7255SOL    HW122664   5.099   3.182   6.255
 7255SOL    HW222665   5.207   3.064   6.219
 7256SOL     OW22666   3.227   6.857   5.563
 7256SOL    HW122667   3.162   6.932   5.577
 7256SOL    HW222668   3.183   6.784   5.510
 7257SOL     OW22669   0.753   1.829   4.455
 7257SOL    HW122670   0.662   1.795   4.431
 7257SOL    HW222671   0.780   1.900   4.390
 7258SOL     OW22672   6.205   2.229   3.278
 7258SOL    HW122673   6.213   2.179   3.364
 7258SOL    HW222674   6.286   2.211   3.222
 7259SOL     OW22675   1.133   4.508   3.042
 7259SOL    HW122676   1.217   4.524   2.991
 7259SOL    HW222677   1.153   4.507   3.140
 7260SOL     OW22678   5.458   3.149   1.446
 7260SOL    HW122679   5.376   3.100   1.415
 7260SOL    HW222680   5.434   3.210   1.521
 7261SOL     OW22681   6.976   4.056   6.529
 7261SOL    HW122682   0.015   4.089   6.600
 7261SOL    HW222683   6.890   4.107   6.533
 7262SOL     OW22684   6.331   1.631   5.733
 7262SOL    HW122685   6.321   1.562   5.661
 7262SOL    HW222686   6.421   1.621   5.776
 7263SOL     OW22687   0.378   5.024   0.026
 7263SOL    HW122688   0.330   4.937   0.022
 7263SOL    HW222689   0.315   5.095   0.058
 7264SOL     OW22690   6.183   1.579   0.884
 7264SOL    HW122691   6.188   1.520   0.804
 7264SOL    HW222692   6.197   1.674   0.857
 7265SOL     OW22693   4.477   5.675   5.574
 7265SOL    HW122694   4.484   5.723   5.486
 7265SOL    HW222695   4.383   5.644   5.587
 7266SOL     OW22696   0.220   0.883   3.882
 7266SOL    HW122697   0.244   0.965   3.830
 7266SOL    HW222698   0.197   0.809   3.818
 7267SOL     OW22699   6.251   5.544   4.275
 7267SOL    HW122700   6.165   5.590   4.294
 7267SOL    HW222701   6.239   5.446   4.284
 7268SOL     OW22702   6.055   6.291   4.209
 7268SOL    HW122703   5.993   6.369   4.200
 7268SOL    HW222704   6.093   6.289   4.301
 7269SOL     OW22705   2.545   4.579   5.007
 7269SOL    HW122706   2.534   4.498   5.064
 7269SOL    HW222707   2.638   4.614   5.016
 7270SOL     OW22708   0.547   1.696   4.326
 7270SOL    HW122709   0.583   1.603   4.332
 7270SOL    HW222710   0.448   1.694   4.337
 7271SOL     OW22711   0.944   4.128   3.774
 7271SOL    HW122712   0.863   4.070   3.759
 7271SOL    HW222713   0.951   4.150   3.871
 7272SOL     OW22714   5.972   5.429   3.157
 7272SOL    HW122715   6.057   5.444   3.107
 7272SOL    HW222716   5.922   5.354   3.114
 7273SOL     OW22717   0.135   2.512   5.579
 7273SOL    HW122718   0.046   2.554   5.560
 7273SOL    HW222719   0.124   2.413   5.588
 7274SOL     OW22720   0.485   4.222   6.972
 7274SOL    HW122721   0.555   4.209   0.020
 7274SOL    HW222722   0.394   4.221   7.014
 7275SOL     OW22723   6.509   0.235   2.936
 7275SOL    HW122724   6.514   0.153   2.879
 7275SOL    HW222725   6.601   0.273   2.948
 7276SOL     OW22726   4.525   6.921   3.905
 7276SOL    HW122727   4.551   7.007   3.949
 7276SOL    HW222728   4.426   6.908   3.913
 7277SOL     OW22729   4.330   0.631   5.897
 7277SOL    HW122730   4.330   0.685   5.981
 7277SOL    HW222731   4.242   0.641   5.851
 7278SOL     OW22732   2.928   3.774   2.749
 7278SOL    HW122733   2.890   3.782   2.656
 7278SOL    HW222734   2.975   3.686   2.758
 7279SOL     OW22735   3.573   6.342   6.102
 7279SOL    HW122736   3.520   6.415   6.146
 7279SOL    HW222737   3.519   6.302   6.028
 7280SOL     OW22738   4.552   1.321   5.794
 7280SOL    HW122739   4.453   1.318   5.779
 7280SOL    HW222740   4.574   1.271   5.877
 7281SOL     OW22741   4.145   1.023   0.072
 7281SOL    HW122742   4.222   1.081   0.101
 7281SOL    HW222743   4.065   1.080   0.055
 7282SOL     OW22744   6.376   5.441   1.875
 7282SOL    HW122745   6.347   5.419   1.781
 7282SOL    HW222746   6.356   5.363   1.935
 7283SOL     OW22747   2.261   0.833   3.872
 7283SOL    HW122748   2.255   0.733   3.866
 7283SOL    HW222749   2.169   0.871   3.883
 7284SOL     OW22750   6.959   3.949   5.333
 7284SOL    HW122751   6.974   3.854   5.360
 7284SOL    HW222752   0.013   3.979   5.276
 7285SOL     OW22753   5.316   5.750   2.247
 7285SOL    HW122754   5.372   5.746   2.164
 7285SOL    HW222755   5.220   5.762   2.222
 7286SOL     OW22756   2.384   3.032   1.242
 7286SOL    HW122757   2.473   3.048   1.287
 7286SOL    HW222758   2.393   2.959   1.175
 7287SOL     OW22759   6.393   0.906   6.365
 7287SOL    HW122760   6.309   0.927   6.414
 7287SOL    HW222761   6.371   0.858   6.280
 7288SOL     OW22762   3.998   0.160   6.596
 7288SOL    HW122763   3.977   0.135   6.502
 7288SOL    HW222764   4.012   0.259   6.601
 7289SOL     OW22765   5.186   1.863   3.245
 7289SOL    HW122766   5.221   1.936   3.303
 7289SOL    HW222767   5.113   1.814   3.293
 7290SOL     OW22768   2.500   5.002   4.544
 7290SOL    HW122769   2.582   4.945   4.540
 7290SOL    HW222770   2.431   4.955   4.599
 7291SOL     OW22771   2.774   5.956   1.668
 7291SOL    HW122772   2.788   6.053   1.688
 7291SOL    HW222773   2.709   5.946   1.592
 7292SOL     OW22774   2.609   6.855   3.866
 7292SOL    HW122775   2.519   6.900   3.861
 7292SOL    HW222776   2.645   6.842   3.774
 7293SOL     OW22777   1.802   2.049   5.381
 7293SOL    HW122778   1.756   1.963   5.403
 7293SOL    HW222779   1.864   2.074   5.455
 7294SOL     OW22780   2.944   4.792   0.625
 7294SOL    HW122781   3.010   4.717   0.617
 7294SOL    HW222782   2.894   4.801   0.539
 7295SOL     OW22783   6.895   0.802   0.790
 7295SOL    HW122784   6.964   0.730   0.802
 7295SOL    HW222785   6.842   0.811   0.874
 7296SOL     OW22786   3.235   4.994   0.809
 7296SOL    HW122787   3.198   4.996   0.902
 7296SOL    HW222788   3.332   5.018   0.810
 7297SOL     OW22789   4.756   6.800   1.377
 7297SOL    HW122790   4.777   6.846   1.463
 7297SOL    HW222791   4.709   6.713   1.396
 7298SOL     OW22792   6.141   3.790   4.203
 7298SOL    HW122793   6.086   3.835   4.133
 7298SOL    HW222794   6.119   3.692   4.205
 7299SOL     OW22795   6.122   3.284   0.125
 7299SOL    HW122796   6.040   3.303   0.179
 7299SOL    HW222797   6.113   3.195   0.080
 7300SOL     OW22798   5.116   5.282   1.067
 7300SOL    HW122799   5.173   5.257   0.988
 7300SOL    HW222800   5.174   5.302   1.145
 7301SOL     OW22801   6.866   6.874   6.147
 7301SOL    HW122802   6.859   6.785   6.102
 7301SOL    HW222803   6.852   6.862   6.245
 7302SOL     OW22804   6.006   0.896   6.594
 7302SOL    HW122805   5.998   0.994   6.611
 7302SOL    HW222806   5.990   0.846   6.679
 7303SOL     OW22807   3.114   0.629   0.070
 7303SOL    HW122808   3.120   0.529   0.069
 7303SOL    HW222809   3.065   0.661   7.012
 7304SOL     OW22810   4.514   3.748   6.025
 7304SOL    HW122811   4.454   3.769   5.948
 7304SOL    HW222812   4.484   3.797   6.107
 7305SOL     OW22813   4.649   1.109   0.616
 7305SOL    HW122814   4.637   1.029   0.557
 7305SOL    HW222815   4.735   1.100   0.666
 7306SOL     OW22816   4.539   5.149   1.733
 7306SOL    HW122817   4.544   5.233   1.788
 7306SOL    HW222818   4.491   5.079   1.785
 7307SOL     OW22819   4.082   6.592   1.943
 7307SOL    HW122820   3.992   6.571   1.982
 7307SOL    HW222821   4.152   6.580   2.013
 7308SOL     OW22822   6.753   3.220   4.761
 7308SOL    HW122823   6.658   3.232   4.791
 7308SOL    HW222824   6.754   3.169   4.675
 7309SOL     OW22825   5.002   6.770   1.204
 7309SOL    HW122826   5.044   6.696   1.258
 7309SOL    HW222827   4.905   6.776   1.225
 7310SOL     OW22828   2.912   5.091   1.441
 7310SOL    HW122829   3.006   5.057   1.449
 7310SOL    HW222830   2.882   5.125   1.530
 7311SOL     OW22831   2.732   2.144   1.871
 7311SOL    HW122832   2.782   2.218   1.916
 7311SOL    HW222833   2.643   2.178   1.839
 7312SOL     OW22834   6.607   1.800   5.662
 7312SOL    HW122835   6.642   1.877   5.715
 7312SOL    HW222836   6.572   1.729   5.724
 7313SOL     OW22837   3.727   2.447   6.235
 7313SOL    HW122838   3.768   2.438   6.326
 7313SOL    HW222839   3.761   2.530   6.191
 7314SOL     OW22840   0.312   3.492   4.835
 7314SOL    HW122841   0.215   3.472   4.842
 7314SOL    HW222842   0.361   3.451   4.912
 7315SOL     OW22843   6.816   6.992   3.923
 7315SOL    HW122844   6.867   0.034   3.867
 7315SOL    HW222845   6.748   6.945   3.866
 7316SOL     OW22846   3.640   3.482   5.841
 7316SOL    HW122847   3.571   3.518   5.777
 7316SOL    HW222848   3.660   3.387   5.818
 7317SOL     OW22849   3.104   1.004   3.278
 7317SOL    HW122850   3.017   1.053   3.269
 7317SOL    HW222851   3.091   0.923   3.335
 7318SOL     OW22852   1.402   2.433   1.366
 7318SOL    HW122853   1.447   2.497   1.429
 7318SOL    HW222854   1.312   2.410   1.402
 7319SOL     OW22855   6.161   4.402   6.779
 7319SOL    HW122856   6.159   4.414   6.878
 7319SOL    HW222857   6.251   4.429   6.744
 7320SOL     OW22858   0.269   3.310   2.233
 7320SOL    HW122859   0.318   3.390   2.269
 7320SOL    HW222860   0.241   3.252   2.309
 7321SOL     OW22861   2.351   1.629   4.305
 7321SOL    HW122862   2.348   1.653   4.208
 7321SOL    HW222863   2.269   1.665   4.351
 7322SOL     OW22864   0.712   3.923   2.985
 7322SOL    HW122865   0.631   3.875   3.020
 7322SOL    HW222866   0.754   3.869   2.912
 7323SOL     OW22867   1.897   2.481   3.463
 7323SOL    HW122868   1.828   2.408   3.459
 7323SOL    HW222869   1.971   2.452   3.523
 7324SOL     OW22870   6.312   0.787   3.253
 7324SOL    HW122871   6.226   0.810   3.297
 7324SOL    HW222872   6.363   0.871   3.231
 7325SOL     OW22873   3.111   6.668   6.513
 7325SOL    HW122874   3.060   6.585   6.488
 7325SOL    HW222875   3.175   6.646   6.587
 7326SOL     OW22876   2.464   6.874   5.641
 7326SOL    HW122877   2.403   6.801   5.670
 7326SOL    HW222878   2.559   6.846   5.658
 7327SOL     OW22879   1.585   2.793   6.457
 7327SOL    HW122880   1.575   2.771   6.360
 7327SOL    HW222881   1.595   2.892   6.468
 7328SOL     OW22882   2.461   6.910   6.719
 7328SOL    HW122883   2.518   6.846   6.772
 7328SOL    HW222884   2.432   6.865   6.634
 7329SOL     OW22885   3.954   3.498   0.991
 7329SOL    HW122886   4.008   3.442   1.053
 7329SOL    HW222887   3.997   3.499   0.901
 7330SOL     OW22888   3.565   1.357   6.678
 7330SOL    HW122889   3.639   1.424   6.676
 7330SOL    HW222890   3.500   1.378   6.605
 7331SOL     OW22891   5.024   0.776   2.383
 7331SOL    HW122892   4.969   0.825   2.451
 7331SOL    HW222893   5.093   0.721   2.430
 7332SOL     OW22894   2.962   5.499   0.558
 7332SOL    HW122895   3.046   5.445   0.558
 7332SOL    HW222896   2.954   5.549   0.644
 7333SOL     OW22897   0.950   4.847   2.796
 7333SOL    HW122898   0.874   4.887   2.746
 7333SOL    HW222899   0.914   4.788   2.869
 7334SOL     OW22900   4.011   5.987   5.115
 7334SOL    HW122901   3.915   6.007   5.099
 7334SOL    HW222902   4.055   6.067   5.156
 7335SOL     OW22903   1.929   1.913   2.754
 7335SOL    HW122904   1.938   1.820   2.717
 7335SOL    HW222905   1.923   1.909   2.853
 7336SOL     OW22906   2.472   5.979   4.351
 7336SOL    HW122907   2.528   6.050   4.394
 7336SOL    HW222908   2.470   5.995   4.252
 7337SOL     OW22909   0.015   3.195   2.122
 7337SOL    HW122910   0.105   3.230   2.147
 7337SOL    HW222911   6.987   3.265   2.073
 7338SOL     OW22912   6.663   2.254   1.099
 7338SOL    HW122913   6.682   2.330   1.161
 7338SOL    HW222914   6.694   2.169   1.141
 7339SOL     OW22915   6.616   5.555   4.640
 7339SOL    HW122916   6.593   5.587   4.549
 7339SOL    HW222917   6.621   5.455   4.640
 7340SOL     OW22918   2.202   6.781   6.981
 7340SOL    HW122919   2.125   6.728   7.016
 7340SOL    HW222920   2.283   6.763   0.015
 7341SOL     OW22921   6.272   2.406   6.517
 7341SOL    HW122922   6.294   2.502   6.497
 7341SOL    HW222923   6.356   2.358   6.543
 7342SOL     OW22924   0.002   6.854   2.503
 7342SOL    HW122925   0.035   6.761   2.517
 7342SOL    HW222926   0.008   6.878   2.406
 7343SOL     OW22927   5.545   3.643   0.508
 7343SOL    HW122928   5.597   3.705   0.450
 7343SOL    HW222929   5.607   3.584   0.559
 7344SOL     OW22930   1.452   5.909   6.503
 7344SOL    HW122931   1.490   5.999   6.523
 7344SOL    HW222932   1.485   5.878   6.414
 7345SOL     OW22933   3.825   4.486   5.768
 7345SOL    HW122934   3.816   4.534   5.680
 7345SOL    HW222935   3.735   4.454   5.798
 7346SOL     OW22936   4.664   5.049   3.100
 7346SOL    HW122937   4.635   5.118   3.166
 7346SOL    HW222938   4.687   4.964   3.147
 7347SOL     OW22939   6.058   2.341   6.364
 7347SOL    HW122940   6.129   2.355   6.432
 7347SOL    HW222941   6.012   2.428   6.344
 7348SOL     OW22942   0.871   4.385   2.218
 7348SOL    HW122943   0.925   4.454   2.169
 7348SOL    HW222944   0.774   4.405   2.207
 7349SOL     OW22945   3.616   1.522   1.461
 7349SOL    HW122946   3.531   1.516   1.408
 7349SOL    HW222947   3.660   1.610   1.443
 7350SOL     OW22948   3.167   0.539   5.552
 7350SOL    HW122949   3.087   0.480   5.563
 7350SOL    HW222950   3.189   0.548   5.455
 7351SOL     OW22951   3.781   4.977   4.221
 7351SOL    HW122952   3.778   5.065   4.268
 7351SOL    HW222953   3.696   4.927   4.240
 7352SOL     OW22954   6.891   2.577   3.373
 7352SOL    HW122955   6.974   2.549   3.324
 7352SOL    HW222956   6.868   2.671   3.349
 7353SOL     OW22957   6.319   0.377   6.599
 7353SOL    HW122958   6.317   0.428   6.513
 7353SOL    HW222959   6.272   0.429   6.670
 7354SOL     OW22960   1.094   0.981   2.615
 7354SOL    HW122961   1.184   0.939   2.598
 7354SOL    HW222962   1.088   1.067   2.564
 7355SOL     OW22963   0.992   2.043   6.709
 7355SOL    HW122964   0.978   2.142   6.710
 7355SOL    HW222965   0.964   2.004   6.797
 7356SOL     OW22966   4.235   3.562   5.922
 7356SOL    HW122967   4.204   3.544   5.828
 7356SOL    HW222968   4.316   3.620   5.919
 7357SOL     OW22969   5.239   6.129   2.388
 7357SOL    HW122970   5.179   6.057   2.422
 7357SOL    HW222971   5.334   6.099   2.395
 7358SOL     OW22972   5.475   1.646   3.349
 7358SOL    HW122973   5.416   1.566   3.366
 7358SOL    HW222974   5.478   1.664   3.251
 7359SOL     OW22975   4.788   7.015   6.967
 7359SOL    HW122976   4.801   0.055   6.890
 7359SOL    HW222977   4.700   6.968   6.957
 7360SOL     OW22978   2.894   3.323   5.138
 7360SOL    HW122979   2.945   3.271   5.207
 7360SOL    HW222980   2.906   3.279   5.048
 7361SOL     OW22981   5.077   0.424   2.880
 7361SOL    HW122982   5.087   0.524   2.871
 7361SOL    HW222983   5.167   0.384   2.896
 7362SOL     OW22984   3.743   5.536   6.769
 7362SOL    HW122985   3.722   5.444   6.800
 7362SOL    HW222986   3.841   5.544   6.751
 7363SOL     OW22987   3.941   0.006   1.535
 7363SOL    HW122988   3.857   0.060   1.544
 7363SOL    HW222989   4.005   0.055   1.476
 7364SOL     OW22990   5.336   0.012   1.669
 7364SOL    HW122991   5.431   0.042   1.676
 7364SOL    HW222992   5.281   0.083   1.624
 7365SOL     OW22993   5.716   4.865   1.949
 7365SOL    HW122994   5.629   4.897   1.987
 7365SOL    HW222995   5.726   4.900   1.855
 7366SOL     OW22996   1.836   1.226   4.107
 7366SOL    HW122997   1.832   1.134   4.067
 7366SOL    HW222998   1.908   1.228   4.177
 7367SOL     OW22999   4.377   0.554   6.377
 7367SOL    HW123000   4.362   0.644   6.337
 7367SOL    HW223001   4.469   0.549   6.415
 7368SOL     OW23002   4.125   3.430   3.102
 7368SOL    HW123003   4.147   3.488   3.182
 7368SOL    HW223004   4.145   3.481   3.018
 7369SOL     OW23005   6.035   2.394   1.134
 7369SOL    HW123006   5.979   2.393   1.051
 7369SOL    HW223007   6.032   2.304   1.177
 7370SOL     OW23008   2.108   2.095   4.495
 7370SOL    HW123009   2.143   2.182   4.530
 7370SOL    HW223010   2.179   2.025   4.502
 7371SOL     OW23011   3.982   0.747   4.042
 7371SOL    HW123012   3.971   0.793   4.130
 7371SOL    HW223013   4.037   0.803   3.981
 7372SOL     OW23014   5.080   0.278   4.834
 7372SOL    HW123015   5.028   0.353   4.793
 7372SOL    HW223016   5.051   0.191   4.793
 7373SOL     OW23017   5.591   3.195   4.494
 7373SOL    HW123018   5.655   3.229   4.562
 7373SOL    HW223019   5.510   3.158   4.539
 7374SOL     OW23020   0.001   1.934   5.828
 7374SOL    HW123021   6.938   1.940   5.880
 7374SOL    HW223022   0.057   2.014   5.848
 7375SOL     OW23023   2.078   3.213   2.304
 7375SOL    HW123024   2.122   3.138   2.255
 7375SOL    HW223025   2.108   3.212   2.400
 7376SOL     OW23026   0.351   4.113   0.340
 7376SOL    HW123027   0.438   4.097   0.293
 7376SOL    HW223028   0.280   4.136   0.273
 7377SOL     OW23029   3.090   6.216   0.115
 7377SOL    HW123030   3.010   6.178   0.069
 7377SOL    HW223031   3.149   6.143   0.148
 7378SOL     OW23032   1.346   6.197   4.292
 7378SOL    HW123033   1.419   6.261   4.268
 7378SOL    HW223034   1.263   6.247   4.315
 7379SOL     OW23035   4.198   0.861   0.858
 7379SOL    HW123036   4.102   0.831   0.865
 7379SOL    HW223037   4.208   0.950   0.901
 7380SOL     OW23038   5.409   3.303   2.574
 7380SOL    HW123039   5.327   3.262   2.534
 7380SOL    HW223040   5.401   3.402   2.572
 7381SOL     OW23041   3.840   0.910   0.606
 7381SOL    HW123042   3.933   0.945   0.611
 7381SOL    HW223043   3.783   0.956   0.674
 7382SOL     OW23044   6.526   1.151   6.342
 7382SOL    HW123045   6.478   1.180   6.259
 7382SOL    HW223046   6.490   1.063   6.372
 7383SOL     OW23047   2.287   6.630   0.770
 7383SOL    HW123048   2.303   6.544   0.819
 7383SOL    HW223049   2.362   6.694   0.789
 7384SOL     OW23050   0.405   7.002   0.948
 7384SOL    HW123051   0.415   0.061   1.006
 7384SOL    HW223052   0.334   7.018   0.880
 7385SOL     OW23053   5.670   4.845   2.780
 7385SOL    HW123054   5.749   4.901   2.753
 7385SOL    HW223055   5.701   4.758   2.817
 7386SOL     OW23056   6.301   3.733   0.385
 7386SOL    HW123057   6.285   3.678   0.303
 7386SOL    HW223058   6.275   3.680   0.466
 7387SOL     OW23059   6.451   5.671   5.561
 7387SOL    HW123060   6.514   5.669   5.639
 7387SOL    HW223061   6.375   5.609   5.578
 7388SOL     OW23062   2.152   5.610   2.481
 7388SOL    HW123063   2.131   5.681   2.548
 7388SOL    HW223064   2.245   5.576   2.497
 7389SOL     OW23065   5.670   3.388   0.623
 7389SOL    HW123066   5.594   3.362   0.563
 7389SOL    HW223067   5.697   3.310   0.678
 7390SOL     OW23068   2.302   1.709   2.770
 7390SOL    HW123069   2.306   1.771   2.692
 7390SOL    HW223070   2.260   1.623   2.742
 7391SOL     OW23071   3.796   3.304   3.094
 7391SOL    HW123072   3.764   3.214   3.125
 7391SOL    HW223073   3.879   3.292   3.038
 7392SOL     OW23074   3.114   6.066   6.491
 7392SOL    HW123075   3.207   6.085   6.521
 7392SOL    HW223076   3.065   6.016   6.564
 7393SOL     OW23077   5.316   5.493   4.228
 7393SOL    HW123078   5.359   5.555   4.295
 7393SOL    HW223079   5.314   5.538   4.138
 7394SOL     OW23080   2.160   1.879   5.971
 7394SOL    HW123081   2.117   1.955   6.020
 7394SOL    HW223082   2.229   1.916   5.908
 7395SOL     OW23083   2.902   5.615   0.820
 7395SOL    HW123084   2.825   5.572   0.866
 7395SOL    HW223085   2.912   5.709   0.854
 7396SOL     OW23086   2.626   5.177   2.182
 7396SOL    HW123087   2.552   5.179   2.250
 7396SOL    HW223088   2.590   5.141   2.096
 7397SOL     OW23089   5.678   4.124   3.890
 7397SOL    HW123090   5.756   4.069   3.919
 7397SOL    HW223091   5.709   4.216   3.866
 7398SOL     OW23092   2.271   4.171   2.722
 7398SOL    HW123093   2.185   4.125   2.698
 7398SOL    HW223094   2.348   4.110   2.706
 7399SOL     OW23095   5.226   2.174   4.841
 7399SOL    HW123096   5.127   2.188   4.841
 7399SOL    HW223097   5.249   2.095   4.897
 7400SOL     OW23098   5.436   2.910   5.754
 7400SOL    HW123099   5.502   2.964   5.702
 7400SOL    HW223100   5.361   2.882   5.695
 7401SOL     OW23101   1.416   2.977   3.948
 7401SOL    HW123102   1.439   2.879   3.950
 7401SOL    HW223103   1.407   3.011   4.041
 7402SOL     OW23104   3.195   6.265   5.368
 7402SOL    HW123105   3.151   6.189   5.320
 7402SOL    HW223106   3.241   6.231   5.450
 7403SOL     OW23107   1.365   3.184   4.628
 7403SOL    HW123108   1.276   3.230   4.629
 7403SOL    HW223109   1.433   3.240   4.676
 7404SOL     OW23110   3.074   4.012   0.605
 7404SOL    HW123111   2.999   4.053   0.554
 7404SOL    HW223112   3.058   3.914   0.615
 7405SOL     OW23113   3.544   6.257   4.754
 7405SOL    HW123114   3.570   6.353   4.743
 7405SOL    HW223115   3.621   6.199   4.727
 7406SOL     OW23116   0.905   1.110   4.798
 7406SOL    HW123117   0.953   1.197   4.783
 7406SOL    HW223118   0.964   1.048   4.848
 7407SOL     OW23119   0.651   5.500   5.568
 7407SOL    HW123120   0.611   5.530   5.654
 7407SOL    HW223121   0.583   5.508   5.495
 7408SOL     OW23122   3.505   4.397   5.265
 7408SOL    HW123123   3.604   4.387   5.277
 7408SOL    HW223124   3.473   4.479   5.313
 7409SOL     OW23125   6.412   3.904   0.569
 7409SOL    HW123126   6.432   3.839   0.642
 7409SOL    HW223127   6.353   3.860   0.501
 7410SOL     OW23128   0.083   0.192   1.261
 7410SOL    HW123129   0.132   0.238   1.186
 7410SOL    HW223130   0.006   0.250   1.290
 7411SOL     OW23131   1.642   2.328   5.063
 7411SOL    HW123132   1.704   2.325   4.984
 7411SOL    HW223133   1.631   2.235   5.099
 7412SOL     OW23134   4.528   6.598   6.786
 7412SOL    HW123135   4.516   6.593   6.687
 7412SOL    HW223136   4.598   6.531   6.814
 7413SOL     OW23137   4.236   6.609   2.993
 7413SOL    HW123138   4.329   6.574   2.995
 7413SOL    HW223139   4.185   6.573   3.071
 7414SOL     OW23140   2.714   1.768   4.389
 7414SOL    HW123141   2.738   1.682   4.344
 7414SOL    HW223142   2.655   1.822   4.329
 7415SOL     OW23143   3.682   6.565   6.402
 7415SOL    HW123144   3.775   6.531   6.384
 7415SOL    HW223145   3.683   6.665   6.400
 7416SOL     OW23146   0.840   1.049   2.299
 7416SOL    HW123147   0.776   1.028   2.373
 7416SOL    HW223148   0.800   1.120   2.241
 7417SOL     OW23149   0.626   1.428   3.545
 7417SOL    HW123150   0.677   1.494   3.599
 7417SOL    HW223151   0.618   1.342   3.596
 7418SOL     OW23152   1.997   3.915   6.107
 7418SOL    HW123153   1.910   3.880   6.140
 7418SOL    HW223154   1.986   3.950   6.014
 7419SOL     OW23155   6.974   3.607   3.937
 7419SOL    HW123156   6.983   3.687   3.878
 7419SOL    HW223157   0.009   3.533   3.902
 7420SOL     OW23158   6.452   7.006   1.351
 7420SOL    HW123159   6.495   6.955   1.426
 7420SOL    HW223160   6.517   0.050   1.314
 7421SOL     OW23161   4.765   4.117   1.762
 7421SOL    HW123162   4.721   4.062   1.691
 7421SOL    HW223163   4.857   4.143   1.731
 7422SOL     OW23164   5.215   2.131   2.675
 7422SOL    HW123165   5.235   2.173   2.587
 7422SOL    HW223166   5.198   2.033   2.663
 7423SOL     OW23167   5.520   1.932   6.098
 7423SOL    HW123168   5.502   1.858   6.034
 7423SOL    HW223169   5.614   1.964   6.086
 7424SOL     OW23170   0.956   1.903   3.722
 7424SOL    HW123171   0.909   1.818   3.746
 7424SOL    HW223172   0.923   1.937   3.634
 7425SOL     OW23173   6.039   0.690   0.460
 7425SOL    HW123174   6.026   0.769   0.401
 7425SOL    HW223175   6.087   0.618   0.410
 7426SOL     OW23176   3.783   3.210   6.109
 7426SOL    HW123177   3.703   3.214   6.170
 7426SOL    HW223178   3.862   3.176   6.160
 7427SOL     OW23179   3.090   1.165   4.007
 7427SOL    HW123180   3.110   1.076   4.048
 7427SOL    HW223181   3.165   1.229   4.028
 7428SOL     OW23182   4.545   6.116   5.410
 7428SOL    HW123183   4.459   6.161   5.434
 7428SOL    HW223184   4.621   6.181   5.420
 7429SOL     OW23185   1.427   6.671   2.550
 7429SOL    HW123186   1.484   6.736   2.599
 7429SOL    HW223187   1.332   6.703   2.550
 7430SOL     OW23188   6.791   5.380   2.519
 7430SOL    HW123189   6.798   5.402   2.616
 7430SOL    HW223190   6.881   5.394   2.476
 7431SOL     OW23191   1.620   1.733   3.653
 7431SOL    HW123192   1.655   1.676   3.728
 7431SOL    HW223193   1.561   1.677   3.594
 7432SOL     OW23194   2.101   0.013   3.348
 7432SOL    HW123195   2.162   7.007   3.422
 7432SOL    HW223196   2.110   6.973   3.271
 7433SOL     OW23197   2.824   0.159   6.622
 7433SOL    HW123198   2.875   0.163   6.536
 7433SOL    HW223199   2.862   0.088   6.680
 7434SOL     OW23200   4.002   6.398   5.259
 7434SOL    HW123201   4.052   6.482   5.280
 7434SOL    HW223202   3.903   6.417   5.261
 7435SOL     OW23203   4.991   4.921   3.161
 7435SOL    HW123204   5.017   4.965   3.247
 7435SOL    HW223205   5.073   4.895   3.110
 7436SOL     OW23206   5.261   2.608   6.300
 7436SOL    HW123207   5.262   2.699   6.259
 7436SOL    HW223208   5.230   2.541   6.233
 7437SOL     OW23209   3.722   6.626   0.948
 7437SOL    HW123210   3.623   6.639   0.939
 7437SOL    HW223211   3.764   6.711   0.980
 7438SOL     OW23212   2.492   0.589   0.218
 7438SOL    HW123213   2.484   0.681   0.179
 7438SOL    HW223214   2.503   0.522   0.145
 7439SOL     OW23215   1.305   4.284   6.059
 7439SOL    HW123216   1.228   4.312   6.002
 7439SOL    HW223217   1.282   4.300   6.155
 7440SOL     OW23218   5.567   3.839   4.313
 7440SOL    HW123219   5.500   3.826   4.240
 7440SOL    HW223220   5.530   3.901   4.382
 7441SOL     OW23221   6.031   5.796   1.408
 7441SOL    HW123222   6.004   5.856   1.332
 7441SOL    HW223223   6.128   5.774   1.400
 7442SOL     OW23224   5.036   1.061   5.471
 7442SOL    HW123225   5.052   1.152   5.508
 7442SOL    HW223226   5.032   1.066   5.371
 7443SOL     OW23227   0.072   0.695   1.776
 7443SOL    HW123228   0.142   0.766   1.792
 7443SOL    HW223229   0.094   0.645   1.692
 7444SOL     OW23230   1.526   6.173   6.788
 7444SOL    HW123231   1.476   6.210   6.709
 7444SOL    HW223232   1.577   6.248   6.832
 7445SOL     OW23233   4.772   6.319   1.299
 7445SOL    HW123234   4.797   6.231   1.260
 7445SOL    HW223235   4.696   6.358   1.246
 7446SOL     OW23236   5.323   4.122   0.281
 7446SOL    HW123237   5.344   4.218   0.300
 7446SOL    HW223238   5.408   4.072   0.266
 7447SOL     OW23239   0.698   4.546   1.169
 7447SOL    HW123240   0.702   4.581   1.263
 7447SOL    HW223241   0.728   4.618   1.106
 7448SOL     OW23242   4.498   5.076   6.452
 7448SOL    HW123243   4.551   5.142   6.506
 7448SOL    HW223244   4.512   5.093   6.355
 7449SOL     OW23245   0.585   4.308   6.738
 7449SOL    HW123246   0.683   4.287   6.735
 7449SOL    HW223247   0.544   4.261   6.816
 7450SOL     OW23248   5.469   2.283   4.891
 7450SOL    HW123249   5.511   2.203   4.933
 7450SOL    HW223250   5.384   2.255   4.845
 7451SOL     OW23251   5.400   4.746   3.512
 7451SOL    HW123252   5.304   4.749   3.484
 7451SOL    HW223253   5.449   4.824   3.474
 7452SOL     OW23254   6.031   5.302   5.337
 7452SOL    HW123255   6.022   5.297   5.238
 7452SOL    HW223256   6.117   5.260   5.366
 7453SOL     OW23257   3.833   6.312   6.197
 7453SOL    HW123258   3.746   6.332   6.152
 7453SOL    HW223259   3.820   6.236   6.260
 7454SOL     OW23260   3.965   2.301   0.791
 7454SOL    HW123261   4.046   2.319   0.734
 7454SOL    HW223262   3.922   2.387   0.816
 7455SOL     OW23263   6.818   2.807   3.284
 7455SOL    HW123264   6.852   2.779   3.194
 7455SOL    HW223265   6.733   2.858   3.273
 7456SOL     OW23266   3.044   2.145   5.580
 7456SOL    HW123267   3.068   2.130   5.484
 7456SOL    HW223268   2.964   2.204   5.586
 7457SOL     OW23269   2.599   0.347   2.991
 7457SOL    HW123270   2.668   0.418   3.000
 7457SOL    HW223271   2.580   0.331   2.894
 7458SOL     OW23272   1.531   5.241   5.587
 7458SOL    HW123273   1.457   5.204   5.531
 7458SOL    HW223274   1.502   5.245   5.682
 7459SOL     OW23275   5.862   0.642   2.767
 7459SOL    HW123276   5.824   0.579   2.835
 7459SOL    HW223277   5.855   0.601   2.676
 7460SOL     OW23278   1.766   6.672   0.923
 7460SOL    HW123279   1.670   6.656   0.899
 7460SOL    HW223280   1.783   6.643   1.017
 7461SOL     OW23281   1.506   5.087   6.146
 7461SOL    HW123282   1.496   5.041   6.234
 7461SOL    HW223283   1.586   5.050   6.098
 7462SOL     OW23284   1.222   4.811   0.532
 7462SOL    HW123285   1.232   4.894   0.477
 7462SOL    HW223286   1.258   4.733   0.480
 7463SOL     OW23287   3.496   5.112   1.055
 7463SOL    HW123288   3.506   5.209   1.035
 7463SOL    HW223289   3.462   5.100   1.148
 7464SOL     OW23290   6.203   5.849   5.496
 7464SOL    HW123291   6.261   5.790   5.441
 7464SOL    HW223292   6.216   5.829   5.593
 7465SOL     OW23293   1.716   5.110   0.293
 7465SOL    HW123294   1.731   5.199   0.335
 7465SOL    HW223295   1.791   5.089   0.230
 7466SOL     OW23296   0.607   6.837   4.920
 7466SOL    HW123297   0.522   6.881   4.892
 7466SOL    HW223298   0.667   6.826   4.841
 7467SOL     OW23299   0.209   2.757   5.939
 7467SOL    HW123300   0.280   2.827   5.949
 7467SOL    HW223301   0.253   2.670   5.915
 7468SOL     OW23302   5.942   3.913   5.844
 7468SOL    HW123303   5.954   4.008   5.873
 7468SOL    HW223304   5.845   3.895   5.824
 7469SOL     OW23305   6.271   2.212   1.317
 7469SOL    HW123306   6.193   2.188   1.375
 7469SOL    HW223307   6.252   2.183   1.223
 7470SOL     OW23308   5.929   2.871   4.050
 7470SOL    HW123309   5.984   2.952   4.070
 7470SOL    HW223310   5.985   2.789   4.066
 7471SOL     OW23311   4.781   6.301   5.758
 7471SOL    HW123312   4.695   6.310   5.809
 7471SOL    HW223313   4.822   6.212   5.778
 7472SOL     OW23314   5.921   6.185   5.286
 7472SOL    HW123315   5.978   6.190   5.368
 7472SOL    HW223316   5.888   6.091   5.274
 7473SOL     OW23317   4.238   5.846   3.971
 7473SOL    HW123318   4.165   5.777   3.970
 7473SOL    HW223319   4.321   5.806   3.933
 7474SOL     OW23320   5.929   2.014   5.855
 7474SOL    HW123321   6.007   2.015   5.916
 7474SOL    HW223322   5.959   2.029   5.761
 7475SOL     OW23323   4.587   2.656   0.496
 7475SOL    HW123324   4.638   2.597   0.433
 7475SOL    HW223325   4.598   2.751   0.469
 7476SOL     OW23326   1.436   0.494   2.615
 7476SOL    HW123327   1.533   0.512   2.598
 7476SOL    HW223328   1.381   0.537   2.543
 7477SOL     OW23329   0.808   4.282   4.895
 7477SOL    HW123330   0.876   4.209   4.886
 7477SOL    HW223331   0.730   4.262   4.836
 7478SOL     OW23332   0.838   0.573   5.587
 7478SOL    HW123333   0.916   0.635   5.582
 7478SOL    HW223334   0.762   0.619   5.632
 7479SOL     OW23335   5.876   3.049   0.320
 7479SOL    HW123336   5.808   2.982   0.349
 7479SOL    HW223337   5.956   3.003   0.282
 7480SOL     OW23338   3.731   5.110   2.628
 7480SOL    HW123339   3.646   5.062   2.610
 7480SOL    HW223340   3.713   5.190   2.685
 7481SOL     OW23341   0.308   3.962   6.564
 7481SOL    HW123342   0.304   3.970   6.663
 7481SOL    HW223343   0.312   4.053   6.523
 7482SOL     OW23344   4.074   1.964   2.753
 7482SOL    HW123345   4.091   1.886   2.813
 7482SOL    HW223346   4.151   1.974   2.689
 7483SOL     OW23347   5.065   2.156   5.711
 7483SOL    HW123348   5.066   2.221   5.635
 7483SOL    HW223349   5.014   2.075   5.686
 7484SOL     OW23350   3.286   6.915   4.094
 7484SOL    HW123351   3.355   6.929   4.022
 7484SOL    HW223352   3.331   6.916   4.183
 7485SOL     OW23353   3.248   0.140   5.381
 7485SOL    HW123354   3.229   0.218   5.321
 7485SOL    HW223355   3.168   0.123   5.439
 7486SOL     OW23356   2.711   6.604   1.312
 7486SOL    HW123357   2.705   6.693   1.267
 7486SOL    HW223358   2.742   6.617   1.406
 7487SOL     OW23359   4.328   6.892   4.238
 7487SOL    HW123360   4.367   6.803   4.217
 7487SOL    HW223361   4.228   6.885   4.244
 7488SOL     OW23362   0.990   6.012   4.020
 7488SOL    HW123363   1.090   6.005   4.026
 7488SOL    HW223364   0.954   5.935   3.969
 7489SOL     OW23365   5.696   3.407   6.629
 7489SOL    HW123366   5.633   3.386   6.704
 7489SOL    HW223367   5.715   3.323   6.578
 7490SOL     OW23368   1.300   2.350   2.196
 7490SOL    HW123369   1.398   2.344   2.216
 7490SOL    HW223370   1.249   2.364   2.282
 7491SOL     OW23371   4.366   2.761   6.955
 7491SOL    HW123372   4.399   2.836   7.013
 7491SOL    HW223373   4.287   2.793   6.903
 7492SOL     OW23374   1.462   0.410   4.488
 7492SOL    HW123375   1.516   0.468   4.550
 7492SOL    HW223376   1.424   0.333   4.540
 7493SOL     OW23377   6.822   4.074   4.998
 7493SOL    HW123378   6.902   4.134   5.005
 7493SOL    HW223379   6.776   4.068   5.087
 7494SOL     OW23380   6.392   0.800   2.390
 7494SOL    HW123381   6.354   0.806   2.297
 7494SOL    HW223382   6.390   0.891   2.431
 7495SOL     OW23383   1.411   3.603   5.471
 7495SOL    HW123384   1.423   3.692   5.516
 7495SOL    HW223385   1.468   3.535   5.516
 7496SOL     OW23386   5.742   4.691   2.430
 7496SOL    HW123387   5.818   4.708   2.493
 7496SOL    HW223388   5.692   4.609   2.459
 7497SOL     OW23389   0.380   6.182   0.409
 7497SOL    HW123390   0.424   6.268   0.382
 7497SOL    HW223391   0.283   6.185   0.385
 7498SOL     OW23392   2.856   6.698   2.870
 7498SOL    HW123393   2.924   6.766   2.894
 7498SOL    HW223394   2.873   6.664   2.777
 7499SOL     OW23395   3.805   2.050   3.738
 7499SOL    HW123396   3.791   1.962   3.694
 7499SOL    HW223397   3.887   2.047   3.794
 7500SOL     OW23398   3.690   6.640   3.157
 7500SOL    HW123399   3.622   6.707   3.129
 7500SOL    HW223400   3.708   6.649   3.255
 7501SOL     OW23401   6.027   2.283   4.968
 7501SOL    HW123402   6.076   2.334   5.039
 7501SOL    HW223403   6.074   2.197   4.950
 7502SOL     OW23404   4.398   0.725   4.516
 7502SOL    HW123405   4.420   0.698   4.422
 7502SOL    HW223406   4.382   0.824   4.520
 7503SOL     OW23407   1.784   6.341   1.619
 7503SOL    HW123408   1.863   6.315   1.564
 7503SOL    HW223409   1.774   6.440   1.618
 7504SOL     OW23410   6.233   6.675   4.032
 7504SOL    HW123411   6.139   6.696   4.004
 7504SOL    HW223412   6.245   6.696   4.129
 7505SOL     OW23413   0.651   6.415   5.140
 7505SOL    HW123414   0.576   6.349   5.138
 7505SOL    HW223415   0.621   6.501   5.098
 7506SOL     OW23416   3.102   1.992   3.073
 7506SOL    HW123417   3.096   1.897   3.102
 7506SOL    HW223418   3.140   1.997   2.981
 7507SOL     OW23419   6.351   4.155   5.325
 7507SOL    HW123420   6.310   4.064   5.316
 7507SOL    HW223421   6.288   4.214   5.376
 7508SOL     OW23422   2.726   5.809   0.025
 7508SOL    HW123423   2.783   5.890   0.040
 7508SOL    HW223424   2.658   5.802   0.098
 7509SOL     OW23425   6.098   4.614   1.001
 7509SOL    HW123426   6.118   4.567   0.915
 7509SOL    HW223427   6.063   4.548   1.068
 7510SOL     OW23428   3.704   3.217   3.689
 7510SOL    HW123429   3.666   3.209   3.781
 7510SOL    HW223430   3.633   3.198   3.621
 7511SOL     OW23431   4.006   6.249   3.732
 7511SOL    HW123432   4.100   6.222   3.754
 7511SOL    HW223433   4.008   6.323   3.664
 7512SOL     OW23434   3.750   0.424   6.467
 7512SOL    HW123435   3.718   0.346   6.521
 7512SOL    HW223436   3.849   0.434   6.477
 7513SOL     OW23437   1.270   2.084   2.352
 7513SOL    HW123438   1.254   1.995   2.396
 7513SOL    HW223439   1.364   2.088   2.318
 7514SOL     OW23440   1.045   4.363   1.894
 7514SOL    HW123441   1.011   4.275   1.860
 7514SOL    HW223442   1.138   4.351   1.930
 7515SOL     OW23443   0.061   5.024   4.814
 7515SOL    HW123444   0.090   4.986   4.725
 7515SOL    HW223445   0.038   5.120   4.803
 7516SOL     OW23446   1.551   6.470   5.075
 7516SOL    HW123447   1.551   6.377   5.037
 7516SOL    HW223448   1.644   6.496   5.098
 7517SOL     OW23449   0.637   1.127   6.619
 7517SOL    HW123450   0.613   1.122   6.523
 7517SOL    HW223451   0.571   1.075   6.674
 7518SOL     OW23452   4.717   2.738   3.435
 7518SOL    HW123453   4.677   2.689   3.357
 7518SOL    HW223454   4.814   2.755   3.418
 7519SOL     OW23455   3.786   6.121   4.409
 7519SOL    HW123456   3.842   6.074   4.478
 7519SOL    HW223457   3.749   6.205   4.449
 7520SOL     OW23458   1.582   2.289   0.741
 7520SOL    HW123459   1.642   2.351   0.792
 7520SOL    HW223460   1.519   2.244   0.804
 7521SOL     OW23461   3.751   1.652   5.237
 7521SOL    HW123462   3.738   1.726   5.303
 7521SOL    HW223463   3.662   1.624   5.201
 7522SOL     OW23464   2.271   6.931   3.568
 7522SOL    HW123465   2.218   6.949   3.651
 7522SOL    HW223466   2.294   6.834   3.563
 7523SOL     OW23467   5.649   1.052   0.229
 7523SOL    HW123468   5.709   1.110   0.173
 7523SOL    HW223469   5.554   1.078   0.214
 7524SOL     OW23470   0.205   3.307   4.447
 7524SOL    HW123471   0.212   3.224   4.502
 7524SOL    HW223472   0.114   3.346   4.457
 7525SOL     OW23473   4.772   5.663   6.478
 7525SOL    HW123474   4.856   5.625   6.439
 7525SOL    HW223475   4.750   5.749   6.433
 7526SOL     OW23476   2.513   3.252   1.690
 7526SOL    HW123477   2.468   3.310   1.758
 7526SOL    HW223478   2.490   3.284   1.599
 7527SOL     OW23479   4.104   4.755   3.585
 7527SOL    HW123480   4.186   4.786   3.537
 7527SOL    HW223481   4.089   4.658   3.565
 7528SOL     OW23482   6.178   3.283   6.649
 7528SOL    HW123483   6.097   3.319   6.696
 7528SOL    HW223484   6.245   3.356   6.638
 7529SOL     OW23485   5.917   3.105   4.294
 7529SOL    HW123486   5.914   3.155   4.381
 7529SOL    HW223487   5.958   3.015   4.309
 7530SOL     OW23488   0.406   1.964   1.990
 7530SOL    HW123489   0.342   2.039   2.007
 7530SOL    HW223490   0.497   1.989   2.022
 7531SOL     OW23491   4.001   1.972   3.118
 7531SOL    HW123492   3.911   1.974   3.163
 7531SOL    HW223493   4.009   2.048   3.054
 7532SOL     OW23494   4.658   5.312   6.507
 7532SOL    HW123495   4.739   5.340   6.456
 7532SOL    HW223496   4.595   5.389   6.515
 7533SOL     OW23497   4.789   4.408   1.391
 7533SOL    HW123498   4.734   4.403   1.307
 7533SOL    HW223499   4.728   4.415   1.470
 7534SOL     OW23500   4.191   0.267   4.719
 7534SOL    HW123501   4.170   0.243   4.624
 7534SOL    HW223502   4.192   0.366   4.729
 7535SOL     OW23503   0.591   5.563   3.723
 7535SOL    HW123504   0.572   5.585   3.628
 7535SOL    HW223505   0.662   5.493   3.728
 7536SOL     OW23506   4.816   6.120   4.855
 7536SOL    HW123507   4.782   6.066   4.778
 7536SOL    HW223508   4.793   6.075   4.941
 7537SOL     OW23509   2.743   6.371   3.639
 7537SOL    HW123510   2.802   6.434   3.691
 7537SOL    HW223511   2.660   6.420   3.610
 7538SOL     OW23512   0.635   3.788   0.811
 7538SOL    HW123513   0.540   3.795   0.782
 7538SOL    HW223514   0.694   3.838   0.747
 7539SOL     OW23515   0.274   6.789   3.703
 7539SOL    HW123516   0.357   6.733   3.705
 7539SOL    HW223517   0.262   6.833   3.792
 7540SOL     OW23518   6.390   5.396   2.684
 7540SOL    HW123519   6.304   5.355   2.653
 7540SOL    HW223520   6.427   5.454   2.612
 7541SOL     OW23521   1.622   4.559   6.963
 7541SOL    HW123522   1.529   4.558   7.000
 7541SOL    HW223523   1.633   4.635   6.900
 7542SOL     OW23524   5.889   5.906   5.225
 7542SOL    HW123525   5.902   5.880   5.320
 7542SOL    HW223526   5.933   5.838   5.165
 7543SOL     OW23527   2.307   1.044   6.906
 7543SOL    HW123528   2.264   1.107   6.841
 7543SOL    HW223529   2.403   1.071   6.918
 7544SOL     OW23530   6.724   2.798   4.332
 7544SOL    HW123531   6.759   2.759   4.417
 7544SOL    HW223532   6.778   2.766   4.255
 7545SOL     OW23533   0.863   4.801   6.624
 7545SOL    HW123534   0.801   4.841   6.691
 7545SOL    HW223535   0.819   4.800   6.534
 7546SOL     OW23536   2.933   2.903   1.421
 7546SOL    HW123537   2.928   3.003   1.410
 7546SOL    HW223538   2.851   2.871   1.469
 7547SOL     OW23539   4.955   0.396   1.735
 7547SOL    HW123540   4.888   0.343   1.788
 7547SOL    HW223541   4.937   0.494   1.747
 7548SOL     OW23542   3.615   2.115   6.480
 7548SOL    HW123543   3.611   2.019   6.508
 7548SOL    HW223544   3.612   2.120   6.380
 7549SOL     OW23545   5.114   2.400   4.113
 7549SOL    HW123546   5.032   2.438   4.070
 7549SOL    HW223547   5.168   2.474   4.152
 7550SOL     OW23548   2.302   4.417   4.589
 7550SOL    HW123549   2.284   4.384   4.682
 7550SOL    HW223550   2.392   4.459   4.585
 7551SOL     OW23551   6.039   2.576   6.024
 7551SOL    HW123552   5.956   2.588   5.971
 7551SOL    HW223553   6.044   2.482   6.058
 7552SOL     OW23554   2.535   6.169   5.204
 7552SOL    HW123555   2.623   6.156   5.249
 7552SOL    HW223556   2.551   6.204   5.111
 7553SOL     OW23557   5.899   6.511   6.073
 7553SOL    HW123558   5.991   6.474   6.070
 7553SOL    HW223559   5.834   6.437   6.091
 7554SOL     OW23560   4.939   0.886   1.036
 7554SOL    HW123561   4.950   0.813   1.104
 7554SOL    HW223562   4.863   0.945   1.063
 7555SOL     OW23563   3.804   4.794   5.258
 7555SOL    HW123564   3.843   4.854   5.188
 7555SOL    HW223565   3.708   4.817   5.272
 7556SOL     OW23566   0.466   6.516   0.615
 7556SOL    HW123567   0.505   6.582   0.679
 7556SOL    HW223568   0.410   6.450   0.665
 7557SOL     OW23569   4.742   0.369   0.328
 7557SOL    HW123570   4.718   0.279   0.291
 7557SOL    HW223571   4.753   0.362   0.427
 7558SOL     OW23572   1.423   1.573   4.331
 7558SOL    HW123573   1.380   1.639   4.269
 7558SOL    HW223574   1.405   1.600   4.425
 7559SOL     OW23575   3.231   1.298   4.855
 7559SOL    HW123576   3.243   1.398   4.863
 7559SOL    HW223577   3.134   1.276   4.859
 7560SOL     OW23578   0.609   1.266   5.439
 7560SOL    HW123579   0.522   1.312   5.426
 7560SOL    HW223580   0.678   1.332   5.469
 7561SOL     OW23581   5.798   2.113   5.264
 7561SOL    HW123582   5.763   2.064   5.184
 7561SOL    HW223583   5.897   2.102   5.270
 7562SOL     OW23584   1.325   5.333   4.180
 7562SOL    HW123585   1.347   5.280   4.262
 7562SOL    HW223586   1.345   5.279   4.099
 7563SOL     OW23587   3.442   5.325   2.607
 7563SOL    HW123588   3.445   5.225   2.605
 7563SOL    HW223589   3.420   5.355   2.700
 7564SOL     OW23590   3.975   1.851   5.012
 7564SOL    HW123591   3.914   1.824   5.087
 7564SOL    HW223592   4.031   1.929   5.040
 7565SOL     OW23593   6.119   4.106   6.172
 7565SOL    HW123594   6.036   4.114   6.228
 7565SOL    HW223595   6.172   4.190   6.178
 7566SOL     OW23596   4.513   4.721   1.321
 7566SOL    HW123597   4.607   4.735   1.353
 7566SOL    HW223598   4.508   4.637   1.267
 7567SOL     OW23599   1.753   0.685   4.369
 7567SOL    HW123600   1.771   0.666   4.273
 7567SOL    HW223601   1.727   0.781   4.380
 7568SOL     OW23602   5.933   5.231   1.661
 7568SOL    HW123603   5.958   5.322   1.693
 7568SOL    HW223604   5.949   5.165   1.734
 7569SOL     OW23605   4.384   3.825   0.190
 7569SOL    HW123606   4.327   3.798   0.267
 7569SOL    HW223607   4.326   3.855   0.114
 7570SOL     OW23608   0.257   2.570   2.788
 7570SOL    HW123609   0.220   2.604   2.702
 7570SOL    HW223610   0.247   2.471   2.793
 7571SOL     OW23611   4.342   2.147   3.177
 7571SOL    HW123612   4.359   2.082   3.251
 7571SOL    HW223613   4.383   2.113   3.092
 7572SOL     OW23614   4.365   0.116   2.835
 7572SOL    HW123615   4.342   0.058   2.914
 7572SOL    HW223616   4.297   0.103   2.763
 7573SOL     OW23617   5.424   6.639   5.725
 7573SOL    HW123618   5.508   6.610   5.770
 7573SOL    HW223619   5.443   6.716   5.665
 7574SOL     OW23620   0.391   1.554   3.716
 7574SOL    HW123621   0.395   1.455   3.710
 7574SOL    HW223622   0.300   1.586   3.688
 7575SOL     OW23623   0.004   6.931   1.882
 7575SOL    HW123624   7.004   6.890   1.971
 7575SOL    HW223625   0.044   7.021   1.897
 7576SOL     OW23626   5.561   3.249   0.927
 7576SOL    HW123627   5.572   3.164   0.875
 7576SOL    HW223628   5.513   3.230   1.013
 7577SOL     OW23629   1.464   6.988   0.805
 7577SOL    HW123630   1.456   6.947   0.896
 7577SOL    HW223631   1.542   0.029   0.803
 7578SOL     OW23632   6.855   5.636   3.491
 7578SOL    HW123633   6.858   5.668   3.396
 7578SOL    HW223634   6.903   5.548   3.497
 7579SOL     OW23635   0.409   1.087   0.268
 7579SOL    HW123636   0.327   1.127   0.308
 7579SOL    HW223637   0.480   1.157   0.261
 7580SOL     OW23638   2.156   4.786   3.587
 7580SOL    HW123639   2.227   4.835   3.536
 7580SOL    HW223640   2.165   4.806   3.684
 7581SOL     OW23641   6.920   0.826   2.628
 7581SOL    HW123642   6.849   0.756   2.622
 7581SOL    HW223643   6.879   0.913   2.655
 7582SOL     OW23644   2.940   1.606   5.643
 7582SOL    HW123645   2.950   1.681   5.708
 7582SOL    HW223646   2.997   1.624   5.563
 7583SOL     OW23647   5.056   3.302   2.319
 7583SOL    HW123648   5.107   3.260   2.393
 7583SOL    HW223649   5.005   3.232   2.269
 7584SOL     OW23650   0.162   1.238   3.375
 7584SOL    HW123651   0.169   1.173   3.299
 7584SOL    HW223652   0.227   1.212   3.447
 7585SOL     OW23653   1.178   0.965   6.994
 7585SOL    HW123654   1.227   0.883   6.964
 7585SOL    HW223655   1.198   0.983   0.068
 7586SOL     OW23656   1.129   1.377   2.512
 7586SOL    HW123657   1.111   1.299   2.453
 7586SOL    HW223658   1.048   1.435   2.517
 7587SOL     OW23659   3.641   0.436   1.257
 7587SOL    HW123660   3.681   0.420   1.167
 7587SOL    HW223661   3.576   0.363   1.278
 7588SOL     OW23662   1.737   2.445   4.411
 7588SOL    HW123663   1.672   2.485   4.475
 7588SOL    HW223664   1.830   2.462   4.443
 7589SOL     OW23665   0.126   0.688   3.159
 7589SOL    HW123666   0.062   0.762   3.139
 7589SOL    HW223667   0.178   0.709   3.241
 7590SOL     OW23668   0.013   1.042   0.032
 7590SOL    HW123669   0.036   1.120   6.997
 7590SOL    HW223670   6.948   1.058   0.077
 7591SOL     OW23671   4.038   3.170   5.252
 7591SOL    HW123672   3.994   3.207   5.334
 7591SOL    HW223673   4.015   3.226   5.173
 7592SOL     OW23674   0.071   6.506   5.145
 7592SOL    HW123675   0.004   6.487   5.073
 7592SOL    HW223676   0.024   6.514   5.233
 7593SOL     OW23677   1.123   1.244   6.084
 7593SOL    HW123678   1.195   1.312   6.073
 7593SOL    HW223679   1.079   1.227   5.996
 7594SOL     OW23680   0.150   4.716   6.747
 7594SOL    HW123681   0.193   4.631   6.778
 7594SOL    HW223682   0.072   4.736   6.805
 7595SOL     OW23683   0.395   2.886   6.207
 7595SOL    HW123684   0.355   2.953   6.145
 7595SOL    HW223685   0.374   2.912   6.302
 7596SOL     OW23686   3.247   1.093   5.594
 7596SOL    HW123687   3.203   1.012   5.555
 7596SOL    HW223688   3.247   1.167   5.526
 7597SOL     OW23689   2.091   4.475   2.256
 7597SOL    HW123690   2.104   4.558   2.311
 7597SOL    HW223691   2.180   4.434   2.239
 7598SOL     OW23692   6.513   1.313   3.212
 7598SOL    HW123693   6.413   1.305   3.211
 7598SOL    HW223694   6.545   1.327   3.305
 7599SOL     OW23695   3.450   3.289   0.479
 7599SOL    HW123696   3.483   3.196   0.469
 7599SOL    HW223697   3.512   3.340   0.539
 7600SOL     OW23698   1.439   6.626   4.629
 7600SOL    HW123699   1.440   6.652   4.726
 7600SOL    HW223700   1.355   6.657   4.586
 7601SOL     OW23701   3.309   6.491   2.389
 7601SOL    HW123702   3.290   6.577   2.342
 7601SOL    HW223703   3.367   6.433   2.331
 7602SOL     OW23704   0.091   1.436   0.523
 7602SOL    HW123705   0.096   1.533   0.547
 7602SOL    HW223706   0.029   1.390   0.587
 7603SOL     OW23707   3.518   0.215   5.509
 7603SOL    HW123708   3.485   0.290   5.565
 7603SOL    HW223709   3.447   0.188   5.443
 7604SOL     OW23710   0.361   2.370   5.037
 7604SOL    HW123711   0.272   2.337   5.067
 7604SOL    HW223712   0.354   2.467   5.012
 7605SOL     OW23713   2.103   6.722   0.591
 7605SOL    HW123714   2.178   6.694   0.650
 7605SOL    HW223715   2.112   6.820   0.570
 7606SOL     OW23716   6.561   1.636   3.265
 7606SOL    HW123717   6.586   1.722   3.221
 7606SOL    HW223718   6.487   1.652   3.330
 7607SOL     OW23719   2.603   6.139   5.858
 7607SOL    HW123720   2.682   6.197   5.876
 7607SOL    HW223721   2.537   6.149   5.932
 7608SOL     OW23722   5.975   2.628   6.343
 7608SOL    HW123723   5.893   2.614   6.288
 7608SOL    HW223724   6.025   2.708   6.309
 7609SOL     OW23725   0.801   1.865   4.703
 7609SOL    HW123726   0.792   1.853   4.604
 7609SOL    HW223727   0.748   1.945   4.732
 7610SOL     OW23728   3.950   5.010   5.134
 7610SOL    HW123729   4.014   4.949   5.087
 7610SOL    HW223730   3.903   5.067   5.066
 7611SOL     OW23731   4.899   3.462   0.670
 7611SOL    HW123732   4.834   3.538   0.677
 7611SOL    HW223733   4.977   3.490   0.614
 7612SOL     OW23734   3.319   1.746   3.359
 7612SOL    HW123735   3.340   1.750   3.262
 7612SOL    HW223736   3.383   1.686   3.405
 7613SOL     OW23737   0.550   1.174   1.756
 7613SOL    HW123738   0.557   1.224   1.670
 7613SOL    HW223739   0.631   1.116   1.768
 7614SOL     OW23740   4.536   3.995   0.627
 7614SOL    HW123741   4.458   3.990   0.690
 7614SOL    HW223742   4.621   3.993   0.679
 7615SOL     OW23743   5.890   3.555   5.039
 7615SOL    HW123744   5.793   3.566   5.019
 7615SOL    HW223745   5.938   3.522   4.957
 7616SOL     OW23746   6.802   0.294   3.274
 7616SOL    HW123747   6.761   0.262   3.359
 7616SOL    HW223748   6.857   0.376   3.291
 7617SOL     OW23749   5.405   5.106   3.733
 7617SOL    HW123750   5.484   5.151   3.775
 7617SOL    HW223751   5.357   5.053   3.802
 7618SOL     OW23752   2.595   2.360   0.786
 7618SOL    HW123753   2.608   2.294   0.861
 7618SOL    HW223754   2.531   2.430   0.816
 7619SOL     OW23755   0.965   1.667   4.477
 7619SOL    HW123756   0.881   1.720   4.485
 7619SOL    HW223757   0.959   1.584   4.532
 7620SOL     OW23758   4.083   4.374   1.231
 7620SOL    HW123759   4.159   4.353   1.169
 7620SOL    HW223760   4.012   4.304   1.221
 7621SOL     OW23761   6.274   4.002   0.186
 7621SOL    HW123762   6.362   4.007   0.232
 7621SOL    HW223763   6.212   3.943   0.239
 7622SOL     OW23764   3.146   3.805   1.394
 7622SOL    HW123765   3.094   3.809   1.309
 7622SOL    HW223766   3.083   3.812   1.471
 7623SOL     OW23767   4.795   4.651   0.637
 7623SOL    HW123768   4.840   4.658   0.726
 7623SOL    HW223769   4.847   4.589   0.579
 7624SOL     OW23770   0.525   3.114   2.420
 7624SOL    HW123771   0.426   3.120   2.413
 7624SOL    HW223772   0.562   3.204   2.444
 7625SOL     OW23773   5.614   0.720   1.197
 7625SOL    HW123774   5.656   0.629   1.199
 7625SOL    HW223775   5.579   0.742   1.288
 7626SOL     OW23776   4.646   1.435   5.201
 7626SOL    HW123777   4.592   1.518   5.219
 7626SOL    HW223778   4.590   1.354   5.221
 7627SOL     OW23779   4.061   2.517   6.596
 7627SOL    HW123780   4.160   2.522   6.584
 7627SOL    HW223781   4.025   2.608   6.616
 7628SOL     OW23782   3.404   2.461   0.372
 7628SOL    HW123783   3.443   2.383   0.322
 7628SOL    HW223784   3.304   2.454   0.371
 7629SOL     OW23785   6.222   3.162   3.380
 7629SOL    HW123786   6.158   3.203   3.444
 7629SOL    HW223787   6.235   3.065   3.403
 7630SOL     OW23788   1.049   6.544   5.266
 7630SOL    HW123789   1.069   6.594   5.181
 7630SOL    HW223790   0.960   6.574   5.301
 7631SOL     OW23791   1.339   0.680   5.873
 7631SOL    HW123792   1.326   0.770   5.915
 7631SOL    HW223793   1.252   0.630   5.875
 7632SOL     OW23794   5.119   5.937   0.275
 7632SOL    HW123795   5.151   5.852   0.231
 7632SOL    HW223796   5.131   5.929   0.374
 7633SOL     OW23797   6.539   1.270   1.375
 7633SOL    HW123798   6.467   1.289   1.308
 7633SOL    HW223799   6.501   1.217   1.451
 7634SOL     OW23800   6.835   2.311   0.326
 7634SOL    HW123801   6.838   2.356   0.236
 7634SOL    HW223802   6.929   2.300   0.360
 7635SOL     OW23803   2.466   3.777   5.425
 7635SOL    HW123804   2.552   3.783   5.475
 7635SOL    HW223805   2.463   3.848   5.355
 7636SOL     OW23806   0.226   3.978   4.355
 7636SOL    HW123807   0.165   3.938   4.423
 7636SOL    HW223808   0.240   4.075   4.375
 7637SOL     OW23809   0.876   6.399   4.233
 7637SOL    HW123810   0.888   6.345   4.317
 7637SOL    HW223811   0.858   6.494   4.257
 7638SOL     OW23812   0.402   6.156   1.626
 7638SOL    HW123813   0.341   6.149   1.547
 7638SOL    HW223814   0.484   6.208   1.600
 7639SOL     OW23815   1.566   0.736   0.143
 7639SOL    HW123816   1.649   0.680   0.148
 7639SOL    HW223817   1.582   0.823   0.190
 7640SOL     OW23818   3.066   0.820   0.452
 7640SOL    HW123819   3.156   0.828   0.410
 7640SOL    HW223820   3.000   0.787   0.385
 7641SOL     OW23821   0.532   4.302   3.572
 7641SOL    HW123822   0.602   4.231   3.564
 7641SOL    HW223823   0.443   4.264   3.547
 7642SOL     OW23824   5.892   1.029   3.387
 7642SOL    HW123825   5.795   1.052   3.382
 7642SOL    HW223826   5.939   1.095   3.445
 7643SOL     OW23827   5.358   3.687   2.900
 7643SOL    HW123828   5.335   3.645   2.988
 7643SOL    HW223829   5.454   3.667   2.878
 7644SOL     OW23830   5.389   3.699   1.139
 7644SOL    HW123831   5.407   3.632   1.067
 7644SOL    HW223832   5.324   3.661   1.205
 7645SOL     OW23833   3.412   4.981   6.210
 7645SOL    HW123834   3.426   4.889   6.246
 7645SOL    HW223835   3.429   5.048   6.283
 7646SOL     OW23836   6.840   2.263   1.537
 7646SOL    HW123837   6.898   2.194   1.579
 7646SOL    HW223838   6.895   2.342   1.512
 7647SOL     OW23839   6.875   2.657   5.290
 7647SOL    HW123840   6.857   2.749   5.324
 7647SOL    HW223841   6.866   2.656   5.190
 7648SOL     OW23842   2.735   1.517   1.664
 7648SOL    HW123843   2.831   1.503   1.640
 7648SOL    HW223844   2.685   1.431   1.651
 7649SOL     OW23845   4.527   1.669   5.230
 7649SOL    HW123846   4.571   1.754   5.258
 7649SOL    HW223847   4.438   1.660   5.274
 7650SOL     OW23848   3.827   2.159   0.511
 7650SOL    HW123849   3.827   2.161   0.412
 7650SOL    HW223850   3.837   2.252   0.547
 7651SOL     OW23851   3.185   4.730   5.787
 7651SOL    HW123852   3.220   4.689   5.871
 7651SOL    HW223853   3.142   4.818   5.807
 7652SOL     OW23854   0.221   1.108   4.140
 7652SOL    HW123855   0.171   1.158   4.069
 7652SOL    HW223856   0.170   1.026   4.166
 7653SOL     OW23857   0.843   1.074   6.343
 7653SOL    HW123858   0.847   1.072   6.443
 7653SOL    HW223859   0.935   1.092   6.307
 7654SOL     OW23860   5.547   1.961   6.615
 7654SOL    HW123861   5.537   1.918   6.525
 7654SOL    HW223862   5.535   2.060   6.606
 7655SOL     OW23863   3.164   1.646   2.926
 7655SOL    HW123864   3.103   1.711   2.881
 7655SOL    HW223865   3.151   1.555   2.888
 7656SOL     OW23866   6.937   3.220   6.258
 7656SOL    HW123867   6.916   3.197   6.163
 7656SOL    HW223868   0.012   3.235   6.269
 7657SOL     OW23869   1.027   4.373   4.267
 7657SOL    HW123870   1.017   4.326   4.355
 7657SOL    HW223871   1.017   4.471   4.281
 7658SOL     OW23872   2.447   1.048   1.035
 7658SOL    HW123873   2.453   1.141   0.998
 7658SOL    HW223874   2.361   1.006   1.006
 7659SOL     OW23875   4.595   3.873   5.645
 7659SOL    HW123876   4.556   3.787   5.611
 7659SOL    HW223877   4.652   3.915   5.574
 7660SOL     OW23878   6.891   5.279   4.725
 7660SOL    HW123879   6.800   5.292   4.687
 7660SOL    HW223880   6.884   5.265   4.824
 7661SOL     OW23881   4.622   2.298   5.477
 7661SOL    HW123882   4.665   2.209   5.489
 7661SOL    HW223883   4.692   2.365   5.451
 7662SOL     OW23884   6.723   0.557   0.885
 7662SOL    HW123885   6.812   0.516   0.866
 7662SOL    HW223886   6.705   0.555   0.984
 7663SOL     OW23887   6.943   5.654   5.642
 7663SOL    HW123888   0.005   5.702   5.618
 7663SOL    HW223889   6.866   5.694   5.591
 7664SOL     OW23890   4.247   1.963   2.301
 7664SOL    HW123891   4.191   1.887   2.267
 7664SOL    HW223892   4.248   1.961   2.401
 7665SOL     OW23893   4.703   0.661   5.133
 7665SOL    HW123894   4.641   0.718   5.187
 7665SOL    HW223895   4.665   0.648   5.042
 7666SOL     OW23896   5.355   4.189   3.991
 7666SOL    HW123897   5.418   4.129   4.039
 7666SOL    HW223898   5.400   4.276   3.970
 7667SOL     OW23899   4.116   5.819   1.721
 7667SOL    HW123900   4.094   5.857   1.631
 7667SOL    HW223901   4.103   5.720   1.720
 7668SOL     OW23902   2.187   5.915   0.292
 7668SOL    HW123903   2.234   5.984   0.347
 7668SOL    HW223904   2.095   5.901   0.326
 7669SOL     OW23905   2.260   0.638   5.537
 7669SOL    HW123906   2.181   0.592   5.496
 7669SOL    HW223907   2.228   0.716   5.590
 7670SOL     OW23908   0.912   6.613   0.342
 7670SOL    HW123909   0.836   6.578   0.286
 7670SOL    HW223910   0.978   6.660   0.283
 7671SOL     OW23911   3.842   6.810   1.407
 7671SOL    HW123912   3.900   6.877   1.453
 7671SOL    HW223913   3.756   6.801   1.458
 7672SOL     OW23914   4.745   5.103   2.813
 7672SOL    HW123915   4.758   5.018   2.762
 7672SOL    HW223916   4.729   5.081   2.910
 7673SOL     OW23917   1.688   6.255   4.754
 7673SOL    HW123918   1.627   6.294   4.685
 7673SOL    HW223919   1.646   6.264   4.844
 7674SOL     OW23920   4.282   6.121   4.420
 7674SOL    HW123921   4.353   6.189   4.405
 7674SOL    HW223922   4.200   6.146   4.369
 7675SOL     OW23923   4.831   6.549   3.517
 7675SOL    HW123924   4.745   6.518   3.559
 7675SOL    HW223925   4.816   6.637   3.472
 7676SOL     OW23926   3.251   3.063   5.547
 7676SOL    HW123927   3.337   3.112   5.545
 7676SOL    HW223928   3.256   2.987   5.612
 7677SOL     OW23929   5.746   4.459   0.469
 7677SOL    HW123930   5.824   4.444   0.408
 7677SOL    HW223931   5.762   4.541   0.525
 7678SOL     OW23932   1.738   0.811   4.819
 7678SOL    HW123933   1.741   0.886   4.753
 7678SOL    HW223934   1.831   0.788   4.847
 7679SOL     OW23935   2.734   5.608   5.419
 7679SOL    HW123936   2.761   5.513   5.401
 7679SOL    HW223937   2.649   5.628   5.372
 7680SOL     OW23938   2.310   6.765   5.088
 7680SOL    HW123939   2.331   6.859   5.115
 7680SOL    HW223940   2.235   6.767   5.021
 7681SOL     OW23941   2.899   3.423   6.735
 7681SOL    HW123942   2.964   3.349   6.717
 7681SOL    HW223943   2.883   3.474   6.651
 7682SOL     OW23944   2.584   1.303   2.588
 7682SOL    HW123945   2.522   1.320   2.512
 7682SOL    HW223946   2.674   1.278   2.551
 7683SOL     OW23947   0.599   6.299   4.216
 7683SOL    HW123948   0.549   6.239   4.154
 7683SOL    HW223949   0.614   6.388   4.173
 7684SOL     OW23950   4.098   2.889   1.315
 7684SOL    HW123951   4.147   2.812   1.356
 7684SOL    HW223952   4.027   2.920   1.378
 7685SOL     OW23953   2.604   0.299   7.021
 7685SOL    HW123954   2.689   0.264   0.039
 7685SOL    HW223955   2.624   0.385   6.974
 7686SOL     OW23956   6.009   0.166   4.563
 7686SOL    HW123957   5.925   0.151   4.616
 7686SOL    HW223958   6.088   0.135   4.616
 7687SOL     OW23959   5.939   4.724   5.447
 7687SOL    HW123960   5.844   4.752   5.437
 7687SOL    HW223961   5.945   4.646   5.509
 7688SOL     OW23962   0.113   4.385   6.205
 7688SOL    HW123963   0.034   4.400   6.146
 7688SOL    HW223964   0.104   4.297   6.251
 7689SOL     OW23965   4.690   0.380   1.524
 7689SOL    HW123966   4.772   0.379   1.580
 7689SOL    HW223967   4.652   0.473   1.522
 7690SOL     OW23968   5.891   5.287   1.133
 7690SOL    HW123969   5.867   5.337   1.216
 7690SOL    HW223970   5.934   5.349   1.068
 7691SOL     OW23971   4.748   4.375   3.184
 7691SOL    HW123972   4.670   4.424   3.143
 7691SOL    HW223973   4.814   4.352   3.112
 7692SOL     OW23974   2.237   6.871   2.722
 7692SOL    HW123975   2.257   6.968   2.704
 7692SOL    HW223976   2.291   6.840   2.800
 7693SOL     OW23977   1.977   1.733   0.850
 7693SOL    HW123978   2.048   1.760   0.785
 7693SOL    HW223979   1.890   1.776   0.825
 7694SOL     OW23980   5.332   1.652   5.459
 7694SOL    HW123981   5.418   1.610   5.488
 7694SOL    HW223982   5.270   1.582   5.425
 7695SOL     OW23983   4.823   0.236   3.885
 7695SOL    HW123984   4.921   0.236   3.908
 7695SOL    HW223985   4.810   0.281   3.796
 7696SOL     OW23986   1.245   2.977   6.103
 7696SOL    HW123987   1.224   2.960   6.007
 7696SOL    HW223988   1.169   3.024   6.147
 7697SOL     OW23989   4.633   6.909   3.190
 7697SOL    HW123990   4.578   6.905   3.107
 7697SOL    HW223991   4.612   6.992   3.241
 7698SOL     OW23992   6.364   2.482   0.272
 7698SOL    HW123993   6.395   2.534   0.352
 7698SOL    HW223994   6.271   2.448   0.288
 7699SOL     OW23995   4.438   5.922   6.101
 7699SOL    HW123996   4.504   5.898   6.173
 7699SOL    HW223997   4.461   5.874   6.017
 7700SOL     OW23998   5.286   6.149   2.893
 7700SOL    HW123999   5.198   6.125   2.851
 7700SOL    HW224000   5.270   6.188   2.984
 7701SOL     OW24001   1.147   2.381   6.482
 7701SOL    HW124002   1.054   2.372   6.447
 7701SOL    HW224003   1.144   2.414   6.576
 7702SOL     OW24004   4.525   0.237   4.480
 7702SOL    HW124005   4.575   0.170   4.535
 7702SOL    HW224006   4.427   0.217   4.485
 7703SOL     OW24007   6.346   6.790   5.055
 7703SOL    HW124008   6.391   6.704   5.078
 7703SOL    HW224009   6.355   6.854   5.131
 7704SOL     OW24010   0.302   1.602   4.949
 7704SOL    HW124011   0.266   1.614   5.042
 7704SOL    HW224012   0.379   1.665   4.936
 7705SOL     OW24013   0.687   4.973   6.751
 7705SOL    HW124014   0.641   5.051   6.793
 7705SOL    HW224015   0.619   4.907   6.718
 7706SOL     OW24016   3.501   2.834   2.454
 7706SOL    HW124017   3.469   2.749   2.495
 7706SOL    HW224018   3.442   2.859   2.378
 7707SOL     OW24019   6.498   4.071   6.300
 7707SOL    HW124020   6.446   4.137   6.246
 7707SOL    HW224021   6.521   3.992   6.243
 7708SOL     OW24022   2.625   0.113   4.549
 7708SOL    HW124023   2.638   0.081   4.455
 7708SOL    HW224024   2.711   0.101   4.599
 7709SOL     OW24025   0.083   4.733   1.347
 7709SOL    HW124026   0.079   4.639   1.381
 7709SOL    HW224027   0.174   4.771   1.365
 7710SOL     OW24028   0.056   3.041   1.034
 7710SOL    HW124029   0.125   3.044   1.108
 7710SOL    HW224030   0.048   2.948   1.000
 7711SOL     OW24031   0.409   4.554   5.098
 7711SOL    HW124032   0.491   4.500   5.081
 7711SOL    HW224033   0.329   4.506   5.064
 7712SOL     OW24034   0.218   4.715   5.671
 7712SOL    HW124035   0.230   4.690   5.767
 7712SOL    HW224036   0.308   4.735   5.631
 7713SOL     OW24037   1.812   4.675   0.079
 7713SOL    HW124038   1.736   4.629   0.034
 7713SOL    HW224039   1.779   4.720   0.162
 7714SOL     OW24040   6.179   1.142   5.296
 7714SOL    HW124041   6.151   1.046   5.307
 7714SOL    HW224042   6.111   1.201   5.340
 7715SOL     OW24043   3.327   3.136   5.868
 7715SOL    HW124044   3.259   3.210   5.866
 7715SOL    HW224045   3.378   3.135   5.782
 7716SOL     OW24046   1.298   6.212   5.768
 7716SOL    HW124047   1.313   6.128   5.820
 7716SOL    HW224048   1.233   6.194   5.694
 7717SOL     OW24049   0.338   1.513   6.869
 7717SOL    HW124050   0.424   1.482   6.828
 7717SOL    HW224051   0.317   1.605   6.836
 7718SOL     OW24052   1.133   3.816   2.835
 7718SOL    HW124053   1.171   3.868   2.912
 7718SOL    HW224054   1.036   3.800   2.850
 7719SOL     OW24055   2.012   4.639   4.960
 7719SOL    HW124056   2.112   4.643   4.956
 7719SOL    HW224057   1.979   4.578   4.888
 7720SOL     OW24058   4.611   1.048   0.055
 7720SOL    HW124059   4.634   1.102   6.996
 7720SOL    HW224060   4.567   0.963   0.026
 7721SOL     OW24061   0.258   0.740   2.753
 7721SOL    HW124062   0.353   0.724   2.782
 7721SOL    HW224063   0.242   0.838   2.744
 7722SOL     OW24064   1.350   6.286   3.645
 7722SOL    HW124065   1.351   6.381   3.615
 7722SOL    HW224066   1.262   6.264   3.685
 7723SOL     OW24067   4.746   4.293   0.172
 7723SOL    HW124068   4.714   4.347   0.250
 7723SOL    HW224069   4.699   4.205   0.170
 7724SOL     OW24070   2.018   3.927   1.345
 7724SOL    HW124071   2.049   4.018   1.316
 7724SOL    HW224072   2.097   3.873   1.375
 7725SOL     OW24073   5.344   2.764   3.478
 7725SOL    HW124074   5.430   2.717   3.496
 7725SOL    HW224075   5.271   2.725   3.535
 7726SOL     OW24076   0.974   3.047   5.942
 7726SOL    HW124077   0.966   2.981   6.017
 7726SOL    HW224078   0.934   3.134   5.970
 7727SOL     OW24079   4.517   1.019   2.208
 7727SOL    HW124080   4.544   0.956   2.134
 7727SOL    HW224081   4.597   1.067   2.242
 7728SOL     OW24082   2.076   3.396   4.455
 7728SOL    HW124083   2.062   3.443   4.542
 7728SOL    HW224084   2.064   3.297   4.469
 7729SOL     OW24085   6.951   2.199   3.794
 7729SOL    HW124086   7.004   2.221   3.876
 7729SOL    HW224087   6.991   2.245   3.715
 7730SOL     OW24088   6.415   4.332   5.128
 7730SOL    HW124089   6.511   4.357   5.137
 7730SOL    HW224090   6.390   4.270   5.202
 7731SOL     OW24091   6.671   6.414   6.887
 7731SOL    HW124092   6.655   6.321   6.853
 7731SOL    HW224093   6.738   6.460   6.829
 7732SOL     OW24094   4.226   0.021   6.725
 7732SOL    HW124095   4.137   0.055   6.697
 7732SOL    HW224096   4.273   0.091   6.780
 7733SOL     OW24097   6.149   5.646   1.871
 7733SOL    HW124098   6.234   5.671   1.918
 7733SOL    HW224099   6.110   5.728   1.829
 7734SOL     OW24100   3.388   3.848   4.807
 7734SOL    HW124101   3.330   3.925   4.833
 7734SOL    HW224102   3.451   3.826   4.882
 7735SOL     OW24103   6.689   5.872   0.599
 7735SOL    HW124104   6.752   5.803   0.565
 7735SOL    HW224105   6.712   5.894   0.694
 7736SOL     OW24106   2.019   2.880   0.051
 7736SOL    HW124107   2.018   2.854   0.148
 7736SOL    HW224108   2.113   2.888   0.020
 7737SOL     OW24109   4.144   5.159   1.027
 7737SOL    HW124110   4.206   5.111   1.089
 7737SOL    HW224111   4.133   5.106   0.943
 7738SOL     OW24112   1.950   0.211   5.361
 7738SOL    HW124113   1.974   0.192   5.266
 7738SOL    HW224114   1.890   0.140   5.395
 7739SOL     OW24115   1.360   1.967   0.756
 7739SOL    HW124116   1.417   1.886   0.766
 7739SOL    HW224117   1.320   1.970   0.664
 7740SOL     OW24118   1.442   0.736   4.843
 7740SOL    HW124119   1.534   0.775   4.833
 7740SOL    HW224120   1.374   0.810   4.844
 7741SOL     OW24121   1.696   4.503   6.488
 7741SOL    HW124122   1.766   4.538   6.425
 7741SOL    HW224123   1.736   4.434   6.548
 7742SOL     OW24124   4.342   2.043   4.293
 7742SOL    HW124125   4.247   2.015   4.284
 7742SOL    HW224126   4.376   2.020   4.384
 7743SOL     OW24127   4.949   1.917   5.649
 7743SOL    HW124128   4.950   1.891   5.745
 7743SOL    HW224129   4.927   1.837   5.593
 7744SOL     OW24130   0.636   6.122   4.643
 7744SOL    HW124131   0.591   6.099   4.729
 7744SOL    HW224132   0.568   6.132   4.571
 7745SOL     OW24133   2.513   6.746   0.936
 7745SOL    HW124134   2.554   6.768   0.847
 7745SOL    HW224135   2.454   6.822   0.965
 7746SOL     OW24136   1.135   5.883   1.035
 7746SOL    HW124137   1.068   5.826   0.986
 7746SOL    HW224138   1.102   5.978   1.036
 7747SOL     OW24139   0.895   5.898   0.059
 7747SOL    HW124140   0.816   5.870   0.003
 7747SOL    HW224141   0.972   5.838   0.039
 7748SOL     OW24142   4.631   2.179   5.829
 7748SOL    HW124143   4.616   2.258   5.769
 7748SOL    HW224144   4.577   2.190   5.912
 7749SOL     OW24145   3.952   3.933   4.468
 7749SOL    HW124146   3.994   4.011   4.515
 7749SOL    HW224147   3.867   3.908   4.515
 7750SOL     OW24148   5.894   4.418   5.425
 7750SOL    HW124149   5.892   4.359   5.506
 7750SOL    HW224150   5.954   4.377   5.356
 7751SOL     OW24151   6.923   1.265   5.315
 7751SOL    HW124152   6.950   1.351   5.271
 7751SOL    HW224153   6.931   1.190   5.249
 7752SOL     OW24154   6.513   5.710   5.269
 7752SOL    HW124155   6.480   5.722   5.363
 7752SOL    HW224156   6.543   5.799   5.233
 7753SOL     OW24157   2.384   1.207   4.618
 7753SOL    HW124158   2.315   1.136   4.635
 7753SOL    HW224159   2.355   1.292   4.663
 7754SOL     OW24160   6.295   0.592   1.761
 7754SOL    HW124161   6.245   0.674   1.737
 7754SOL    HW224162   6.247   0.544   1.835
 7755SOL     OW24163   1.073   5.749   5.390
 7755SOL    HW124164   1.166   5.775   5.413
 7755SOL    HW224165   1.037   5.688   5.460
 7756SOL     OW24166   3.830   5.686   2.205
 7756SOL    HW124167   3.800   5.767   2.156
 7756SOL    HW224168   3.880   5.626   2.141
 7757SOL     OW24169   4.978   6.680   5.864
 7757SOL    HW124170   4.999   6.593   5.820
 7757SOL    HW224171   4.952   6.747   5.794
 7758SOL     OW24172   2.260   2.221   5.291
 7758SOL    HW124173   2.186   2.260   5.237
 7758SOL    HW224174   2.343   2.275   5.279
 7759SOL     OW24175   1.964   0.692   5.248
 7759SOL    HW124176   1.877   0.699   5.198
 7759SOL    HW224177   1.964   0.756   5.325
 7760SOL     OW24178   5.044   2.941   2.380
 7760SOL    HW124179   5.000   2.894   2.456
 7760SOL    HW224180   5.128   2.893   2.355
 7761SOL     OW24181   3.666   0.043   6.483
 7761SOL    HW124182   3.675   0.106   6.560
 7761SOL    HW224183   3.723   0.074   6.407
 7762SOL     OW24184   3.245   1.689   0.578
 7762SOL    HW124185   3.287   1.625   0.643
 7762SOL    HW224186   3.235   1.778   0.621
 7763SOL     OW24187   1.528   1.753   0.856
 7763SOL    HW124188   1.581   1.795   0.930
 7763SOL    HW224189   1.564   1.661   0.837
 7764SOL     OW24190   3.172   2.979   2.548
 7764SOL    HW124191   3.211   3.062   2.587
 7764SOL    HW224192   3.185   2.980   2.449
 7765SOL     OW24193   6.735   2.598   2.605
 7765SOL    HW124194   6.805   2.667   2.587
 7765SOL    HW224195   6.644   2.638   2.596
 7766SOL     OW24196   6.911   2.585   6.551
 7766SOL    HW124197   6.883   2.489   6.548
 7766SOL    HW224198   6.980   2.602   6.480
 7767SOL     OW24199   4.916   5.069   4.958
 7767SOL    HW124200   4.944   5.147   4.903
 7767SOL    HW224201   4.866   5.100   5.038
 7768SOL     OW24202   3.433   5.050   2.619
 7768SOL    HW124203   3.342   5.034   2.659
 7768SOL    HW224204   3.429   5.031   2.520
 7769SOL     OW24205   5.918   2.049   1.595
 7769SOL    HW124206   5.872   1.963   1.619
 7769SOL    HW224207   5.856   2.126   1.612
 7770SOL     OW24208   3.486   5.379   1.035
 7770SOL    HW124209   3.575   5.372   0.990
 7770SOL    HW224210   3.458   5.475   1.039
 7771SOL     OW24211   2.353   1.549   5.329
 7771SOL    HW124212   2.408   1.600   5.395
 7771SOL    HW224213   2.340   1.455   5.361
 7772SOL     OW24214   5.519   1.584   4.587
 7772SOL    HW124215   5.595   1.609   4.647
 7772SOL    HW224216   5.505   1.657   4.519
 7773SOL     OW24217   4.224   4.436   5.964
 7773SOL    HW124218   4.211   4.534   5.978
 7773SOL    HW224219   4.136   4.394   5.943
 7774SOL     OW24220   4.526   1.637   6.205
 7774SOL    HW124221   4.510   1.641   6.304
 7774SOL    HW224222   4.587   1.561   6.184
 7775SOL     OW24223   2.636   6.919   2.542
 7775SOL    HW124224   2.619   6.839   2.600
 7775SOL    HW224225   2.688   6.987   2.594
 7776SOL     OW24226   3.844   3.715   6.708
 7776SOL    HW124227   3.809   3.727   6.615
 7776SOL    HW224228   3.784   3.653   6.759
 7777SOL     OW24229   1.830   1.374   6.832
 7777SOL    HW124230   1.741   1.410   6.804
 7777SOL    HW224231   1.888   1.364   6.751
 7778SOL     OW24232   5.926   0.884   0.289
 7778SOL    HW124233   5.844   0.853   0.242
 7778SOL    HW224234   5.899   0.936   0.371
 7779SOL     OW24235   3.790   3.323   6.726
 7779SOL    HW124236   3.858   3.288   6.791
 7779SOL    HW224237   3.700   3.286   6.749
 7780SOL     OW24238   1.663   6.795   4.509
 7780SOL    HW124239   1.760   6.769   4.514
 7780SOL    HW224240   1.608   6.728   4.558
 7781SOL     OW24241   1.441   4.680   4.719
 7781SOL    HW124242   1.483   4.664   4.809
 7781SOL    HW224243   1.429   4.593   4.672
 7782SOL     OW24244   3.377   4.518   6.587
 7782SOL    HW124245   3.367   4.583   6.662
 7782SOL    HW224246   3.380   4.425   6.625
 7783SOL     OW24247   3.409   5.153   6.443
 7783SOL    HW124248   3.503   5.154   6.477
 7783SOL    HW224249   3.381   5.245   6.417
 7784SOL     OW24250   0.428   2.646   6.971
 7784SOL    HW124251   0.453   2.551   6.988
 7784SOL    HW224252   0.333   2.650   6.939
 7785SOL     OW24253   2.702   5.819   4.343
 7785SOL    HW124254   2.612   5.862   4.340
 7785SOL    HW224255   2.702   5.738   4.285
 7786SOL     OW24256   3.077   4.219   5.238
 7786SOL    HW124257   3.052   4.155   5.166
 7786SOL    HW224258   3.043   4.310   5.215
 7787SOL     OW24259   2.695   2.596   5.353
 7787SOL    HW124260   2.660   2.687   5.332
 7787SOL    HW224261   2.793   2.593   5.338
 7788SOL     OW24262   0.909   1.406   0.091
 7788SOL    HW124263   0.894   1.470   0.016
 7788SOL    HW224264   0.929   1.315   0.053
 7789SOL     OW24265   2.463   0.629   1.273
 7789SOL    HW124266   2.537   0.695   1.265
 7789SOL    HW224267   2.428   0.629   1.367
 7790SOL     OW24268   5.546   3.082   2.476
 7790SOL    HW124269   5.515   3.081   2.382
 7790SOL    HW224270   5.523   3.170   2.518
 7791SOL     OW24271   1.670   4.868   5.190
 7791SOL    HW124272   1.755   4.885   5.139
 7791SOL    HW224273   1.691   4.855   5.287
 7792SOL     OW24274   2.605   5.381   6.250
 7792SOL    HW124275   2.512   5.367   6.284
 7792SOL    HW224276   2.637   5.472   6.277
 7793SOL     OW24277   1.125   1.019   6.257
 7793SOL    HW124278   1.194   1.038   6.327
 7793SOL    HW224279   1.109   1.101   6.203
 7794SOL     OW24280   5.390   5.831   3.624
 7794SOL    HW124281   5.304   5.800   3.666
 7794SOL    HW224282   5.447   5.752   3.603
 7795SOL     OW24283   2.504   4.379   5.194
 7795SOL    HW124284   2.497   4.294   5.246
 7795SOL    HW224285   2.581   4.433   5.229
 7796SOL     OW24286   4.106   3.590   3.593
 7796SOL    HW124287   4.050   3.508   3.600
 7796SOL    HW224288   4.067   3.662   3.651
 7797SOL     OW24289   0.736   0.156   2.708
 7797SOL    HW124290   0.804   0.105   2.655
 7797SOL    HW224291   0.767   0.165   2.802
 7798SOL     OW24292   3.759   5.672   7.021
 7798SOL    HW124293   3.826   5.746   7.017
 7798SOL    HW224294   3.748   5.632   6.930
 7799SOL     OW24295   0.200   5.382   1.616
 7799SOL    HW124296   0.100   5.380   1.613
 7799SOL    HW224297   0.234   5.297   1.656
 7800SOL     OW24298   0.870   5.723   2.298
 7800SOL    HW124299   0.897   5.818   2.314
 7800SOL    HW224300   0.841   5.681   2.384
 7801SOL     OW24301   3.391   2.209   6.621
 7801SOL    HW124302   3.305   2.214   6.571
 7801SOL    HW224303   3.464   2.179   6.560
 7802SOL     OW24304   5.795   2.093   2.093
 7802SOL    HW124305   5.785   2.008   2.042
 7802SOL    HW224306   5.828   2.073   2.185
 7803SOL     OW24307   4.210   4.318   5.407
 7803SOL    HW124308   4.136   4.382   5.426
 7803SOL    HW224309   4.275   4.361   5.345
 7804SOL     OW24310   4.682   1.932   6.177
 7804SOL    HW124311   4.616   1.857   6.184
 7804SOL    HW224312   4.633   2.019   6.168
 7805SOL     OW24313   4.991   3.642   1.792
 7805SOL    HW124314   4.927   3.719   1.794
 7805SOL    HW224315   4.946   3.561   1.755
 7806SOL     OW24316   5.428   2.507   6.506
 7806SOL    HW124317   5.360   2.510   6.433
 7806SOL    HW224318   5.468   2.597   6.518
 7807SOL     OW24319   0.338   4.311   6.592
 7807SOL    HW124320   0.325   4.392   6.535
 7807SOL    HW224321   0.429   4.313   6.633
 7808SOL     OW24322   0.189   1.647   5.206
 7808SOL    HW124323   0.154   1.720   5.147
 7808SOL    HW224324   0.144   1.653   5.295
 7809SOL     OW24325   2.498   5.499   4.856
 7809SOL    HW124326   2.503   5.598   4.864
 7809SOL    HW224327   2.587   5.463   4.829
 7810SOL     OW24328   2.796   0.840   6.763
 7810SOL    HW124329   2.702   0.824   6.733
 7810SOL    HW224330   2.815   0.938   6.761
 7811SOL     OW24331   6.578   4.707   3.867
 7811SOL    HW124332   6.671   4.735   3.892
 7811SOL    HW224333   6.569   4.704   3.768
 7812SOL     OW24334   1.561   1.914   3.845
 7812SOL    HW124335   1.596   1.860   3.769
 7812SOL    HW224336   1.602   2.005   3.844
 7813SOL     OW24337   6.610   3.108   0.255
 7813SOL    HW124338   6.601   3.190   0.200
 7813SOL    HW224339   6.523   3.057   0.254
 7814SOL     OW24340   0.690   3.558   3.000
 7814SOL    HW124341   0.760   3.509   3.052
 7814SOL    HW224342   0.600   3.529   3.031
 7815SOL     OW24343   6.584   1.600   5.840
 7815SOL    HW124344   6.670   1.629   5.883
 7815SOL    HW224345   6.522   1.564   5.910
 7816SOL     OW24346   1.305   4.028   5.078
 7816SOL    HW124347   1.353   4.113   5.099
 7816SOL    HW224348   1.352   3.981   5.003
 7817SOL     OW24349   5.734   4.096   4.488
 7817SOL    HW124350   5.800   4.025   4.462
 7817SOL    HW224351   5.646   4.078   4.444
 7818SOL     OW24352   5.153   6.136   1.922
 7818SOL    HW124353   5.087   6.090   1.982
 7818SOL    HW224354   5.204   6.204   1.976
 7819SOL     OW24355   6.774   1.938   1.660
 7819SOL    HW124356   6.755   1.933   1.758
 7819SOL    HW224357   6.688   1.938   1.610
 7820SOL     OW24358   1.569   0.536   6.772
 7820SOL    HW124359   1.644   0.496   6.720
 7820SOL    HW224360   1.558   0.487   6.858
 7821SOL     OW24361   3.016   5.506   2.148
 7821SOL    HW124362   3.024   5.565   2.069
 7821SOL    HW224363   3.055   5.552   2.228
 7822SOL     OW24364   1.393   6.002   4.969
 7822SOL    HW124365   1.309   5.996   4.916
 7822SOL    HW224366   1.397   5.926   5.034
 7823SOL     OW24367   1.521   4.728   4.996
 7823SOL    HW124368   1.559   4.792   5.062
 7823SOL    HW224369   1.426   4.708   5.019
 7824SOL     OW24370   0.275   2.537   5.801
 7824SOL    HW124371   0.371   2.509   5.800
 7824SOL    HW224372   0.244   2.551   5.707
 7825SOL     OW24373   3.110   1.255   6.796
 7825SOL    HW124374   3.114   1.315   6.716
 7825SOL    HW224375   3.172   1.178   6.783
 7826SOL     OW24376   0.459   3.182   6.315
 7826SOL    HW124377   0.459   3.282   6.325
 7826SOL    HW224378   0.490   3.140   6.400
 7827SOL     OW24379   6.488   6.129   4.431
 7827SOL    HW124380   6.432   6.199   4.475
 7827SOL    HW224381   6.433   6.047   4.415
 7828SOL     OW24382   0.790   4.769   6.942
 7828SOL    HW124383   0.724   4.696   6.954
 7828SOL    HW224384   0.744   4.851   6.907
 7829SOL     OW24385   3.992   3.076   0.911
 7829SOL    HW124386   3.905   3.109   0.876
 7829SOL    HW224387   3.999   2.977   0.897
 7830SOL     OW24388   2.681   4.963   4.196
 7830SOL    HW124389   2.600   4.915   4.229
 7830SOL    HW224390   2.728   4.907   4.128
 7831SOL     OW24391   1.755   1.293   0.278
 7831SOL    HW124392   1.699   1.211   0.288
 7831SOL    HW224393   1.770   1.334   0.368
 7832SOL     OW24394   6.556   0.707   4.837
 7832SOL    HW124395   6.472   0.676   4.792
 7832SOL    HW224396   6.623   0.634   4.837
 7833SOL     OW24397   1.656   0.454   3.990
 7833SOL    HW124398   1.661   0.431   3.893
 7833SOL    HW224399   1.647   0.370   4.044
 7834SOL     OW24400   6.493   3.257   4.781
 7834SOL    HW124401   6.471   3.338   4.836
 7834SOL    HW224402   6.425   3.186   4.800
 7835SOL     OW24403   4.056   2.314   5.283
 7835SOL    HW124404   4.066   2.410   5.257
 7835SOL    HW224405   4.095   2.299   5.374
 7836SOL     OW24406   3.631   3.465   4.656
 7836SOL    HW124407   3.691   3.541   4.632
 7836SOL    HW224408   3.552   3.465   4.595
 7837SOL     OW24409   6.718   5.951   6.525
 7837SOL    HW124410   6.772   6.023   6.482
 7837SOL    HW224411   6.644   5.924   6.463
 7838SOL     OW24412   4.595   5.310   1.184
 7838SOL    HW124413   4.576   5.252   1.264
 7838SOL    HW224414   4.693   5.330   1.181
 7839SOL     OW24415   5.648   3.192   4.220
 7839SOL    HW124416   5.736   3.146   4.222
 7839SOL    HW224417   5.609   3.194   4.312
 7840SOL     OW24418   1.935   3.293   3.954
 7840SOL    HW124419   2.026   3.325   3.930
 7840SOL    HW224420   1.940   3.234   4.034
 7841SOL     OW24421   4.506   2.210   6.111
 7841SOL    HW124422   4.415   2.185   6.141
 7841SOL    HW224423   4.526   2.304   6.136
 7842SOL     OW24424   1.637   0.702   2.121
 7842SOL    HW124425   1.669   0.687   2.214
 7842SOL    HW224426   1.594   0.793   2.115
 7843SOL     OW24427   0.231   6.299   3.122
 7843SOL    HW124428   0.251   6.392   3.090
 7843SOL    HW224429   0.214   6.240   3.043
 7844SOL     OW24430   3.352   1.211   2.510
 7844SOL    HW124431   3.331   1.298   2.555
 7844SOL    HW224432   3.413   1.227   2.433
 7845SOL     OW24433   6.785   3.272   1.490
 7845SOL    HW124434   6.826   3.276   1.398
 7845SOL    HW224435   6.729   3.189   1.497
 7846SOL     OW24436   1.199   1.885   0.247
 7846SOL    HW124437   1.114   1.832   0.248
 7846SOL    HW224438   1.256   1.858   0.325
 7847SOL     OW24439   5.517   3.482   5.249
 7847SOL    HW124440   5.537   3.498   5.153
 7847SOL    HW224441   5.442   3.415   5.257
 7848SOL     OW24442   3.345   4.111   0.980
 7848SOL    HW124443   3.436   4.149   0.969
 7848SOL    HW224444   3.280   4.184   0.999
 7849SOL     OW24445   4.769   4.423   6.935
 7849SOL    HW124446   4.768   4.394   0.008
 7849SOL    HW224447   4.675   4.432   6.902
 7850SOL     OW24448   6.875   1.208   3.509
 7850SOL    HW124449   6.943   1.154   3.559
 7850SOL    HW224450   6.888   1.305   3.530
 7851SOL     OW24451   0.574   4.278   2.063
 7851SOL    HW124452   0.606   4.350   2.001
 7851SOL    HW224453   0.595   4.303   2.157
 7852SOL     OW24454   1.119   2.551   6.703
 7852SOL    HW124455   1.201   2.526   6.755
 7852SOL    HW224456   1.067   2.620   6.754
 7853SOL     OW24457   3.991   2.882   1.732
 7853SOL    HW124458   3.970   2.934   1.815
 7853SOL    HW224459   4.082   2.842   1.740
 7854SOL     OW24460   4.762   2.433   6.885
 7854SOL    HW124461   4.734   2.360   6.948
 7854SOL    HW224462   4.694   2.506   6.887
 7855SOL     OW24463   5.309   0.125   4.846
 7855SOL    HW124464   5.246   0.186   4.894
 7855SOL    HW224465   5.393   0.175   4.824
 7856SOL     OW24466   2.145   6.291   4.716
 7856SOL    HW124467   2.064   6.321   4.765
 7856SOL    HW224468   2.125   6.283   4.619
 7857SOL     OW24469   6.056   4.438   1.201
 7857SOL    HW124470   6.092   4.346   1.185
 7857SOL    HW224471   6.039   4.450   1.299
 7858SOL     OW24472   0.560   4.442   5.770
 7858SOL    HW124473   0.541   4.517   5.706
 7858SOL    HW224474   0.574   4.479   5.862
 7859SOL     OW24475   5.446   2.346   0.384
 7859SOL    HW124476   5.383   2.269   0.388
 7859SOL    HW224477   5.445   2.395   0.471
 7860SOL     OW24478   2.429   1.126   4.354
 7860SOL    HW124479   2.403   1.153   4.447
 7860SOL    HW224480   2.388   1.037   4.333
 7861SOL     OW24481   2.480   6.475   0.970
 7861SOL    HW124482   2.438   6.478   1.061
 7861SOL    HW224483   2.533   6.558   0.955
 7862SOL     OW24484   2.597   5.955   0.312
 7862SOL    HW124485   2.653   5.983   0.390
 7862SOL    HW224486   2.569   6.035   0.260
 7863SOL     OW24487   6.841   4.268   3.700
 7863SOL    HW124488   6.850   4.188   3.640
 7863SOL    HW224489   6.782   4.246   3.777
 7864SOL     OW24490   1.895   6.139   5.425
 7864SOL    HW124491   1.937   6.229   5.432
 7864SOL    HW224492   1.865   6.108   5.515
 7865SOL     OW24493   5.667   5.049   3.256
 7865SOL    HW124494   5.578   5.056   3.302
 7865SOL    HW224495   5.653   5.009   3.165
 7866SOL     OW24496   0.708   6.849   5.836
 7866SOL    HW124497   0.672   6.878   5.924
 7866SOL    HW224498   0.781   6.783   5.850
 7867SOL     OW24499   5.727   6.099   3.510
 7867SOL    HW124500   5.781   6.174   3.473
 7867SOL    HW224501   5.655   6.074   3.445
 7868SOL     OW24502   3.113   6.168   1.535
 7868SOL    HW124503   3.199   6.215   1.551
 7868SOL    HW224504   3.040   6.213   1.588
 7869SOL     OW24505   5.738   5.180   5.671
 7869SOL    HW124506   5.668   5.135   5.727
 7869SOL    HW224507   5.739   5.138   5.580
 7870SOL     OW24508   5.594   6.010   4.487
 7870SOL    HW124509   5.621   5.914   4.500
 7870SOL    HW224510   5.631   6.043   4.400
 7871SOL     OW24511   5.459   1.330   1.849
 7871SOL    HW124512   5.539   1.294   1.898
 7871SOL    HW224513   5.376   1.303   1.896
 7872SOL     OW24514   1.799   5.619   2.880
 7872SOL    HW124515   1.858   5.689   2.920
 7872SOL    HW224516   1.798   5.539   2.939
 7873SOL     OW24517   6.023   1.423   6.962
 7873SOL    HW124518   6.036   1.418   6.863
 7873SOL    HW224519   6.075   1.350   7.007
 7874SOL     OW24520   5.537   2.297   0.839
 7874SOL    HW124521   5.512   2.358   0.764
 7874SOL    HW224522   5.509   2.339   0.926
 7875SOL     OW24523   5.605   4.468   6.649
 7875SOL    HW124524   5.670   4.507   6.714
 7875SOL    HW224525   5.631   4.374   6.627
 7876SOL     OW24526   1.078   6.748   2.819
 7876SOL    HW124527   1.154   6.699   2.860
 7876SOL    HW224528   1.104   6.843   2.802
 7877SOL     OW24529   6.910   2.015   2.895
 7877SOL    HW124530   6.946   2.093   2.844
 7877SOL    HW224531   6.822   1.988   2.855
 7878SOL     OW24532   4.075   4.819   2.799
 7878SOL    HW124533   4.038   4.847   2.710
 7878SOL    HW224534   4.003   4.827   2.868
 7879SOL     OW24535   2.988   5.014   3.113
 7879SOL    HW124536   3.059   4.965   3.063
 7879SOL    HW224537   2.901   5.005   3.065
 7880SOL     OW24538   1.748   4.162   1.810
 7880SOL    HW124539   1.783   4.256   1.812
 7880SOL    HW224540   1.790   4.110   1.884
 7881SOL     OW24541   5.128   4.356   4.333
 7881SOL    HW124542   5.167   4.325   4.420
 7881SOL    HW224543   5.109   4.276   4.275
 7882SOL     OW24544   1.398   3.524   0.531
 7882SOL    HW124545   1.356   3.594   0.589
 7882SOL    HW224546   1.418   3.443   0.585
 7883SOL     OW24547   1.067   0.470   5.395
 7883SOL    HW124548   1.131   0.527   5.446
 7883SOL    HW224549   0.983   0.521   5.378
 7884SOL     OW24550   0.869   2.662   4.220
 7884SOL    HW124551   0.820   2.726   4.162
 7884SOL    HW224552   0.803   2.605   4.270
 7885SOL     OW24553   6.583   5.615   6.364
 7885SOL    HW124554   6.570   5.525   6.404
 7885SOL    HW224555   6.504   5.639   6.308
 7886SOL     OW24556   4.544   4.898   0.173
 7886SOL    HW124557   4.468   4.833   0.176
 7886SOL    HW224558   4.538   4.960   0.250
 7887SOL     OW24559   4.711   2.127   6.731
 7887SOL    HW124560   4.628   2.072   6.742
 7887SOL    HW224561   4.688   2.214   6.688
 7888SOL     OW24562   5.546   0.713   5.095
 7888SOL    HW124563   5.489   0.672   5.024
 7888SOL    HW224564   5.496   0.786   5.141
 7889SOL     OW24565   1.260   5.929   2.590
 7889SOL    HW124566   1.165   5.959   2.587
 7889SOL    HW224567   1.320   6.006   2.569
 7890SOL     OW24568   1.791   3.155   2.949
 7890SOL    HW124569   1.861   3.089   2.921
 7890SOL    HW224570   1.811   3.244   2.907
 7891SOL     OW24571   1.488   4.677   3.174
 7891SOL    HW124572   1.547   4.617   3.228
 7891SOL    HW224573   1.485   4.768   3.215
 7892SOL     OW24574   1.910   2.602   5.726
 7892SOL    HW124575   1.882   2.532   5.792
 7892SOL    HW224576   2.008   2.621   5.737
 7893SOL     OW24577   5.986   6.224   1.598
 7893SOL    HW124578   6.043   6.300   1.566
 7893SOL    HW224579   5.952   6.173   1.519
 7894SOL     OW24580   3.003   0.106   2.110
 7894SOL    HW124581   2.909   0.110   2.074
 7894SOL    HW224582   3.033   0.011   2.115
 7895SOL     OW24583   6.811   1.829   3.471
 7895SOL    HW124584   6.779   1.822   3.377
 7895SOL    HW224585   6.866   1.912   3.481
 7896SOL     OW24586   4.669   1.895   5.308
 7896SOL    HW124587   4.709   1.954   5.378
 7896SOL    HW224588   4.590   1.941   5.267
 7897SOL     OW24589   2.827   3.343   6.272
 7897SOL    HW124590   2.915   3.391   6.273
 7897SOL    HW224591   2.826   3.279   6.195
 7898SOL     OW24592   4.411   2.387   3.479
 7898SOL    HW124593   4.319   2.353   3.496
 7898SOL    HW224594   4.418   2.417   3.384
 7899SOL     OW24595   5.221   1.045   2.748
 7899SOL    HW124596   5.288   0.981   2.709
 7899SOL    HW224597   5.215   1.031   2.847
 7900SOL     OW24598   1.577   5.797   0.823
 7900SOL    HW124599   1.511   5.799   0.898
 7900SOL    HW224600   1.661   5.844   0.851
 7901SOL     OW24601   6.079   5.744   0.198
 7901SOL    HW124602   6.043   5.806   0.129
 7901SOL    HW224603   6.012   5.670   0.214
 7902SOL     OW24604   4.944   3.805   6.889
 7902SOL    HW124605   4.920   3.900   6.869
 7902SOL    HW224606   4.910   3.780   6.979
 7903SOL     OW24607   0.397   2.005   6.858
 7903SOL    HW124608   0.388   2.069   6.781
 7903SOL    HW224609   0.363   2.047   6.941
 7904SOL     OW24610   6.260   0.796   2.775
 7904SOL    HW124611   6.226   0.769   2.865
 7904SOL    HW224612   6.212   0.745   2.704
 7905SOL     OW24613   3.569   1.338   0.682
 7905SOL    HW124614   3.625   1.307   0.759
 7905SOL    HW224615   3.588   1.434   0.663
 7906SOL     OW24616   6.049   5.759   6.793
 7906SOL    HW124617   6.053   5.684   6.727
 7906SOL    HW224618   6.137   5.768   6.839
 7907SOL     OW24619   6.636   2.953   2.096
 7907SOL    HW124620   6.569   2.929   2.026
 7907SOL    HW224621   6.595   2.941   2.187
 7908SOL     OW24622   6.193   1.842   3.611
 7908SOL    HW124623   6.114   1.869   3.666
 7908SOL    HW224624   6.268   1.814   3.671
 7909SOL     OW24625   4.611   4.730   5.110
 7909SOL    HW124626   4.636   4.784   5.029
 7909SOL    HW224627   4.691   4.682   5.145
 7910SOL     OW24628   5.697   3.654   5.960
 7910SOL    HW124629   5.647   3.656   5.874
 7910SOL    HW224630   5.732   3.745   5.981
 7911SOL     OW24631   5.906   4.983   7.004
 7911SOL    HW124632   5.956   4.969   0.067
 7911SOL    HW224633   5.925   4.907   6.941
 7912SOL     OW24634   6.527   5.062   5.929
 7912SOL    HW124635   6.474   4.988   5.887
 7912SOL    HW224636   6.600   5.091   5.867
 7913SOL     OW24637   0.454   5.628   6.607
 7913SOL    HW124638   0.376   5.581   6.565
 7913SOL    HW224639   0.509   5.671   6.536
 7914SOL     OW24640   0.029   3.552   2.321
 7914SOL    HW124641   0.017   3.482   2.251
 7914SOL    HW224642   0.069   3.512   2.403
 7915SOL     OW24643   4.535   2.121   2.529
 7915SOL    HW124644   4.612   2.107   2.591
 7915SOL    HW224645   4.521   2.218   2.514
 7916SOL     OW24646   4.833   3.639   5.548
 7916SOL    HW124647   4.883   3.725   5.555
 7916SOL    HW224648   4.835   3.592   5.636
 7917SOL     OW24649   3.045   3.931   4.077
 7917SOL    HW124650   3.009   3.849   4.123
 7917SOL    HW224651   3.127   3.962   4.124
 7918SOL     OW24652   6.227   1.973   2.561
 7918SOL    HW124653   6.172   2.000   2.482
 7918SOL    HW224654   6.170   1.923   2.627
 7919SOL     OW24655   5.702   5.042   1.701
 7919SOL    HW124656   5.741   4.963   1.654
 7919SOL    HW224657   5.770   5.115   1.707
 7920SOL     OW24658   1.031   5.662   1.834
 7920SOL    HW124659   1.114   5.705   1.799
 7920SOL    HW224660   1.010   5.700   1.925
 7921SOL     OW24661   3.668   6.777   1.952
 7921SOL    HW124662   3.742   6.821   2.003
 7921SOL    HW224663   3.700   6.688   1.918
 7922SOL     OW24664   0.547   5.155   6.889
 7922SOL    HW124665   0.492   5.194   6.815
 7922SOL    HW224666   0.493   5.087   6.938
 7923SOL     OW24667   1.423   1.588   2.881
 7923SOL    HW124668   1.361   1.624   2.951
 7923SOL    HW224669   1.369   1.549   2.806
 7924SOL     OW24670   2.258   0.244   4.061
 7924SOL    HW124671   2.265   0.344   4.059
 7924SOL    HW224672   2.349   0.205   4.080
 7925SOL     OW24673   6.928   0.278   6.719
 7925SOL    HW124674   0.006   0.280   6.717
 7925SOL    HW224675   6.898   0.224   6.798
 7926SOL     OW24676   3.102   0.168   1.671
 7926SOL    HW124677   3.017   0.201   1.711
 7926SOL    HW224678   3.156   0.245   1.638
 7927SOL     OW24679   4.559   4.419   4.370
 7927SOL    HW124680   4.544   4.417   4.469
 7927SOL    HW224681   4.656   4.407   4.351
 7928SOL     OW24682   1.730   5.190   1.041
 7928SOL    HW124683   1.709   5.103   1.084
 7928SOL    HW224684   1.829   5.206   1.046
 7929SOL     OW24685   3.890   4.032   4.171
 7929SOL    HW124686   3.913   4.035   4.268
 7929SOL    HW224687   3.808   4.087   4.154
 7930SOL     OW24688   5.345   5.980   4.613
 7930SOL    HW124689   5.291   6.046   4.561
 7930SOL    HW224690   5.436   5.970   4.573
 7931SOL     OW24691   1.803   2.898   0.758
 7931SOL    HW124692   1.756   2.885   0.846
 7931SOL    HW224693   1.901   2.907   0.774
 7932SOL     OW24694   3.269   0.033   0.849
 7932SOL    HW124695   3.228   0.035   0.940
 7932SOL    HW224696   3.353   7.000   0.853
 7933SOL     OW24697   1.526   0.493   0.246
 7933SOL    HW124698   1.438   0.446   0.257
 7933SOL    HW224699   1.510   0.587   0.217
 7934SOL     OW24700   3.259   3.333   5.651
 7934SOL    HW124701   3.346   3.366   5.688
 7934SOL    HW224702   3.262   3.334   5.551
 7935SOL     OW24703   4.282   6.240   1.561
 7935SOL    HW124704   4.244   6.312   1.620
 7935SOL    HW224705   4.382   6.241   1.567
 7936SOL     OW24706   4.443   5.682   3.002
 7936SOL    HW124707   4.401   5.720   2.919
 7936SOL    HW224708   4.523   5.627   2.977
 7937SOL     OW24709   6.297   6.391   5.591
 7937SOL    HW124710   6.286   6.459   5.664
 7937SOL    HW224711   6.317   6.302   5.631
 7938SOL     OW24712   5.701   4.343   4.836
 7938SOL    HW124713   5.703   4.243   4.832
 7938SOL    HW224714   5.793   4.378   4.820
 7939SOL     OW24715   0.796   0.570   4.453
 7939SOL    HW124716   0.871   0.556   4.518
 7939SOL    HW224717   0.780   0.485   4.402
 7940SOL     OW24718   1.828   5.894   0.917
 7940SOL    HW124719   1.904   5.900   0.982
 7940SOL    HW224720   1.861   5.862   0.829
 7941SOL     OW24721   0.266   0.125   0.472
 7941SOL    HW124722   0.363   0.136   0.450
 7941SOL    HW224723   0.222   0.071   0.400
 7942SOL     OW24724   1.479   0.901   1.152
 7942SOL    HW124725   1.520   0.945   1.072
 7942SOL    HW224726   1.502   0.804   1.152
 7943SOL     OW24727   5.689   2.073   0.855
 7943SOL    HW124728   5.696   1.997   0.791
 7943SOL    HW224729   5.648   2.152   0.810
 7944SOL     OW24730   0.610   4.367   2.337
 7944SOL    HW124731   0.625   4.272   2.366
 7944SOL    HW224732   0.600   4.424   2.418
 7945SOL     OW24733   5.390   6.456   1.676
 7945SOL    HW124734   5.327   6.393   1.721
 7945SOL    HW224735   5.416   6.419   1.587
 7946SOL     OW24736   1.407   1.889   5.674
 7946SOL    HW124737   1.461   1.820   5.626
 7946SOL    HW224738   1.372   1.956   5.608
 7947SOL     OW24739   3.804   3.958   6.211
 7947SOL    HW124740   3.872   3.887   6.193
 7947SOL    HW224741   3.784   3.962   6.309
 7948SOL     OW24742   0.976   5.391   0.299
 7948SOL    HW124743   0.962   5.300   0.338
 7948SOL    HW224744   1.028   5.384   0.214
 7949SOL     OW24745   6.178   4.316   4.447
 7949SOL    HW124746   6.173   4.412   4.420
 7949SOL    HW224747   6.262   4.276   4.410
 7950SOL     OW24748   3.006   5.181   4.784
 7950SOL    HW124749   3.081   5.241   4.755
 7950SOL    HW224750   3.006   5.173   4.883
 7951SOL     OW24751   2.699   3.228   1.245
 7951SOL    HW124752   2.616   3.280   1.228
 7951SOL    HW224753   2.750   3.269   1.321
 7952SOL     OW24754   5.014   4.240   0.156
 7952SOL    HW124755   4.918   4.264   0.168
 7952SOL    HW224756   5.035   4.158   0.209
 7953SOL     OW24757   2.243   3.007   2.667
 7953SOL    HW124758   2.302   2.945   2.616
 7953SOL    HW224759   2.268   3.005   2.764
 7954SOL     OW24760   5.008   5.598   5.156
 7954SOL    HW124761   4.994   5.499   5.152
 7954SOL    HW224762   4.990   5.638   5.066
 7955SOL     OW24763   0.942   6.302   5.804
 7955SOL    HW124764   0.901   6.384   5.765
 7955SOL    HW224765   0.963   6.236   5.732
 7956SOL     OW24766   5.842   6.878   3.632
 7956SOL    HW124767   5.828   6.977   3.638
 7956SOL    HW224768   5.755   6.831   3.645
 7957SOL     OW24769   0.669   2.906   1.188
 7957SOL    HW124770   0.706   2.813   1.177
 7957SOL    HW224771   0.598   2.922   1.120
 7958SOL     OW24772   2.399   5.360   2.841
 7958SOL    HW124773   2.305   5.352   2.807
 7958SOL    HW224774   2.460   5.305   2.785
 7959SOL     OW24775   5.289   5.011   0.816
 7959SOL    HW124776   5.382   5.040   0.792
 7959SOL    HW224777   5.287   4.980   0.911
 7960SOL     OW24778   2.604   2.229   1.064
 7960SOL    HW124779   2.567   2.155   1.008
 7960SOL    HW224780   2.698   2.206   1.090
 7961SOL     OW24781   2.073   5.419   6.531
 7961SOL    HW124782   2.095   5.332   6.487
 7961SOL    HW224783   2.152   5.452   6.582
 7962SOL     OW24784   1.417   0.407   2.155
 7962SOL    HW124785   1.446   0.487   2.102
 7962SOL    HW224786   1.383   0.336   2.093
 7963SOL     OW24787   0.695   0.430   4.726
 7963SOL    HW124788   0.721   0.500   4.659
 7963SOL    HW224789   0.751   0.440   4.808
 7964SOL     OW24790   6.370   5.902   3.076
 7964SOL    HW124791   6.369   5.878   3.173
 7964SOL    HW224792   6.452   5.955   3.055
 7965SOL     OW24793   5.468   1.829   0.516
 7965SOL    HW124794   5.501   1.740   0.484
 7965SOL    HW224795   5.436   1.883   0.437
 7966SOL     OW24796   0.320   5.142   3.785
 7966SOL    HW124797   0.379   5.122   3.863
 7966SOL    HW224798   0.309   5.241   3.777
 7967SOL     OW24799   2.926   6.056   2.465
 7967SOL    HW124800   3.012   6.026   2.425
 7967SOL    HW224801   2.944   6.113   2.546
 7968SOL     OW24802   1.691   1.166   1.452
 7968SOL    HW124803   1.773   1.216   1.478
 7968SOL    HW224804   1.621   1.177   1.522
 7969SOL     OW24805   3.217   2.045   2.813
 7969SOL    HW124806   3.279   2.030   2.736
 7969SOL    HW224807   3.150   2.116   2.789
 7970SOL     OW24808   0.795   4.989   3.157
 7970SOL    HW124809   0.749   4.902   3.139
 7970SOL    HW224810   0.891   4.971   3.181
 7971SOL     OW24811   2.623   1.283   1.594
 7971SOL    HW124812   2.568   1.243   1.667
 7971SOL    HW224813   2.564   1.303   1.516
 7972SOL     OW24814   0.453   4.743   2.150
 7972SOL    HW124815   0.411   4.699   2.229
 7972SOL    HW224816   0.399   4.822   2.122
 7973SOL     OW24817   4.354   2.385   2.766
 7973SOL    HW124818   4.285   2.366   2.835
 7973SOL    HW224819   4.426   2.443   2.806
 7974SOL     OW24820   5.230   0.332   4.394
 7974SOL    HW124821   5.225   0.391   4.313
 7974SOL    HW224822   5.273   0.382   4.469
 7975SOL     OW24823   2.573   1.162   3.573
 7975SOL    HW124824   2.531   1.074   3.548
 7975SOL    HW224825   2.574   1.171   3.672
 7976SOL     OW24826   0.596   5.373   6.458
 7976SOL    HW124827   0.496   5.377   6.453
 7976SOL    HW224828   0.624   5.281   6.486
 7977SOL     OW24829   5.196   6.322   1.376
 7977SOL    HW124830   5.280   6.374   1.391
 7977SOL    HW224831   5.211   6.254   1.304
 7978SOL     OW24832   4.421   2.533   5.575
 7978SOL    HW124833   4.436   2.627   5.608
 7978SOL    HW224834   4.432   2.469   5.652
 7979SOL     OW24835   3.785   0.095   4.162
 7979SOL    HW124836   3.829   0.106   4.073
 7979SOL    HW224837   3.840   0.139   4.232
 7980SOL     OW24838   2.959   6.667   1.981
 7980SOL    HW124839   2.922   6.673   2.074
 7980SOL    HW224840   3.056   6.642   1.985
 7981SOL     OW24841   1.277   5.459   3.350
 7981SOL    HW124842   1.223   5.385   3.309
 7981SOL    HW224843   1.253   5.545   3.306
 7982SOL     OW24844   6.389   2.670   0.491
 7982SOL    HW124845   6.410   2.755   0.538
 7982SOL    HW224846   6.301   2.635   0.524
 7983SOL     OW24847   5.152   2.421   2.214
 7983SOL    HW124848   5.087   2.485   2.257
 7983SOL    HW224849   5.145   2.428   2.115
 7984SOL     OW24850   0.622   0.813   0.858
 7984SOL    HW124851   0.629   0.744   0.929
 7984SOL    HW224852   0.659   0.900   0.892
 7985SOL     OW24853   0.381   1.229   1.524
 7985SOL    HW124854   0.378   1.254   1.427
 7985SOL    HW224855   0.333   1.142   1.537
 7986SOL     OW24856   3.948   1.622   0.661
 7986SOL    HW124857   3.928   1.695   0.726
 7986SOL    HW224858   3.875   1.617   0.592
 7987SOL     OW24859   0.572   2.921   4.792
 7987SOL    HW124860   0.506   2.987   4.829
 7987SOL    HW224861   0.524   2.857   4.732
 7988SOL     OW24862   2.685   1.501   5.552
 7988SOL    HW124863   2.775   1.524   5.589
 7988SOL    HW224864   2.657   1.572   5.488
 7989SOL     OW24865   3.027   3.135   5.300
 7989SOL    HW124866   2.969   3.057   5.279
 7989SOL    HW224867   3.033   3.146   5.400
 7990SOL     OW24868   2.080   2.521   4.933
 7990SOL    HW124869   2.014   2.507   4.860
 7990SOL    HW224870   2.068   2.613   4.972
 7991SOL     OW24871   0.265   3.396   5.543
 7991SOL    HW124872   0.271   3.437   5.452
 7991SOL    HW224873   0.330   3.320   5.550
 7992SOL     OW24874   2.697   0.746   0.510
 7992SOL    HW124875   2.683   0.844   0.529
 7992SOL    HW224876   2.759   0.736   0.432
 7993SOL     OW24877   1.695   6.787   6.500
 7993SOL    HW124878   1.749   6.773   6.583
 7993SOL    HW224879   1.719   6.717   6.433
 7994SOL     OW24880   5.606   0.888   3.628
 7994SOL    HW124881   5.632   0.793   3.641
 7994SOL    HW224882   5.688   0.942   3.605
 7995SOL     OW24883   3.887   4.856   3.033
 7995SOL    HW124884   3.807   4.877   3.089
 7995SOL    HW224885   3.970   4.865   3.089
 7996SOL     OW24886   3.650   0.623   5.021
 7996SOL    HW124887   3.624   0.710   5.065
 7996SOL    HW224888   3.733   0.637   4.967
 7997SOL     OW24889   5.904   2.606   1.584
 7997SOL    HW124890   5.988   2.654   1.610
 7997SOL    HW224891   5.898   2.601   1.485
 7998SOL     OW24892   6.120   5.193   6.945
 7998SOL    HW124893   6.097   5.290   6.958
 7998SOL    HW224894   6.039   5.137   6.962
 7999SOL     OW24895   1.771   0.391   5.491
 7999SOL    HW124896   1.816   0.302   5.488
 7999SOL    HW224897   1.736   0.414   5.400
 8000SOL     OW24898   6.327   6.776   5.712
 8000SOL    HW124899   6.397   6.710   5.740
 8000SOL    HW224900   6.236   6.739   5.728
 8001SOL     OW24901   2.387   7.021   1.380
 8001SOL    HW124902   2.355   6.996   1.471
 8001SOL    HW224903   2.451   6.950   1.347
 8002SOL     OW24904   5.595   3.090   5.602
 8002SOL    HW124905   5.640   3.149   5.669
 8002SOL    HW224906   5.619   3.120   5.510
 8003SOL     OW24907   3.675   4.937   3.204
 8003SOL    HW124908   3.711   4.952   3.297
 8003SOL    HW224909   3.631   5.020   3.171
 8004SOL     OW24910   1.894   3.918   2.747
 8004SOL    HW124911   1.837   4.000   2.739
 8004SOL    HW224912   1.989   3.944   2.762
 8005SOL     OW24913   3.069   1.130   1.700
 8005SOL    HW124914   3.122   1.210   1.728
 8005SOL    HW224915   3.008   1.154   1.625
 8006SOL     OW24916   3.218   6.017   0.215
 8006SOL    HW124917   3.174   5.977   0.295
 8006SOL    HW224918   3.306   6.058   0.243
 8007SOL     OW24919   0.097   1.360   4.644
 8007SOL    HW124920   0.081   1.397   4.736
 8007SOL    HW224921   0.190   1.323   4.639
 8008SOL     OW24922   6.422   6.097   0.769
 8008SOL    HW124923   6.445   6.039   0.691
 8008SOL    HW224924   6.504   6.113   0.824
 8009SOL     OW24925   6.742   6.653   3.512
 8009SOL    HW124926   6.735   6.626   3.609
 8009SOL    HW224927   6.828   6.621   3.475
 8010SOL     OW24928   2.486   2.841   6.753
 8010SOL    HW124929   2.529   2.751   6.745
 8010SOL    HW224930   2.467   2.876   6.661
 8011SOL     OW24931   2.853   2.262   0.756
 8011SOL    HW124932   2.923   2.277   0.826
 8011SOL    HW224933   2.774   2.319   0.776
 8012SOL     OW24934   2.894   6.694   2.583
 8012SOL    HW124935   2.907   6.773   2.523
 8012SOL    HW224936   2.975   6.637   2.581
 8013SOL     OW24937   6.023   4.320   5.175
 8013SOL    HW124938   6.066   4.236   5.141
 8013SOL    HW224939   6.040   4.394   5.110
 8014SOL     OW24940   2.142   6.846   6.706
 8014SOL    HW124941   2.110   6.757   6.673
 8014SOL    HW224942   2.175   6.837   6.799
 8015SOL     OW24943   2.015   2.305   6.952
 8015SOL    HW124944   1.924   2.347   6.959
 8015SOL    HW224945   2.053   2.323   6.862
 8016SOL     OW24946   3.702   6.248   1.756
 8016SOL    HW124947   3.718   6.152   1.734
 8016SOL    HW224948   3.640   6.288   1.687
 8017SOL     OW24949   6.002   4.623   4.477
 8017SOL    HW124950   5.954   4.550   4.525
 8017SOL    HW224951   5.938   4.673   4.419
 8018SOL     OW24952   5.538   2.420   4.638
 8018SOL    HW124953   5.589   2.360   4.577
 8018SOL    HW224954   5.563   2.401   4.733
 8019SOL     OW24955   2.547   5.620   1.032
 8019SOL    HW124956   2.626   5.681   1.021
 8019SOL    HW224957   2.547   5.553   0.958
 8020SOL     OW24958   5.692   5.884   6.722
 8020SOL    HW124959   5.763   5.849   6.783
 8020SOL    HW224960   5.734   5.929   6.644
 8021SOL     OW24961   0.983   0.758   0.854
 8021SOL    HW124962   1.001   0.853   0.829
 8021SOL    HW224963   0.957   0.754   0.951
 8022SOL     OW24964   4.608   6.109   3.041
 8022SOL    HW124965   4.622   6.202   3.075
 8022SOL    HW224966   4.553   6.057   3.106
 8023SOL     OW24967   6.525   6.876   3.144
 8023SOL    HW124968   6.509   6.812   3.219
 8023SOL    HW224969   6.543   6.967   3.181
 8024SOL     OW24970   4.540   5.279   4.997
 8024SOL    HW124971   4.492   5.191   4.991
 8024SOL    HW224972   4.531   5.329   4.912
 8025SOL     OW24973   3.765   5.586   0.267
 8025SOL    HW124974   3.697   5.641   0.315
 8025SOL    HW224975   3.759   5.603   0.169
 8026SOL     OW24976   1.059   2.883   0.545
 8026SOL    HW124977   1.085   2.952   0.613
 8026SOL    HW224978   1.141   2.847   0.500
 8027SOL     OW24979   5.246   2.795   5.606
 8027SOL    HW124980   5.154   2.768   5.630
 8027SOL    HW224981   5.247   2.832   5.513
 8028SOL     OW24982   5.764   4.580   6.828
 8028SOL    HW124983   5.737   4.575   6.924
 8028SOL    HW224984   5.849   4.631   6.820
 8029SOL     OW24985   3.002   4.121   0.821
 8029SOL    HW124986   2.943   4.194   0.784
 8029SOL    HW224987   3.048   4.074   0.746
 8030SOL     OW24988   6.071   3.787   6.763
 8030SOL    HW124989   6.102   3.852   6.694
 8030SOL    HW224990   5.971   3.789   6.769
 8031SOL     OW24991   3.659   5.731   1.409
 8031SOL    HW124992   3.734   5.783   1.367
 8031SOL    HW224993   3.673   5.634   1.393
 8032SOL     OW24994   5.044   4.336   6.092
 8032SOL    HW124995   4.996   4.394   6.157
 8032SOL    HW224996   5.113   4.282   6.140
 8033SOL     OW24997   5.787   2.604   0.359
 8033SOL    HW124998   5.784   2.556   0.271
 8033SOL    HW224999   5.730   2.685   0.355
 8034SOL     OW25000   5.917   1.145   5.850
 8034SOL    HW125001   5.905   1.236   5.890
 8034SOL    HW225002   5.921   1.153   5.750
 8035SOL     OW25003   5.625   6.594   0.012
 8035SOL    HW125004   5.562   6.525   7.000
 8035SOL    HW225005   5.636   6.666   6.966
 8036SOL     OW25006   2.095   4.200   1.672
 8036SOL    HW125007   2.003   4.223   1.639
 8036SOL    HW225008   2.088   4.134   1.747
 8037SOL     OW25009   1.490   3.471   1.750
 8037SOL    HW125010   1.514   3.491   1.655
 8037SOL    HW225011   1.562   3.506   1.811
 8038SOL     OW25012   0.038   2.234   4.402
 8038SOL    HW125013   0.002   2.177   4.327
 8038SOL    HW225014   0.087   2.312   4.364
 8039SOL     OW25015   2.539   6.520   4.250
 8039SOL    HW125016   2.466   6.477   4.302
 8039SOL    HW225017   2.611   6.551   4.312
 8040SOL     OW25018   0.260   5.758   0.808
 8040SOL    HW125019   0.222   5.850   0.816
 8040SOL    HW225020   0.239   5.706   0.891
 8041SOL     OW25021   4.705   1.896   0.814
 8041SOL    HW125022   4.803   1.915   0.823
 8041SOL    HW225023   4.663   1.897   0.905
 8042SOL     OW25024   3.076   3.329   1.306
 8042SOL    HW125025   3.016   3.398   1.266
 8042SOL    HW225026   3.021   3.265   1.361
 8043SOL     OW25027   2.457   0.231   2.002
 8043SOL    HW125028   2.479   0.141   2.040
 8043SOL    HW225029   2.448   0.223   1.903
 8044SOL     OW25030   2.957   3.710   1.941
 8044SOL    HW125031   3.023   3.662   1.882
 8044SOL    HW225032   2.899   3.642   1.987
 8045SOL     OW25033   5.978   2.723   3.337
 8045SOL    HW125034   5.924   2.706   3.419
 8045SOL    HW225035   6.047   2.651   3.326
 8046SOL     OW25036   6.923   4.975   6.077
 8046SOL    HW125037   6.952   4.884   6.107
 8046SOL    HW225038   6.844   5.004   6.130
 8047SOL     OW25039   3.659   5.951   4.239
 8047SOL    HW125040   3.693   6.021   4.302
 8047SOL    HW225041   3.730   5.928   4.173
 8048SOL     OW25042   0.065   0.045   5.752
 8048SOL    HW125043   0.108   6.978   5.756
 8048SOL    HW225044   7.002   0.044   5.805
 8049SOL     OW25045   1.412   5.609   0.721
 8049SOL    HW125046   1.332   5.666   0.735
 8049SOL    HW225047   1.493   5.654   0.759
 8050SOL     OW25048   1.653   2.995   1.134
 8050SOL    HW125049   1.638   2.911   1.186
 8050SOL    HW225050   1.610   2.987   1.044
 8051SOL     OW25051   4.509   1.336   3.620
 8051SOL    HW125052   4.426   1.327   3.675
 8051SOL    HW225053   4.485   1.328   3.523
 8052SOL     OW25054   3.030   1.821   2.779
 8052SOL    HW125055   3.031   1.917   2.751
 8052SOL    HW225056   3.033   1.763   2.698
 8053SOL     OW25057   3.917   3.429   2.304
 8053SOL    HW125058   3.919   3.515   2.356
 8053SOL    HW225059   3.952   3.355   2.362
 8054SOL     OW25060   3.989   6.346   4.926
 8054SOL    HW125061   4.047   6.265   4.914
 8054SOL    HW225062   4.043   6.429   4.908
 8055SOL     OW25063   1.423   6.884   5.513
 8055SOL    HW125064   1.417   6.858   5.417
 8055SOL    HW225065   1.450   6.980   5.521
 8056SOL     OW25066   4.129   1.796   2.962
 8056SOL    HW125067   4.108   1.861   3.036
 8056SOL    HW225068   4.087   1.708   2.982
 8057SOL     OW25069   3.570   6.515   3.993
 8057SOL    HW125070   3.492   6.574   3.972
 8057SOL    HW225071   3.565   6.432   3.937
 8058SOL     OW25072   1.992   1.263   3.263
 8058SOL    HW125073   2.007   1.187   3.326
 8058SOL    HW225074   1.921   1.323   3.300
 8059SOL     OW25075   2.876   1.420   3.854
 8059SOL    HW125076   2.803   1.464   3.802
 8059SOL    HW225077   2.839   1.340   3.902
 8060SOL     OW25078   0.512   1.762   4.651
 8060SOL    HW125079   0.506   1.665   4.626
 8060SOL    HW225080   0.604   1.796   4.630
 8061SOL     OW25081   0.633   5.522   1.934
 8061SOL    HW125082   0.587   5.607   1.959
 8061SOL    HW225083   0.718   5.513   1.986
 8062SOL     OW25084   2.125   3.704   3.430
 8062SOL    HW125085   2.084   3.644   3.498
 8062SOL    HW225086   2.171   3.781   3.476
 8063SOL     OW25087   3.248   3.224   0.119
 8063SOL    HW125088   3.282   3.130   0.117
 8063SOL    HW225089   3.149   3.223   0.134
 8064SOL     OW25090   0.004   3.579   7.003
 8064SOL    HW125091   0.033   3.559   6.910
 8064SOL    HW225092   6.975   3.501   0.017
 8065SOL     OW25093   4.850   0.393   5.695
 8065SOL    HW125094   4.914   0.444   5.637
 8065SOL    HW225095   4.869   0.295   5.688
 8066SOL     OW25096   1.699   0.389   1.576
 8066SOL    HW125097   1.618   0.430   1.617
 8066SOL    HW225098   1.699   0.406   1.478
 8067SOL     OW25099   5.284   2.539   1.242
 8067SOL    HW125100   5.270   2.592   1.326
 8067SOL    HW225101   5.204   2.482   1.224
 8068SOL     OW25102   1.056   4.509   4.555
 8068SOL    HW125103   1.008   4.422   4.571
 8068SOL    HW225104   1.003   4.584   4.596
 8069SOL     OW25105   1.707   6.160   2.192
 8069SOL    HW125106   1.785   6.105   2.223
 8069SOL    HW225107   1.740   6.244   2.149
 8070SOL     OW25108   3.925   0.344   1.476
 8070SOL    HW125109   4.016   0.385   1.463
 8070SOL    HW225110   3.904   0.284   1.400
 8071SOL     OW25111   4.148   6.454   6.939
 8071SOL    HW125112   4.111   6.436   0.008
 8071SOL    HW225113   4.072   6.462   6.874
 8072SOL     OW25114   5.304   0.537   1.339
 8072SOL    HW125115   5.254   0.595   1.273
 8072SOL    HW225116   5.239   0.499   1.405
 8073SOL     OW25117   4.395   6.367   5.651
 8073SOL    HW125118   4.426   6.462   5.644
 8073SOL    HW225119   4.387   6.341   5.747
 8074SOL     OW25120   3.194   3.887   0.185
 8074SOL    HW125121   3.176   3.853   0.092
 8074SOL    HW225122   3.108   3.905   0.232
 8075SOL     OW25123   6.140   1.735   2.219
 8075SOL    HW125124   6.184   1.669   2.158
 8075SOL    HW225125   6.208   1.799   2.254
 8076SOL     OW25126   5.828   3.154   6.133
 8076SOL    HW125127   5.785   3.083   6.077
 8076SOL    HW225128   5.812   3.244   6.091
 8077SOL     OW25129   1.586   0.668   0.955
 8077SOL    HW125130   1.578   0.738   0.884
 8077SOL    HW225131   1.682   0.649   0.973
 8078SOL     OW25132   6.157   3.282   0.539
 8078SOL    HW125133   6.207   3.355   0.585
 8078SOL    HW225134   6.214   3.200   0.534
 8079SOL     OW25135   6.777   1.815   2.189
 8079SOL    HW125136   6.846   1.881   2.218
 8079SOL    HW225137   6.786   1.731   2.242
 8080SOL     OW25138   3.434   5.083   0.407
 8080SOL    HW125139   3.384   5.158   0.451
 8080SOL    HW225140   3.372   5.007   0.390
 8081SOL     OW25141   5.747   0.871   5.775
 8081SOL    HW125142   5.798   0.861   5.861
 8081SOL    HW225143   5.703   0.961   5.772
 8082SOL     OW25144   6.547   3.105   4.022
 8082SOL    HW125145   6.638   3.147   4.013
 8082SOL    HW225146   6.511   3.084   3.932
 8083SOL     OW25147   4.697   2.797   4.092
 8083SOL    HW125148   4.728   2.829   4.181
 8083SOL    HW225149   4.642   2.713   4.104
 8084SOL     OW25150   6.677   6.868   1.164
 8084SOL    HW125151   6.616   6.925   1.109
 8084SOL    HW225152   6.702   6.918   1.247
 8085SOL     OW25153   5.871   1.794   1.231
 8085SOL    HW125154   5.963   1.756   1.226
 8085SOL    HW225155   5.824   1.757   1.312
 8086SOL     OW25156   3.615   6.910   5.473
 8086SOL    HW125157   3.600   6.956   5.561
 8086SOL    HW225158   3.710   6.883   5.465
 8087SOL     OW25159   3.163   3.106   1.538
 8087SOL    HW125160   3.243   3.165   1.540
 8087SOL    HW225161   3.172   3.035   1.609
 8088SOL     OW25162   3.916   1.132   3.176
 8088SOL    HW125163   3.983   1.159   3.245
 8088SOL    HW225164   3.827   1.172   3.199
 8089SOL     OW25165   5.670   2.887   0.416
 8089SOL    HW125166   5.590   2.889   0.356
 8089SOL    HW225167   5.643   2.906   0.510
 8090SOL     OW25168   4.917   2.345   5.155
 8090SOL    HW125169   4.930   2.362   5.057
 8090SOL    HW225170   4.843   2.403   5.189
 8091SOL     OW25171   3.477   5.008   5.943
 8091SOL    HW125172   3.543   5.083   5.939
 8091SOL    HW225173   3.441   5.001   6.036
 8092SOL     OW25174   0.988   1.772   4.218
 8092SOL    HW125175   0.905   1.744   4.170
 8092SOL    HW225176   0.977   1.755   4.316
 8093SOL     OW25177   5.725   5.914   1.282
 8093SOL    HW125178   5.696   5.896   1.376
 8093SOL    HW225179   5.653   5.964   1.234
 8094SOL     OW25180   0.934   3.235   5.197
 8094SOL    HW125181   0.875   3.235   5.117
 8094SOL    HW225182   1.028   3.256   5.170
 8095SOL     OW25183   5.874   4.051   4.129
 8095SOL    HW125184   5.917   4.092   4.210
 8095SOL    HW225185   5.920   4.083   4.047
 8096SOL     OW25186   3.856   6.136   1.507
 8096SOL    HW125187   3.956   6.136   1.509
 8096SOL    HW225188   3.822   6.072   1.576
 8097SOL     OW25189   5.185   1.446   4.516
 8097SOL    HW125190   5.173   1.545   4.514
 8097SOL    HW225191   5.131   1.404   4.443
 8098SOL     OW25192   3.127   6.663   3.779
 8098SOL    HW125193   3.096   6.589   3.720
 8098SOL    HW225194   3.063   6.675   3.855
 8099SOL     OW25195   5.422   6.503   4.793
 8099SOL    HW125196   5.400   6.405   4.790
 8099SOL    HW225197   5.439   6.536   4.700
 8100SOL     OW25198   0.815   6.614   0.595
 8100SOL    HW125199   0.862   6.610   0.507
 8100SOL    HW225200   0.851   6.690   0.649
 8101SOL     OW25201   1.732   6.261   3.422
 8101SOL    HW125202   1.640   6.229   3.397
 8101SOL    HW225203   1.743   6.256   3.521
 8102SOL     OW25204   0.093   5.793   6.133
 8102SOL    HW125205   0.104   5.832   6.224
 8102SOL    HW225206   0.164   5.830   6.072
 8103SOL     OW25207   2.918   1.672   2.551
 8103SOL    HW125208   2.833   1.633   2.588
 8103SOL    HW225209   2.896   1.751   2.493
 8104SOL     OW25210   2.254   6.500   6.120
 8104SOL    HW125211   2.247   6.587   6.169
 8104SOL    HW225212   2.280   6.517   6.025
 8105SOL     OW25213   1.538   1.974   2.775
 8105SOL    HW125214   1.613   1.982   2.709
 8105SOL    HW225215   1.453   1.950   2.727
 8106SOL     OW25216   0.852   4.027   4.103
 8106SOL    HW125217   0.840   4.125   4.114
 8106SOL    HW225218   0.815   3.980   4.183
 8107SOL     OW25219   1.936   6.074   6.052
 8107SOL    HW125220   1.857   6.107   6.001
 8107SOL    HW225221   1.958   5.981   6.024
 8108SOL     OW25222   1.195   2.976   4.138
 8108SOL    HW125223   1.217   2.948   4.045
 8108SOL    HW225224   1.118   2.921   4.172
 8109SOL     OW25225   1.449   5.015   5.171
 8109SOL    HW125226   1.464   5.082   5.098
 8109SOL    HW225227   1.522   4.946   5.167
 8110SOL     OW25228   1.719   4.549   1.121
 8110SOL    HW125229   1.643   4.587   1.069
 8110SOL    HW225230   1.699   4.455   1.147
 8111SOL     OW25231   2.587   5.466   4.308
 8111SOL    HW125232   2.560   5.370   4.308
 8111SOL    HW225233   2.617   5.492   4.400
 8112SOL     OW25234   2.864   1.087   5.193
 8112SOL    HW125235   2.963   1.083   5.202
 8112SOL    HW225236   2.839   1.144   5.114
 8113SOL     OW25237   3.772   2.930   5.924
 8113SOL    HW125238   3.758   2.890   5.834
 8113SOL    HW225239   3.684   2.953   5.965
 8114SOL     OW25240   2.626   3.671   1.368
 8114SOL    HW125241   2.551   3.625   1.415
 8114SOL    HW225242   2.634   3.636   1.274
 8115SOL     OW25243   3.886   1.894   0.916
 8115SOL    HW125244   3.850   1.806   0.885
 8115SOL    HW225245   3.961   1.879   0.981
 8116SOL     OW25246   6.112   0.884   5.380
 8116SOL    HW125247   6.084   0.935   5.461
 8116SOL    HW225248   6.050   0.807   5.365
 8117SOL     OW25249   2.292   2.005   5.794
 8117SOL    HW125250   2.258   1.979   5.704
 8117SOL    HW225251   2.368   2.070   5.783
 8118SOL     OW25252   1.096   2.784   4.347
 8118SOL    HW125253   1.073   2.799   4.443
 8118SOL    HW225254   1.021   2.736   4.302
 8119SOL     OW25255   1.385   5.956   2.896
 8119SOL    HW125256   1.483   5.974   2.885
 8119SOL    HW225257   1.340   5.958   2.807
 8120SOL     OW25258   4.297   4.078   1.403
 8120SOL    HW125259   4.201   4.067   1.380
 8120SOL    HW225260   4.306   4.129   1.489
 8121SOL     OW25261   6.796   6.871   2.806
 8121SOL    HW125262   6.794   6.932   2.727
 8121SOL    HW225263   6.800   6.776   2.776
 8122SOL     OW25264   0.162   6.614   1.969
 8122SOL    HW125265   0.189   6.692   1.913
 8122SOL    HW225266   0.199   6.625   2.061
 8123SOL     OW25267   0.738   5.514   0.313
 8123SOL    HW125268   0.680   5.515   0.232
 8123SOL    HW225269   0.818   5.456   0.297
 8124SOL     OW25270   0.838   5.941   2.786
 8124SOL    HW125271   0.827   6.032   2.746
 8124SOL    HW225272   0.916   5.941   2.848
 8125SOL     OW25273   5.340   5.468   2.785
 8125SOL    HW125274   5.313   5.375   2.812
 8125SOL    HW225275   5.439   5.477   2.794
 8126SOL     OW25276   5.602   4.616   1.880
 8126SOL    HW125277   5.674   4.548   1.863
 8126SOL    HW225278   5.643   4.707   1.887
 8127SOL     OW25279   3.434   4.245   0.517
 8127SOL    HW125280   3.396   4.214   0.430
 8127SOL    HW225281   3.397   4.189   0.592
 8128SOL     OW25282   3.622   2.526   5.327
 8128SOL    HW125283   3.690   2.595   5.304
 8128SOL    HW225284   3.535   2.571   5.350
 8129SOL     OW25285   5.035   0.126   0.091
 8129SOL    HW125286   5.040   0.126   0.191
 8129SOL    HW225287   4.965   0.062   0.060
 8130SOL     OW25288   1.343   6.646   0.426
 8130SOL    HW125289   1.357   6.547   0.440
 8130SOL    HW225290   1.350   6.693   0.514
 8131SOL     OW25291   1.409   1.613   0.559
 8131SOL    HW125292   1.498   1.614   0.513
 8131SOL    HW225293   1.378   1.519   0.570
 8132SOL     OW25294   6.764   4.852   3.271
 8132SOL    HW125295   6.806   4.812   3.190
 8132SOL    HW225296   6.824   4.840   3.350
 8133SOL     OW25297   1.133   5.687   2.159
 8133SOL    HW125298   1.115   5.779   2.125
 8133SOL    HW225299   1.087   5.674   2.247
 8134SOL     OW25300   2.078   2.429   2.267
 8134SOL    HW125301   2.135   2.491   2.213
 8134SOL    HW225302   2.062   2.345   2.215
 8135SOL     OW25303   4.309   6.199   2.008
 8135SOL    HW125304   4.300   6.208   2.107
 8135SOL    HW225305   4.234   6.143   1.973
 8136SOL     OW25306   4.003   6.363   1.088
 8136SOL    HW125307   4.012   6.297   1.014
 8136SOL    HW225308   4.050   6.329   1.169
 8137SOL     OW25309   2.731   3.867   5.599
 8137SOL    HW125310   2.788   3.807   5.543
 8137SOL    HW225311   2.763   3.961   5.589
 8138SOL     OW25312   4.570   0.836   3.588
 8138SOL    HW125313   4.540   0.817   3.495
 8138SOL    HW225314   4.642   0.906   3.587
 8139SOL     OW25315   1.844   2.865   3.950
 8139SOL    HW125316   1.866   2.935   3.882
 8139SOL    HW225317   1.747   2.842   3.944
 8140SOL     OW25318   4.494   0.452   0.914
 8140SOL    HW125319   4.489   0.543   0.874
 8140SOL    HW225320   4.426   0.444   0.987
 8141SOL     OW25321   5.554   0.682   5.376
 8141SOL    HW125322   5.610   0.741   5.434
 8141SOL    HW225323   5.580   0.694   5.281
 8142SOL     OW25324   2.287   5.675   1.423
 8142SOL    HW125325   2.221   5.632   1.362
 8142SOL    HW225326   2.276   5.774   1.420
 8143SOL     OW25327   6.162   5.414   0.939
 8143SOL    HW125328   6.135   5.321   0.912
 8143SOL    HW225329   6.081   5.472   0.942
 8144SOL     OW25330   0.015   4.983   0.131
 8144SOL    HW125331   7.008   4.892   0.160
 8144SOL    HW225332   0.038   5.038   0.211
 8145SOL     OW25333   5.541   5.381   6.761
 8145SOL    HW125334   5.503   5.471   6.784
 8145SOL    HW225335   5.612   5.357   6.827
 8146SOL     OW25336   6.121   0.028   4.029
 8146SOL    HW125337   6.094   0.121   4.005
 8146SOL    HW225338   6.173   7.010   3.953
 8147SOL     OW25339   2.331   0.807   6.319
 8147SOL    HW125340   2.273   0.749   6.376
 8147SOL    HW225341   2.367   0.882   6.376
 8148SOL     OW25342   4.387   4.559   0.437
 8148SOL    HW125343   4.381   4.466   0.471
 8148SOL    HW225344   4.355   4.623   0.507
 8149SOL     OW25345   0.389   6.381   4.910
 8149SOL    HW125346   0.413   6.470   4.949
 8149SOL    HW225347   0.391   6.387   4.810
 8150SOL     OW25348   0.426   3.899   1.022
 8150SOL    HW125349   0.481   3.981   1.007
 8150SOL    HW225350   0.422   3.846   0.937
 8151SOL     OW25351   6.518   6.243   2.637
 8151SOL    HW125352   6.573   6.286   2.710
 8151SOL    HW225353   6.532   6.144   2.639
 8152SOL     OW25354   4.494   1.189   2.893
 8152SOL    HW125355   4.587   1.221   2.909
 8152SOL    HW225356   4.484   1.160   2.798
 8153SOL     OW25357   0.440   1.359   2.152
 8153SOL    HW125358   0.354   1.409   2.163
 8153SOL    HW225359   0.514   1.410   2.194
 8154SOL     OW25360   1.866   0.131   3.276
 8154SOL    HW125361   1.877   0.100   3.182
 8154SOL    HW225362   1.929   0.081   3.336
 8155SOL     OW25363   1.914   5.284   3.320
 8155SOL    HW125364   1.838   5.219   3.316
 8155SOL    HW225365   2.001   5.235   3.319
 8156SOL     OW25366   0.583   5.113   1.693
 8156SOL    HW125367   0.603   5.019   1.666
 8156SOL    HW225368   0.657   5.148   1.750
 8157SOL     OW25369   0.442   3.391   4.589
 8157SOL    HW125370   0.429   3.418   4.684
 8157SOL    HW225371   0.353   3.384   4.544
 8158SOL     OW25372   6.119   5.471   6.939
 8158SOL    HW125373   6.172   5.544   6.982
 8158SOL    HW225374   6.021   5.489   6.951
 8159SOL     OW25375   3.399   6.925   5.304
 8159SOL    HW125376   3.452   6.900   5.384
 8159SOL    HW225377   3.345   7.007   5.323
 8160SOL     OW25378   5.341   1.276   2.365
 8160SOL    HW125379   5.349   1.352   2.301
 8160SOL    HW225380   5.422   1.217   2.358
 8161SOL     OW25381   5.503   3.271   1.697
 8161SOL    HW125382   5.597   3.287   1.727
 8161SOL    HW225383   5.450   3.355   1.709
 8162SOL     OW25384   0.440   5.398   5.784
 8162SOL    HW125385   0.368   5.335   5.756
 8162SOL    HW225386   0.405   5.492   5.783
 8163SOL     OW25387   4.516   4.385   5.268
 8163SOL    HW125388   4.553   4.336   5.189
 8163SOL    HW225389   4.515   4.324   5.347
 8164SOL     OW25390   5.457   1.729   1.516
 8164SOL    HW125391   5.366   1.769   1.504
 8164SOL    HW225392   5.449   1.642   1.564
 8165SOL     OW25393   0.024   0.986   0.609
 8165SOL    HW125394   6.995   0.911   0.650
 8165SOL    HW225395   0.122   0.973   0.625
 8166SOL     OW25396   1.675   1.652   5.227
 8166SOL    HW125397   1.616   1.573   5.242
 8166SOL    HW225398   1.653   1.693   5.138
 8167SOL     OW25399   1.654   3.039   4.216
 8167SOL    HW125400   1.647   3.098   4.297
 8167SOL    HW225401   1.591   2.962   4.225
 8168SOL     OW25402   2.063   0.805   2.154
 8168SOL    HW125403   2.158   0.836   2.153
 8168SOL    HW225404   2.005   0.875   2.113
 8169SOL     OW25405   4.995   2.755   0.305
 8169SOL    HW125406   5.084   2.710   0.299
 8169SOL    HW225407   4.988   2.824   0.233
 8170SOL     OW25408   6.577   4.986   2.602
 8170SOL    HW125409   6.675   5.005   2.589
 8170SOL    HW225410   6.535   4.965   2.513
 8171SOL     OW25411   2.044   1.030   0.812
 8171SOL    HW125412   2.069   1.071   0.724
 8171SOL    HW225413   2.117   0.968   0.842
 8172SOL     OW25414   0.766   2.494   0.753
 8172SOL    HW125415   0.846   2.485   0.693
 8172SOL    HW225416   0.727   2.404   0.770
 8173SOL     OW25417   5.787   0.934   1.134
 8173SOL    HW125418   5.876   0.921   1.090
 8173SOL    HW225419   5.738   0.847   1.137
 8174SOL     OW25420   2.895   5.260   3.217
 8174SOL    HW125421   2.847   5.310   3.145
 8174SOL    HW225422   2.936   5.178   3.179
 8175SOL     OW25423   0.385   1.409   5.465
 8175SOL    HW125424   0.311   1.346   5.486
 8175SOL    HW225425   0.358   1.502   5.489
 8176SOL     OW25426   2.541   4.337   0.334
 8176SOL    HW125427   2.579   4.263   0.278
 8176SOL    HW225428   2.499   4.299   0.416
 8177SOL     OW25429   3.225   0.910   3.597
 8177SOL    HW125430   3.164   0.937   3.672
 8177SOL    HW225431   3.179   0.843   3.539
 8178SOL     OW25432   2.553   6.789   1.535
 8178SOL    HW125433   2.587   6.712   1.588
 8178SOL    HW225434   2.508   6.854   1.597
 8179SOL     OW25435   5.635   1.133   3.451
 8179SOL    HW125436   5.635   1.191   3.533
 8179SOL    HW225437   5.552   1.078   3.449
 8180SOL     OW25438   5.188   6.699   0.014
 8180SOL    HW125439   5.094   6.726   7.017
 8180SOL    HW225440   5.205   6.705   0.112
 8181SOL     OW25441   0.500   0.324   0.506
 8181SOL    HW125442   0.510   0.302   0.603
 8181SOL    HW225443   0.574   0.386   0.479
 8182SOL     OW25444   3.030   3.640   4.445
 8182SOL    HW125445   3.100   3.658   4.376
 8182SOL    HW225446   2.971   3.565   4.415
 8183SOL     OW25447   0.137   0.063   5.030
 8183SOL    HW125448   0.121   6.986   5.030
 8183SOL    HW225449   0.094   0.103   5.111
 8184SOL     OW25450   0.707   6.116   6.566
 8184SOL    HW125451   0.614   6.153   6.560
 8184SOL    HW225452   0.711   6.028   6.518
 8185SOL     OW25453   0.301   6.271   6.030
 8185SOL    HW125454   0.387   6.222   6.045
 8185SOL    HW225455   0.241   6.258   6.109
 8186SOL     OW25456   1.739   5.675   6.731
 8186SOL    HW125457   1.642   5.679   6.704
 8186SOL    HW225458   1.754   5.734   6.810
 8187SOL     OW25459   0.859   0.645   5.903
 8187SOL    HW125460   0.779   0.623   5.847
 8187SOL    HW225461   0.829   0.674   5.994
 8188SOL     OW25462   2.173   3.128   3.517
 8188SOL    HW125463   2.243   3.159   3.453
 8188SOL    HW225464   2.125   3.206   3.556
 8189SOL     OW25465   5.497   5.557   3.520
 8189SOL    HW125466   5.594   5.571   3.503
 8189SOL    HW225467   5.445   5.573   3.436
 8190SOL     OW25468   0.027   4.024   3.025
 8190SOL    HW125469   0.020   4.102   3.087
 8190SOL    HW225470   0.034   3.939   3.078
 8191SOL     OW25471   3.560   5.635   0.780
 8191SOL    HW125472   3.462   5.646   0.799
 8191SOL    HW225473   3.612   5.648   0.864
 8192SOL     OW25474   0.603   5.053   3.354
 8192SOL    HW125475   0.672   5.036   3.283
 8192SOL    HW225476   0.650   5.072   3.441
 8193SOL     OW25477   0.614   4.275   4.717
 8193SOL    HW125478   0.551   4.352   4.716
 8193SOL    HW225479   0.572   4.197   4.671
 8194SOL     OW25480   4.547   6.328   1.751
 8194SOL    HW125481   4.624   6.388   1.728
 8194SOL    HW225482   4.468   6.384   1.776
 8195SOL     OW25483   6.052   6.388   2.883
 8195SOL    HW125484   5.966   6.355   2.844
 8195SOL    HW225485   6.088   6.321   2.948
 8196SOL     OW25486   4.820   0.748   0.818
 8196SOL    HW125487   4.873   0.784   0.895
 8196SOL    HW225488   4.855   0.786   0.733
 8197SOL     OW25489   3.865   1.608   2.467
 8197SOL    HW125490   3.832   1.514   2.459
 8197SOL    HW225491   3.857   1.639   2.562
 8198SOL     OW25492   1.385   0.211   1.906
 8198SOL    HW125493   1.483   0.226   1.923
 8198SOL    HW225494   1.354   0.132   1.958
 8199SOL     OW25495   5.381   2.669   6.755
 8199SOL    HW125496   5.392   2.687   6.657
 8199SOL    HW225497   5.284   2.656   6.775
 8200SOL     OW25498   4.508   3.155   0.565
 8200SOL    HW125499   4.600   3.194   0.559
 8200SOL    HW225500   4.479   3.151   0.661
 8201SOL     OW25501   6.021   6.624   5.248
 8201SOL    HW125502   6.109   6.641   5.292
 8201SOL    HW225503   5.947   6.650   5.310
 8202SOL     OW25504   0.546   0.099   1.927
 8202SOL    HW125505   0.527   0.050   2.012
 8202SOL    HW225506   0.635   0.072   1.892
 8203SOL     OW25507   1.230   3.670   1.787
 8203SOL    HW125508   1.274   3.612   1.719
 8203SOL    HW225509   1.183   3.613   1.854
 8204SOL     OW25510   3.050   2.676   1.311
 8204SOL    HW125511   2.972   2.626   1.273
 8204SOL    HW225512   3.017   2.752   1.366
 8205SOL     OW25513   1.240   3.718   0.257
 8205SOL    HW125514   1.240   3.749   0.352
 8205SOL    HW225515   1.274   3.624   0.252
 8206SOL     OW25516   3.720   0.424   0.478
 8206SOL    HW125517   3.697   0.329   0.459
 8206SOL    HW225518   3.792   0.454   0.416
 8207SOL     OW25519   4.241   3.555   5.151
 8207SOL    HW125520   4.247   3.595   5.243
 8207SOL    HW225521   4.252   3.456   5.158
 8208SOL     OW25522   2.666   0.498   0.606
 8208SOL    HW125523   2.752   0.449   0.596
 8208SOL    HW225524   2.668   0.582   0.552
 8209SOL     OW25525   6.027   1.385   5.091
 8209SOL    HW125526   6.086   1.455   5.133
 8209SOL    HW225527   6.084   1.320   5.041
 8210SOL     OW25528   1.667   2.931   6.734
 8210SOL    HW125529   1.636   2.846   6.692
 8210SOL    HW225530   1.767   2.931   6.740
 8211SOL     OW25531   3.416   4.420   1.545
 8211SOL    HW125532   3.507   4.428   1.587
 8211SOL    HW225533   3.374   4.334   1.574
 8212SOL     OW25534   1.564   3.124   3.543
 8212SOL    HW125535   1.654   3.163   3.564
 8212SOL    HW225536   1.498   3.156   3.611
 8213SOL     OW25537   6.892   5.235   1.335
 8213SOL    HW125538   6.988   5.235   1.364
 8213SOL    HW225539   6.887   5.249   1.237
 8214SOL     OW25540   5.628   4.150   3.321
 8214SOL    HW125541   5.713   4.193   3.351
 8214SOL    HW225542   5.641   4.051   3.310
 8215SOL     OW25543   3.548   5.559   4.026
 8215SOL    HW125544   3.508   5.496   3.959
 8215SOL    HW225545   3.484   5.635   4.041
 8216SOL     OW25546   5.493   4.168   3.552
 8216SOL    HW125547   5.476   4.255   3.598
 8216SOL    HW225548   5.553   4.183   3.473
 8217SOL     OW25549   2.318   6.327   0.050
 8217SOL    HW125550   2.295   6.318   6.975
 8217SOL    HW225551   2.271   6.406   0.088
 8218SOL     OW25552   0.201   1.831   0.099
 8218SOL    HW125553   0.300   1.834   0.111
 8218SOL    HW225554   0.159   1.910   0.143
 8219SOL     OW25555   6.327   2.099   6.676
 8219SOL    HW125556   6.324   2.117   6.578
 8219SOL    HW225557   6.374   2.012   6.692
 8220SOL     OW25558   3.656   3.600   2.513
 8220SOL    HW125559   3.607   3.519   2.545
 8220SOL    HW225560   3.590   3.670   2.484
 8221SOL     OW25561   4.990   6.008   3.761
 8221SOL    HW125562   4.947   6.054   3.684
 8221SOL    HW225563   5.039   5.927   3.729
 8222SOL     OW25564   5.725   1.689   1.437
 8222SOL    HW125565   5.633   1.707   1.470
 8222SOL    HW225566   5.727   1.600   1.391
 8223SOL     OW25567   0.488   4.765   5.845
 8223SOL    HW125568   0.465   4.855   5.881
 8223SOL    HW225569   0.480   4.765   5.746
 8224SOL     OW25570   1.066   2.851   3.895
 8224SOL    HW125571   1.092   2.756   3.877
 8224SOL    HW225572   1.093   2.908   3.818
 8225SOL     OW25573   4.673   1.328   0.472
 8225SOL    HW125574   4.677   1.238   0.516
 8225SOL    HW225575   4.619   1.391   0.528
 8226SOL     OW25576   5.190   0.393   0.825
 8226SOL    HW125577   5.287   0.389   0.848
 8226SOL    HW225578   5.151   0.479   0.859
 8227SOL     OW25579   6.410   3.367   3.381
 8227SOL    HW125580   6.397   3.414   3.294
 8227SOL    HW225581   6.343   3.293   3.390
 8228SOL     OW25582   6.223   2.773   5.626
 8228SOL    HW125583   6.177   2.860   5.642
 8228SOL    HW225584   6.186   2.730   5.543
 8229SOL     OW25585   3.921   4.997   0.111
 8229SOL    HW125586   3.945   5.089   0.081
 8229SOL    HW225587   3.930   4.990   0.210
 8230SOL     OW25588   5.507   0.864   4.390
 8230SOL    HW125589   5.562   0.804   4.331
 8230SOL    HW225590   5.566   0.932   4.433
 8231SOL     OW25591   5.060   6.195   0.682
 8231SOL    HW125592   4.973   6.228   0.719
 8231SOL    HW225593   5.043   6.114   0.625
 8232SOL     OW25594   3.373   2.511   5.893
 8232SOL    HW125595   3.416   2.449   5.828
 8232SOL    HW225596   3.376   2.604   5.859
 8233SOL     OW25597   0.234   4.770   0.079
 8233SOL    HW125598   0.214   4.804   0.171
 8233SOL    HW225599   0.151   4.733   0.038
 8234SOL     OW25600   3.262   2.637   6.567
 8234SOL    HW125601   3.229   2.731   6.557
 8234SOL    HW225602   3.359   2.634   6.546
 8235SOL     OW25603   3.851   3.722   1.111
 8235SOL    HW125604   3.791   3.773   1.049
 8235SOL    HW225605   3.893   3.646   1.062
 8236SOL     OW25606   6.140   2.943   0.340
 8236SOL    HW125607   6.142   2.875   0.267
 8236SOL    HW225608   6.114   2.899   0.426
 8237SOL     OW25609   4.437   6.468   5.298
 8237SOL    HW125610   4.371   6.451   5.371
 8237SOL    HW225611   4.478   6.558   5.310
 8238SOL     OW25612   2.051   1.942   6.874
 8238SOL    HW125613   2.135   1.989   6.900
 8238SOL    HW225614   2.002   1.914   6.956
 8239SOL     OW25615   0.584   1.624   5.966
 8239SOL    HW125616   0.549   1.700   5.913
 8239SOL    HW225617   0.684   1.632   5.975
 8240SOL     OW25618   3.924   3.992   3.557
 8240SOL    HW125619   3.831   3.962   3.576
 8240SOL    HW225620   3.987   3.946   3.620
 8241SOL     OW25621   3.876   6.677   0.309
 8241SOL    HW125622   3.862   6.657   0.211
 8241SOL    HW225623   3.962   6.637   0.339
 8242SOL     OW25624   1.100   4.363   5.892
 8242SOL    HW125625   1.117   4.427   5.818
 8242SOL    HW225626   1.002   4.341   5.895
 8243SOL     OW25627   0.816   3.503   5.254
 8243SOL    HW125628   0.773   3.529   5.168
 8243SOL    HW225629   0.878   3.426   5.239
 8244SOL     OW25630   0.410   6.684   4.027
 8244SOL    HW125631   0.365   6.595   4.018
 8244SOL    HW225632   0.353   6.745   4.082
 8245SOL     OW25633   3.650   2.544   0.997
 8245SOL    HW125634   3.714   2.468   1.004
 8245SOL    HW225635   3.567   2.522   1.048
 8246SOL     OW25636   5.333   3.435   5.666
 8246SOL    HW125637   5.279   3.485   5.735
 8246SOL    HW225638   5.329   3.337   5.686
 8247SOL     OW25639   1.043   0.371   1.220
 8247SOL    HW125640   1.088   0.415   1.142
 8247SOL    HW225641   0.964   0.426   1.248
 8248SOL     OW25642   5.708   4.499   3.479
 8248SOL    HW125643   5.719   4.589   3.438
 8248SOL    HW225644   5.614   4.488   3.511
 8249SOL     OW25645   2.376   4.935   3.890
 8249SOL    HW125646   2.431   4.873   3.947
 8249SOL    HW225647   2.285   4.896   3.876
 8250SOL     OW25648   3.914   3.891   2.568
 8250SOL    HW125649   3.958   3.962   2.622
 8250SOL    HW225650   3.814   3.898   2.579
 8251SOL     OW25651   6.004   2.197   4.593
 8251SOL    HW125652   5.925   2.216   4.652
 8251SOL    HW225653   6.017   2.274   4.530
 8252SOL     OW25654   1.789   3.024   5.208
 8252SOL    HW125655   1.825   3.111   5.174
 8252SOL    HW225656   1.864   2.964   5.235
 8253SOL     OW25657   3.278   2.824   5.250
 8253SOL    HW125658   3.369   2.858   5.226
 8253SOL    HW225659   3.254   2.747   5.191
 8254SOL     OW25660   3.756   5.601   3.837
 8254SOL    HW125661   3.703   5.557   3.911
 8254SOL    HW225662   3.712   5.581   3.749
 8255SOL     OW25663   4.610   5.531   4.141
 8255SOL    HW125664   4.668   5.451   4.159
 8255SOL    HW225665   4.667   5.611   4.125
 8256SOL     OW25666   6.990   1.799   4.358
 8256SOL    HW125667   6.929   1.723   4.335
 8256SOL    HW225668   0.054   1.763   4.391
 8257SOL     OW25669   6.392   4.628   3.262
 8257SOL    HW125670   6.363   4.588   3.175
 8257SOL    HW225671   6.337   4.591   3.336
 8258SOL     OW25672   4.111   1.349   0.105
 8258SOL    HW125673   4.042   1.307   0.165
 8258SOL    HW225674   4.122   1.445   0.130
 8259SOL     OW25675   3.857   2.144   2.251
 8259SOL    HW125676   3.808   2.190   2.177
 8259SOL    HW225677   3.940   2.196   2.273
 8260SOL     OW25678   2.623   6.383   0.540
 8260SOL    HW125679   2.703   6.357   0.595
 8260SOL    HW225680   2.542   6.337   0.576
 8261SOL     OW25681   5.244   1.271   2.026
 8261SOL    HW125682   5.200   1.221   1.952
 8261SOL    HW225683   5.180   1.282   2.102
 8262SOL     OW25684   0.949   2.685   1.641
 8262SOL    HW125685   0.887   2.612   1.612
 8262SOL    HW225686   0.902   2.773   1.635
 8263SOL     OW25687   6.783   1.611   1.571
 8263SOL    HW125688   6.862   1.664   1.538
 8263SOL    HW225689   6.702   1.669   1.572
 8264SOL     OW25690   2.087   5.049   3.031
 8264SOL    HW125691   2.036   5.089   2.955
 8264SOL    HW225692   2.140   5.120   3.077
 8265SOL     OW25693   2.004   0.579   2.009
 8265SOL    HW125694   1.989   0.638   1.929
 8265SOL    HW225695   2.045   0.632   2.082
 8266SOL     OW25696   3.451   6.707   2.728
 8266SOL    HW125697   3.404   6.768   2.664
 8266SOL    HW225698   3.492   6.761   2.802
 8267SOL     OW25699   1.395   3.243   0.953
 8267SOL    HW125700   1.428   3.331   0.987
 8267SOL    HW225701   1.304   3.225   0.990
 8268SOL     OW25702   2.513   6.518   5.532
 8268SOL    HW125703   2.592   6.574   5.507
 8268SOL    HW225704   2.543   6.426   5.556
 8269SOL     OW25705   5.807   2.087   1.125
 8269SOL    HW125706   5.784   1.990   1.134
 8269SOL    HW225707   5.798   2.115   1.030
 8270SOL     OW25708   3.730   6.359   4.172
 8270SOL    HW125709   3.798   6.322   4.109
 8270SOL    HW225710   3.675   6.428   4.126
 8271SOL     OW25711   6.703   1.612   2.894
 8271SOL    HW125712   6.646   1.542   2.936
 8271SOL    HW225713   6.650   1.697   2.886
 8272SOL     OW25714   3.335   1.004   3.126
 8272SOL    HW125715   3.251   1.021   3.177
 8272SOL    HW225716   3.313   0.953   3.043
 8273SOL     OW25717   2.284   6.291   0.946
 8273SOL    HW125718   2.289   6.251   1.037
 8273SOL    HW225719   2.363   6.350   0.932
 8274SOL     OW25720   4.865   5.381   3.401
 8274SOL    HW125721   4.917   5.371   3.486
 8274SOL    HW225722   4.901   5.318   3.333
 8275SOL     OW25723   4.935   1.867   5.915
 8275SOL    HW125724   4.938   1.967   5.913
 8275SOL    HW225725   5.026   1.833   5.939
 8276SOL     OW25726   1.126   1.993   3.924
 8276SOL    HW125727   1.053   1.942   3.969
 8276SOL    HW225728   1.102   2.008   3.828
 8277SOL     OW25729   7.017   6.907   7.005
 8277SOL    HW125730   0.091   6.898   0.004
 8277SOL    HW225731   6.964   6.914   0.067
 8278SOL     OW25732   2.124   2.270   0.501
 8278SOL    HW125733   2.104   2.323   0.584
 8278SOL    HW225734   2.085   2.317   0.422
 8279SOL     OW25735   0.378   6.161   4.117
 8279SOL    HW125736   0.419   6.070   4.115
 8279SOL    HW225737   0.288   6.156   4.160
 8280SOL     OW25738   3.142   2.929   5.811
 8280SOL    HW125739   3.217   2.993   5.827
 8280SOL    HW225740   3.091   2.915   5.896
 8281SOL     OW25741   6.952   5.769   1.608
 8281SOL    HW125742   0.028   5.773   1.591
 8281SOL    HW225743   6.933   5.801   1.700
 8282SOL     OW25744   5.397   2.188   5.515
 8282SOL    HW125745   5.415   2.236   5.429
 8282SOL    HW225746   5.322   2.123   5.502
 8283SOL     OW25747   1.990   4.222   5.933
 8283SOL    HW125748   2.080   4.259   5.954
 8283SOL    HW225749   1.928   4.297   5.908
 8284SOL     OW25750   6.838   4.613   2.249
 8284SOL    HW125751   6.826   4.514   2.249
 8284SOL    HW225752   6.870   4.642   2.159
 8285SOL     OW25753   3.642   3.350   5.402
 8285SOL    HW125754   3.740   3.372   5.403
 8285SOL    HW225755   3.628   3.263   5.355
 8286SOL     OW25756   6.462   2.240   6.187
 8286SOL    HW125757   6.549   2.287   6.173
 8286SOL    HW225758   6.386   2.305   6.176
 8287SOL     OW25759   1.878   5.568   5.108
 8287SOL    HW125760   1.947   5.597   5.174
 8287SOL    HW225761   1.862   5.469   5.118
 8288SOL     OW25762   2.432   2.592   3.214
 8288SOL    HW125763   2.354   2.588   3.277
 8288SOL    HW225764   2.486   2.509   3.224
 8289SOL     OW25765   0.544   6.473   6.868
 8289SOL    HW125766   0.590   6.389   6.840
 8289SOL    HW225767   0.608   6.532   6.916
 8290SOL     OW25768   6.344   2.168   0.472
 8290SOL    HW125769   6.349   2.205   0.565
 8290SOL    HW225770   6.272   2.098   0.468
 8291SOL     OW25771   4.513   0.245   6.262
 8291SOL    HW125772   4.487   0.341   6.276
 8291SOL    HW225773   4.436   0.186   6.288
 8292SOL     OW25774   3.102   6.642   6.835
 8292SOL    HW125775   3.027   6.585   6.799
 8292SOL    HW225776   3.160   6.586   6.894
 8293SOL     OW25777   5.313   5.965   6.155
 8293SOL    HW125778   5.295   5.875   6.115
 8293SOL    HW225779   5.377   6.015   6.096
 8294SOL     OW25780   5.466   2.337   6.949
 8294SOL    HW125781   5.493   2.376   6.861
 8294SOL    HW225782   5.429   2.246   6.936
 8295SOL     OW25783   4.814   4.111   1.116
 8295SOL    HW125784   4.719   4.082   1.108
 8295SOL    HW225785   4.827   4.197   1.067
 8296SOL     OW25786   1.995   5.618   6.914
 8296SOL    HW125787   2.035   5.691   6.969
 8296SOL    HW225788   2.045   5.533   6.931
 8297SOL     OW25789   6.717   2.316   2.819
 8297SOL    HW125790   6.804   2.365   2.821
 8297SOL    HW225791   6.643   2.380   2.796
 8298SOL     OW25792   4.944   1.082   1.310
 8298SOL    HW125793   4.953   1.136   1.394
 8298SOL    HW225794   5.018   1.107   1.247
 8299SOL     OW25795   6.165   2.012   2.297
 8299SOL    HW125796   6.209   2.049   2.215
 8299SOL    HW225797   6.066   2.024   2.290
 8300SOL     OW25798   0.804   4.767   4.157
 8300SOL    HW125799   0.734   4.811   4.101
 8300SOL    HW225800   0.792   4.795   4.253
 8301SOL     OW25801   3.661   2.737   0.163
 8301SOL    HW125802   3.618   2.827   0.162
 8301SOL    HW225803   3.760   2.747   0.152
 8302SOL     OW25804   5.786   6.207   6.759
 8302SOL    HW125805   5.882   6.180   6.756
 8302SOL    HW225806   5.778   6.304   6.737
 8303SOL     OW25807   0.253   6.708   4.798
 8303SOL    HW125808   0.309   6.782   4.760
 8303SOL    HW225809   0.257   6.629   4.738
 8304SOL     OW25810   0.801   3.780   6.952
 8304SOL    HW125811   0.788   3.849   6.881
 8304SOL    HW225812   0.839   3.697   6.911
 8305SOL     OW25813   3.737   5.320   3.748
 8305SOL    HW125814   3.747   5.220   3.749
 8305SOL    HW225815   3.825   5.362   3.771
 8306SOL     OW25816   0.655   2.665   3.903
 8306SOL    HW125817   0.559   2.692   3.895
 8306SOL    HW225818   0.690   2.695   3.992
 8307SOL     OW25819   4.318   5.941   1.146
 8307SOL    HW125820   4.410   5.977   1.160
 8307SOL    HW225821   4.323   5.856   1.093
 8308SOL     OW25822   3.945   6.751   2.288
 8308SOL    HW125823   3.880   6.678   2.265
 8308SOL    HW225824   3.945   6.765   2.387
 8309SOL     OW25825   5.406   5.698   1.987
 8309SOL    HW125826   5.473   5.765   2.018
 8309SOL    HW225827   5.392   5.708   1.888
 8310SOL     OW25828   0.047   4.688   0.868
 8310SOL    HW125829   6.981   4.643   0.855
 8310SOL    HW225830   0.061   4.755   0.795
 8311SOL     OW25831   6.578   0.785   0.039
 8311SOL    HW125832   6.573   0.693   0.000
 8311SOL    HW225833   6.524   0.789   0.123
 8312SOL     OW25834   5.301   6.841   1.490
 8312SOL    HW125835   5.237   6.765   1.503
 8312SOL    HW225836   5.291   6.906   1.566
 8313SOL     OW25837   3.286   1.504   2.344
 8313SOL    HW125838   3.261   1.544   2.255
 8313SOL    HW225839   3.366   1.446   2.332
 8314SOL     OW25840   6.448   0.306   2.354
 8314SOL    HW125841   6.452   0.332   2.451
 8314SOL    HW225842   6.503   0.224   2.339
 8315SOL     OW25843   4.932   3.402   0.323
 8315SOL    HW125844   4.946   3.495   0.355
 8315SOL    HW225845   5.021   3.357   0.310
 8316SOL     OW25846   1.305   4.110   0.205
 8316SOL    HW125847   1.302   4.112   0.305
 8316SOL    HW225848   1.249   4.034   0.172
 8317SOL     OW25849   2.344   4.416   2.234
 8317SOL    HW125850   2.352   4.448   2.329
 8317SOL    HW225851   2.428   4.436   2.184
 8318SOL     OW25852   4.169   1.392   4.691
 8318SOL    HW125853   4.144   1.344   4.775
 8318SOL    HW225854   4.265   1.420   4.696
 8319SOL     OW25855   3.406   1.418   5.319
 8319SOL    HW125856   3.465   1.427   5.400
 8319SOL    HW225857   3.322   1.369   5.345
 8320SOL     OW25858   2.796   4.310   1.086
 8320SOL    HW125859   2.860   4.347   1.019
 8320SOL    HW225860   2.714   4.277   1.039
 8321SOL     OW25861   0.798   0.084   0.982
 8321SOL    HW125862   0.742   0.025   1.041
 8321SOL    HW225863   0.890   0.092   1.020
 8322SOL     OW25864   6.846   0.122   6.942
 8322SOL    HW125865   6.759   0.073   6.931
 8322SOL    HW225866   6.917   0.058   6.972
 8323SOL     OW25867   0.913   1.552   2.835
 8323SOL    HW125868   0.949   1.518   2.749
 8323SOL    HW225869   0.875   1.476   2.888
 8324SOL     OW25870   6.394   0.592   2.561
 8324SOL    HW125871   6.409   0.672   2.502
 8324SOL    HW225872   6.478   0.538   2.565
 8325SOL     OW25873   3.044   3.206   4.244
 8325SOL    HW125874   2.998   3.172   4.162
 8325SOL    HW225875   3.142   3.194   4.234
 8326SOL     OW25876   4.027   2.921   5.546
 8326SOL    HW125877   3.975   2.859   5.605
 8326SOL    HW225878   4.103   2.961   5.597
 8327SOL     OW25879   5.745   2.583   6.219
 8327SOL    HW125880   5.702   2.643   6.151
 8327SOL    HW225881   5.696   2.496   6.222
 8328SOL     OW25882   2.342   2.209   6.131
 8328SOL    HW125883   2.385   2.285   6.180
 8328SOL    HW225884   2.289   2.153   6.195
 8329SOL     OW25885   6.586   2.853   5.479
 8329SOL    HW125886   6.556   2.899   5.563
 8329SOL    HW225887   6.537   2.890   5.401
 8330SOL     OW25888   1.889   6.468   0.753
 8330SOL    HW125889   1.861   6.501   0.662
 8330SOL    HW225890   1.851   6.529   0.823
 8331SOL     OW25891   2.419   6.757   1.313
 8331SOL    HW125892   2.484   6.761   1.237
 8331SOL    HW225893   2.469   6.751   1.399
 8332SOL     OW25894   4.622   5.228   2.314
 8332SOL    HW125895   4.560   5.301   2.285
 8332SOL    HW225896   4.715   5.250   2.285
 8333SOL     OW25897   0.413   5.440   0.054
 8333SOL    HW125898   0.492   5.500   0.049
 8333SOL    HW225899   0.347   5.464   7.005
 8334SOL     OW25900   6.424   1.778   3.745
 8334SOL    HW125901   6.465   1.688   3.755
 8334SOL    HW225902   6.494   1.848   3.753
 8335SOL     OW25903   6.014   6.115   5.902
 8335SOL    HW125904   6.000   6.149   5.809
 8335SOL    HW225905   5.957   6.034   5.917
 8336SOL     OW25906   1.002   1.636   1.397
 8336SOL    HW125907   0.906   1.662   1.408
 8336SOL    HW225908   1.043   1.688   1.322
 8337SOL     OW25909   0.747   6.217   2.717
 8337SOL    HW125910   0.739   6.314   2.738
 8337SOL    HW225911   0.663   6.170   2.744
 8338SOL     OW25912   1.497   4.733   1.528
 8338SOL    HW125913   1.464   4.659   1.469
 8338SOL    HW225914   1.516   4.813   1.471
 8339SOL     OW25915   5.350   1.799   2.457
 8339SOL    HW125916   5.336   1.836   2.548
 8339SOL    HW225917   5.299   1.712   2.448
 8340SOL     OW25918   4.904   4.132   0.515
 8340SOL    HW125919   4.808   4.129   0.487
 8340SOL    HW225920   4.960   4.087   0.445
 8341SOL     OW25921   2.646   5.901   1.415
 8341SOL    HW125922   2.611   5.978   1.362
 8341SOL    HW225923   2.616   5.816   1.373
 8342SOL     OW25924   4.063   1.095   0.651
 8342SOL    HW125925   4.138   1.055   0.600
 8342SOL    HW225926   4.099   1.151   0.726
 8343SOL     OW25927   1.296   5.237   6.109
 8343SOL    HW125928   1.374   5.179   6.132
 8343SOL    HW225929   1.230   5.236   6.184
 8344SOL     OW25930   4.376   6.273   5.910
 8344SOL    HW125931   4.314   6.291   5.986
 8344SOL    HW225932   4.465   6.243   5.945
 8345SOL     OW25933   5.981   1.172   2.746
 8345SOL    HW125934   5.952   1.080   2.770
 8345SOL    HW225935   5.904   1.235   2.756
 8346SOL     OW25936   3.049   5.511   1.715
 8346SOL    HW125937   3.050   5.574   1.792
 8346SOL    HW225938   3.134   5.519   1.663
 8347SOL     OW25939   3.894   6.937   5.254
 8347SOL    HW125940   3.967   6.999   5.227
 8347SOL    HW225941   3.829   6.928   5.178
 8348SOL     OW25942   0.761   0.695   0.655
 8348SOL    HW125943   0.690   0.737   0.712
 8348SOL    HW225944   0.848   0.694   0.704
 8349SOL     OW25945   5.611   3.954   1.118
 8349SOL    HW125946   5.654   3.868   1.144
 8349SOL    HW225947   5.595   4.009   1.200
 8350SOL     OW25948   6.555   1.036   5.571
 8350SOL    HW125949   6.553   0.987   5.485
 8350SOL    HW225950   6.603   0.982   5.640
 8351SOL     OW25951   3.507   6.213   4.158
 8351SOL    HW125952   3.587   6.272   4.170
 8351SOL    HW225953   3.534   6.129   4.110
 8352SOL     OW25954   6.738   6.292   2.346
 8352SOL    HW125955   6.743   6.234   2.427
 8352SOL    HW225956   6.771   6.241   2.267
 8353SOL     OW25957   6.880   3.351   2.375
 8353SOL    HW125958   6.924   3.267   2.408
 8353SOL    HW225959   6.936   3.430   2.400
 8354SOL     OW25960   2.820   1.111   6.810
 8354SOL    HW125961   2.788   1.189   6.756
 8354SOL    HW225962   2.911   1.131   6.846
 8355SOL     OW25963   3.878   6.965   6.754
 8355SOL    HW125964   3.779   6.955   6.746
 8355SOL    HW225965   3.910   0.008   6.685
 8356SOL     OW25966   2.287   6.051   0.064
 8356SOL    HW125967   2.297   6.148   0.087
 8356SOL    HW225968   2.248   6.002   0.142
 8357SOL     OW25969   4.455   5.928   4.843
 8357SOL    HW125970   4.437   6.017   4.801
 8357SOL    HW225971   4.370   5.876   4.849
 8358SOL     OW25972   1.872   2.875   5.653
 8358SOL    HW125973   1.780   2.903   5.628
 8358SOL    HW225974   1.873   2.776   5.671
 8359SOL     OW25975   4.450   5.331   4.657
 8359SOL    HW125976   4.411   5.323   4.565
 8359SOL    HW225977   4.523   5.399   4.658
 8360SOL     OW25978   5.352   6.995   2.937
 8360SOL    HW125979   5.267   6.944   2.946
 8360SOL    HW225980   5.397   6.971   2.851
 8361SOL     OW25981   1.714   0.525   2.617
 8361SOL    HW125982   1.787   0.585   2.650
 8361SOL    HW225983   1.735   0.431   2.642
 8362SOL     OW25984   2.714   2.073   0.550
 8362SOL    HW125985   2.782   2.102   0.618
 8362SOL    HW225986   2.672   2.154   0.509
 8363SOL     OW25987   0.272   3.048   0.148
 8363SOL    HW125988   0.359   2.999   0.152
 8363SOL    HW225989   0.271   3.107   0.067
 8364SOL     OW25990   6.782   3.634   3.352
 8364SOL    HW125991   6.758   3.537   3.343
 8364SOL    HW225992   6.699   3.687   3.369
 8365SOL     OW25993   1.776   3.407   6.324
 8365SOL    HW125994   1.811   3.498   6.345
 8365SOL    HW225995   1.817   3.340   6.386
 8366SOL     OW25996   3.750   6.693   2.670
 8366SOL    HW125997   3.791   6.667   2.757
 8366SOL    HW225998   3.651   6.704   2.681
 8367SOL     OW25999   5.514   6.277   4.113
 8367SOL    HW126000   5.541   6.363   4.070
 8367SOL    HW226001   5.421   6.286   4.149
 8368SOL     OW26002   2.669   5.409   5.969
 8368SOL    HW126003   2.656   5.386   6.066
 8368SOL    HW226004   2.587   5.455   5.935
 8369SOL     OW26005   1.829   1.404   0.506
 8369SOL    HW126006   1.780   1.356   0.579
 8369SOL    HW226007   1.795   1.497   0.499
 8370SOL     OW26008   1.440   1.659   6.370
 8370SOL    HW126009   1.453   1.758   6.363
 8370SOL    HW226010   1.349   1.640   6.406
 8371SOL     OW26011   1.546   2.999   0.886
 8371SOL    HW126012   1.527   3.097   0.890
 8371SOL    HW226013   1.469   2.952   0.845
 8372SOL     OW26014   6.554   0.861   3.034
 8372SOL    HW126015   6.483   0.917   2.991
 8372SOL    HW226016   6.578   0.900   3.123
 8373SOL     OW26017   1.411   5.822   5.616
 8373SOL    HW126018   1.410   5.835   5.517
 8373SOL    HW226019   1.317   5.817   5.650
 8374SOL     OW26020   6.574   0.302   6.999
 8374SOL    HW126021   6.626   0.217   6.995
 8374SOL    HW226022   6.492   0.289   0.033
 8375SOL     OW26023   3.727   6.845   6.112
 8375SOL    HW126024   3.756   6.934   6.076
 8375SOL    HW226025   3.683   6.858   6.201
 8376SOL     OW26026   2.733   1.215   4.226
 8376SOL    HW126027   2.633   1.206   4.220
 8376SOL    HW226028   2.756   1.311   4.237
 8377SOL     OW26029   5.821   4.564   1.592
 8377SOL    HW126030   5.862   4.516   1.669
 8377SOL    HW226031   5.817   4.503   1.513
 8378SOL     OW26032   4.836   3.146   2.813
 8378SOL    HW126033   4.892   3.227   2.830
 8378SOL    HW226034   4.838   3.087   2.893
 8379SOL     OW26035   6.223   2.954   2.460
 8379SOL    HW126036   6.139   2.901   2.449
 8379SOL    HW226037   6.210   3.045   2.421
 8380SOL     OW26038   4.353   1.728   3.113
 8380SOL    HW126039   4.354   1.763   3.019
 8380SOL    HW226040   4.259   1.704   3.138
 8381SOL     OW26041   1.664   5.315   5.344
 8381SOL    HW126042   1.753   5.270   5.331
 8381SOL    HW226043   1.614   5.270   5.418
 8382SOL     OW26044   0.994   3.166   2.242
 8382SOL    HW126045   0.920   3.108   2.277
 8382SOL    HW226046   1.069   3.109   2.210
 8383SOL     OW26047   2.694   2.428   5.762
 8383SOL    HW126048   2.693   2.475   5.850
 8383SOL    HW226049   2.762   2.355   5.763
 8384SOL     OW26050   0.269   6.767   2.174
 8384SOL    HW126051   0.208   6.846   2.161
 8384SOL    HW226052   0.261   6.734   2.268
 8385SOL     OW26053   4.983   2.725   1.954
 8385SOL    HW126054   4.888   2.738   1.984
 8385SOL    HW226055   5.044   2.775   2.016
 8386SOL     OW26056   0.956   4.245   2.997
 8386SOL    HW126057   0.977   4.212   2.905
 8386SOL    HW226058   1.017   4.322   3.018
 8387SOL     OW26059   0.443   2.995   1.034
 8387SOL    HW126060   0.403   2.926   0.974
 8387SOL    HW226061   0.381   3.013   1.110
 8388SOL     OW26062   2.360   0.715   2.187
 8388SOL    HW126063   2.395   0.656   2.114
 8388SOL    HW226064   2.415   0.799   2.190
 8389SOL     OW26065   5.330   2.908   1.816
 8389SOL    HW126066   5.418   2.929   1.774
 8389SOL    HW226067   5.307   2.812   1.802
 8390SOL     OW26068   5.345   1.867   5.278
 8390SOL    HW126069   5.437   1.885   5.246
 8390SOL    HW226070   5.341   1.776   5.320
 8391SOL     OW26071   6.448   0.705   1.115
 8391SOL    HW126072   6.458   0.614   1.075
 8391SOL    HW226073   6.414   0.768   1.046
 8392SOL     OW26074   5.625   3.267   4.935
 8392SOL    HW126075   5.564   3.209   4.990
 8392SOL    HW226076   5.716   3.226   4.933
 8393SOL     OW26077   5.183   0.185   1.544
 8393SOL    HW126078   5.193   0.212   1.448
 8393SOL    HW226079   5.156   0.265   1.598
 8394SOL     OW26080   5.975   3.380   1.573
 8394SOL    HW126081   5.963   3.479   1.586
 8394SOL    HW226082   6.066   3.353   1.606
 8395SOL     OW26083   2.008   0.937   5.102
 8395SOL    HW126084   2.054   1.020   5.133
 8395SOL    HW226085   1.996   0.875   5.179
 8396SOL     OW26086   4.255   5.831   5.158
 8396SOL    HW126087   4.177   5.891   5.138
 8396SOL    HW226088   4.270   5.769   5.081
 8397SOL     OW26089   6.398   1.019   3.206
 8397SOL    HW126090   6.328   1.062   3.149
 8397SOL    HW226091   6.441   1.089   3.264
 8398SOL     OW26092   4.885   2.130   5.903
 8398SOL    HW126093   4.791   2.154   5.878
 8398SOL    HW226094   4.947   2.158   5.830
 8399SOL     OW26095   0.170   5.080   0.759
 8399SOL    HW126096   0.194   5.114   0.850
 8399SOL    HW226097   0.072   5.062   0.755
 8400SOL     OW26098   1.232   2.344   4.804
 8400SOL    HW126099   1.276   2.381   4.722
 8400SOL    HW226100   1.269   2.253   4.824
 8401SOL     OW26101   2.571   0.036   5.440
 8401SOL    HW126102   2.529   0.101   5.503
 8401SOL    HW226103   2.537   6.966   5.460
 8402SOL     OW26104   4.066   0.703   5.837
 8402SOL    HW126105   4.057   0.761   5.756
 8402SOL    HW226106   3.975   0.675   5.868
 8403SOL     OW26107   5.953   5.403   4.601
 8403SOL    HW126108   6.052   5.418   4.599
 8403SOL    HW226109   5.921   5.382   4.508
 8404SOL     OW26110   1.936   1.801   6.633
 8404SOL    HW126111   1.845   1.815   6.673
 8404SOL    HW226112   2.005   1.828   6.699
 8405SOL     OW26113   4.132   1.257   4.906
 8405SOL    HW126114   4.033   1.258   4.923
 8405SOL    HW226115   4.180   1.295   4.985
 8406SOL     OW26116   4.511   0.955   6.081
 8406SOL    HW126117   4.534   1.052   6.073
 8406SOL    HW226118   4.594   0.903   6.103
 8407SOL     OW26119   3.439   6.915   4.350
 8407SOL    HW126120   3.538   6.924   4.340
 8407SOL    HW226121   3.418   6.876   4.440
 8408SOL     OW26122   4.370   1.140   1.738
 8408SOL    HW126123   4.391   1.237   1.728
 8408SOL    HW226124   4.437   1.086   1.687
 8409SOL     OW26125   4.708   2.471   1.790
 8409SOL    HW126126   4.616   2.509   1.797
 8409SOL    HW226127   4.730   2.455   1.694
 8410SOL     OW26128   0.071   1.560   1.917
 8410SOL    HW126129   0.142   1.608   1.866
 8410SOL    HW226130   7.014   1.545   1.858
 8411SOL     OW26131   1.466   5.702   0.388
 8411SOL    HW126132   1.436   5.722   0.481
 8411SOL    HW226133   1.509   5.783   0.348
 8412SOL     OW26134   3.115   2.554   6.011
 8412SOL    HW126135   3.050   2.571   5.937
 8412SOL    HW226136   3.204   2.532   5.973
 8413SOL     OW26137   4.197   5.347   5.470
 8413SOL    HW126138   4.264   5.290   5.517
 8413SOL    HW226139   4.150   5.293   5.400
 8414SOL     OW26140   0.957   0.868   2.124
 8414SOL    HW126141   0.898   0.934   2.171
 8414SOL    HW226142   1.043   0.859   2.173
 8415SOL     OW26143   2.294   0.649   5.155
 8415SOL    HW126144   2.307   0.611   5.063
 8415SOL    HW226145   2.196   0.653   5.174
 8416SOL     OW26146   6.816   1.551   5.525
 8416SOL    HW126147   6.828   1.537   5.427
 8416SOL    HW226148   6.734   1.605   5.541
 8417SOL     OW26149   1.638   4.103   5.444
 8417SOL    HW126150   1.622   4.189   5.492
 8417SOL    HW226151   1.635   4.119   5.345
 8418SOL     OW26152   1.087   6.353   2.361
 8418SOL    HW126153   1.060   6.311   2.448
 8418SOL    HW226154   1.139   6.287   2.307
 8419SOL     OW26155   4.966   1.460   3.898
 8419SOL    HW126156   4.899   1.452   3.824
 8419SOL    HW226157   4.928   1.516   3.972
 8420SOL     OW26158   2.581   0.052   2.868
 8420SOL    HW126159   2.574   0.046   2.968
 8420SOL    HW226160   2.677   0.054   2.841
 8421SOL     OW26161   4.649   6.269   6.001
 8421SOL    HW126162   4.656   6.350   6.061
 8421SOL    HW226163   4.695   6.192   6.045
 8422SOL     OW26164   4.547   2.544   2.879
 8422SOL    HW126165   4.617   2.495   2.930
 8422SOL    HW226166   4.575   2.639   2.864
 8423SOL     OW26167   6.192   4.870   6.654
 8423SOL    HW126168   6.290   4.854   6.644
 8423SOL    HW226169   6.176   4.960   6.694
 8424SOL     OW26170   2.143   0.086   3.871
 8424SOL    HW126171   2.076   0.143   3.823
 8424SOL    HW226172   2.163   0.126   3.960
 8425SOL     OW26173   3.933   3.215   2.764
 8425SOL    HW126174   3.983   3.263   2.692
 8425SOL    HW226175   3.993   3.201   2.843
 8426SOL     OW26176   3.359   2.922   2.248
 8426SOL    HW126177   3.378   2.870   2.165
 8426SOL    HW226178   3.270   2.965   2.242
 8427SOL     OW26179   3.692   3.841   3.538
 8427SOL    HW126180   3.693   3.826   3.440
 8427SOL    HW226181   3.668   3.756   3.585
 8428SOL     OW26182   7.022   6.996   0.831
 8428SOL    HW126183   6.989   6.902   0.831
 8428SOL    HW226184   6.997   0.018   0.916
 8429SOL     OW26185   1.734   5.429   6.511
 8429SOL    HW126186   1.715   5.515   6.463
 8429SOL    HW226187   1.743   5.355   6.444
 8430SOL     OW26188   3.851   6.636   5.056
 8430SOL    HW126189   3.883   6.546   5.026
 8430SOL    HW226190   3.930   6.693   5.080
 8431SOL     OW26191   3.284   4.009   5.828
 8431SOL    HW126192   3.265   4.041   5.920
 8431SOL    HW226193   3.293   4.087   5.766
 8432SOL     OW26194   6.208   5.472   6.325
 8432SOL    HW126195   6.123   5.525   6.322
 8432SOL    HW226196   6.282   5.525   6.284
 8433SOL     OW26197   5.093   2.870   0.836
 8433SOL    HW126198   5.053   2.882   0.745
 8433SOL    HW226199   5.118   2.774   0.849
 8434SOL     OW26200   2.496   5.677   5.295
 8434SOL    HW126201   2.464   5.771   5.296
 8434SOL    HW226202   2.429   5.619   5.247
 8435SOL     OW26203   4.842   1.131   2.914
 8435SOL    HW126204   4.782   1.092   2.984
 8435SOL    HW226205   4.879   1.218   2.946
 8436SOL     OW26206   2.277   6.167   2.674
 8436SOL    HW126207   2.274   6.094   2.606
 8436SOL    HW226208   2.262   6.255   2.629
 8437SOL     OW26209   2.166   3.775   2.425
 8437SOL    HW126210   2.106   3.695   2.437
 8437SOL    HW226211   2.208   3.771   2.334
 8438SOL     OW26212   1.455   4.130   2.412
 8438SOL    HW126213   1.535   4.189   2.403
 8438SOL    HW226214   1.392   4.170   2.479
 8439SOL     OW26215   5.981   5.420   3.803
 8439SOL    HW126216   6.045   5.495   3.822
 8439SOL    HW226217   5.888   5.449   3.826
 8440SOL     OW26218   1.692   1.206   2.775
 8440SOL    HW126219   1.665   1.139   2.844
 8440SOL    HW226220   1.767   1.169   2.720
 8441SOL     OW26221   5.999   1.147   4.614
 8441SOL    HW126222   6.072   1.204   4.652
 8441SOL    HW226223   5.933   1.125   4.685
 8442SOL     OW26224   3.379   1.422   5.603
 8442SOL    HW126225   3.290   1.377   5.596
 8442SOL    HW226226   3.367   1.520   5.619
 8443SOL     OW26227   1.194   4.146   2.797
 8443SOL    HW126228   1.149   4.074   2.744
 8443SOL    HW226229   1.159   4.147   2.890
 8444SOL     OW26230   4.820   4.937   4.277
 8444SOL    HW126231   4.794   5.010   4.340
 8444SOL    HW226232   4.818   4.972   4.183
 8445SOL     OW26233   4.417   6.239   6.645
 8445SOL    HW126234   4.390   6.151   6.685
 8445SOL    HW226235   4.509   6.263   6.677
 8446SOL     OW26236   6.699   6.075   4.595
 8446SOL    HW126237   6.613   6.083   4.545
 8446SOL    HW226238   6.719   5.978   4.610
 8447SOL     OW26239   3.644   2.133   3.044
 8447SOL    HW126240   3.621   2.143   2.948
 8447SOL    HW226241   3.562   2.145   3.100
 8448SOL     OW26242   4.691   6.326   2.837
 8448SOL    HW126243   4.744   6.358   2.758
 8448SOL    HW226244   4.753   6.313   2.915
 8449SOL     OW26245   1.941   2.509   3.190
 8449SOL    HW126246   1.963   2.423   3.144
 8449SOL    HW226247   1.943   2.494   3.289
 8450SOL     OW26248   0.093   0.777   0.164
 8450SOL    HW126249   7.022   0.763   0.198
 8450SOL    HW226250   0.096   0.862   0.112
 8451SOL     OW26251   4.437   2.294   1.303
 8451SOL    HW126252   4.439   2.255   1.211
 8451SOL    HW226253   4.518   2.351   1.317
 8452SOL     OW26254   5.460   2.085   5.127
 8452SOL    HW126255   5.365   2.069   5.098
 8452SOL    HW226256   5.461   2.148   5.204
 8453SOL     OW26257   0.566   5.951   0.787
 8453SOL    HW126258   0.485   5.984   0.738
 8453SOL    HW226259   0.648   5.990   0.746
 8454SOL     OW26260   7.013   4.208   0.092
 8454SOL    HW126261   6.948   4.186   0.019
 8454SOL    HW226262   6.978   4.173   0.179
 8455SOL     OW26263   0.392   0.573   3.035
 8455SOL    HW126264   0.307   0.608   3.075
 8455SOL    HW226265   0.370   0.506   2.964
 8456SOL     OW26266   6.052   1.197   3.535
 8456SOL    HW126267   6.019   1.290   3.553
 8456SOL    HW226268   6.017   1.135   3.605
 8457SOL     OW26269   6.443   6.549   5.124
 8457SOL    HW126270   6.407   6.467   5.079
 8457SOL    HW226271   6.531   6.528   5.166
 8458SOL     OW26272   0.289   6.546   6.775
 8458SOL    HW126273   0.245   6.456   6.779
 8458SOL    HW226274   0.386   6.537   6.799
 8459SOL     OW26275   1.883   5.959   3.724
 8459SOL    HW126276   1.963   5.950   3.665
 8459SOL    HW226277   1.889   6.046   3.774
 8460SOL     OW26278   3.622   4.108   4.555
 8460SOL    HW126279   3.544   4.135   4.612
 8460SOL    HW226280   3.593   4.042   4.486
 8461SOL     OW26281   6.485   4.225   3.535
 8461SOL    HW126282   6.527   4.146   3.490
 8461SOL    HW226283   6.398   4.198   3.576
 8462SOL     OW26284   1.980   2.842   1.869
 8462SOL    HW126285   2.067   2.865   1.912
 8462SOL    HW226286   1.939   2.764   1.916
 8463SOL     OW26287   5.500   1.068   2.230
 8463SOL    HW126288   5.567   1.031   2.296
 8463SOL    HW226289   5.459   0.992   2.180
 8464SOL     OW26290   6.314   2.477   4.774
 8464SOL    HW126291   6.291   2.380   4.773
 8464SOL    HW226292   6.391   2.493   4.835
 8465SOL     OW26293   1.477   2.367   0.246
 8465SOL    HW126294   1.441   2.415   0.166
 8465SOL    HW226295   1.403   2.351   0.312
 8466SOL     OW26296   0.740   6.010   3.556
 8466SOL    HW126297   0.834   5.982   3.539
 8466SOL    HW226298   0.724   6.015   3.655
 8467SOL     OW26299   2.658   5.382   0.434
 8467SOL    HW126300   2.729   5.441   0.472
 8467SOL    HW226301   2.631   5.417   0.344
 8468SOL     OW26302   4.463   1.720   0.169
 8468SOL    HW126303   4.549   1.729   0.120
 8468SOL    HW226304   4.480   1.715   0.267
 8469SOL     OW26305   3.744   2.462   6.883
 8469SOL    HW126306   3.786   2.501   6.965
 8469SOL    HW226307   3.645   2.455   6.896
 8470SOL     OW26308   2.313   2.529   6.194
 8470SOL    HW126309   2.219   2.499   6.211
 8470SOL    HW226310   2.312   2.610   6.135
 8471SOL     OW26311   3.411   0.903   3.817
 8471SOL    HW126312   3.436   0.813   3.853
 8471SOL    HW226313   3.376   0.893   3.724
 8472SOL     OW26314   1.794   6.250   3.966
 8472SOL    HW126315   1.792   6.325   4.032
 8472SOL    HW226316   1.770   6.164   4.012
 8473SOL     OW26317   6.317   5.444   0.287
 8473SOL    HW126318   6.308   5.347   0.261
 8473SOL    HW226319   6.387   5.487   0.230
 8474SOL     OW26320   3.601   4.198   1.487
 8474SOL    HW126321   3.655   4.232   1.565
 8474SOL    HW226322   3.632   4.106   1.463
 8475SOL     OW26323   5.032   1.153   3.385
 8475SOL    HW126324   5.119   1.164   3.434
 8475SOL    HW226325   4.987   1.242   3.377
 8476SOL     OW26326   4.408   0.289   2.483
 8476SOL    HW126327   4.451   0.371   2.445
 8476SOL    HW226328   4.329   0.315   2.538
 8477SOL     OW26329   3.273   1.328   0.973
 8477SOL    HW126330   3.187   1.361   1.011
 8477SOL    HW226331   3.318   1.268   1.039
 8478SOL     OW26332   1.271   0.253   5.530
 8478SOL    HW126333   1.181   0.233   5.491
 8478SOL    HW226334   1.260   0.311   5.610
 8479SOL     OW26335   5.303   1.037   1.375
 8479SOL    HW126336   5.391   1.069   1.338
 8479SOL    HW226337   5.307   0.938   1.389
 8480SOL     OW26338   1.894   1.338   1.500
 8480SOL    HW126339   1.909   1.334   1.401
 8480SOL    HW226340   1.982   1.340   1.547
 8481SOL     OW26341   3.863   0.214   4.444
 8481SOL    HW126342   3.779   0.267   4.442
 8481SOL    HW226343   3.941   0.275   4.453
 8482SOL     OW26344   0.832   7.004   2.104
 8482SOL    HW126345   0.886   6.965   2.178
 8482SOL    HW226346   0.761   0.041   2.142
 8483SOL     OW26347   4.111   5.808   1.450
 8483SOL    HW126348   4.084   5.723   1.406
 8483SOL    HW226349   4.090   5.885   1.390
 8484SOL     OW26350   0.942   4.698   4.752
 8484SOL    HW126351   0.923   4.655   4.840
 8484SOL    HW226352   1.015   4.766   4.763
 8485SOL     OW26353   2.482   3.018   6.533
 8485SOL    HW126354   2.429   3.081   6.476
 8485SOL    HW226355   2.569   2.997   6.487
 8486SOL     OW26356   4.599   0.897   2.718
 8486SOL    HW126357   4.511   0.850   2.711
 8486SOL    HW226358   4.584   0.996   2.719
 8487SOL     OW26359   4.212   0.154   1.115
 8487SOL    HW126360   4.275   0.079   1.095
 8487SOL    HW226361   4.265   0.237   1.134
 8488SOL     OW26362   5.094   2.844   4.477
 8488SOL    HW126363   5.146   2.929   4.479
 8488SOL    HW226364   5.092   2.808   4.384
 8489SOL     OW26365   4.255   5.151   2.258
 8489SOL    HW126366   4.180   5.216   2.272
 8489SOL    HW226367   4.272   5.100   2.342
 8490SOL     OW26368   3.990   5.454   2.857
 8490SOL    HW126369   3.900   5.472   2.895
 8490SOL    HW226370   4.029   5.372   2.900
 8491SOL     OW26371   2.265   0.792   2.675
 8491SOL    HW126372   2.229   0.699   2.670
 8491SOL    HW226373   2.241   0.842   2.592
 8492SOL     OW26374   5.829   3.118   4.978
 8492SOL    HW126375   5.772   3.042   5.011
 8492SOL    HW226376   5.905   3.131   5.041
 8493SOL     OW26377   3.691   2.242   0.813
 8493SOL    HW126378   3.681   2.260   0.715
 8493SOL    HW226379   3.788   2.239   0.837
 8494SOL     OW26380   3.935   5.874   6.710
 8494SOL    HW126381   3.985   5.799   6.666
 8494SOL    HW226382   3.979   5.961   6.687
 8495SOL     OW26383   6.930   2.570   0.904
 8495SOL    HW126384   6.990   2.506   0.952
 8495SOL    HW226385   6.890   2.525   0.824
 8496SOL     OW26386   6.765   3.062   2.993
 8496SOL    HW126387   6.765   3.045   2.895
 8496SOL    HW226388   6.765   3.161   3.010
 8497SOL     OW26389   6.127   5.765   3.360
 8497SOL    HW126390   6.080   5.686   3.322
 8497SOL    HW226391   6.226   5.754   3.348
 8498SOL     OW26392   0.343   0.738   0.840
 8498SOL    HW126393   0.299   0.809   0.895
 8498SOL    HW226394   0.440   0.734   0.862
 8499SOL     OW26395   3.460   4.260   6.589
 8499SOL    HW126396   3.512   4.216   6.662
 8499SOL    HW226397   3.495   4.230   6.500
 8500SOL     OW26398   2.866   0.593   5.928
 8500SOL    HW126399   2.843   0.655   6.004
 8500SOL    HW226400   2.784   0.577   5.873
 8501SOL     OW26401   2.114   4.052   6.615
 8501SOL    HW126402   2.051   4.123   6.648
 8501SOL    HW226403   2.067   3.995   6.547
 8502SOL     OW26404   6.677   0.679   2.386
 8502SOL    HW126405   6.596   0.738   2.388
 8502SOL    HW226406   6.665   0.608   2.317
 8503SOL     OW26407   2.724   5.626   3.059
 8503SOL    HW126408   2.693   5.553   3.120
 8503SOL    HW226409   2.710   5.598   2.964
 8504SOL     OW26410   1.482   5.845   3.944
 8504SOL    HW126411   1.527   5.890   3.867
 8504SOL    HW226412   1.465   5.749   3.922
 8505SOL     OW26413   4.868   3.311   3.581
 8505SOL    HW126414   4.804   3.336   3.508
 8505SOL    HW226415   4.962   3.322   3.549
 8506SOL     OW26416   1.315   6.419   0.253
 8506SOL    HW126417   1.387   6.380   0.309
 8506SOL    HW226418   1.227   6.409   0.299
 8507SOL     OW26419   1.268   1.096   5.247
 8507SOL    HW126420   1.322   1.052   5.319
 8507SOL    HW226421   1.318   1.093   5.161
 8508SOL     OW26422   0.878   2.324   6.361
 8508SOL    HW126423   0.817   2.340   6.439
 8508SOL    HW226424   0.831   2.349   6.277
 8509SOL     OW26425   6.451   1.913   4.719
 8509SOL    HW126426   6.482   1.842   4.783
 8509SOL    HW226427   6.356   1.896   4.694
 8510SOL     OW26428   5.487   6.740   2.339
 8510SOL    HW126429   5.536   6.816   2.296
 8510SOL    HW226430   5.542   6.705   2.415
 8511SOL     OW26431   6.181   4.482   1.804
 8511SOL    HW126432   6.175   4.554   1.873
 8511SOL    HW226433   6.178   4.524   1.713
 8512SOL     OW26434   4.262   1.843   0.011
 8512SOL    HW126435   4.301   1.798   0.091
 8512SOL    HW226436   4.229   1.934   0.037
 8513SOL     OW26437   6.754   4.024   1.064
 8513SOL    HW126438   6.804   3.984   0.987
 8513SOL    HW226439   6.819   4.050   1.136
 8514SOL     OW26440   2.526   2.130   5.450
 8514SOL    HW126441   2.518   2.052   5.387
 8514SOL    HW226442   2.508   2.098   5.543
 8515SOL     OW26443   1.427   0.539   1.117
 8515SOL    HW126444   1.492   0.581   1.055
 8515SOL    HW226445   1.406   0.601   1.192
 8516SOL     OW26446   5.736   2.357   3.318
 8516SOL    HW126447   5.700   2.263   3.317
 8516SOL    HW226448   5.766   2.381   3.410
 8517SOL     OW26449   1.894   2.164   5.073
 8517SOL    HW126450   1.884   2.131   5.167
 8517SOL    HW226451   1.952   2.246   5.073
 8518SOL     OW26452   5.226   4.888   0.107
 8518SOL    HW126453   5.278   4.811   0.070
 8518SOL    HW226454   5.239   4.968   0.048
 8519SOL     OW26455   1.282   3.643   0.772
 8519SOL    HW126456   1.297   3.726   0.825
 8519SOL    HW226457   1.184   3.630   0.757
 8520SOL     OW26458   4.220   3.572   5.442
 8520SOL    HW126459   4.148   3.575   5.510
 8520SOL    HW226460   4.274   3.656   5.446
 8521SOL     OW26461   2.254   5.912   6.181
 8521SOL    HW126462   2.184   5.867   6.237
 8521SOL    HW226463   2.209   5.971   6.114
 8522SOL     OW26464   1.123   6.181   0.466
 8522SOL    HW126465   1.090   6.250   0.403
 8522SOL    HW226466   1.104   6.090   0.429
 8523SOL     OW26467   2.503   0.816   0.067
 8523SOL    HW126468   2.548   0.886   0.012
 8523SOL    HW226469   2.404   0.830   0.065
 8524SOL     OW26470   2.251   5.671   5.020
 8524SOL    HW126471   2.299   5.584   5.030
 8524SOL    HW226472   2.208   5.696   5.106
 8525SOL     OW26473   0.018   4.440   1.341
 8525SOL    HW126474   7.012   4.411   1.433
 8525SOL    HW226475   6.977   4.403   1.273
 8526SOL     OW26476   2.346   6.123   0.417
 8526SOL    HW126477   2.374   6.203   0.470
 8526SOL    HW226478   2.397   6.120   0.331
 8527SOL     OW26479   3.386   0.708   5.895
 8527SOL    HW126480   3.371   0.672   5.803
 8527SOL    HW226481   3.332   0.791   5.907
 8528SOL     OW26482   4.877   2.362   0.281
 8528SOL    HW126483   4.845   2.267   0.280
 8528SOL    HW226484   4.962   2.369   0.228
 8529SOL     OW26485   1.304   6.275   6.609
 8529SOL    HW126486   1.222   6.309   6.653
 8529SOL    HW226487   1.279   6.219   6.530
 8530SOL     OW26488   3.271   4.036   4.216
 8530SOL    HW126489   3.300   4.071   4.127
 8530SOL    HW226490   3.349   3.992   4.261
 8531SOL     OW26491   7.007   5.377   3.530
 8531SOL    HW126492   0.023   5.411   3.615
 8531SOL    HW226493   0.051   5.319   3.483
 8532SOL     OW26494   2.631   5.561   4.565
 8532SOL    HW126495   2.676   5.487   4.616
 8532SOL    HW226496   2.621   5.640   4.625
 8533SOL     OW26497   1.832   5.760   5.474
 8533SOL    HW126498   1.798   5.670   5.446
 8533SOL    HW226499   1.910   5.748   5.536
 8534SOL     OW26500   3.554   2.033   3.649
 8534SOL    HW126501   3.519   2.070   3.563
 8534SOL    HW226502   3.652   2.051   3.655
 8535SOL     OW26503   6.181   0.735   3.021
 8535SOL    HW126504   6.098   0.780   3.053
 8535SOL    HW226505   6.245   0.725   3.097
 8536SOL     OW26506   0.185   0.899   4.301
 8536SOL    HW126507   0.281   0.879   4.317
 8536SOL    HW226508   0.144   0.824   4.249
 8537SOL     OW26509   0.004   1.204   3.081
 8537SOL    HW126510   0.013   1.255   2.995
 8537SOL    HW226511   6.930   1.202   3.108
 8538SOL     OW26512   1.569   2.401   6.891
 8538SOL    HW126513   1.534   2.494   6.881
 8538SOL    HW226514   1.583   2.361   6.801
 8539SOL     OW26515   6.242   2.539   2.613
 8539SOL    HW126516   6.241   2.440   2.603
 8539SOL    HW226517   6.161   2.568   2.664
 8540SOL     OW26518   4.324   6.806   0.373
 8540SOL    HW126519   4.316   6.848   0.282
 8540SOL    HW226520   4.296   6.872   0.443
 8541SOL     OW26521   1.898   2.613   3.889
 8541SOL    HW126522   1.879   2.709   3.909
 8541SOL    HW226523   1.988   2.605   3.845
 8542SOL     OW26524   3.935   4.274   6.912
 8542SOL    HW126525   3.949   4.260   7.010
 8542SOL    HW226526   3.892   4.364   6.898
 8543SOL     OW26527   2.191   2.612   6.531
 8543SOL    HW126528   2.172   2.522   6.491
 8543SOL    HW226529   2.230   2.672   6.462
 8544SOL     OW26530   6.435   2.883   3.569
 8544SOL    HW126531   6.470   2.796   3.604
 8544SOL    HW226532   6.363   2.866   3.503
 8545SOL     OW26533   5.668   6.756   4.588
 8545SOL    HW126534   5.726   6.700   4.647
 8545SOL    HW226535   5.577   6.716   4.582
 8546SOL     OW26536   4.431   1.664   4.959
 8546SOL    HW126537   4.431   1.763   4.950
 8546SOL    HW226538   4.497   1.636   5.029
 8547SOL     OW26539   1.335   4.225   3.594
 8547SOL    HW126540   1.341   4.127   3.573
 8547SOL    HW226541   1.240   4.254   3.593
 8548SOL     OW26542   5.619   1.177   5.694
 8548SOL    HW126543   5.602   1.227   5.609
 8548SOL    HW226544   5.689   1.224   5.747
 8549SOL     OW26545   6.069   3.510   4.840
 8549SOL    HW126546   6.080   3.460   4.925
 8549SOL    HW226547   6.134   3.475   4.772
 8550SOL     OW26548   1.060   4.141   6.495
 8550SOL    HW126549   1.067   4.078   6.572
 8550SOL    HW226550   1.073   4.091   6.409
 8551SOL     OW26551   3.634   4.128   0.236
 8551SOL    HW126552   3.678   4.121   0.325
 8551SOL    HW226553   3.690   4.184   0.175
 8552SOL     OW26554   2.704   6.721   4.106
 8552SOL    HW126555   2.656   6.748   4.022
 8552SOL    HW226556   2.654   6.646   4.150
 8553SOL     OW26557   5.707   0.052   0.366
 8553SOL    HW126558   5.669   6.998   0.417
 8553SOL    HW226559   5.701   0.033   0.268
 8554SOL     OW26560   6.361   3.505   6.729
 8554SOL    HW126561   6.381   3.558   6.646
 8554SOL    HW226562   6.380   3.562   6.809
 8555SOL     OW26563   1.371   0.193   4.080
 8555SOL    HW126564   1.357   0.178   3.982
 8555SOL    HW226565   1.326   0.277   4.108
 8556SOL     OW26566   6.261   0.437   3.373
 8556SOL    HW126567   6.319   0.506   3.417
 8556SOL    HW226568   6.188   0.482   3.323
 8557SOL     OW26569   0.347   0.525   1.278
 8557SOL    HW126570   0.320   0.621   1.290
 8557SOL    HW226571   0.402   0.496   1.356
 8558SOL     OW26572   1.527   4.913   2.019
 8558SOL    HW126573   1.584   4.831   2.018
 8558SOL    HW226574   1.583   4.993   2.040
 8559SOL     OW26575   1.293   0.366   0.338
 8559SOL    HW126576   1.259   0.406   0.253
 8559SOL    HW226577   1.330   0.275   0.319
 8560SOL     OW26578   6.155   1.618   0.116
 8560SOL    HW126579   6.101   1.568   0.047
 8560SOL    HW226580   6.176   1.709   0.081
 8561SOL     OW26581   4.688   6.452   4.008
 8561SOL    HW126582   4.614   6.390   4.033
 8561SOL    HW226583   4.739   6.478   4.090
 8562SOL     OW26584   3.333   6.560   4.691
 8562SOL    HW126585   3.375   6.591   4.606
 8562SOL    HW226586   3.405   6.542   4.759
 8563SOL     OW26587   2.172   2.671   5.812
 8563SOL    HW126588   2.245   2.738   5.827
 8563SOL    HW226589   2.213   2.582   5.790
 8564SOL     OW26590   1.066   0.494   3.821
 8564SOL    HW126591   0.995   0.434   3.786
 8564SOL    HW226592   1.056   0.585   3.780
 8565SOL     OW26593   3.292   6.720   2.240
 8565SOL    HW126594   3.253   6.796   2.188
 8565SOL    HW226595   3.328   6.754   2.327
 8566SOL     OW26596   2.046   2.890   3.526
 8566SOL    HW126597   2.064   2.855   3.617
 8566SOL    HW226598   2.094   2.977   3.512
 8567SOL     OW26599   4.982   0.385   1.268
 8567SOL    HW126600   5.018   0.293   1.250
 8567SOL    HW226601   4.898   0.399   1.217
 8568SOL     OW26602   5.024   1.235   0.263
 8568SOL    HW126603   4.957   1.166   0.236
 8568SOL    HW226604   4.997   1.324   0.227
 8569SOL     OW26605   4.328   1.714   4.467
 8569SOL    HW126606   4.252   1.662   4.504
 8569SOL    HW226607   4.329   1.806   4.506
 8570SOL     OW26608   0.328   3.755   0.090
 8570SOL    HW126609   0.307   3.746   7.015
 8570SOL    HW226610   0.243   3.771   0.140
 8571SOL     OW26611   6.629   4.109   5.274
 8571SOL    HW126612   6.667   4.129   5.364
 8571SOL    HW226613   6.530   4.118   5.276
 8572SOL     OW26614   2.835   4.651   5.366
 8572SOL    HW126615   2.878   4.582   5.308
 8572SOL    HW226616   2.739   4.661   5.341
 8573SOL     OW26617   3.574   5.967   5.460
 8573SOL    HW126618   3.652   6.019   5.426
 8573SOL    HW226619   3.498   6.029   5.480
 8574SOL     OW26620   0.688   3.751   5.291
 8574SOL    HW126621   0.645   3.771   5.379
 8574SOL    HW226622   0.758   3.681   5.303
 8575SOL     OW26623   3.259   3.415   6.942
 8575SOL    HW126624   3.171   3.460   6.961
 8575SOL    HW226625   3.277   3.347   7.013
 8576SOL     OW26626   1.868   0.104   1.285
 8576SOL    HW126627   1.786   0.131   1.236
 8576SOL    HW226628   1.870   0.004   1.294
 8577SOL     OW26629   6.600   6.030   3.019
 8577SOL    HW126630   6.698   6.039   2.998
 8577SOL    HW226631   6.553   6.112   2.988
 8578SOL     OW26632   4.119   7.001   3.642
 8578SOL    HW126633   4.182   0.054   3.624
 8578SOL    HW226634   4.144   6.923   3.585
 8579SOL     OW26635   1.140   5.335   3.116
 8579SOL    HW126636   1.050   5.310   3.151
 8579SOL    HW226637   1.192   5.252   3.095
 8580SOL     OW26638   2.604   4.582   6.609
 8580SOL    HW126639   2.644   4.509   6.553
 8580SOL    HW226640   2.645   4.670   6.583
 8581SOL     OW26641   2.874   2.416   1.460
 8581SOL    HW126642   2.920   2.370   1.536
 8581SOL    HW226643   2.919   2.503   1.441
 8582SOL     OW26644   3.998   3.979   1.323
 8582SOL    HW126645   3.957   3.946   1.237
 8582SOL    HW226646   4.051   3.905   1.365
 8583SOL     OW26647   6.189   0.027   6.330
 8583SOL    HW126648   6.198   6.962   6.378
 8583SOL    HW226649   6.106   0.074   6.361
 8584SOL     OW26650   6.505   5.531   0.122
 8584SOL    HW126651   6.522   5.625   0.093
 8584SOL    HW226652   6.583   5.473   0.098
 8585SOL     OW26653   0.128   1.798   0.831
 8585SOL    HW126654   0.101   1.891   0.809
 8585SOL    HW226655   0.047   1.738   0.829
 8586SOL     OW26656   4.014   5.633   3.925
 8586SOL    HW126657   4.015   5.595   4.018
 8586SOL    HW226658   3.933   5.599   3.877
 8587SOL     OW26659   0.022   2.001   1.523
 8587SOL    HW126660   0.074   1.919   1.499
 8587SOL    HW226661   6.976   1.978   1.592
 8588SOL     OW26662   5.100   2.381   0.139
 8588SOL    HW126663   5.095   2.384   0.039
 8588SOL    HW226664   5.181   2.430   0.171
 8589SOL     OW26665   3.044   2.129   4.487
 8589SOL    HW126666   3.135   2.159   4.458
 8589SOL    HW226667   3.019   2.177   4.571
 8590SOL     OW26668   6.269   4.640   5.529
 8590SOL    HW126669   6.207   4.715   5.507
 8590SOL    HW226670   6.352   4.647   5.474
 8591SOL     OW26671   0.882   3.260   6.713
 8591SOL    HW126672   0.783   3.271   6.702
 8591SOL    HW226673   0.929   3.322   6.650
 8592SOL     OW26674   5.860   5.452   6.852
 8592SOL    HW126675   5.832   5.488   6.763
 8592SOL    HW226676   5.816   5.365   6.868
 8593SOL     OW26677   1.232   0.221   2.663
 8593SOL    HW126678   1.309   0.282   2.643
 8593SOL    HW226679   1.231   0.198   2.760
 8594SOL     OW26680   3.972   3.313   4.228
 8594SOL    HW126681   3.952   3.215   4.228
 8594SOL    HW226682   3.926   3.357   4.151
 8595SOL     OW26683   1.774   1.933   1.890
 8595SOL    HW126684   1.851   1.970   1.838
 8595SOL    HW226685   1.770   1.834   1.876
 8596SOL     OW26686   6.389   5.280   2.360
 8596SOL    HW126687   6.360   5.350   2.295
 8596SOL    HW226688   6.488   5.270   2.357
 8597SOL     OW26689   1.562   1.377   1.267
 8597SOL    HW126690   1.485   1.413   1.320
 8597SOL    HW226691   1.609   1.306   1.319
 8598SOL     OW26692   5.042   4.875   0.505
 8598SOL    HW126693   5.070   4.817   0.582
 8598SOL    HW226694   4.955   4.841   0.468
 8599SOL     OW26695   1.506   3.299   2.494
 8599SOL    HW126696   1.465   3.286   2.404
 8599SOL    HW226697   1.605   3.290   2.486
 8600SOL     OW26698   6.384   4.478   6.672
 8600SOL    HW126699   6.476   4.456   6.705
 8600SOL    HW226700   6.390   4.508   6.576
 8601SOL     OW26701   0.228   6.884   4.163
 8601SOL    HW126702   0.165   6.842   4.098
 8601SOL    HW226703   0.238   6.981   4.142
 8602SOL     OW26704   3.091   6.350   2.120
 8602SOL    HW126705   3.001   6.385   2.146
 8602SOL    HW226706   3.151   6.427   2.096
 8603SOL     OW26707   4.143   3.480   0.789
 8603SOL    HW126708   4.187   3.390   0.781
 8603SOL    HW226709   4.194   3.548   0.737
 8604SOL     OW26710   5.118   2.923   2.709
 8604SOL    HW126711   5.104   2.929   2.808
 8604SOL    HW226712   5.216   2.918   2.690
 8605SOL     OW26713   2.353   6.964   1.650
 8605SOL    HW126714   2.406   7.017   1.715
 8605SOL    HW226715   2.256   6.969   1.673
 8606SOL     OW26716   4.202   4.672   5.636
 8606SOL    HW126717   4.124   4.676   5.574
 8606SOL    HW226718   4.285   4.654   5.584
 8607SOL     OW26719   4.430   5.867   1.756
 8607SOL    HW126720   4.412   5.904   1.665
 8607SOL    HW226721   4.364   5.794   1.777
 8608SOL     OW26722   4.943   6.062   2.129
 8608SOL    HW126723   4.948   5.962   2.126
 8608SOL    HW226724   4.877   6.094   2.061
 8609SOL     OW26725   3.970   0.963   4.971
 8609SOL    HW126726   3.951   0.968   5.069
 8609SOL    HW226727   4.065   0.935   4.956
 8610SOL     OW26728   0.326   6.406   4.030
 8610SOL    HW126729   0.277   6.390   3.943
 8610SOL    HW226730   0.344   6.319   4.074
 8611SOL     OW26731   1.895   2.085   3.356
 8611SOL    HW126732   1.892   2.027   3.437
 8611SOL    HW226733   1.961   2.048   3.290
 8612SOL     OW26734   4.336   3.081   5.343
 8612SOL    HW126735   4.297   2.990   5.356
 8612SOL    HW226736   4.264   3.144   5.313
 8613SOL     OW26737   1.250   0.980   0.236
 8613SOL    HW126738   1.307   1.061   0.224
 8613SOL    HW226739   1.232   0.966   0.334
 8614SOL     OW26740   0.699   1.797   3.210
 8614SOL    HW126741   0.682   1.703   3.238
 8614SOL    HW226742   0.788   1.803   3.164
 8615SOL     OW26743   4.152   2.868   5.311
 8615SOL    HW126744   4.097   2.904   5.387
 8615SOL    HW226745   4.123   2.775   5.291
 8616SOL     OW26746   1.442   3.701   0.081
 8616SOL    HW126747   1.484   3.785   0.045
 8616SOL    HW226748   1.371   3.726   0.147
 8617SOL     OW26749   5.979   3.210   0.997
 8617SOL    HW126750   5.926   3.271   1.054
 8617SOL    HW226751   6.032   3.263   0.931
 8618SOL     OW26752   4.922   0.497   3.726
 8618SOL    HW126753   4.967   0.586   3.723
 8618SOL    HW226754   4.829   0.507   3.762
 8619SOL     OW26755   4.569   5.733   0.508
 8619SOL    HW126756   4.524   5.645   0.492
 8619SOL    HW226757   4.525   5.803   0.451
 8620SOL     OW26758   6.350   6.660   2.981
 8620SOL    HW126759   6.293   6.653   3.063
 8620SOL    HW226760   6.415   6.736   2.991
 8621SOL     OW26761   5.992   0.923   3.128
 8621SOL    HW126762   5.913   0.862   3.116
 8621SOL    HW226763   5.986   0.966   3.219
 8622SOL     OW26764   5.026   5.219   0.079
 8622SOL    HW126765   4.945   5.268   0.048
 8622SOL    HW226766   5.026   5.216   0.179
 8623SOL     OW26767   6.311   3.585   2.810
 8623SOL    HW126768   6.291   3.503   2.757
 8623SOL    HW226769   6.389   3.633   2.768
 8624SOL     OW26770   0.755   4.694   3.237
 8624SOL    HW126771   0.828   4.705   3.305
 8624SOL    HW226772   0.681   4.638   3.276
 8625SOL     OW26773   3.823   0.730   4.585
 8625SOL    HW126774   3.876   0.782   4.652
 8625SOL    HW226775   3.725   0.737   4.607
 8626SOL     OW26776   2.932   3.720   3.042
 8626SOL    HW126777   2.965   3.782   3.114
 8626SOL    HW226778   2.898   3.773   2.965
 8627SOL     OW26779   1.783   0.135   6.631
 8627SOL    HW126780   1.878   0.103   6.631
 8627SOL    HW226781   1.782   0.234   6.647
 8628SOL     OW26782   5.069   0.895   0.130
 8628SOL    HW126783   5.142   0.889   0.198
 8628SOL    HW226784   4.981   0.876   0.173
 8629SOL     OW26785   1.310   4.595   4.146
 8629SOL    HW126786   1.282   4.585   4.051
 8629SOL    HW226787   1.242   4.649   4.195
 8630SOL     OW26788   5.503   4.428   4.068
 8630SOL    HW126789   5.510   4.528   4.070
 8630SOL    HW226790   5.575   4.388   4.123
 8631SOL     OW26791   3.746   5.983   5.015
 8631SOL    HW126792   3.660   5.935   5.035
 8631SOL    HW226793   3.728   6.058   4.952
 8632SOL     OW26794   4.404   0.428   3.494
 8632SOL    HW126795   4.465   0.438   3.415
 8632SOL    HW226796   4.309   0.445   3.466
 8633SOL     OW26797   6.135   1.290   3.971
 8633SOL    HW126798   6.121   1.338   4.058
 8633SOL    HW226799   6.123   1.192   3.986
 8634SOL     OW26800   6.646   5.206   1.887
 8634SOL    HW126801   6.611   5.153   1.964
 8634SOL    HW226802   6.602   5.176   1.803
 8635SOL     OW26803   6.121   4.090   5.074
 8635SOL    HW126804   6.059   4.032   5.021
 8635SOL    HW226805   6.212   4.089   5.033
 8636SOL     OW26806   5.710   5.493   0.835
 8636SOL    HW126807   5.655   5.533   0.908
 8636SOL    HW226808   5.744   5.566   0.776
 8637SOL     OW26809   2.576   0.490   1.685
 8637SOL    HW126810   2.502   0.422   1.689
 8637SOL    HW226811   2.542   0.573   1.641
 8638SOL     OW26812   3.624   4.856   0.467
 8638SOL    HW126813   3.718   4.873   0.438
 8638SOL    HW226814   3.608   4.758   0.474
 8639SOL     OW26815   6.505   2.939   2.422
 8639SOL    HW126816   6.405   2.938   2.424
 8639SOL    HW226817   6.538   2.850   2.391
 8640SOL     OW26818   5.119   5.974   1.003
 8640SOL    HW126819   5.165   5.963   0.914
 8640SOL    HW226820   5.026   5.939   0.997
 8641SOL     OW26821   5.732   4.745   3.351
 8641SOL    HW126822   5.787   4.752   3.269
 8641SOL    HW226823   5.719   4.836   3.391
 8642SOL     OW26824   4.597   1.517   1.344
 8642SOL    HW126825   4.503   1.537   1.315
 8642SOL    HW226826   4.628   1.587   1.408
 8643SOL     OW26827   4.793   0.739   5.993
 8643SOL    HW126828   4.891   0.759   5.985
 8643SOL    HW226829   4.743   0.794   5.927
 8644SOL     OW26830   6.437   3.394   5.047
 8644SOL    HW126831   6.456   3.378   5.144
 8644SOL    HW226832   6.436   3.492   5.029
 8645SOL     OW26833   6.055   4.803   1.686
 8645SOL    HW126834   5.957   4.789   1.673
 8645SOL    HW226835   6.105   4.767   1.608
 8646SOL     OW26836   5.117   0.829   0.415
 8646SOL    HW126837   5.198   0.782   0.452
 8646SOL    HW226838   5.058   0.762   0.370
 8647SOL     OW26839   4.300   4.802   0.719
 8647SOL    HW126840   4.400   4.799   0.714
 8647SOL    HW226841   4.271   4.892   0.753
 8648SOL     OW26842   5.472   1.794   4.318
 8648SOL    HW126843   5.569   1.785   4.341
 8648SOL    HW226844   5.443   1.888   4.337
 8649SOL     OW26845   6.818   4.333   5.269
 8649SOL    HW126846   6.772   4.362   5.185
 8649SOL    HW226847   6.787   4.241   5.294
 8650SOL     OW26848   1.862   4.720   2.588
 8650SOL    HW126849   1.896   4.814   2.592
 8650SOL    HW226850   1.868   4.678   2.678
 8651SOL     OW26851   3.324   1.433   0.722
 8651SOL    HW126852   3.299   1.410   0.816
 8651SOL    HW226853   3.407   1.384   0.696
 8652SOL     OW26854   1.262   3.450   3.754
 8652SOL    HW126855   1.173   3.423   3.791
 8652SOL    HW226856   1.257   3.543   3.720
 8653SOL     OW26857   7.014   3.302   6.823
 8653SOL    HW126858   6.988   3.314   6.918
 8653SOL    HW226859   6.939   3.331   6.763
 8654SOL     OW26860   0.891   6.827   3.261
 8654SOL    HW126861   0.966   6.840   3.195
 8654SOL    HW226862   0.864   6.916   3.298
 8655SOL     OW26863   5.895   5.972   4.302
 8655SOL    HW126864   5.826   5.990   4.232
 8655SOL    HW226865   5.881   6.034   4.379
 8656SOL     OW26866   5.949   2.174   1.328
 8656SOL    HW126867   5.964   2.117   1.408
 8656SOL    HW226868   5.911   2.119   1.254
 8657SOL     OW26869   3.611   3.988   6.703
 8657SOL    HW126870   3.533   3.937   6.737
 8657SOL    HW226871   3.681   3.994   6.775
 8658SOL     OW26872   6.739   5.378   0.123
 8658SOL    HW126873   6.678   5.300   0.111
 8658SOL    HW226874   6.831   5.346   0.147
 8659SOL     OW26875   5.373   0.629   4.301
 8659SOL    HW126876   5.281   0.593   4.288
 8659SOL    HW226877   5.368   0.721   4.340
 8660SOL     OW26878   5.784   4.468   1.262
 8660SOL    HW126879   5.808   4.408   1.186
 8660SOL    HW226880   5.778   4.413   1.346
 8661SOL     OW26881   6.584   3.879   1.728
 8661SOL    HW126882   6.501   3.863   1.780
 8661SOL    HW226883   6.591   3.813   1.653
 8662SOL     OW26884   0.224   6.676   0.758
 8662SOL    HW126885   0.291   6.751   0.751
 8662SOL    HW226886   0.174   6.669   0.672
 8663SOL     OW26887   2.566   5.447   0.164
 8663SOL    HW126888   2.523   5.537   0.168
 8663SOL    HW226889   2.596   5.428   0.070
 8664SOL     OW26890   4.428   5.492   0.485
 8664SOL    HW126891   4.472   5.431   0.552
 8664SOL    HW226892   4.345   5.449   0.450
 8665SOL     OW26893   5.501   5.267   5.513
 8665SOL    HW126894   5.408   5.252   5.479
 8665SOL    HW226895   5.498   5.282   5.612
 8666SOL     OW26896   5.385   2.980   4.515
 8666SOL    HW126897   5.293   3.021   4.518
 8666SOL    HW226898   5.395   2.927   4.431
 8667SOL     OW26899   4.473   1.722   3.872
 8667SOL    HW126900   4.419   1.794   3.915
 8667SOL    HW226901   4.454   1.719   3.774
 8668SOL     OW26902   4.076   1.968   4.256
 8668SOL    HW126903   4.043   2.063   4.256
 8668SOL    HW226904   4.000   1.907   4.278
 8669SOL     OW26905   4.089   0.496   5.490
 8669SOL    HW126906   3.995   0.510   5.458
 8669SOL    HW226907   4.111   0.566   5.558
 8670SOL     OW26908   3.756   5.235   4.323
 8670SOL    HW126909   3.752   5.335   4.315
 8670SOL    HW226910   3.831   5.210   4.384
 8671SOL     OW26911   5.610   6.736   3.399
 8671SOL    HW126912   5.523   6.701   3.433
 8671SOL    HW226913   5.597   6.829   3.364
 8672SOL     OW26914   3.581   5.018   4.814
 8672SOL    HW126915   3.488   4.988   4.836
 8672SOL    HW226916   3.610   4.975   4.728
 8673SOL     OW26917   5.722   1.918   0.606
 8673SOL    HW126918   5.801   1.875   0.649
 8673SOL    HW226919   5.647   1.852   0.600
 8674SOL     OW26920   0.493   6.992   2.956
 8674SOL    HW126921   0.490   6.901   2.915
 8674SOL    HW226922   0.587   7.015   2.981
 8675SOL     OW26923   2.028   1.238   2.569
 8675SOL    HW126924   1.952   1.187   2.529
 8675SOL    HW226925   2.064   1.189   2.647
 8676SOL     OW26926   4.314   0.400   2.988
 8676SOL    HW126927   4.303   0.488   2.942
 8676SOL    HW226928   4.302   0.326   2.923
 8677SOL     OW26929   2.758   4.300   5.689
 8677SOL    HW126930   2.753   4.241   5.770
 8677SOL    HW226931   2.820   4.377   5.708
 8678SOL     OW26932   1.229   6.867   6.212
 8678SOL    HW126933   1.322   6.833   6.229
 8678SOL    HW226934   1.162   6.798   6.240
 8679SOL     OW26935   6.989   2.492   4.908
 8679SOL    HW126936   0.002   2.399   4.899
 8679SOL    HW226937   0.039   2.553   4.939
 8680SOL     OW26938   1.443   3.203   0.314
 8680SOL    HW126939   1.387   3.273   0.358
 8680SOL    HW226940   1.507   3.247   0.251
 8681SOL     OW26941   3.377   4.053   0.700
 8681SOL    HW126942   3.363   3.980   0.634
 8681SOL    HW226943   3.315   4.039   0.778
 8682SOL     OW26944   2.073   6.175   2.862
 8682SOL    HW126945   2.150   6.165   2.799
 8682SOL    HW226946   2.048   6.272   2.869
 8683SOL     OW26947   6.905   3.361   0.032
 8683SOL    HW126948   6.944   3.320   0.115
 8683SOL    HW226949   6.805   3.365   0.042
 8684SOL     OW26950   6.315   3.142   4.199
 8684SOL    HW126951   6.282   3.232   4.170
 8684SOL    HW226952   6.391   3.114   4.140
 8685SOL     OW26953   1.528   2.323   6.016
 8685SOL    HW126954   1.470   2.402   5.995
 8685SOL    HW226955   1.523   2.256   5.942
 8686SOL     OW26956   6.617   2.669   3.651
 8686SOL    HW126957   6.666   2.662   3.564
 8686SOL    HW226958   6.589   2.578   3.681
 8687SOL     OW26959   3.547   0.014   3.500
 8687SOL    HW126960   3.637   0.017   3.455
 8687SOL    HW226961   3.540   0.089   3.565
 8688SOL     OW26962   2.363   0.483   2.024
 8688SOL    HW126963   2.410   0.403   2.060
 8688SOL    HW226964   2.302   0.456   1.950
 8689SOL     OW26965   4.643   5.748   0.792
 8689SOL    HW126966   4.563   5.741   0.851
 8689SOL    HW226967   4.613   5.770   0.699
 8690SOL     OW26968   0.361   1.637   3.043
 8690SOL    HW126969   0.443   1.621   2.988
 8690SOL    HW226970   0.295   1.564   3.025
 8691SOL     OW26971   5.144   2.187   0.323
 8691SOL    HW126972   5.138   2.228   0.413
 8691SOL    HW226973   5.098   2.245   0.256
 8692SOL     OW26974   2.175   1.652   4.072
 8692SOL    HW126975   2.106   1.585   4.043
 8692SOL    HW226976   2.134   1.716   4.136
 8693SOL     OW26977   5.304   2.130   0.714
 8693SOL    HW126978   5.302   2.033   0.737
 8693SOL    HW226979   5.386   2.172   0.755
 8694SOL     OW26980   4.967   6.991   6.072
 8694SOL    HW126981   4.989   0.057   6.112
 8694SOL    HW226982   5.014   6.981   5.984
 8695SOL     OW26983   4.608   4.622   5.640
 8695SOL    HW126984   4.537   4.563   5.678
 8695SOL    HW226985   4.697   4.579   5.651
 8696SOL     OW26986   2.334   5.414   1.752
 8696SOL    HW126987   2.307   5.318   1.765
 8696SOL    HW226988   2.405   5.418   1.681
 8697SOL     OW26989   6.071   4.093   0.947
 8697SOL    HW126990   6.136   4.108   0.872
 8697SOL    HW226991   6.111   4.124   1.033
 8698SOL     OW26992   5.246   5.713   4.508
 8698SOL    HW126993   5.272   5.642   4.573
 8698SOL    HW226994   5.278   5.802   4.541
 8699SOL     OW26995   1.384   1.898   5.073
 8699SOL    HW126996   1.285   1.886   5.063
 8699SOL    HW226997   1.406   1.918   5.168
 8700SOL     OW26998   2.851   1.216   5.846
 8700SOL    HW126999   2.858   1.275   5.926
 8700SOL    HW227000   2.925   1.149   5.848
 8701SOL     OW27001   0.532   1.822   5.269
 8701SOL    HW127002   0.605   1.891   5.262
 8701SOL    HW227003   0.511   1.787   5.178
 8702SOL     OW27004   5.199   6.156   0.065
 8702SOL    HW127005   5.177   6.064   0.098
 8702SOL    HW227006   5.278   6.191   0.116
 8703SOL     OW27007   2.320   5.795   1.008
 8703SOL    HW127008   2.345   5.815   0.913
 8703SOL    HW227009   2.396   5.747   1.052
 8704SOL     OW27010   0.112   4.464   1.779
 8704SOL    HW127011   0.100   4.469   1.878
 8704SOL    HW227012   0.163   4.544   1.748
 8705SOL     OW27013   5.190   0.664   5.999
 8705SOL    HW127014   5.185   0.659   6.099
 8705SOL    HW227015   5.126   0.734   5.966
 8706SOL     OW27016   5.386   1.461   0.170
 8706SOL    HW127017   5.385   1.384   0.106
 8706SOL    HW227018   5.376   1.547   0.119
 8707SOL     OW27019   5.135   2.401   5.821
 8707SOL    HW127020   5.103   2.307   5.807
 8707SOL    HW227021   5.228   2.410   5.785
 8708SOL     OW27022   3.794   1.307   1.548
 8708SOL    HW127023   3.743   1.391   1.532
 8708SOL    HW227024   3.885   1.314   1.508
 8709SOL     OW27025   0.002   3.997   0.825
 8709SOL    HW127026   0.035   3.903   0.828
 8709SOL    HW227027   0.059   4.053   0.886
 8710SOL     OW27028   1.837   3.214   3.548
 8710SOL    HW127029   1.871   3.191   3.457
 8710SOL    HW227030   1.777   3.293   3.542
 8711SOL     OW27031   6.597   0.825   3.635
 8711SOL    HW127032   6.630   0.821   3.729
 8711SOL    HW227033   6.581   0.921   3.609
 8712SOL     OW27034   3.330   1.798   5.157
 8712SOL    HW127035   3.392   1.720   5.152
 8712SOL    HW227036   3.235   1.766   5.158
 8713SOL     OW27037   0.375   4.708   3.626
 8713SOL    HW127038   0.328   4.627   3.662
 8713SOL    HW227039   0.392   4.696   3.528
 8714SOL     OW27040   1.535   1.452   5.316
 8714SOL    HW127041   1.598   1.451   5.393
 8714SOL    HW227042   1.447   1.416   5.345
 8715SOL     OW27043   6.167   1.743   1.437
 8715SOL    HW127044   6.163   1.811   1.364
 8715SOL    HW227045   6.118   1.778   1.517
 8716SOL     OW27046   1.155   1.932   0.973
 8716SOL    HW127047   1.202   1.924   0.885
 8716SOL    HW227048   1.109   2.021   0.978
 8717SOL     OW27049   3.808   3.693   1.377
 8717SOL    HW127050   3.789   3.718   1.282
 8717SOL    HW227051   3.904   3.665   1.385
 8718SOL     OW27052   6.018   3.115   5.425
 8718SOL    HW127053   6.001   3.043   5.492
 8718SOL    HW227054   5.944   3.182   5.429
 8719SOL     OW27055   0.191   0.287   5.950
 8719SOL    HW127056   0.144   0.212   5.904
 8719SOL    HW227057   0.208   0.263   6.045
 8720SOL     OW27058   4.968   3.821   5.704
 8720SOL    HW127059   5.065   3.824   5.729
 8720SOL    HW227060   4.927   3.911   5.718
 8721SOL     OW27061   6.975   2.508   4.089
 8721SOL    HW127062   7.020   2.423   4.059
 8721SOL    HW227063   6.880   2.508   4.058
 8722SOL     OW27064   4.047   2.370   0.308
 8722SOL    HW127065   4.040   2.468   0.291
 8722SOL    HW227066   3.973   2.322   0.260
 8723SOL     OW27067   6.722   5.049   1.410
 8723SOL    HW127068   6.786   5.123   1.387
 8723SOL    HW227069   6.767   4.961   1.398
 8724SOL     OW27070   5.136   0.593   6.254
 8724SOL    HW127071   5.177   0.573   6.343
 8724SOL    HW227072   5.037   0.578   6.259
 8725SOL     OW27073   2.843   5.745   0.496
 8725SOL    HW127074   2.743   5.743   0.502
 8725SOL    HW227075   2.879   5.651   0.502
 8726SOL     OW27076   6.113   0.267   1.376
 8726SOL    HW127077   6.147   0.179   1.345
 8726SOL    HW227078   6.160   0.340   1.327
 8727SOL     OW27079   6.481   5.806   1.282
 8727SOL    HW127080   6.577   5.797   1.310
 8727SOL    HW227081   6.445   5.892   1.317
 8728SOL     OW27082   2.826   6.971   5.366
 8728SOL    HW127083   2.884   0.029   5.355
 8728SOL    HW227084   2.731   7.000   5.379
 8729SOL     OW27085   5.477   5.880   4.007
 8729SOL    HW127086   5.564   5.923   4.030
 8729SOL    HW227087   5.403   5.946   4.020
 8730SOL     OW27088   0.465   5.750   1.995
 8730SOL    HW127089   0.466   5.783   1.900
 8730SOL    HW227090   0.381   5.699   2.012
 8731SOL     OW27091   1.337   1.206   2.553
 8731SOL    HW127092   1.248   1.251   2.545
 8731SOL    HW227093   1.409   1.276   2.554
 8732SOL     OW27094   5.542   3.796   1.540
 8732SOL    HW127095   5.535   3.755   1.449
 8732SOL    HW227096   5.457   3.782   1.589
 8733SOL     OW27097   1.146   6.605   1.444
 8733SOL    HW127098   1.076   6.565   1.386
 8733SOL    HW227099   1.232   6.556   1.432
 8734SOL     OW27100   6.653   5.495   1.275
 8734SOL    HW127101   6.752   5.505   1.273
 8734SOL    HW227102   6.619   5.505   1.368
 8735SOL     OW27103   7.013   1.771   6.882
 8735SOL    HW127104   0.086   1.770   6.914
 8735SOL    HW227105   7.010   1.749   6.785
 8736SOL     OW27106   0.552   4.588   6.498
 8736SOL    HW127107   0.645   4.608   6.467
 8736SOL    HW227108   0.556   4.530   6.580
 8737SOL     OW27109   4.200   5.778   6.156
 8737SOL    HW127110   4.202   5.694   6.102
 8737SOL    HW227111   4.285   5.829   6.140
 8738SOL     OW27112   0.901   3.856   4.355
 8738SOL    HW127113   0.965   3.787   4.388
 8738SOL    HW227114   0.886   3.925   4.425
 8739SOL     OW27115   0.190   3.117   5.095
 8739SOL    HW127116   0.150   3.027   5.110
 8739SOL    HW227117   0.131   3.187   5.136
 8740SOL     OW27118   1.980   6.300   0.960
 8740SOL    HW127119   2.078   6.321   0.962
 8740SOL    HW227120   1.930   6.379   0.925
 8741SOL     OW27121   1.273   3.654   2.658
 8741SOL    HW127122   1.371   3.675   2.652
 8741SOL    HW227123   1.235   3.698   2.739
 8742SOL     OW27124   4.578   0.069   1.907
 8742SOL    HW127125   4.483   0.096   1.889
 8742SOL    HW227126   4.607   0.107   1.994
 8743SOL     OW27127   2.515   4.998   2.542
 8743SOL    HW127128   2.429   4.987   2.593
 8743SOL    HW227129   2.567   5.073   2.583
 8744SOL     OW27130   3.837   1.961   5.943
 8744SOL    HW127131   3.749   1.979   5.986
 8744SOL    HW227132   3.908   2.014   5.990
 8745SOL     OW27133   6.892   2.347   6.319
 8745SOL    HW127134   6.979   2.368   6.273
 8745SOL    HW227135   6.881   2.248   6.324
 8746SOL     OW27136   5.206   4.697   5.685
 8746SOL    HW127137   5.291   4.657   5.720
 8746SOL    HW227138   5.168   4.637   5.615
 8747SOL     OW27139   1.888   2.428   4.115
 8747SOL    HW127140   1.865   2.464   4.024
 8747SOL    HW227141   1.872   2.499   4.183
 8748SOL     OW27142   1.824   6.732   6.717
 8748SOL    HW127143   1.782   6.664   6.777
 8748SOL    HW227144   1.850   6.812   6.770
 8749SOL     OW27145   3.676   0.436   3.438
 8749SOL    HW127146   3.739   0.405   3.366
 8749SOL    HW227147   3.611   0.363   3.459
 8750SOL     OW27148   2.169   1.615   4.816
 8750SOL    HW127149   2.205   1.614   4.910
 8750SOL    HW227150   2.088   1.556   4.810
 8751SOL     OW27151   1.496   6.682   2.869
 8751SOL    HW127152   1.547   6.767   2.854
 8751SOL    HW227153   1.429   6.697   2.942
 8752SOL     OW27154   1.792   2.305   6.131
 8752SOL    HW127155   1.813   2.311   6.229
 8752SOL    HW227156   1.693   2.307   6.118
 8753SOL     OW27157   5.158   1.710   4.557
 8753SOL    HW127158   5.152   1.790   4.497
 8753SOL    HW227159   5.109   1.728   4.642
 8754SOL     OW27160   1.643   1.696   5.475
 8754SOL    HW127161   1.656   1.705   5.377
 8754SOL    HW227162   1.553   1.657   5.494
 8755SOL     OW27163   1.701   1.921   1.045
 8755SOL    HW127164   1.798   1.946   1.055
 8755SOL    HW227165   1.659   1.913   1.135
 8756SOL     OW27166   2.144   3.307   4.203
 8756SOL    HW127167   2.159   3.218   4.247
 8756SOL    HW227168   2.106   3.371   4.270
 8757SOL     OW27169   4.869   5.988   5.139
 8757SOL    HW127170   4.855   6.012   5.235
 8757SOL    HW227171   4.797   5.926   5.110
 8758SOL     OW27172   6.241   6.259   1.290
 8758SOL    HW127173   6.167   6.308   1.335
 8758SOL    HW227174   6.222   6.253   1.191
 8759SOL     OW27175   5.178   0.718   5.700
 8759SOL    HW127176   5.269   0.719   5.740
 8759SOL    HW227177   5.130   0.635   5.727
 8760SOL     OW27178   1.662   2.229   4.172
 8760SOL    HW127179   1.719   2.307   4.196
 8760SOL    HW227180   1.701   2.181   4.094
 8761SOL     OW27181   4.627   6.736   0.120
 8761SOL    HW127182   4.587   6.789   0.046
 8761SOL    HW227183   4.644   6.795   0.198
 8762SOL     OW27184   0.735   4.087   0.674
 8762SOL    HW127185   0.734   4.057   0.769
 8762SOL    HW227186   0.823   4.132   0.655
 8763SOL     OW27187   0.249   6.302   6.346
 8763SOL    HW127188   0.162   6.277   6.303
 8763SOL    HW227189   0.238   6.301   6.445
 8764SOL     OW27190   3.981   1.727   4.749
 8764SOL    HW127191   4.006   1.779   4.831
 8764SOL    HW227192   3.882   1.732   4.735
 8765SOL     OW27193   6.411   0.386   4.339
 8765SOL    HW127194   6.483   0.433   4.389
 8765SOL    HW227195   6.422   0.287   4.349
 8766SOL     OW27196   2.089   4.695   2.427
 8766SOL    HW127197   1.994   4.695   2.457
 8766SOL    HW227198   2.147   4.663   2.502
 8767SOL     OW27199   4.250   1.229   4.002
 8767SOL    HW127200   4.311   1.165   3.955
 8767SOL    HW227201   4.264   1.321   3.965
 8768SOL     OW27202   1.319   3.357   7.011
 8768SOL    HW127203   1.384   3.369   0.064
 8768SOL    HW227204   1.366   3.315   6.933
 8769SOL     OW27205   1.503   0.146   5.514
 8769SOL    HW127206   1.560   0.196   5.448
 8769SOL    HW227207   1.413   0.189   5.519
 8770SOL     OW27208   5.234   2.669   1.782
 8770SOL    HW127209   5.301   2.613   1.830
 8770SOL    HW227210   5.152   2.680   1.839
 8771SOL     OW27211   1.248   1.522   6.510
 8771SOL    HW127212   1.225   1.434   6.468
 8771SOL    HW227213   1.191   1.536   6.591
 8772SOL     OW27214   5.085   1.125   6.961
 8772SOL    HW127215   5.093   1.090   6.868
 8772SOL    HW227216   5.075   1.048   0.002
 8773SOL     OW27217   2.619   2.342   3.200
 8773SOL    HW127218   2.688   2.296   3.145
 8773SOL    HW227219   2.548   2.276   3.226
 8774SOL     OW27220   1.191   1.001   0.522
 8774SOL    HW127221   1.174   0.949   0.606
 8774SOL    HW227222   1.121   1.071   0.511
 8775SOL     OW27223   6.898   0.103   3.700
 8775SOL    HW127224   6.983   0.133   3.656
 8775SOL    HW227225   6.847   0.045   3.636
 8776SOL     OW27226   3.349   3.220   4.912
 8776SOL    HW127227   3.336   3.189   4.818
 8776SOL    HW227228   3.281   3.178   4.971
 8777SOL     OW27229   6.663   6.193   1.408
 8777SOL    HW127230   6.624   6.285   1.411
 8777SOL    HW227231   6.716   6.177   1.491
 8778SOL     OW27232   0.202   2.244   3.227
 8778SOL    HW127233   0.166   2.152   3.244
 8778SOL    HW227234   0.291   2.237   3.183
 8779SOL     OW27235   1.345   4.609   0.392
 8779SOL    HW127236   1.296   4.589   0.307
 8779SOL    HW227237   1.441   4.585   0.381
 8780SOL     OW27238   1.240   5.897   4.579
 8780SOL    HW127239   1.227   5.855   4.489
 8780SOL    HW227240   1.320   5.957   4.576
 8781SOL     OW27241   0.447   1.823   2.247
 8781SOL    HW127242   0.351   1.802   2.228
 8781SOL    HW227243   0.467   1.917   2.217
 8782SOL     OW27244   4.117   1.510   3.073
 8782SOL    HW127245   4.114   1.500   3.172
 8782SOL    HW227246   4.033   1.474   3.033
 8783SOL     OW27247   5.604   3.551   4.996
 8783SOL    HW127248   5.608   3.452   4.985
 8783SOL    HW227249   5.526   3.587   4.945
 8784SOL     OW27250   5.407   4.678   5.280
 8784SOL    HW127251   5.394   4.597   5.337
 8784SOL    HW227252   5.401   4.760   5.336
 8785SOL     OW27253   6.039   4.522   6.211
 8785SOL    HW127254   6.123   4.534   6.159
 8785SOL    HW227255   6.034   4.592   6.282
 8786SOL     OW27256   1.991   6.705   0.153
 8786SOL    HW127257   1.902   6.675   0.117
 8786SOL    HW227258   1.981   6.794   0.196
 8787SOL     OW27259   1.132   3.860   0.958
 8787SOL    HW127260   1.201   3.928   0.933
 8787SOL    HW227261   1.042   3.903   0.960
 8788SOL     OW27262   1.133   1.856   5.053
 8788SOL    HW127263   1.058   1.813   5.105
 8788SOL    HW227264   1.098   1.885   4.964
 8789SOL     OW27265   0.109   6.586   6.553
 8789SOL    HW127266   0.149   6.585   6.461
 8789SOL    HW227267   0.181   6.605   6.620
 8790SOL     OW27268   5.731   1.533   0.021
 8790SOL    HW127269   5.797   1.546   6.969
 8790SOL    HW227270   5.701   1.622   0.055
 8791SOL     OW27271   5.057   6.827   5.589
 8791SOL    HW127272   5.008   6.830   5.502
 8791SOL    HW227273   5.126   6.755   5.586
 8792SOL     OW27274   5.192   0.125   3.182
 8792SOL    HW127275   5.122   0.195   3.198
 8792SOL    HW227276   5.173   0.078   3.096
 8793SOL     OW27277   0.805   5.708   4.288
 8793SOL    HW127278   0.738   5.690   4.216
 8793SOL    HW227279   0.795   5.641   4.361
 8794SOL     OW27280   2.026   6.628   2.425
 8794SOL    HW127281   2.018   6.563   2.501
 8794SOL    HW227282   1.936   6.644   2.384
 8795SOL     OW27283   1.943   6.092   5.701
 8795SOL    HW127284   1.958   5.993   5.696
 8795SOL    HW227285   2.029   6.139   5.719
 8796SOL     OW27286   5.453   2.487   5.108
 8796SOL    HW127287   5.372   2.543   5.124
 8796SOL    HW227288   5.436   2.423   5.032
 8797SOL     OW27289   0.439   6.535   6.531
 8797SOL    HW127290   0.534   6.513   6.551
 8797SOL    HW227291   0.399   6.586   6.607
 8798SOL     OW27292   4.616   3.710   5.403
 8798SOL    HW127293   4.690   3.672   5.458
 8798SOL    HW227294   4.611   3.661   5.316
 8799SOL     OW27295   3.414   5.418   2.854
 8799SOL    HW127296   3.331   5.442   2.903
 8799SOL    HW227297   3.438   5.323   2.873
 8800SOL     OW27298   4.572   5.005   6.693
 8800SOL    HW127299   4.523   5.020   6.608
 8800SOL    HW227300   4.517   4.947   6.754
 8801SOL     OW27301   2.629   0.617   5.031
 8801SOL    HW127302   2.626   0.716   5.045
 8801SOL    HW227303   2.579   0.593   4.948
 8802SOL     OW27304   2.598   6.625   2.344
 8802SOL    HW127305   2.587   6.575   2.430
 8802SOL    HW227306   2.518   6.682   2.328
 8803SOL     OW27307   4.223   6.168   0.629
 8803SOL    HW127308   4.245   6.090   0.570
 8803SOL    HW227309   4.156   6.140   0.698
 8804SOL     OW27310   4.727   0.473   1.139
 8804SOL    HW127311   4.789   0.489   1.062
 8804SOL    HW227312   4.657   0.543   1.141
 8805SOL     OW27313   0.768   0.295   2.983
 8805SOL    HW127314   0.707   0.276   3.059
 8805SOL    HW227315   0.749   0.385   2.946
 8806SOL     OW27316   1.908   4.885   6.978
 8806SOL    HW127317   1.896   4.807   0.016
 8806SOL    HW227318   1.850   4.874   6.897
 8807SOL     OW27319   1.170   6.163   6.417
 8807SOL    HW127320   1.197   6.102   6.342
 8807SOL    HW227321   1.094   6.121   6.467
 8808SOL     OW27322   6.300   1.049   0.915
 8808SOL    HW127323   6.384   1.059   0.968
 8808SOL    HW227324   6.324   1.033   0.819
 8809SOL     OW27325   5.879   3.805   1.269
 8809SOL    HW127326   5.865   3.831   1.365
 8809SOL    HW227327   5.973   3.824   1.243
 8810SOL     OW27328   4.435   1.952   4.056
 8810SOL    HW127329   4.353   1.904   4.027
 8810SOL    HW227330   4.441   1.951   4.156
 8811SOL     OW27331   0.958   1.067   2.875
 8811SOL    HW127332   1.011   1.050   2.793
 8811SOL    HW227333   0.866   1.097   2.850
 8812SOL     OW27334   2.500   0.595   0.966
 8812SOL    HW127335   2.480   0.627   1.059
 8812SOL    HW227336   2.592   0.556   0.963
 8813SOL     OW27337   1.910   5.658   1.533
 8813SOL    HW127338   1.946   5.737   1.483
 8813SOL    HW227339   1.814   5.673   1.555
 8814SOL     OW27340   5.999   1.009   6.330
 8814SOL    HW127341   6.002   0.970   6.422
 8814SOL    HW227342   6.074   1.073   6.318
 8815SOL     OW27343   0.681   5.631   2.509
 8815SOL    HW127344   0.630   5.704   2.463
 8815SOL    HW227345   0.700   5.657   2.603
 8816SOL     OW27346   0.899   5.728   1.232
 8816SOL    HW127347   0.978   5.766   1.184
 8816SOL    HW227348   0.828   5.703   1.166
 8817SOL     OW27349   1.915   5.121   5.569
 8817SOL    HW127350   1.891   5.153   5.477
 8817SOL    HW227351   1.964   5.194   5.617
 8818SOL     OW27352   0.363   5.418   4.053
 8818SOL    HW127353   0.346   5.510   4.089
 8818SOL    HW227354   0.277   5.367   4.050
 8819SOL     OW27355   4.734   6.608   4.239
 8819SOL    HW127356   4.645   6.653   4.237
 8819SOL    HW227357   4.803   6.670   4.200
 8820SOL     OW27358   1.298   2.774   3.558
 8820SOL    HW127359   1.382   2.725   3.586
 8820SOL    HW227360   1.323   2.853   3.502
 8821SOL     OW27361   2.003   0.989   5.997
 8821SOL    HW127362   2.068   0.926   6.037
 8821SOL    HW227363   2.014   0.991   5.897
 8822SOL     OW27364   6.826   2.563   2.988
 8822SOL    HW127365   6.870   2.650   2.968
 8822SOL    HW227366   6.895   2.496   3.014
 8823SOL     OW27367   2.082   6.075   1.851
 8823SOL    HW127368   1.985   6.101   1.849
 8823SOL    HW227369   2.121   6.098   1.940
 8824SOL     OW27370   3.673   4.067   0.746
 8824SOL    HW127371   3.577   4.094   0.732
 8824SOL    HW227372   3.709   4.030   0.660
 8825SOL     OW27373   0.990   1.234   1.415
 8825SOL    HW127374   0.995   1.147   1.367
 8825SOL    HW227375   1.082   1.273   1.423
 8826SOL     OW27376   5.056   1.456   6.689
 8826SOL    HW127377   5.137   1.504   6.722
 8826SOL    HW227378   5.014   1.407   6.765
 8827SOL     OW27379   1.286   1.844   3.614
 8827SOL    HW127380   1.300   1.939   3.641
 8827SOL    HW227381   1.276   1.839   3.515
 8828SOL     OW27382   2.593   6.735   2.737
 8828SOL    HW127383   2.525   6.763   2.805
 8828SOL    HW227384   2.683   6.730   2.781
 8829SOL     OW27385   0.106   2.054   0.556
 8829SOL    HW127386   0.022   2.010   0.523
 8829SOL    HW227387   0.100   2.068   0.654
 8830SOL     OW27388   0.741   2.637   1.141
 8830SOL    HW127389   0.654   2.624   1.094
 8830SOL    HW227390   0.815   2.644   1.074
 8831SOL     OW27391   6.517   0.795   2.762
 8831SOL    HW127392   6.418   0.797   2.756
 8831SOL    HW227393   6.546   0.802   2.857
 8832SOL     OW27394   6.740   1.017   2.694
 8832SOL    HW127395   6.698   1.061   2.614
 8832SOL    HW227396   6.716   1.069   2.776
 8833SOL     OW27397   2.246   4.611   4.064
 8833SOL    HW127398   2.156   4.587   4.100
 8833SOL    HW227399   2.303   4.529   4.061
 8834SOL     OW27400   5.915   3.961   4.934
 8834SOL    HW127401   5.840   4.016   4.899
 8834SOL    HW227402   5.929   3.881   4.876
 8835SOL     OW27403   6.889   6.549   6.760
 8835SOL    HW127404   6.985   6.524   6.762
 8835SOL    HW227405   6.880   6.649   6.764
 8836SOL     OW27406   4.993   1.676   0.721
 8836SOL    HW127407   5.028   1.767   0.698
 8836SOL    HW227408   4.933   1.644   0.647
 8837SOL     OW27409   0.291   0.895   1.821
 8837SOL    HW127410   0.385   0.892   1.855
 8837SOL    HW227411   0.256   0.988   1.828
 8838SOL     OW27412   2.660   5.657   4.113
 8838SOL    HW127413   2.646   5.577   4.172
 8838SOL    HW227414   2.576   5.676   4.062
 8839SOL     OW27415   6.381   6.739   3.818
 8839SOL    HW127416   6.435   6.659   3.791
 8839SOL    HW227417   6.333   6.718   3.904
 8840SOL     OW27418   5.180   2.010   2.303
 8840SOL    HW127419   5.252   1.956   2.346
 8840SOL    HW227420   5.178   2.101   2.345
 8841SOL     OW27421   1.695   1.028   4.640
 8841SOL    HW127422   1.768   1.094   4.622
 8841SOL    HW227423   1.672   0.980   4.555
 8842SOL     OW27424   2.256   2.842   1.960
 8842SOL    HW127425   2.298   2.914   1.904
 8842SOL    HW227426   2.319   2.765   1.969
 8843SOL     OW27427   0.219   3.121   4.673
 8843SOL    HW127428   0.196   3.027   4.650
 8843SOL    HW227429   0.277   3.122   4.754
 8844SOL     OW27430   6.709   1.654   6.788
 8844SOL    HW127431   6.619   1.666   6.830
 8844SOL    HW227432   6.770   1.607   6.851
 8845SOL     OW27433   5.431   4.359   7.007
 8845SOL    HW127434   5.432   4.415   6.924
 8845SOL    HW227435   5.338   4.324   7.022
 8846SOL     OW27436   1.828   4.758   3.879
 8846SOL    HW127437   1.744   4.802   3.910
 8846SOL    HW227438   1.806   4.690   3.810
 8847SOL     OW27439   2.825   0.477   3.040
 8847SOL    HW127440   2.829   0.554   2.977
 8847SOL    HW227441   2.844   0.508   3.133
 8848SOL     OW27442   1.783   0.663   3.088
 8848SOL    HW127443   1.784   0.574   3.041
 8848SOL    HW227444   1.702   0.714   3.060
 8849SOL     OW27445   2.990   6.926   1.043
 8849SOL    HW127446   2.990   6.831   1.075
 8849SOL    HW227447   3.071   6.973   1.079
 8850SOL     OW27448   3.860   2.907   0.036
 8850SOL    HW127449   3.802   2.934   6.982
 8850SOL    HW227450   3.884   2.988   0.090
 8851SOL     OW27451   1.350   3.678   3.086
 8851SOL    HW127452   1.423   3.612   3.072
 8851SOL    HW227453   1.261   3.632   3.075
 8852SOL     OW27454   0.856   1.618   5.977
 8852SOL    HW127455   0.849   1.519   5.992
 8852SOL    HW227456   0.943   1.639   5.932
 8853SOL     OW27457   4.903   1.132   0.735
 8853SOL    HW127458   4.876   1.108   0.828
 8853SOL    HW227459   4.993   1.175   0.736
 8854SOL     OW27460   0.586   2.427   4.565
 8854SOL    HW127461   0.638   2.501   4.607
 8854SOL    HW227462   0.644   2.346   4.557
 8855SOL     OW27463   5.548   5.086   0.911
 8855SOL    HW127464   5.482   5.024   0.954
 8855SOL    HW227465   5.636   5.077   0.957
 8856SOL     OW27466   0.075   6.649   5.534
 8856SOL    HW127467   0.024   6.572   5.496
 8856SOL    HW227468   0.164   6.617   5.566
 8857SOL     OW27469   6.463   1.635   6.166
 8857SOL    HW127470   6.463   1.733   6.150
 8857SOL    HW227471   6.378   1.595   6.132
 8858SOL     OW27472   5.873   6.157   4.500
 8858SOL    HW127473   5.826   6.121   4.581
 8858SOL    HW227474   5.955   6.207   4.530
 8859SOL     OW27475   0.987   6.921   3.773
 8859SOL    HW127476   1.027   7.011   3.795
 8859SOL    HW227477   0.972   6.870   3.858
 8860SOL     OW27478   0.414   4.035   2.660
 8860SOL    HW127479   0.409   4.059   2.757
 8860SOL    HW227480   0.392   4.116   2.605
 8861SOL     OW27481   4.436   2.692   0.902
 8861SOL    HW127482   4.496   2.740   0.837
 8861SOL    HW227483   4.371   2.758   0.940
 8862SOL     OW27484   4.820   4.571   4.776
 8862SOL    HW127485   4.887   4.645   4.786
 8862SOL    HW227486   4.792   4.539   4.866
 8863SOL     OW27487   2.198   3.959   3.513
 8863SOL    HW127488   2.101   3.967   3.493
 8863SOL    HW227489   2.212   3.957   3.612
 8864SOL     OW27490   6.236   1.643   5.267
 8864SOL    HW127491   6.309   1.711   5.267
 8864SOL    HW227492   6.167   1.668   5.199
 8865SOL     OW27493   2.698   1.560   0.267
 8865SOL    HW127494   2.696   1.512   0.179
 8865SOL    HW227495   2.693   1.493   0.341
 8866SOL     OW27496   5.737   6.488   1.967
 8866SOL    HW127497   5.825   6.453   1.998
 8866SOL    HW227498   5.703   6.555   2.033
 8867SOL     OW27499   6.252   4.186   2.665
 8867SOL    HW127500   6.154   4.172   2.677
 8867SOL    HW227501   6.301   4.101   2.683
 8868SOL     OW27502   6.807   3.223   3.544
 8868SOL    HW127503   6.727   3.173   3.509
 8868SOL    HW227504   6.862   3.161   3.600
 8869SOL     OW27505   3.660   6.707   3.417
 8869SOL    HW127506   3.634   6.792   3.464
 8869SOL    HW227507   3.684   6.638   3.485
 8870SOL     OW27508   1.214   0.585   2.999
 8870SOL    HW127509   1.209   0.648   3.077
 8870SOL    HW227510   1.145   0.611   2.931
 8871SOL     OW27511   6.848   0.471   2.817
 8871SOL    HW127512   6.798   0.536   2.759
 8871SOL    HW227513   6.925   0.518   2.859
 8872SOL     OW27514   6.338   4.826   3.941
 8872SOL    HW127515   6.318   4.862   4.032
 8872SOL    HW227516   6.419   4.767   3.945
 8873SOL     OW27517   1.978   1.645   2.705
 8873SOL    HW127518   2.057   1.601   2.661
 8873SOL    HW227519   1.922   1.575   2.749
 8874SOL     OW27520   3.320   6.396   1.028
 8874SOL    HW127521   3.276   6.313   0.994
 8874SOL    HW227522   3.419   6.388   1.020
 8875SOL     OW27523   6.596   3.382   3.888
 8875SOL    HW127524   6.555   3.319   3.822
 8875SOL    HW227525   6.657   3.446   3.840
 8876SOL     OW27526   4.122   0.464   6.338
 8876SOL    HW127527   4.218   0.489   6.352
 8876SOL    HW227528   4.113   0.405   6.258
 8877SOL     OW27529   1.275   3.930   1.218
 8877SOL    HW127530   1.240   3.855   1.275
 8877SOL    HW227531   1.299   3.894   1.128
 8878SOL     OW27532   4.700   3.651   1.088
 8878SOL    HW127533   4.798   3.659   1.069
 8878SOL    HW227534   4.673   3.555   1.086
 8879SOL     OW27535   6.572   4.924   2.931
 8879SOL    HW127536   6.556   5.014   2.892
 8879SOL    HW227537   6.636   4.873   2.873
 8880SOL     OW27538   4.057   1.059   3.847
 8880SOL    HW127539   4.134   1.117   3.873
 8880SOL    HW227540   4.090   0.982   3.793
 8881SOL     OW27541   4.279   4.893   4.497
 8881SOL    HW127542   4.371   4.912   4.462
 8881SOL    HW227543   4.279   4.806   4.547
 8882SOL     OW27544   4.350   0.398   0.640
 8882SOL    HW127545   4.386   0.376   0.731
 8882SOL    HW227546   4.278   0.467   0.648
 8883SOL     OW27547   6.636   6.078   5.008
 8883SOL    HW127548   6.662   5.982   5.016
 8883SOL    HW227549   6.714   6.131   4.977
 8884SOL     OW27550   5.276   3.345   5.144
 8884SOL    HW127551   5.206   3.340   5.214
 8884SOL    HW227552   5.235   3.370   5.056
 8885SOL     OW27553   5.757   5.989   0.873
 8885SOL    HW127554   5.817   5.998   0.794
 8885SOL    HW227555   5.772   6.065   0.935
 8886SOL     OW27556   4.555   6.293   6.332
 8886SOL    HW127557   4.471   6.241   6.324
 8886SOL    HW227558   4.622   6.242   6.385
 8887SOL     OW27559   4.729   0.875   1.938
 8887SOL    HW127560   4.821   0.883   1.975
 8887SOL    HW227561   4.678   0.807   1.990
 8888SOL     OW27562   2.664   2.017   2.654
 8888SOL    HW127563   2.727   1.984   2.725
 8888SOL    HW227564   2.638   2.111   2.673
 8889SOL     OW27565   0.989   5.815   6.292
 8889SOL    HW127566   0.958   5.750   6.222
 8889SOL    HW227567   1.052   5.770   6.354
 8890SOL     OW27568   0.755   6.457   0.177
 8890SOL    HW127569   0.693   6.410   0.241
 8890SOL    HW227570   0.784   6.393   0.105
 8891SOL     OW27571   6.367   3.989   6.539
 8891SOL    HW127572   6.422   4.030   6.466
 8891SOL    HW227573   6.402   4.022   6.627
 8892SOL     OW27574   3.244   5.464   4.516
 8892SOL    HW127575   3.318   5.521   4.479
 8892SOL    HW227576   3.182   5.439   4.442
 8893SOL     OW27577   0.952   5.231   5.055
 8893SOL    HW127578   0.868   5.281   5.034
 8893SOL    HW227579   1.005   5.282   5.123
 8894SOL     OW27580   4.972   1.995   0.883
 8894SOL    HW127581   4.980   2.016   0.786
 8894SOL    HW227582   5.036   2.053   0.934
 8895SOL     OW27583   0.085   3.617   0.358
 8895SOL    HW127584   0.165   3.635   0.415
 8895SOL    HW227585   0.067   3.695   0.298
 8896SOL     OW27586   0.344   2.373   4.483
 8896SOL    HW127587   0.442   2.387   4.502
 8896SOL    HW227588   0.291   2.394   4.565
 8897SOL     OW27589   1.673   4.092   4.477
 8897SOL    HW127590   1.708   4.059   4.389
 8897SOL    HW227591   1.716   4.179   4.499
 8898SOL     OW27592   4.459   4.622   2.852
 8898SOL    HW127593   4.370   4.623   2.806
 8898SOL    HW227594   4.490   4.715   2.869
 8899SOL     OW27595   0.992   3.430   4.629
 8899SOL    HW127596   0.896   3.404   4.641
 8899SOL    HW227597   1.046   3.396   4.706
 8900SOL     OW27598   4.980   2.302   3.796
 8900SOL    HW127599   4.956   2.206   3.788
 8900SOL    HW227600   5.080   2.311   3.803
 8901SOL     OW27601   1.293   3.771   4.563
 8901SOL    HW127602   1.322   3.692   4.509
 8901SOL    HW227603   1.374   3.822   4.593
 8902SOL     OW27604   0.265   4.412   0.311
 8902SOL    HW127605   0.226   4.500   0.338
 8902SOL    HW227606   0.283   4.357   0.393
 8903SOL     OW27607   1.071   6.333   5.416
 8903SOL    HW127608   1.079   6.416   5.361
 8903SOL    HW227609   0.975   6.304   5.418
 8904SOL     OW27610   0.307   0.813   3.378
 8904SOL    HW127611   0.366   0.811   3.459
 8904SOL    HW227612   0.360   0.843   3.299
 8905SOL     OW27613   1.091   3.974   2.628
 8905SOL    HW127614   1.101   3.888   2.678
 8905SOL    HW227615   1.095   3.957   2.530
 8906SOL     OW27616   6.276   7.019   0.141
 8906SOL    HW127617   6.210   7.002   0.067
 8906SOL    HW227618   6.318   6.933   0.168
 8907SOL     OW27619   2.730   3.497   5.246
 8907SOL    HW127620   2.745   3.584   5.199
 8907SOL    HW227621   2.769   3.423   5.193
 8908SOL     OW27622   1.431   5.201   7.015
 8908SOL    HW127623   1.447   5.118   0.045
 8908SOL    HW227624   1.344   5.241   0.019
 8909SOL     OW27625   2.097   6.713   0.957
 8909SOL    HW127626   2.018   6.759   0.917
 8909SOL    HW227627   2.146   6.662   0.886
 8910SOL     OW27628   1.920   0.401   3.469
 8910SOL    HW127629   2.014   0.382   3.440
 8910SOL    HW227630   1.859   0.400   3.389
 8911SOL     OW27631   4.211   2.253   3.903
 8911SOL    HW127632   4.288   2.263   3.840
 8911SOL    HW227633   4.237   2.289   3.993
 8912SOL     OW27634   3.635   3.717   4.213
 8912SOL    HW127635   3.652   3.739   4.117
 8912SOL    HW227636   3.657   3.621   4.230
 8913SOL     OW27637   5.373   6.814   6.636
 8913SOL    HW127638   5.284   6.796   6.677
 8913SOL    HW227639   5.370   6.791   6.539
 8914SOL     OW27640   4.607   5.111   6.165
 8914SOL    HW127641   4.664   5.035   6.197
 8914SOL    HW227642   4.660   5.166   6.100
 8915SOL     OW27643   1.346   1.316   3.325
 8915SOL    HW127644   1.391   1.301   3.413
 8915SOL    HW227645   1.380   1.250   3.258
 8916SOL     OW27646   4.622   1.476   0.922
 8916SOL    HW127647   4.599   1.378   0.924
 8916SOL    HW227648   4.722   1.486   0.925
 8917SOL     OW27649   6.228   1.835   0.809
 8917SOL    HW127650   6.326   1.844   0.791
 8917SOL    HW227651   6.185   1.925   0.811
 8918SOL     OW27652   0.855   3.709   2.853
 8918SOL    HW127653   0.781   3.672   2.910
 8918SOL    HW227654   0.880   3.641   2.784
 8919SOL     OW27655   6.328   3.606   1.683
 8919SOL    HW127656   6.354   3.684   1.741
 8919SOL    HW227657   6.408   3.548   1.669
 8920SOL     OW27658   6.600   1.411   0.318
 8920SOL    HW127659   6.520   1.463   0.348
 8920SOL    HW227660   6.608   1.417   0.219
 8921SOL     OW27661   2.070   2.739   2.333
 8921SOL    HW127662   2.016   2.771   2.411
 8921SOL    HW227663   2.140   2.676   2.366
 8922SOL     OW27664   4.041   6.606   4.341
 8922SOL    HW127665   3.941   6.599   4.340
 8922SOL    HW227666   4.072   6.622   4.434
 8923SOL     OW27667   2.063   1.821   4.247
 8923SOL    HW127668   1.981   1.875   4.268
 8923SOL    HW227669   2.080   1.757   4.321
 8924SOL     OW27670   6.026   5.289   5.072
 8924SOL    HW127671   5.941   5.278   5.020
 8924SOL    HW227672   6.097   5.324   5.011
 8925SOL     OW27673   1.097   6.141   2.795
 8925SOL    HW127674   1.115   6.055   2.843
 8925SOL    HW227675   1.076   6.212   2.862
 8926SOL     OW27676   5.325   2.123   6.396
 8926SOL    HW127677   5.385   2.172   6.459
 8926SOL    HW227678   5.275   2.053   6.446
 8927SOL     OW27679   1.337   1.240   5.568
 8927SOL    HW127680   1.254   1.283   5.534
 8927SOL    HW227681   1.364   1.166   5.507
 8928SOL     OW27682   1.273   6.167   5.302
 8928SOL    HW127683   1.295   6.243   5.241
 8928SOL    HW227684   1.201   6.196   5.366
 8929SOL     OW27685   0.119   2.586   4.528
 8929SOL    HW127686   0.195   2.546   4.579
 8929SOL    HW227687   0.034   2.540   4.553
 8930SOL     OW27688   2.379   4.431   3.764
 8930SOL    HW127689   2.413   4.407   3.674
 8930SOL    HW227690   2.279   4.426   3.765
 8931SOL     OW27691   3.928   2.583   0.877
 8931SOL    HW127692   3.919   2.681   0.891
 8931SOL    HW227693   3.978   2.543   0.954
 8932SOL     OW27694   0.460   3.448   3.338
 8932SOL    HW127695   0.395   3.400   3.397
 8932SOL    HW227696   0.539   3.477   3.392
 8933SOL     OW27697   3.594   2.085   5.026
 8933SOL    HW127698   3.686   2.102   5.060
 8933SOL    HW227699   3.600   2.036   4.938
 8934SOL     OW27700   3.842   5.768   3.456
 8934SOL    HW127701   3.823   5.813   3.369
 8934SOL    HW227702   3.879   5.835   3.521
 8935SOL     OW27703   0.180   4.171   1.023
 8935SOL    HW127704   0.224   4.165   0.934
 8935SOL    HW227705   0.212   4.253   1.071
 8936SOL     OW27706   2.504   2.025   0.887
 8936SOL    HW127707   2.521   1.991   0.795
 8936SOL    HW227708   2.417   1.989   0.920
 8937SOL     OW27709   0.197   5.700   5.525
 8937SOL    HW127710   0.213   5.784   5.473
 8937SOL    HW227711   0.202   5.621   5.465
 8938SOL     OW27712   5.288   5.335   1.280
 8938SOL    HW127713   5.263   5.244   1.315
 8938SOL    HW227714   5.375   5.327   1.229
 8939SOL     OW27715   4.973   2.513   4.744
 8939SOL    HW127716   4.911   2.528   4.668
 8939SOL    HW227717   4.999   2.601   4.784
 8940SOL     OW27718   5.934   0.903   2.811
 8940SOL    HW127719   5.896   0.812   2.794
 8940SOL    HW227720   5.980   0.904   2.900
 8941SOL     OW27721   4.899   2.112   6.162
 8941SOL    HW127722   4.904   2.137   6.065
 8941SOL    HW227723   4.838   2.034   6.173
 8942SOL     OW27724   0.535   2.481   5.815
 8942SOL    HW127725   0.586   2.446   5.736
 8942SOL    HW227726   0.568   2.573   5.837
 8943SOL     OW27727   4.790   3.983   0.741
 8943SOL    HW127728   4.858   4.009   0.673
 8943SOL    HW227729   4.794   4.046   0.819
 8944SOL     OW27730   4.405   5.710   0.948
 8944SOL    HW127731   4.413   5.646   1.024
 8944SOL    HW227732   4.319   5.695   0.900
 8945SOL     OW27733   2.212   1.035   4.150
 8945SOL    HW127734   2.221   1.131   4.176
 8945SOL    HW227735   2.149   1.027   4.072
 8946SOL     OW27736   3.468   1.809   4.400
 8946SOL    HW127737   3.434   1.853   4.317
 8946SOL    HW227738   3.465   1.874   4.476
 8947SOL     OW27739   4.330   4.067   5.351
 8947SOL    HW127740   4.254   4.025   5.300
 8947SOL    HW227741   4.294   4.138   5.411
 8948SOL     OW27742   6.249   5.283   3.036
 8948SOL    HW127743   6.245   5.379   3.060
 8948SOL    HW227744   6.263   5.228   3.118
 8949SOL     OW27745   2.084   6.292   0.350
 8949SOL    HW127746   2.128   6.208   0.382
 8949SOL    HW227747   2.140   6.334   0.279
 8950SOL     OW27748   4.802   2.905   4.775
 8950SOL    HW127749   4.811   2.852   4.691
 8950SOL    HW227750   4.867   2.872   4.843
 8951SOL     OW27751   1.886   2.529   5.375
 8951SOL    HW127752   1.815   2.542   5.444
 8951SOL    HW227753   1.959   2.471   5.412
 8952SOL     OW27754   6.692   0.629   2.652
 8952SOL    HW127755   6.698   0.651   2.555
 8952SOL    HW227756   6.618   0.681   2.693
 8953SOL     OW27757   1.225   3.618   6.895
 8953SOL    HW127758   1.238   3.535   6.949
 8953SOL    HW227759   1.282   3.691   6.932
 8954SOL     OW27760   1.953   5.811   6.010
 8954SOL    HW127761   2.020   5.742   6.036
 8954SOL    HW227762   1.861   5.775   6.026
 8955SOL     OW27763   6.511   3.723   3.361
 8955SOL    HW127764   6.427   3.709   3.413
 8955SOL    HW227765   6.496   3.697   3.265
 8956SOL     OW27766   1.324   0.918   6.011
 8956SOL    HW127767   1.318   0.880   6.103
 8956SOL    HW227768   1.253   0.988   5.999
 8957SOL     OW27769   3.289   4.924   2.105
 8957SOL    HW127770   3.210   4.878   2.065
 8957SOL    HW227771   3.372   4.871   2.087
 8958SOL     OW27772   2.049   6.939   4.716
 8958SOL    HW127773   1.989   7.015   4.690
 8958SOL    HW227774   2.040   6.865   4.650
 8959SOL     OW27775   2.079   4.498   0.645
 8959SOL    HW127776   1.987   4.510   0.682
 8959SOL    HW227777   2.093   4.402   0.622
 8960SOL     OW27778   3.836   5.864   1.278
 8960SOL    HW127779   3.790   5.899   1.196
 8960SOL    HW227780   3.886   5.939   1.322
 8961SOL     OW27781   0.827   1.944   3.505
 8961SOL    HW127782   0.904   1.924   3.444
 8961SOL    HW227783   0.742   1.920   3.459
 8962SOL     OW27784   5.679   0.315   3.389
 8962SOL    HW127785   5.693   0.290   3.293
 8962SOL    HW227786   5.763   0.301   3.440
 8963SOL     OW27787   5.990   1.208   4.362
 8963SOL    HW127788   5.908   1.174   4.315
 8963SOL    HW227789   5.985   1.183   4.459
 8964SOL     OW27790   5.609   5.248   2.898
 8964SOL    HW127791   5.622   5.330   2.843
 8964SOL    HW227792   5.511   5.224   2.900
 8965SOL     OW27793   1.655   5.121   1.805
 8965SOL    HW127794   1.621   5.208   1.770
 8965SOL    HW227795   1.636   5.115   1.903
 8966SOL     OW27796   2.423   2.737   5.499
 8966SOL    HW127797   2.389   2.821   5.542
 8966SOL    HW227798   2.505   2.707   5.548
 8967SOL     OW27799   3.970   0.509   0.360
 8967SOL    HW127800   3.959   0.443   0.285
 8967SOL    HW227801   4.065   0.509   0.391
 8968SOL     OW27802   4.797   5.474   1.795
 8968SOL    HW127803   4.763   5.514   1.710
 8968SOL    HW227804   4.881   5.422   1.777
 8969SOL     OW27805   6.554   0.932   4.497
 8969SOL    HW127806   6.651   0.917   4.516
 8969SOL    HW227807   6.503   0.846   4.507
 8970SOL     OW27808   3.709   2.284   1.593
 8970SOL    HW127809   3.643   2.229   1.542
 8970SOL    HW227810   3.680   2.289   1.689
 8971SOL     OW27811   4.164   5.663   2.398
 8971SOL    HW127812   4.174   5.762   2.396
 8971SOL    HW227813   4.076   5.639   2.438
 8972SOL     OW27814   5.837   0.295   4.799
 8972SOL    HW127815   5.864   0.381   4.843
 8972SOL    HW227816   5.754   0.310   4.745
 8973SOL     OW27817   1.754   5.563   0.056
 8973SOL    HW127818   1.830   5.573   7.014
 8973SOL    HW227819   1.679   5.513   0.012
 8974SOL     OW27820   0.778   3.030   4.638
 8974SOL    HW127821   0.750   3.060   4.547
 8974SOL    HW227822   0.699   2.993   4.687
 8975SOL     OW27823   2.987   6.872   0.228
 8975SOL    HW127824   2.908   6.855   0.286
 8975SOL    HW227825   2.965   6.849   0.134
 8976SOL     OW27826   0.557   5.621   4.188
 8976SOL    HW127827   0.604   5.535   4.169
 8976SOL    HW227828   0.532   5.665   4.101
 8977SOL     OW27829   5.939   1.623   6.166
 8977SOL    HW127830   5.918   1.697   6.230
 8977SOL    HW227831   5.911   1.650   6.074
 8978SOL     OW27832   5.790   6.439   0.720
 8978SOL    HW127833   5.708   6.381   0.719
 8978SOL    HW227834   5.871   6.382   0.708
 8979SOL     OW27835   1.916   4.096   4.776
 8979SOL    HW127836   1.886   4.041   4.697
 8979SOL    HW227837   2.015   4.091   4.784
 8980SOL     OW27838   3.739   2.942   4.324
 8980SOL    HW127839   3.667   2.895   4.273
 8980SOL    HW227840   3.714   2.943   4.421
 8981SOL     OW27841   3.528   1.831   4.929
 8981SOL    HW127842   3.522   1.737   4.962
 8981SOL    HW227843   3.444   1.880   4.952
 8982SOL     OW27844   2.887   4.385   0.797
 8982SOL    HW127845   2.838   4.464   0.833
 8982SOL    HW227846   2.859   4.368   0.702
 8983SOL     OW27847   4.530   5.276   0.246
 8983SOL    HW127848   4.560   5.245   0.156
 8983SOL    HW227849   4.439   5.240   0.265
 8984SOL     OW27850   1.625   5.763   3.145
 8984SOL    HW127851   1.690   5.733   3.215
 8984SOL    HW227852   1.616   5.862   3.149
 8985SOL     OW27853   3.568   3.145   6.400
 8985SOL    HW127854   3.496   3.087   6.437
 8985SOL    HW227855   3.657   3.108   6.424
 8986SOL     OW27856   3.751   5.800   2.723
 8986SOL    HW127857   3.838   5.770   2.761
 8986SOL    HW227858   3.687   5.723   2.723
 8987SOL     OW27859   5.280   6.308   2.095
 8987SOL    HW127860   5.253   6.248   2.171
 8987SOL    HW227861   5.261   6.403   2.120
 8988SOL     OW27862   0.451   5.145   4.795
 8988SOL    HW127863   0.544   5.157   4.759
 8988SOL    HW227864   0.447   5.180   4.889
 8989SOL     OW27865   3.384   2.953   6.507
 8989SOL    HW127866   3.418   2.877   6.451
 8989SOL    HW227867   3.333   2.917   6.585
 8990SOL     OW27868   0.315   5.888   3.723
 8990SOL    HW127869   0.273   5.800   3.745
 8990SOL    HW227870   0.263   5.933   3.650
 8991SOL     OW27871   1.139   2.180   5.125
 8991SOL    HW127872   1.185   2.265   5.151
 8991SOL    HW227873   1.190   2.135   5.052
 8992SOL     OW27874   6.167   1.960   6.346
 8992SOL    HW127875   6.233   2.029   6.375
 8992SOL    HW227876   6.076   1.986   6.378
 8993SOL     OW27877   4.620   2.593   6.659
 8993SOL    HW127878   4.597   2.617   6.753
 8993SOL    HW227879   4.674   2.668   6.619
 8994SOL     OW27880   1.611   5.176   4.164
 8994SOL    HW127881   1.704   5.155   4.193
 8994SOL    HW227882   1.547   5.137   4.231
 8995SOL     OW27883   6.968   1.680   1.247
 8995SOL    HW127884   0.007   1.640   1.180
 8995SOL    HW227885   6.956   1.777   1.227
 8996SOL     OW27886   5.018   4.983   5.990
 8996SOL    HW127887   5.036   4.887   5.967
 8996SOL    HW227888   5.100   5.037   5.972
 8997SOL     OW27889   5.150   1.319   4.765
 8997SOL    HW127890   5.239   1.344   4.803
 8997SOL    HW227891   5.148   1.342   4.667
 8998SOL     OW27892   6.735   3.603   4.250
 8998SOL    HW127893   6.812   3.663   4.226
 8998SOL    HW227894   6.738   3.584   4.348
 8999SOL     OW27895   4.425   6.656   5.730
 8999SOL    HW127896   4.355   6.667   5.800
 8999SOL    HW227897   4.513   6.636   5.773
 9000SOL     OW27898   1.963   3.684   1.705
 9000SOL    HW127899   1.872   3.725   1.709
 9000SOL    HW227900   2.011   3.701   1.791
 9001SOL     OW27901   0.574   4.933   2.335
 9001SOL    HW127902   0.546   4.953   2.429
 9001SOL    HW227903   0.498   4.889   2.287
 9002SOL     OW27904   1.097   4.498   6.909
 9002SOL    HW127905   1.018   4.488   6.848
 9002SOL    HW227906   1.132   4.407   6.934
 9003SOL     OW27907   5.370   0.749   1.000
 9003SOL    HW127908   5.416   0.776   0.915
 9003SOL    HW227909   5.420   0.674   1.043
 9004SOL     OW27910   4.134   4.764   0.362
 9004SOL    HW127911   4.121   4.674   0.319
 9004SOL    HW227912   4.139   4.753   0.461
 9005SOL     OW27913   5.537   1.260   5.429
 9005SOL    HW127914   5.514   1.268   5.332
 9005SOL    HW227915   5.458   1.224   5.479
 9006SOL     OW27916   3.372   6.169   0.660
 9006SOL    HW127917   3.399   6.265   0.664
 9006SOL    HW227918   3.371   6.138   0.565
 9007SOL     OW27919   2.865   1.116   3.247
 9007SOL    HW127920   2.822   1.075   3.166
 9007SOL    HW227921   2.855   1.216   3.244
 9008SOL     OW27922   6.805   5.862   2.721
 9008SOL    HW127923   6.723   5.840   2.774
 9008SOL    HW227924   6.879   5.800   2.746
 9009SOL     OW27925   4.183   5.657   0.801
 9009SOL    HW127926   4.199   5.561   0.825
 9009SOL    HW227927   4.142   5.662   0.710
 9010SOL     OW27928   1.570   6.805   4.220
 9010SOL    HW127929   1.666   6.777   4.221
 9010SOL    HW227930   1.541   6.827   4.314
 9011SOL     OW27931   3.955   1.305   2.142
 9011SOL    HW127932   4.000   1.341   2.061
 9011SOL    HW227933   4.008   1.327   2.224
 9012SOL     OW27934   2.068   5.871   6.810
 9012SOL    HW127935   2.035   5.777   6.820
 9012SOL    HW227936   2.000   5.934   6.848
 9013SOL     OW27937   1.464   6.601   4.085
 9013SOL    HW127938   1.495   6.681   4.136
 9013SOL    HW227939   1.382   6.625   4.033
 9014SOL     OW27940   5.567   2.803   3.231
 9014SOL    HW127941   5.601   2.773   3.142
 9014SOL    HW227942   5.534   2.724   3.282
 9015SOL     OW27943   5.372   2.014   0.346
 9015SOL    HW127944   5.281   2.050   0.364
 9015SOL    HW227945   5.371   1.962   0.260
 9016SOL     OW27946   5.510   5.582   5.844
 9016SOL    HW127947   5.552   5.517   5.782
 9016SOL    HW227948   5.499   5.670   5.798
 9017SOL     OW27949   3.252   0.793   4.817
 9017SOL    HW127950   3.277   0.880   4.860
 9017SOL    HW227951   3.201   0.811   4.733
 9018SOL     OW27952   4.258   3.632   6.175
 9018SOL    HW127953   4.222   3.619   6.083
 9018SOL    HW227954   4.205   3.577   6.240
 9019SOL     OW27955   0.150   3.124   3.248
 9019SOL    HW127956   0.105   3.054   3.304
 9019SOL    HW227957   0.083   3.164   3.185
 9020SOL     OW27958   5.626   6.103   1.798
 9020SOL    HW127959   5.718   6.078   1.830
 9020SOL    HW227960   5.591   6.178   1.854
 9021SOL     OW27961   6.950   0.980   3.964
 9021SOL    HW127962   6.933   1.059   4.024
 9021SOL    HW227963   0.005   0.928   3.999
 9022SOL     OW27964   4.275   2.876   6.088
 9022SOL    HW127965   4.373   2.864   6.075
 9022SOL    HW227966   4.258   2.958   6.143
 9023SOL     OW27967   5.129   3.786   0.842
 9023SOL    HW127968   5.213   3.740   0.869
 9023SOL    HW227969   5.124   3.790   0.742
 9024SOL     OW27970   1.778   5.176   6.414
 9024SOL    HW127971   1.840   5.100   6.395
 9024SOL    HW227972   1.690   5.139   6.445
 9025SOL     OW27973   0.814   5.439   0.899
 9025SOL    HW127974   0.896   5.383   0.900
 9025SOL    HW227975   0.783   5.452   0.805
 9026SOL     OW27976   4.144   1.595   0.176
 9026SOL    HW127977   4.153   1.612   0.274
 9026SOL    HW227978   4.116   1.678   0.130
 9027SOL     OW27979   6.940   3.865   3.373
 9027SOL    HW127980   6.960   3.864   3.275
 9027SOL    HW227981   6.873   3.794   3.394
 9028SOL     OW27982   3.414   4.260   5.664
 9028SOL    HW127983   3.487   4.194   5.650
 9028SOL    HW227984   3.343   4.246   5.595
 9029SOL     OW27985   4.240   6.955   4.995
 9029SOL    HW127986   4.185   0.008   4.959
 9029SOL    HW227987   4.301   6.921   4.923
 9030SOL     OW27988   2.460   1.714   3.377
 9030SOL    HW127989   2.462   1.784   3.305
 9030SOL    HW227990   2.448   1.624   3.336
 9031SOL     OW27991   4.574   0.504   4.567
 9031SOL    HW127992   4.505   0.573   4.541
 9031SOL    HW227993   4.550   0.417   4.525
 9032SOL     OW27994   4.729   3.957   1.530
 9032SOL    HW127995   4.676   4.009   1.463
 9032SOL    HW227996   4.698   3.862   1.530
 9033SOL     OW27997   1.559   6.041   3.149
 9033SOL    HW127998   1.593   6.128   3.113
 9033SOL    HW227999   1.467   6.053   3.184
 9034SOL     OW28000   3.636   6.346   4.431
 9034SOL    HW128001   3.669   6.337   4.337
 9034SOL    HW228002   3.560   6.412   4.434
 9035SOL     OW28003   1.256   5.040   0.357
 9035SOL    HW128004   1.228   5.130   0.390
 9035SOL    HW228005   1.186   5.005   0.294
 9036SOL     OW28006   1.292   3.473   6.194
 9036SOL    HW128007   1.287   3.535   6.272
 9036SOL    HW228008   1.361   3.402   6.213
 9037SOL     OW28009   0.654   2.228   2.897
 9037SOL    HW128010   0.582   2.223   2.828
 9037SOL    HW228011   0.716   2.304   2.876
 9038SOL     OW28012   4.180   3.103   5.779
 9038SOL    HW128013   4.278   3.126   5.777
 9038SOL    HW228014   4.127   3.179   5.743
 9039SOL     OW28015   3.633   5.295   0.390
 9039SOL    HW128016   3.583   5.208   0.393
 9039SOL    HW228017   3.571   5.368   0.361
 9040SOL     OW28018   2.338   1.957   1.091
 9040SOL    HW128019   2.414   1.971   1.155
 9040SOL    HW228020   2.252   1.980   1.135
 9041SOL     OW28021   0.038   2.140   1.277
 9041SOL    HW128022   0.025   2.098   1.367
 9041SOL    HW228023   0.051   2.239   1.287
 9042SOL     OW28024   4.139   5.830   6.423
 9042SOL    HW128025   4.144   5.809   6.325
 9042SOL    HW228026   4.108   5.925   6.434
 9043SOL     OW28027   3.140   1.637   0.179
 9043SOL    HW128028   3.074   1.570   0.214
 9043SOL    HW228029   3.186   1.681   0.256
 9044SOL     OW28030   0.870   0.661   6.504
 9044SOL    HW128031   0.922   0.746   6.490
 9044SOL    HW228032   0.774   0.678   6.484
 9045SOL     OW28033   3.695   0.785   2.919
 9045SOL    HW128034   3.678   0.825   2.829
 9045SOL    HW228035   3.780   0.823   2.956
 9046SOL     OW28036   3.190   4.082   3.025
 9046SOL    HW128037   3.126   4.157   3.041
 9046SOL    HW228038   3.164   4.034   2.941
 9047SOL     OW28039   1.070   3.979   6.261
 9047SOL    HW128040   1.034   4.002   6.171
 9047SOL    HW228041   1.102   3.884   6.261
 9048SOL     OW28042   6.165   1.798   5.839
 9048SOL    HW128043   6.227   1.750   5.778
 9048SOL    HW228044   6.208   1.884   5.869
 9049SOL     OW28045   3.323   6.543   6.609
 9049SOL    HW128046   3.339   6.480   6.532
 9049SOL    HW228047   3.372   6.509   6.689
 9050SOL     OW28048   0.525   4.728   0.808
 9050SOL    HW128049   0.603   4.700   0.865
 9050SOL    HW228050   0.523   4.828   0.801
 9051SOL     OW28051   2.424   1.704   1.034
 9051SOL    HW128052   2.381   1.633   0.979
 9051SOL    HW228053   2.368   1.787   1.033
 9052SOL     OW28054   1.477   2.929   4.917
 9052SOL    HW128055   1.550   2.990   4.889
 9052SOL    HW228056   1.508   2.870   4.992
 9053SOL     OW28057   1.614   1.285   0.637
 9053SOL    HW128058   1.515   1.276   0.631
 9053SOL    HW228059   1.655   1.194   0.638
 9054SOL     OW28060   2.489   5.633   3.510
 9054SOL    HW128061   2.389   5.642   3.503
 9054SOL    HW228062   2.522   5.686   3.588
 9055SOL     OW28063   0.365   3.747   4.750
 9055SOL    HW128064   0.375   3.773   4.654
 9055SOL    HW228065   0.340   3.650   4.757
 9056SOL     OW28066   6.482   1.977   2.545
 9056SOL    HW128067   6.489   1.931   2.456
 9056SOL    HW228068   6.387   1.976   2.575
 9057SOL     OW28069   4.654   2.332   4.192
 9057SOL    HW128070   4.627   2.397   4.122
 9057SOL    HW228071   4.739   2.361   4.234
 9058SOL     OW28072   1.725   0.913   6.063
 9058SOL    HW128073   1.820   0.943   6.053
 9058SOL    HW228074   1.670   0.950   5.988
 9059SOL     OW28075   1.225   2.055   2.925
 9059SOL    HW128076   1.142   2.033   2.874
 9059SOL    HW228077   1.303   2.006   2.885
 9060SOL     OW28078   5.276   2.614   4.875
 9060SOL    HW128079   5.211   2.678   4.834
 9060SOL    HW228080   5.229   2.557   4.943
 9061SOL     OW28081   4.338   5.621   2.588
 9061SOL    HW128082   4.274   5.635   2.512
 9061SOL    HW228083   4.330   5.528   2.622
 9062SOL     OW28084   1.998   5.779   0.714
 9062SOL    HW128085   2.040   5.724   0.786
 9062SOL    HW228086   1.983   5.722   0.633
 9063SOL     OW28087   3.249   1.523   2.042
 9063SOL    HW128088   3.174   1.589   2.045
 9063SOL    HW228089   3.213   1.431   2.057
 9064SOL     OW28090   5.988   3.309   6.847
 9064SOL    HW128091   6.015   3.358   6.930
 9064SOL    HW228092   5.922   3.237   6.872
 9065SOL     OW28093   2.346   0.967   0.318
 9065SOL    HW128094   2.369   0.930   0.408
 9065SOL    HW228095   2.431   0.981   0.266
 9066SOL     OW28096   4.920   6.675   0.344
 9066SOL    HW128097   4.913   6.606   0.417
 9066SOL    HW228098   4.829   6.696   0.310
 9067SOL     OW28099   2.145   6.337   3.182
 9067SOL    HW128100   2.068   6.278   3.205
 9067SOL    HW228101   2.124   6.388   3.098
 9068SOL     OW28102   2.006   5.994   6.555
 9068SOL    HW128103   2.064   5.962   6.630
 9068SOL    HW228104   1.937   6.057   6.591
 9069SOL     OW28105   1.568   2.288   6.658
 9069SOL    HW128106   1.484   2.239   6.636
 9069SOL    HW228107   1.590   2.351   6.583
 9070SOL     OW28108   1.414   4.273   3.876
 9070SOL    HW128109   1.470   4.356   3.882
 9070SOL    HW228110   1.360   4.276   3.792
 9071SOL     OW28111   5.624   6.795   6.815
 9071SOL    HW128112   5.562   6.831   6.885
 9071SOL    HW228113   5.576   6.794   6.727
 9072SOL     OW28114   5.708   4.767   6.632
 9072SOL    HW128115   5.690   4.744   6.537
 9072SOL    HW228116   5.701   4.684   6.688
 9073SOL     OW28117   1.923   0.758   1.806
 9073SOL    HW128118   1.859   0.832   1.826
 9073SOL    HW228119   1.911   0.728   1.712
 9074SOL     OW28120   1.001   6.261   3.030
 9074SOL    HW128121   0.922   6.208   3.062
 9074SOL    HW228122   1.030   6.325   3.101
 9075SOL     OW28123   0.140   0.981   2.596
 9075SOL    HW128124   0.118   1.068   2.553
 9075SOL    HW228125   0.057   0.939   2.633
 9076SOL     OW28126   6.385   1.231   5.428
 9076SOL    HW128127   6.323   1.188   5.363
 9076SOL    HW228128   6.439   1.161   5.475
 9077SOL     OW28129   5.885   6.142   1.883
 9077SOL    HW128130   5.928   6.051   1.883
 9077SOL    HW228131   5.921   6.195   1.807
 9078SOL     OW28132   3.313   3.079   4.681
 9078SOL    HW128133   3.364   3.028   4.612
 9078SOL    HW228134   3.224   3.105   4.644
 9079SOL     OW28135   3.462   0.588   6.127
 9079SOL    HW128136   3.437   0.491   6.118
 9079SOL    HW228137   3.427   0.639   6.048
 9080SOL     OW28138   4.946   2.059   0.640
 9080SOL    HW128139   4.979   1.997   0.568
 9080SOL    HW228140   4.852   2.086   0.619
 9081SOL     OW28141   5.554   7.004   2.305
 9081SOL    HW128142   5.593   7.017   2.214
 9081SOL    HW228143   5.578   0.059   2.363
 9082SOL     OW28144   3.128   1.500   3.816
 9082SOL    HW128145   3.042   1.450   3.821
 9082SOL    HW228146   3.129   1.556   3.734
 9083SOL     OW28147   4.359   4.656   4.607
 9083SOL    HW128148   4.416   4.574   4.608
 9083SOL    HW228149   4.381   4.713   4.687
 9084SOL     OW28150   3.490   3.506   3.025
 9084SOL    HW128151   3.535   3.500   2.935
 9084SOL    HW228152   3.480   3.603   3.051
 9085SOL     OW28153   0.918   2.123   0.505
 9085SOL    HW128154   0.897   2.080   0.417
 9085SOL    HW228155   0.917   2.054   0.577
 9086SOL     OW28156   0.086   3.724   0.804
 9086SOL    HW128157   0.085   3.657   0.878
 9086SOL    HW228158   0.180   3.746   0.780
 9087SOL     OW28159   4.547   4.021   1.299
 9087SOL    HW128160   4.455   4.041   1.333
 9087SOL    HW228161   4.548   4.023   1.200
 9088SOL     OW28162   5.387   6.715   0.513
 9088SOL    HW128163   5.412   6.618   0.511
 9088SOL    HW228164   5.306   6.730   0.456
 9089SOL     OW28165   4.568   0.720   5.567
 9089SOL    HW128166   4.624   0.770   5.633
 9089SOL    HW228167   4.540   0.632   5.606
 9090SOL     OW28168   6.356   1.471   4.355
 9090SOL    HW128169   6.377   1.378   4.384
 9090SOL    HW228170   6.410   1.494   4.274
 9091SOL     OW28171   2.881   3.060   6.996
 9091SOL    HW128172   2.851   3.139   0.026
 9091SOL    HW228173   2.806   3.027   6.938
 9092SOL     OW28174   0.029   2.698   6.308
 9092SOL    HW128175   7.010   2.788   6.294
 9092SOL    HW228176   0.099   2.683   6.238
 9093SOL     OW28177   1.597   5.929   5.772
 9093SOL    HW128178   1.515   5.896   5.726
 9093SOL    HW228179   1.666   5.857   5.773
 9094SOL     OW28180   0.569   3.738   2.059
 9094SOL    HW128181   0.622   3.658   2.028
 9094SOL    HW228182   0.512   3.771   1.985
 9095SOL     OW28183   6.477   6.017   5.234
 9095SOL    HW128184   6.546   6.058   5.173
 9095SOL    HW228185   6.424   6.090   5.277
 9096SOL     OW28186   6.639   5.773   2.936
 9096SOL    HW128187   6.574   5.697   2.946
 9096SOL    HW228188   6.601   5.855   2.979
 9097SOL     OW28189   1.506   1.972   6.101
 9097SOL    HW128190   1.603   1.995   6.094
 9097SOL    HW228191   1.477   1.975   6.196
 9098SOL     OW28192   1.728   3.773   4.161
 9098SOL    HW128193   1.698   3.726   4.078
 9098SOL    HW228194   1.816   3.736   4.190
 9099SOL     OW28195   2.970   2.692   6.860
 9099SOL    HW128196   2.912   2.634   6.802
 9099SOL    HW228197   2.922   2.715   6.944
 9100SOL     OW28198   1.245   4.552   3.287
 9100SOL    HW128199   1.274   4.502   3.369
 9100SOL    HW228200   1.325   4.583   3.237
 9101SOL     OW28201   1.037   2.439   1.285
 9101SOL    HW128202   1.068   2.483   1.201
 9101SOL    HW228203   0.940   2.418   1.278
 9102SOL     OW28204   4.548   6.656   2.901
 9102SOL    HW128205   4.603   6.587   2.854
 9102SOL    HW228206   4.581   6.666   2.995
 9103SOL     OW28207   6.528   0.766   0.839
 9103SOL    HW128208   6.575   0.849   0.808
 9103SOL    HW228209   6.586   0.687   0.823
 9104SOL     OW28210   5.930   2.094   6.401
 9104SOL    HW128211   5.979   2.177   6.372
 9104SOL    HW228212   5.863   2.118   6.472
 9105SOL     OW28213   1.589   0.991   5.814
 9105SOL    HW128214   1.644   0.953   5.740
 9105SOL    HW228215   1.502   0.942   5.819
 9106SOL     OW28216   1.345   4.122   0.488
 9106SOL    HW128217   1.433   4.155   0.456
 9106SOL    HW228218   1.319   4.170   0.572
 9107SOL     OW28219   2.352   1.386   0.501
 9107SOL    HW128220   2.260   1.403   0.464
 9107SOL    HW228221   2.403   1.472   0.503
 9108SOL     OW28222   5.743   5.431   6.235
 9108SOL    HW128223   5.718   5.335   6.229
 9108SOL    HW228224   5.684   5.485   6.174
 9109SOL     OW28225   5.102   3.632   2.325
 9109SOL    HW128226   5.108   3.553   2.264
 9109SOL    HW228227   5.006   3.653   2.344
 9110SOL     OW28228   1.791   6.310   4.262
 9110SOL    HW128229   1.828   6.218   4.270
 9110SOL    HW228230   1.825   6.366   4.338
 9111SOL     OW28231   4.527   2.467   6.165
 9111SOL    HW128232   4.437   2.510   6.162
 9111SOL    HW228233   4.590   2.524   6.218
 9112SOL     OW28234   1.327   5.333   1.680
 9112SOL    HW128235   1.421   5.365   1.691
 9112SOL    HW228236   1.295   5.294   1.766
 9113SOL     OW28237   5.717   1.258   4.048
 9113SOL    HW128238   5.728   1.357   4.055
 9113SOL    HW228239   5.643   1.227   4.108
 9114SOL     OW28240   1.487   6.128   5.443
 9114SOL    HW128241   1.493   6.041   5.492
 9114SOL    HW228242   1.397   6.136   5.400
 9115SOL     OW28243   5.156   4.595   4.216
 9115SOL    HW128244   5.073   4.646   4.241
 9115SOL    HW228245   5.158   4.509   4.267
 9116SOL     OW28246   1.403   0.182   3.169
 9116SOL    HW128247   1.461   0.262   3.188
 9116SOL    HW228248   1.448   0.099   3.203
 9117SOL     OW28249   2.742   6.406   0.268
 9117SOL    HW128250   2.770   6.499   0.245
 9117SOL    HW228251   2.694   6.407   0.356
 9118SOL     OW28252   6.193   4.261   2.160
 9118SOL    HW128253   6.216   4.273   2.256
 9118SOL    HW228254   6.149   4.344   2.126
 9119SOL     OW28255   3.419   0.092   0.126
 9119SOL    HW128256   3.341   0.108   0.065
 9119SOL    HW228257   3.389   0.102   0.221
 9120SOL     OW28258   6.016   3.760   4.776
 9120SOL    HW128259   6.107   3.801   4.789
 9120SOL    HW228260   6.019   3.664   4.804
 9121SOL     OW28261   3.104   0.729   5.085
 9121SOL    HW128262   3.168   0.711   5.011
 9121SOL    HW228263   3.010   0.729   5.049
 9122SOL     OW28264   1.451   3.622   2.118
 9122SOL    HW128265   1.358   3.651   2.095
 9122SOL    HW228266   1.516   3.669   2.058
 9123SOL     OW28267   0.069   6.357   4.098
 9123SOL    HW128268   0.046   6.449   4.130
 9123SOL    HW228269   0.165   6.355   4.070
 9124SOL     OW28270   2.755   5.403   0.910
 9124SOL    HW128271   2.694   5.403   0.831
 9124SOL    HW228272   2.719   5.341   0.980
 9125SOL     OW28273   5.034   6.518   1.327
 9125SOL    HW128274   4.945   6.474   1.319
 9125SOL    HW228275   5.106   6.449   1.316
 9126SOL     OW28276   4.044   4.532   0.925
 9126SOL    HW128277   4.037   4.546   1.024
 9126SOL    HW228278   3.961   4.566   0.881
 9127SOL     OW28279   6.725   4.703   4.644
 9127SOL    HW128280   6.745   4.686   4.548
 9127SOL    HW228281   6.701   4.799   4.657
 9128SOL     OW28282   5.448   4.277   5.709
 9128SOL    HW128283   5.408   4.273   5.801
 9128SOL    HW228284   5.531   4.223   5.706
 9129SOL     OW28285   1.007   2.849   0.924
 9129SOL    HW128286   0.913   2.819   0.908
 9129SOL    HW228287   1.026   2.931   0.871
 9130SOL     OW28288   3.026   3.744   4.975
 9130SOL    HW128289   3.015   3.774   4.880
 9130SOL    HW228290   3.021   3.645   4.979
 9131SOL     OW28291   4.635   2.468   0.326
 9131SOL    HW128292   4.550   2.417   0.316
 9131SOL    HW228293   4.711   2.413   0.291
 9132SOL     OW28294   0.711   3.967   3.702
 9132SOL    HW128295   0.727   3.898   3.772
 9132SOL    HW228296   0.694   3.922   3.614
 9133SOL     OW28297   5.770   0.542   0.833
 9133SOL    HW128298   5.771   0.455   0.883
 9133SOL    HW228299   5.824   0.532   0.749
 9134SOL     OW28300   4.673   4.912   0.887
 9134SOL    HW128301   4.744   4.935   0.954
 9134SOL    HW228302   4.608   4.988   0.881
 9135SOL     OW28303   6.226   6.581   2.309
 9135SOL    HW128304   6.214   6.648   2.236
 9135SOL    HW228305   6.148   6.518   2.310
 9136SOL     OW28306   6.303   4.186   6.999
 9136SOL    HW128307   6.273   4.129   0.052
 9136SOL    HW228308   6.224   4.228   6.954
 9137SOL     OW28309   5.113   6.162   5.557
 9137SOL    HW128310   5.070   6.078   5.525
 9137SOL    HW228311   5.107   6.167   5.657
 9138SOL     OW28312   2.531   3.727   0.192
 9138SOL    HW128313   2.604   3.658   0.192
 9138SOL    HW228314   2.522   3.765   0.284
 9139SOL     OW28315   6.428   6.974   0.470
 9139SOL    HW128316   6.512   6.922   0.483
 9139SOL    HW228317   6.380   6.983   0.557
 9140SOL     OW28318   1.975   3.570   3.580
 9140SOL    HW128319   1.920   3.605   3.656
 9140SOL    HW228320   1.926   3.585   3.494
 9141SOL     OW28321   6.933   5.169   5.129
 9141SOL    HW128322   6.880   5.208   5.204
 9141SOL    HW228323   6.881   5.095   5.085
 9142SOL     OW28324   1.349   4.446   4.564
 9142SOL    HW128325   1.257   4.482   4.547
 9142SOL    HW228326   1.348   4.347   4.551
 9143SOL     OW28327   6.535   4.178   2.287
 9143SOL    HW128328   6.512   4.149   2.195
 9143SOL    HW228329   6.462   4.235   2.324
 9144SOL     OW28330   2.924   4.682   5.624
 9144SOL    HW128331   2.996   4.615   5.608
 9144SOL    HW228332   2.859   4.680   5.549
 9145SOL     OW28333   1.677   5.767   6.037
 9145SOL    HW128334   1.661   5.685   5.983
 9145SOL    HW228335   1.592   5.819   6.045
 9146SOL     OW28336   5.665   3.056   3.291
 9146SOL    HW128337   5.647   2.959   3.274
 9146SOL    HW228338   5.761   3.076   3.271
 9147SOL     OW28339   4.275   0.314   5.162
 9147SOL    HW128340   4.290   0.410   5.185
 9147SOL    HW228341   4.351   0.280   5.107
 9148SOL     OW28342   5.613   5.869   1.535
 9148SOL    HW128343   5.544   5.824   1.592
 9148SOL    HW228344   5.595   5.968   1.533
 9149SOL     OW28345   7.014   4.045   1.160
 9149SOL    HW128346   7.013   3.991   1.244
 9149SOL    HW228347   0.086   4.056   1.129
 9150SOL     OW28348   2.485   3.086   0.207
 9150SOL    HW128349   2.523   3.120   0.121
 9150SOL    HW228350   2.512   3.146   0.282
 9151SOL     OW28351   1.643   3.200   3.990
 9151SOL    HW128352   1.674   3.132   4.057
 9151SOL    HW228353   1.719   3.225   3.930
 9152SOL     OW28354   1.697   4.127   2.734
 9152SOL    HW128355   1.694   4.218   2.691
 9152SOL    HW228356   1.605   4.098   2.759
 9153SOL     OW28357   0.724   3.393   6.470
 9153SOL    HW128358   0.702   3.359   6.561
 9153SOL    HW228359   0.795   3.335   6.430
 9154SOL     OW28360   5.791   5.227   3.105
 9154SOL    HW128361   5.728   5.252   3.031
 9154SOL    HW228362   5.746   5.162   3.166
 9155SOL     OW28363   1.458   6.155   2.575
 9155SOL    HW128364   1.532   6.128   2.636
 9155SOL    HW228365   1.391   6.209   2.627
 9156SOL     OW28366   6.529   3.831   6.152
 9156SOL    HW128367   6.559   3.797   6.063
 9156SOL    HW228368   6.429   3.840   6.152
 9157SOL     OW28369   1.841   4.466   5.869
 9157SOL    HW128370   1.933   4.504   5.884
 9157SOL    HW228371   1.776   4.540   5.857
 9158SOL     OW28372   6.706   3.880   4.593
 9158SOL    HW128373   6.763   3.942   4.539
 9158SOL    HW228374   6.680   3.925   4.679
 9159SOL     OW28375   1.994   1.440   3.995
 9159SOL    HW128376   1.934   1.377   4.044
 9159SOL    HW228377   1.958   1.456   3.903
 9160SOL     OW28378   1.373   3.942   0.770
 9160SOL    HW128379   1.322   4.023   0.800
 9160SOL    HW228380   1.329   3.904   0.688
 9161SOL     OW28381   6.284   4.307   2.420
 9161SOL    HW128382   6.268   4.254   2.503
 9161SOL    HW228383   6.363   4.368   2.435
 9162SOL     OW28384   4.245   2.322   1.889
 9162SOL    HW128385   4.147   2.311   1.872
 9162SOL    HW228386   4.271   2.269   1.969
 9163SOL     OW28387   2.412   2.170   3.556
 9163SOL    HW128388   2.336   2.200   3.614
 9163SOL    HW228389   2.460   2.095   3.601
 9164SOL     OW28390   2.565   6.356   6.476
 9164SOL    HW128391   2.491   6.289   6.483
 9164SOL    HW228392   2.576   6.383   6.380
 9165SOL     OW28393   5.649   1.885   5.719
 9165SOL    HW128394   5.727   1.934   5.757
 9165SOL    HW228395   5.565   1.937   5.736
 9166SOL     OW28396   5.122   6.590   1.972
 9166SOL    HW128397   5.216   6.588   1.939
 9166SOL    HW228398   5.108   6.670   2.031
 9167SOL     OW28399   1.701   1.257   4.372
 9167SOL    HW128400   1.688   1.328   4.303
 9167SOL    HW228401   1.791   1.216   4.361
 9168SOL     OW28402   6.293   5.910   5.022
 9168SOL    HW128403   6.320   5.956   5.107
 9168SOL    HW228404   6.329   5.961   4.944
 9169SOL     OW28405   6.865   6.044   1.563
 9169SOL    HW128406   6.900   5.967   1.510
 9169SOL    HW228407   6.937   6.080   1.622
 9170SOL     OW28408   1.175   1.075   5.843
 9170SOL    HW128409   1.220   1.160   5.816
 9170SOL    HW228410   1.082   1.074   5.805
 9171SOL     OW28411   4.044   5.477   6.368
 9171SOL    HW128412   4.026   5.446   6.274
 9171SOL    HW228413   4.136   5.449   6.395
 9172SOL     OW28414   4.781   1.678   4.973
 9172SOL    HW128415   4.713   1.731   4.921
 9172SOL    HW228416   4.833   1.621   4.909
 9173SOL     OW28417   5.429   3.750   5.300
 9173SOL    HW128418   5.516   3.796   5.318
 9173SOL    HW228419   5.447   3.655   5.275
 9174SOL     OW28420   6.942   5.220   1.604
 9174SOL    HW128421   6.904   5.210   1.512
 9174SOL    HW228422   6.929   5.314   1.634
 9175SOL     OW28423   2.443   6.872   0.662
 9175SOL    HW128424   2.417   6.829   0.576
 9175SOL    HW228425   2.432   6.971   0.655
 9176SOL     OW28426   1.563   1.788   2.405
 9176SOL    HW128427   1.643   1.832   2.446
 9176SOL    HW228428   1.577   1.689   2.402
 9177SOL     OW28429   0.532   5.622   3.456
 9177SOL    HW128430   0.603   5.669   3.403
 9177SOL    HW228431   0.450   5.610   3.399
 9178SOL     OW28432   1.340   4.465   1.628
 9178SOL    HW128433   1.420   4.479   1.686
 9178SOL    HW228434   1.364   4.403   1.553
 9179SOL     OW28435   3.430   5.590   4.372
 9179SOL    HW128436   3.417   5.648   4.453
 9179SOL    HW228437   3.404   5.641   4.290
 9180SOL     OW28438   0.381   1.064   5.755
 9180SOL    HW128439   0.412   1.089   5.663
 9180SOL    HW228440   0.283   1.043   5.751
 9181SOL     OW28441   2.438   2.636   3.525
 9181SOL    HW128442   2.488   2.709   3.479
 9181SOL    HW228443   2.348   2.626   3.484
 9182SOL     OW28444   0.634   1.789   2.511
 9182SOL    HW128445   0.589   1.745   2.589
 9182SOL    HW228446   0.567   1.802   2.438
 9183SOL     OW28447   1.976   1.810   6.221
 9183SOL    HW128448   1.900   1.755   6.254
 9183SOL    HW228449   2.053   1.750   6.197
 9184SOL     OW28450   3.789   3.279   0.949
 9184SOL    HW128451   3.820   3.374   0.959
 9184SOL    HW228452   3.726   3.257   1.023
 9185SOL     OW28453   1.559   0.773   6.636
 9185SOL    HW128454   1.599   0.833   6.705
 9185SOL    HW228455   1.531   0.687   6.678
 9186SOL     OW28456   4.812   0.573   6.215
 9186SOL    HW128457   4.758   0.491   6.235
 9186SOL    HW228458   4.821   0.583   6.116
 9187SOL     OW28459   5.884   2.462   0.884
 9187SOL    HW128460   5.820   2.513   0.941
 9187SOL    HW228461   5.853   2.464   0.789
 9188SOL     OW28462   1.521   0.086   1.450
 9188SOL    HW128463   1.502   0.183   1.434
 9188SOL    HW228464   1.594   0.055   1.389
 9189SOL     OW28465   3.917   1.118   6.013
 9189SOL    HW128466   3.984   1.072   6.071
 9189SOL    HW228467   3.887   1.056   5.940
 9190SOL     OW28468   4.835   1.339   5.027
 9190SOL    HW128469   4.794   1.263   4.976
 9190SOL    HW228470   4.775   1.363   5.104
 9191SOL     OW28471   5.641   0.037   1.704
 9191SOL    HW128472   5.666   0.133   1.716
 9191SOL    HW228473   5.719   7.001   1.724
 9192SOL     OW28474   5.018   3.455   4.195
 9192SOL    HW128475   5.081   3.516   4.245
 9192SOL    HW228476   4.993   3.378   4.253
 9193SOL     OW28477   3.802   3.022   3.164
 9193SOL    HW128478   3.834   2.947   3.106
 9193SOL    HW228479   3.840   3.011   3.256
 9194SOL     OW28480   4.221   5.383   2.696
 9194SOL    HW128481   4.190   5.291   2.673
 9194SOL    HW228482   4.153   5.427   2.755
 9195SOL     OW28483   0.464   2.755   2.853
 9195SOL    HW128484   0.411   2.671   2.841
 9195SOL    HW228485   0.450   2.815   2.774
 9196SOL     OW28486   4.952   6.747   4.140
 9196SOL    HW128487   4.907   6.818   4.085
 9196SOL    HW228488   4.991   6.789   4.222
 9197SOL     OW28489   4.278   2.002   6.051
 9197SOL    HW128490   4.260   2.012   6.148
 9197SOL    HW228491   4.352   1.937   6.037
 9198SOL     OW28492   6.129   2.341   5.216
 9198SOL    HW128493   6.213   2.375   5.259
 9198SOL    HW228494   6.110   2.249   5.250
 9199SOL     OW28495   1.979   2.926   6.325
 9199SOL    HW128496   1.954   2.865   6.399
 9199SOL    HW228497   1.997   3.018   6.361
 9200SOL     OW28498   5.561   5.799   0.851
 9200SOL    HW128499   5.626   5.874   0.857
 9200SOL    HW228500   5.574   5.738   0.930
 9201SOL     OW28501   1.050   4.190   2.133
 9201SOL    HW128502   0.984   4.262   2.154
 9201SOL    HW228503   1.139   4.215   2.173
 9202SOL     OW28504   2.839   5.841   4.001
 9202SOL    HW128505   2.780   5.905   3.953
 9202SOL    HW228506   2.785   5.785   4.064
 9203SOL     OW28507   4.611   0.512   6.521
 9203SOL    HW128508   4.546   0.462   6.579
 9203SOL    HW228509   4.702   0.473   6.531
 9204SOL     OW28510   5.286   4.680   2.546
 9204SOL    HW128511   5.237   4.628   2.476
 9204SOL    HW228512   5.221   4.736   2.597
 9205SOL     OW28513   4.864   2.924   1.770
 9205SOL    HW128514   4.928   2.865   1.819
 9205SOL    HW228515   4.823   2.989   1.834
 9206SOL     OW28516   0.142   5.837   3.472
 9206SOL    HW128517   0.166   5.914   3.413
 9206SOL    HW228518   0.211   5.765   3.463
 9207SOL     OW28519   4.214   6.335   6.520
 9207SOL    HW128520   4.308   6.301   6.529
 9207SOL    HW228521   4.214   6.421   6.468
 9208SOL     OW28522   4.616   4.331   1.692
 9208SOL    HW128523   4.531   4.308   1.740
 9208SOL    HW228524   4.686   4.263   1.714
 9209SOL     OW28525   3.737   0.037   2.852
 9209SOL    HW128526   3.745   0.134   2.831
 9209SOL    HW228527   3.822   0.005   2.895
 9210SOL     OW28528   1.312   6.392   0.711
 9210SOL    HW128529   1.229   6.447   0.703
 9210SOL    HW228530   1.332   6.349   0.623
 9211SOL     OW28531   4.777   1.366   6.190
 9211SOL    HW128532   4.855   1.344   6.248
 9211SOL    HW228533   4.795   1.452   6.141
 9212SOL     OW28534   5.633   3.912   5.368
 9212SOL    HW128535   5.709   3.954   5.318
 9212SOL    HW228536   5.611   3.967   5.448
 9213SOL     OW28537   6.656   6.780   2.005
 9213SOL    HW128538   6.585   6.849   2.021
 9213SOL    HW228539   6.703   6.760   2.091
 9214SOL     OW28540   2.053   2.393   5.541
 9214SOL    HW128541   2.024   2.455   5.613
 9214SOL    HW228542   2.150   2.408   5.521
 9215SOL     OW28543   0.194   2.856   3.083
 9215SOL    HW128544   0.261   2.785   3.063
 9215SOL    HW228545   0.242   2.942   3.101
 9216SOL     OW28546   2.317   5.921   3.790
 9216SOL    HW128547   2.318   5.947   3.886
 9216SOL    HW228548   2.408   5.934   3.751
 9217SOL     OW28549   3.784   1.519   6.660
 9217SOL    HW128550   3.790   1.619   6.661
 9217SOL    HW228551   3.841   1.483   6.587
 9218SOL     OW28552   5.460   5.601   6.474
 9218SOL    HW128553   5.367   5.578   6.502
 9218SOL    HW228554   5.458   5.681   6.414
 9219SOL     OW28555   2.793   2.238   5.493
 9219SOL    HW128556   2.829   2.286   5.413
 9219SOL    HW228557   2.719   2.177   5.464
 9220SOL     OW28558   0.622   6.308   3.647
 9220SOL    HW128559   0.628   6.287   3.549
 9220SOL    HW228560   0.581   6.230   3.695
 9221SOL     OW28561   2.465   1.326   0.972
 9221SOL    HW128562   2.378   1.373   0.982
 9221SOL    HW228563   2.540   1.389   0.991
 9222SOL     OW28564   1.344   3.539   4.401
 9222SOL    HW128565   1.263   3.500   4.358
 9222SOL    HW228566   1.422   3.478   4.385
 9223SOL     OW28567   7.000   3.145   4.844
 9223SOL    HW128568   6.920   3.196   4.813
 9223SOL    HW228569   0.046   3.144   4.772
 9224SOL     OW28570   2.431   5.054   3.115
 9224SOL    HW128571   2.490   5.082   3.190
 9224SOL    HW228572   2.354   5.117   3.108
 9225SOL     OW28573   5.839   5.892   5.862
 9225SOL    HW128574   5.769   5.847   5.919
 9225SOL    HW228575   5.875   5.826   5.795
 9226SOL     OW28576   1.095   0.608   0.128
 9226SOL    HW128577   1.160   0.634   0.056
 9226SOL    HW228578   1.136   0.625   0.218
 9227SOL     OW28579   2.939   3.954   0.248
 9227SOL    HW128580   2.913   4.024   0.315
 9227SOL    HW228581   2.938   3.994   0.156
 9228SOL     OW28582   3.717   3.097   5.000
 9228SOL    HW128583   3.641   3.137   4.948
 9228SOL    HW228584   3.762   3.028   4.945
 9229SOL     OW28585   6.839   5.099   0.578
 9229SOL    HW128586   6.852   5.128   0.483
 9229SOL    HW228587   6.751   5.132   0.612
 9230SOL     OW28588   4.431   1.451   4.715
 9230SOL    HW128589   4.400   1.542   4.743
 9230SOL    HW228590   4.527   1.456   4.687
 9231SOL     OW28591   6.582   6.149   1.914
 9231SOL    HW128592   6.528   6.208   1.975
 9231SOL    HW228593   6.654   6.203   1.871
 9232SOL     OW28594   0.879   5.384   2.661
 9232SOL    HW128595   0.812   5.433   2.605
 9232SOL    HW228596   0.838   5.363   2.750
 9233SOL     OW28597   1.275   6.458   5.632
 9233SOL    HW128598   1.275   6.378   5.692
 9233SOL    HW228599   1.224   6.438   5.549
 9234SOL     OW28600   2.745   3.495   6.483
 9234SOL    HW128601   2.779   3.454   6.399
 9234SOL    HW228602   2.653   3.459   6.503
 9235SOL     OW28603   1.671   2.237   3.451
 9235SOL    HW128604   1.598   2.249   3.384
 9235SOL    HW228605   1.729   2.159   3.424
 9236SOL     OW28606   1.508   3.329   6.283
 9236SOL    HW128607   1.516   3.233   6.254
 9236SOL    HW228608   1.598   3.365   6.306
 9237SOL     OW28609   6.440   5.616   2.532
 9237SOL    HW128610   6.345   5.633   2.503
 9237SOL    HW228611   6.494   5.700   2.521
 9238SOL     OW28612   1.729   2.983   4.599
 9238SOL    HW128613   1.681   2.964   4.685
 9238SOL    HW228614   1.729   2.901   4.542
 9239SOL     OW28615   0.878   4.528   6.750
 9239SOL    HW128616   0.860   4.624   6.728
 9239SOL    HW228617   0.796   4.488   6.792
 9240SOL     OW28618   4.111   1.799   3.354
 9240SOL    HW128619   4.020   1.781   3.392
 9240SOL    HW228620   4.113   1.890   3.313
 9241SOL     OW28621   5.666   0.411   0.330
 9241SOL    HW128622   5.623   0.322   0.346
 9241SOL    HW228623   5.639   0.475   0.402
 9242SOL     OW28624   1.607   2.249   1.124
 9242SOL    HW128625   1.592   2.200   1.211
 9242SOL    HW228626   1.547   2.211   1.054
 9243SOL     OW28627   1.763   0.299   0.113
 9243SOL    HW128628   1.766   0.398   0.099
 9243SOL    HW228629   1.740   0.254   0.027
 9244SOL     OW28630   3.305   6.375   5.962
 9244SOL    HW128631   3.334   6.446   5.898
 9244SOL    HW228632   3.251   6.417   6.036
 9245SOL     OW28633   1.870   5.173   2.843
 9245SOL    HW128634   1.822   5.092   2.808
 9245SOL    HW228635   1.927   5.212   2.771
 9246SOL     OW28636   5.149   0.081   6.865
 9246SOL    HW128637   5.102   0.077   6.953
 9246SOL    HW228638   5.110   0.154   6.809
 9247SOL     OW28639   3.971   5.734   2.825
 9247SOL    HW128640   3.982   5.636   2.836
 9247SOL    HW228641   4.032   5.782   2.888
 9248SOL     OW28642   2.216   0.822   6.765
 9248SOL    HW128643   2.265   0.898   6.807
 9248SOL    HW228644   2.248   0.736   6.805
 9249SOL     OW28645   2.308   6.434   0.539
 9249SOL    HW128646   2.326   6.522   0.584
 9249SOL    HW228647   2.344   6.360   0.597
 9250SOL     OW28648   7.020   2.914   3.424
 9250SOL    HW128649   6.934   2.883   3.383
 9250SOL    HW228650   0.075   2.873   3.375
 9251SOL     OW28651   3.285   1.720   0.970
 9251SOL    HW128652   3.197   1.724   1.017
 9251SOL    HW228653   3.287   1.641   0.909
 9252SOL     OW28654   5.806   1.287   5.020
 9252SOL    HW128655   5.895   1.328   5.037
 9252SOL    HW228656   5.790   1.212   5.085
 9253SOL     OW28657   1.314   5.481   5.041
 9253SOL    HW128658   1.315   5.411   4.971
 9253SOL    HW228659   1.401   5.482   5.090
 9254SOL     OW28660   0.163   5.120   2.335
 9254SOL    HW128661   0.238   5.063   2.300
 9254SOL    HW228662   0.076   5.085   2.303
 9255SOL     OW28663   6.490   4.435   0.486
 9255SOL    HW128664   6.566   4.459   0.546
 9255SOL    HW228665   6.478   4.336   0.484
 9256SOL     OW28666   3.183   6.497   0.695
 9256SOL    HW128667   3.106   6.436   0.673
 9256SOL    HW228668   3.235   6.517   0.613
 9257SOL     OW28669   5.874   5.648   4.656
 9257SOL    HW128670   5.885   5.683   4.749
 9257SOL    HW228671   5.910   5.555   4.651
 9258SOL     OW28672   3.641   5.643   1.053
 9258SOL    HW128673   3.576   5.640   1.129
 9258SOL    HW228674   3.716   5.579   1.071
 9259SOL     OW28675   0.887   1.981   6.970
 9259SOL    HW128676   0.842   1.897   7.000
 9259SOL    HW228677   0.842   2.060   7.011
 9260SOL     OW28678   5.127   3.958   4.760
 9260SOL    HW128679   5.085   4.043   4.728
 9260SOL    HW228680   5.076   3.922   4.838
 9261SOL     OW28681   2.402   1.742   1.324
 9261SOL    HW128682   2.449   1.725   1.237
 9261SOL    HW228683   2.380   1.840   1.331
 9262SOL     OW28684   6.970   6.160   5.966
 9262SOL    HW128685   6.929   6.083   5.918
 9262SOL    HW228686   6.906   6.196   6.034
 9263SOL     OW28687   1.973   4.879   3.386
 9263SOL    HW128688   1.977   4.979   3.381
 9263SOL    HW228689   2.030   4.847   3.461
 9264SOL     OW28690   5.525   4.560   6.385
 9264SOL    HW128691   5.575   4.527   6.465
 9264SOL    HW228692   5.505   4.484   6.324
 9265SOL     OW28693   5.853   1.312   1.629
 9265SOL    HW128694   5.943   1.270   1.640
 9265SOL    HW228695   5.851   1.364   1.543
 9266SOL     OW28696   1.590   4.314   0.666
 9266SOL    HW128697   1.654   4.315   0.589
 9266SOL    HW228698   1.602   4.230   0.719
 9267SOL     OW28699   6.847   0.928   4.528
 9267SOL    HW128700   6.819   1.023   4.519
 9267SOL    HW228701   6.914   0.919   4.602
 9268SOL     OW28702   0.483   0.154   1.445
 9268SOL    HW128703   0.495   0.253   1.442
 9268SOL    HW228704   0.441   0.128   1.533
 9269SOL     OW28705   3.845   1.184   0.029
 9269SOL    HW128706   3.827   1.113   0.098
 9269SOL    HW228707   3.837   1.274   0.072
 9270SOL     OW28708   2.655   0.603   6.469
 9270SOL    HW128709   2.637   0.656   6.552
 9270SOL    HW228710   2.753   0.582   6.464
 9271SOL     OW28711   1.414   5.620   5.335
 9271SOL    HW128712   1.351   5.573   5.396
 9271SOL    HW228713   1.458   5.554   5.274
 9272SOL     OW28714   6.568   6.664   5.776
 9272SOL    HW128715   6.550   6.611   5.859
 9272SOL    HW228716   6.593   6.758   5.800
 9273SOL     OW28717   5.369   4.187   3.210
 9273SOL    HW128718   5.444   4.138   3.255
 9273SOL    HW228719   5.289   4.126   3.203
 9274SOL     OW28720   0.745   3.074   0.682
 9274SOL    HW128721   0.815   3.133   0.641
 9274SOL    HW228722   0.738   2.989   0.630
 9275SOL     OW28723   5.627   0.873   0.710
 9275SOL    HW128724   5.601   0.810   0.636
 9275SOL    HW228725   5.576   0.958   0.700
 9276SOL     OW28726   2.572   4.780   6.921
 9276SOL    HW128727   2.671   4.778   6.910
 9276SOL    HW228728   2.529   4.780   6.830
 9277SOL     OW28729   4.578   5.190   2.618
 9277SOL    HW128730   4.600   5.188   2.521
 9277SOL    HW228731   4.662   5.195   2.672
 9278SOL     OW28732   0.534   0.156   5.017
 9278SOL    HW128733   0.528   0.098   5.098
 9278SOL    HW228734   0.617   0.133   4.966
 9279SOL     OW28735   3.599   5.706   1.936
 9279SOL    HW128736   3.579   5.691   1.839
 9279SOL    HW228737   3.620   5.619   1.979
 9280SOL     OW28738   2.052   5.995   3.119
 9280SOL    HW128739   2.011   6.059   3.184
 9280SOL    HW228740   2.040   6.029   3.026
 9281SOL     OW28741   1.911   5.723   1.187
 9281SOL    HW128742   1.969   5.779   1.128
 9281SOL    HW228743   1.844   5.674   1.131
 9282SOL     OW28744   3.142   6.935   4.781
 9282SOL    HW128745   3.189   6.984   4.854
 9282SOL    HW228746   3.068   6.991   4.744
 9283SOL     OW28747   4.313   6.924   1.060
 9283SOL    HW128748   4.326   6.860   1.136
 9283SOL    HW228749   4.385   6.911   0.992
 9284SOL     OW28750   4.144   3.908   5.693
 9284SOL    HW128751   4.087   3.877   5.617
 9284SOL    HW228752   4.140   4.008   5.700
 9285SOL     OW28753   0.698   6.056   3.012
 9285SOL    HW128754   0.693   5.970   3.063
 9285SOL    HW228755   0.738   6.039   2.922
 9286SOL     OW28756   4.016   6.935   1.781
 9286SOL    HW128757   4.000   6.967   1.688
 9286SOL    HW228758   3.990   7.006   1.846
 9287SOL     OW28759   4.074   3.901   5.975
 9287SOL    HW128760   4.168   3.902   5.942
 9287SOL    HW228761   4.011   3.891   5.898
 9288SOL     OW28762   3.334   1.583   1.647
 9288SOL    HW128763   3.427   1.615   1.664
 9288SOL    HW228764   3.269   1.642   1.695
 9289SOL     OW28765   4.856   7.007   0.732
 9289SOL    HW128766   4.781   7.004   0.666
 9289SOL    HW228767   4.896   6.916   0.743
 9290SOL     OW28768   5.442   1.395   4.426
 9290SOL    HW128769   5.361   1.354   4.469
 9290SOL    HW228770   5.473   1.472   4.482
 9291SOL     OW28771   0.733   3.642   6.070
 9291SOL    HW128772   0.758   3.728   6.027
 9291SOL    HW228773   0.639   3.617   6.044
 9292SOL     OW28774   0.621   0.766   6.488
 9292SOL    HW128775   0.571   0.682   6.470
 9292SOL    HW228776   0.595   0.802   6.578
 9293SOL     OW28777   4.871   2.506   3.992
 9293SOL    HW128778   4.887   2.584   3.932
 9293SOL    HW228779   4.886   2.421   3.942
 9294SOL     OW28780   4.676   0.510   5.862
 9294SOL    HW128781   4.747   0.470   5.804
 9294SOL    HW228782   4.713   0.589   5.911
 9295SOL     OW28783   6.314   1.284   4.985
 9295SOL    HW128784   6.314   1.208   5.049
 9295SOL    HW228785   6.364   1.258   4.902
 9296SOL     OW28786   2.199   4.938   6.217
 9296SOL    HW128787   2.179   4.840   6.223
 9296SOL    HW228788   2.224   4.961   6.124
 9297SOL     OW28789   6.433   5.563   2.145
 9297SOL    HW128790   6.449   5.536   2.050
 9297SOL    HW228791   6.518   5.560   2.196
 9298SOL     OW28792   1.162   3.728   6.235
 9298SOL    HW128793   1.205   3.730   6.325
 9298SOL    HW228794   1.173   3.637   6.194
 9299SOL     OW28795   1.982   2.559   4.448
 9299SOL    HW128796   2.054   2.496   4.419
 9299SOL    HW228797   1.994   2.647   4.401
 9300SOL     OW28798   2.308   5.825   4.762
 9300SOL    HW128799   2.223   5.832   4.710
 9300SOL    HW228800   2.295   5.762   4.839
 9301SOL     OW28801   0.110   4.274   4.126
 9301SOL    HW128802   0.160   4.332   4.062
 9301SOL    HW228803   0.161   4.268   4.212
 9302SOL     OW28804   2.239   4.136   4.546
 9302SOL    HW128805   2.274   4.228   4.534
 9302SOL    HW228806   2.224   4.118   4.643
 9303SOL     OW28807   2.784   4.478   0.031
 9303SOL    HW128808   2.754   4.519   0.118
 9303SOL    HW228809   2.706   4.469   6.992
 9304SOL     OW28810   5.223   5.544   6.608
 9304SOL    HW128811   5.143   5.506   6.561
 9304SOL    HW228812   5.216   5.527   6.706
 9305SOL     OW28813   1.819   2.117   1.371
 9305SOL    HW128814   1.898   2.177   1.388
 9305SOL    HW228815   1.736   2.163   1.400
 9306SOL     OW28816   6.880   6.445   4.972
 9306SOL    HW128817   6.899   6.428   4.876
 9306SOL    HW228818   6.836   6.365   5.013
 9307SOL     OW28819   1.846   3.805   1.160
 9307SOL    HW128820   1.775   3.873   1.144
 9307SOL    HW228821   1.912   3.841   1.226
 9308SOL     OW28822   2.117   3.354   1.672
 9308SOL    HW128823   2.194   3.412   1.701
 9308SOL    HW228824   2.075   3.394   1.591
 9309SOL     OW28825   5.069   5.221   6.709
 9309SOL    HW128826   5.168   5.229   6.716
 9309SOL    HW228827   5.044   5.124   6.700
 9310SOL     OW28828   5.973   5.565   6.284
 9310SOL    HW128829   5.949   5.662   6.276
 9310SOL    HW228830   5.890   5.511   6.296
 9311SOL     OW28831   5.155   4.502   0.124
 9311SOL    HW128832   5.233   4.487   0.185
 9311SOL    HW228833   5.095   4.422   0.128
 9312SOL     OW28834   0.248   3.241   2.926
 9312SOL    HW128835   0.287   3.159   2.968
 9312SOL    HW228836   0.157   3.257   2.963
 9313SOL     OW28837   0.466   0.860   2.359
 9313SOL    HW128838   0.416   0.835   2.276
 9313SOL    HW228839   0.419   0.936   2.405
 9314SOL     OW28840   5.371   4.507   1.055
 9314SOL    HW128841   5.438   4.551   1.115
 9314SOL    HW228842   5.389   4.408   1.051
 9315SOL     OW28843   5.494   6.324   5.827
 9315SOL    HW128844   5.553   6.404   5.822
 9315SOL    HW228845   5.402   6.352   5.856
 9316SOL     OW28846   4.715   0.199   6.474
 9316SOL    HW128847   4.744   0.117   6.425
 9316SOL    HW228848   4.642   0.245   6.423
 9317SOL     OW28849   3.492   5.847   3.450
 9317SOL    HW128850   3.402   5.837   3.491
 9317SOL    HW228851   3.485   5.848   3.350
 9318SOL     OW28852   4.108   6.873   2.117
 9318SOL    HW128853   4.115   6.817   2.035
 9318SOL    HW228854   4.047   6.829   2.183
 9319SOL     OW28855   4.435   2.113   0.243
 9319SOL    HW128856   4.452   2.036   0.304
 9319SOL    HW228857   4.338   2.114   0.217
 9320SOL     OW28858   6.523   6.547   0.058
 9320SOL    HW128859   6.497   6.462   0.104
 9320SOL    HW228860   6.574   6.526   6.997
 9321SOL     OW28861   0.726   2.739   4.926
 9321SOL    HW128862   0.682   2.805   4.866
 9321SOL    HW228863   0.754   2.785   5.011
 9322SOL     OW28864   5.592   3.176   6.972
 9322SOL    HW128865   5.555   3.255   6.923
 9322SOL    HW228866   5.519   3.110   6.990
 9323SOL     OW28867   0.512   2.060   5.980
 9323SOL    HW128868   0.534   2.053   6.078
 9323SOL    HW228869   0.478   2.152   5.961
 9324SOL     OW28870   0.722   4.197   1.680
 9324SOL    HW128871   0.639   4.167   1.727
 9324SOL    HW228872   0.703   4.208   1.582
 9325SOL     OW28873   0.843   4.405   3.727
 9325SOL    HW128874   0.811   4.461   3.804
 9325SOL    HW228875   0.784   4.324   3.718
 9326SOL     OW28876   4.292   4.041   0.917
 9326SOL    HW128877   4.237   3.959   0.934
 9326SOL    HW228878   4.246   4.099   0.850
 9327SOL     OW28879   2.622   0.816   3.377
 9327SOL    HW128880   2.640   0.885   3.306
 9327SOL    HW228881   2.539   0.842   3.428
 9328SOL     OW28882   2.469   0.680   3.670
 9328SOL    HW128883   2.541   0.674   3.739
 9328SOL    HW228884   2.438   0.588   3.646
 9329SOL     OW28885   0.166   5.555   6.964
 9329SOL    HW128886   0.126   5.571   0.032
 9329SOL    HW228887   0.097   5.519   6.902
 9330SOL     OW28888   6.876   6.190   0.358
 9330SOL    HW128889   6.791   6.236   0.381
 9330SOL    HW228890   6.865   6.091   0.370
 9331SOL     OW28891   2.116   3.659   3.962
 9331SOL    HW128892   2.027   3.628   3.929
 9331SOL    HW228893   2.109   3.684   4.058
 9332SOL     OW28894   5.885   5.671   0.706
 9332SOL    HW128895   5.971   5.625   0.684
 9332SOL    HW228896   5.904   5.761   0.745
 9333SOL     OW28897   3.077   3.778   1.099
 9333SOL    HW128898   3.069   3.876   1.079
 9333SOL    HW228899   3.080   3.727   1.013
 9334SOL     OW28900   5.744   6.210   5.740
 9334SOL    HW128901   5.719   6.134   5.680
 9334SOL    HW228902   5.661   6.246   5.784
 9335SOL     OW28903   0.896   3.455   1.825
 9335SOL    HW128904   0.918   3.540   1.873
 9335SOL    HW228905   0.825   3.472   1.757
 9336SOL     OW28906   5.492   0.711   5.836
 9336SOL    HW128907   5.513   0.698   5.933
 9336SOL    HW228908   5.523   0.801   5.807
 9337SOL     OW28909   2.438   1.116   5.535
 9337SOL    HW128910   2.513   1.089   5.475
 9337SOL    HW228911   2.460   1.093   5.630
 9338SOL     OW28912   5.748   6.675   0.261
 9338SOL    HW128913   5.706   6.690   0.172
 9338SOL    HW228914   5.847   6.664   0.249
 9339SOL     OW28915   0.133   3.957   5.819
 9339SOL    HW128916   0.121   3.859   5.804
 9339SOL    HW228917   0.140   3.976   5.917
 9340SOL     OW28918   3.187   4.868   1.443
 9340SOL    HW128919   3.258   4.798   1.453
 9340SOL    HW228920   3.160   4.902   1.533
 9341SOL     OW28921   5.088   4.981   6.402
 9341SOL    HW128922   5.122   5.074   6.395
 9341SOL    HW228923   5.121   4.927   6.324
 9342SOL     OW28924   2.957   0.308   4.582
 9342SOL    HW128925   3.056   0.291   4.577
 9342SOL    HW228926   2.924   0.281   4.673
 9343SOL     OW28927   4.763   3.698   0.757
 9343SOL    HW128928   4.765   3.798   0.758
 9343SOL    HW228929   4.813   3.663   0.836
 9344SOL     OW28930   5.944   0.399   5.512
 9344SOL    HW128931   5.977   0.334   5.444
 9344SOL    HW228932   5.917   0.484   5.467
 9345SOL     OW28933   0.175   4.675   0.484
 9345SOL    HW128934   0.172   4.705   0.579
 9345SOL    HW228935   0.087   4.692   0.440
 9346SOL     OW28936   5.801   6.423   1.535
 9346SOL    HW128937   5.737   6.402   1.460
 9346SOL    HW228938   5.833   6.337   1.576
 9347SOL     OW28939   3.708   5.917   1.037
 9347SOL    HW128940   3.673   5.825   1.055
 9347SOL    HW228941   3.683   5.945   0.945
 9348SOL     OW28942   2.287   5.512   2.063
 9348SOL    HW128943   2.287   5.604   2.103
 9348SOL    HW228944   2.336   5.514   1.976
 9349SOL     OW28945   0.101   6.075   1.706
 9349SOL    HW128946   0.140   6.142   1.770
 9349SOL    HW228947   0.149   6.080   1.618
 9350SOL     OW28948   6.633   0.539   6.852
 9350SOL    HW128949   6.683   0.531   6.766
 9350SOL    HW228950   6.613   0.448   6.888
 9351SOL     OW28951   3.806   3.077   5.644
 9351SOL    HW128952   3.842   3.109   5.556
 9351SOL    HW228953   3.802   2.977   5.644
 9352SOL     OW28954   2.963   2.947   6.296
 9352SOL    HW128955   2.952   2.962   6.394
 9352SOL    HW228956   2.972   2.849   6.278
 9353SOL     OW28957   0.222   3.479   0.906
 9353SOL    HW128958   0.319   3.458   0.902
 9353SOL    HW228959   0.201   3.528   0.991
 9354SOL     OW28960   4.788   1.653   1.754
 9354SOL    HW128961   4.873   1.705   1.754
 9354SOL    HW228962   4.757   1.640   1.660
 9355SOL     OW28963   6.771   1.153   3.146
 9355SOL    HW128964   6.769   1.059   3.178
 9355SOL    HW228965   6.678   1.190   3.145
 9356SOL     OW28966   4.744   4.797   2.599
 9356SOL    HW128967   4.711   4.711   2.561
 9356SOL    HW228968   4.676   4.834   2.662
 9357SOL     OW28969   3.139   3.157   0.676
 9357SOL    HW128970   3.175   3.236   0.725
 9357SOL    HW228971   3.213   3.091   0.660
 9358SOL     OW28972   5.009   4.342   2.000
 9358SOL    HW128973   5.006   4.372   1.905
 9358SOL    HW228974   4.924   4.294   2.023
 9359SOL     OW28975   5.298   4.602   6.003
 9359SOL    HW128976   5.223   4.666   5.985
 9359SOL    HW228977   5.339   4.575   5.916
 9360SOL     OW28978   1.614   0.275   5.267
 9360SOL    HW128979   1.559   0.350   5.306
 9360SOL    HW228980   1.560   0.228   5.197
 9361SOL     OW28981   2.535   0.844   2.504
 9361SOL    HW128982   2.497   0.929   2.540
 9361SOL    HW228983   2.545   0.851   2.405
 9362SOL     OW28984   1.900   1.608   3.085
 9362SOL    HW128985   1.997   1.614   3.106
 9362SOL    HW228986   1.886   1.551   3.004
 9363SOL     OW28987   2.525   6.732   1.951
 9363SOL    HW128988   2.467   6.813   1.948
 9363SOL    HW228989   2.470   6.652   1.974
 9364SOL     OW28990   5.244   5.348   0.776
 9364SOL    HW128991   5.169   5.302   0.729
 9364SOL    HW228992   5.324   5.351   0.716
 9365SOL     OW28993   1.946   1.076   4.865
 9365SOL    HW128994   1.874   1.143   4.882
 9365SOL    HW228995   1.967   1.028   4.950
 9366SOL     OW28996   2.823   1.317   1.313
 9366SOL    HW128997   2.735   1.269   1.312
 9366SOL    HW228998   2.808   1.415   1.323
 9367SOL     OW28999   6.661   5.995   3.314
 9367SOL    HW129000   6.608   5.910   3.318
 9367SOL    HW229001   6.744   5.986   3.368
 9368SOL     OW29002   3.879   2.962   1.499
 9368SOL    HW129003   3.792   2.913   1.496
 9368SOL    HW229004   3.921   2.950   1.589
 9369SOL     OW29005   0.144   2.233   5.585
 9369SOL    HW129006   0.217   2.206   5.648
 9369SOL    HW229007   0.158   2.186   5.497
 9370SOL     OW29008   6.144   0.092   3.089
 9370SOL    HW129009   6.116   0.001   3.119
 9370SOL    HW229010   6.196   0.136   3.162
 9371SOL     OW29011   1.110   6.555   0.703
 9371SOL    HW129012   1.020   6.593   0.683
 9371SOL    HW229013   1.126   6.557   0.801
 9372SOL     OW29014   6.469   6.273   6.401
 9372SOL    HW129015   6.527   6.334   6.455
 9372SOL    HW229016   6.479   6.179   6.434
 9373SOL     OW29017   4.656   2.079   3.902
 9373SOL    HW129018   4.725   2.082   3.974
 9373SOL    HW229019   4.574   2.032   3.936
 9374SOL     OW29020   5.073   4.010   0.320
 9374SOL    HW129021   5.165   4.048   0.313
 9374SOL    HW229022   5.078   3.917   0.356
 9375SOL     OW29023   0.706   1.508   3.917
 9375SOL    HW129024   0.609   1.535   3.914
 9375SOL    HW229025   0.712   1.409   3.934
 9376SOL     OW29026   2.186   2.990   2.191
 9376SOL    HW129027   2.160   2.922   2.259
 9376SOL    HW229028   2.195   2.945   2.102
 9377SOL     OW29029   6.024   5.459   3.414
 9377SOL    HW129030   6.015   5.440   3.316
 9377SOL    HW229031   6.119   5.445   3.441
 9378SOL     OW29032   3.140   6.162   0.993
 9378SOL    HW129033   3.177   6.074   1.024
 9378SOL    HW229034   3.057   6.183   1.044
 9379SOL     OW29035   5.547   4.602   4.918
 9379SOL    HW129036   5.583   4.515   4.887
 9379SOL    HW229037   5.449   4.606   4.900
 9380SOL     OW29038   5.801   6.429   6.531
 9380SOL    HW129039   5.796   6.346   6.474
 9380SOL    HW229040   5.716   6.481   6.520
 9381SOL     OW29041   2.819   0.794   0.025
 9381SOL    HW129042   2.835   0.884   0.065
 9381SOL    HW229043   2.802   0.804   6.949
 9382SOL     OW29044   4.777   2.210   2.284
 9382SOL    HW129045   4.722   2.253   2.213
 9382SOL    HW229046   4.869   2.192   2.249
 9383SOL     OW29047   5.267   5.831   5.609
 9383SOL    HW129048   5.292   5.747   5.560
 9383SOL    HW229049   5.167   5.836   5.618
 9384SOL     OW29050   4.952   5.987   1.627
 9384SOL    HW129051   4.960   6.060   1.560
 9384SOL    HW229052   4.858   5.953   1.627
 9385SOL     OW29053   3.485   1.308   3.370
 9385SOL    HW129054   3.439   1.242   3.429
 9385SOL    HW229055   3.571   1.269   3.337
 9386SOL     OW29056   3.506   0.536   4.432
 9386SOL    HW129057   3.518   0.592   4.514
 9386SOL    HW229058   3.418   0.557   4.390
 9387SOL     OW29059   4.187   6.876   0.006
 9387SOL    HW129060   4.236   6.814   6.968
 9387SOL    HW229061   4.252   6.924   0.064
 9388SOL     OW29062   0.022   0.272   2.598
 9388SOL    HW129063   0.004   0.290   2.694
 9388SOL    HW229064   0.110   0.312   2.572
 9389SOL     OW29065   2.933   0.582   6.450
 9389SOL    HW129066   2.938   0.537   6.360
 9389SOL    HW229067   2.975   0.523   6.519
 9390SOL     OW29068   3.186   6.153   2.290
 9390SOL    HW129069   3.212   6.191   2.379
 9390SOL    HW229070   3.134   6.222   2.239
 9391SOL     OW29071   0.723   0.903   5.116
 9391SOL    HW129072   0.737   0.970   5.189
 9391SOL    HW229073   0.680   0.948   5.038
 9392SOL     OW29074   1.564   6.405   4.544
 9392SOL    HW129075   1.543   6.379   4.450
 9392SOL    HW229076   1.511   6.486   4.569
 9393SOL     OW29077   3.795   2.201   5.273
 9393SOL    HW129078   3.783   2.120   5.330
 9393SOL    HW229079   3.892   2.219   5.260
 9394SOL     OW29080   5.168   2.265   2.425
 9394SOL    HW129081   5.079   2.281   2.469
 9394SOL    HW229082   5.181   2.332   2.352
 9395SOL     OW29083   1.635   3.036   7.017
 9395SOL    HW129084   1.604   3.037   6.921
 9395SOL    HW229085   1.679   2.948   0.014
 9396SOL     OW29086   6.805   0.489   6.617
 9396SOL    HW129087   6.854   0.412   6.658
 9396SOL    HW229088   6.768   0.461   6.528
 9397SOL     OW29089   3.134   0.427   0.806
 9397SOL    HW129090   3.155   0.350   0.745
 9397SOL    HW229091   3.105   0.506   0.752
 9398SOL     OW29092   2.613   1.683   6.965
 9398SOL    HW129093   2.657   1.604   7.007
 9398SOL    HW229094   2.674   1.724   6.897
 9399SOL     OW29095   6.915   0.787   5.453
 9399SOL    HW129096   6.984   0.810   5.384
 9399SOL    HW229097   6.889   0.691   5.442
 9400SOL     OW29098   5.174   2.577   2.942
 9400SOL    HW129099   5.186   2.674   2.963
 9400SOL    HW229100   5.175   2.525   3.027
 9401SOL     OW29101   3.197   0.195   3.054
 9401SOL    HW129102   3.216   0.103   3.020
 9401SOL    HW229103   3.275   0.255   3.032
 9402SOL     OW29104   2.764   5.230   6.573
 9402SOL    HW129105   2.724   5.169   6.642
 9402SOL    HW229106   2.693   5.256   6.507
 9403SOL     OW29107   5.431   1.422   3.969
 9403SOL    HW129108   5.442   1.351   4.039
 9403SOL    HW229109   5.403   1.508   4.014
 9404SOL     OW29110   0.496   4.299   6.232
 9404SOL    HW129111   0.559   4.282   6.156
 9404SOL    HW229112   0.418   4.238   6.226
 9405SOL     OW29113   6.169   0.002   1.348
 9405SOL    HW129114   6.125   6.992   1.264
 9405SOL    HW229115   6.267   7.004   1.344
 9406SOL     OW29116   0.189   1.343   5.185
 9406SOL    HW129117   0.177   1.308   5.278
 9406SOL    HW229118   0.209   1.441   5.189
 9407SOL     OW29119   3.406   6.050   2.967
 9407SOL    HW129120   3.315   6.053   2.925
 9407SOL    HW229121   3.467   5.994   2.910
 9408SOL     OW29122   4.111   1.818   6.255
 9408SOL    HW129123   4.105   1.820   6.155
 9408SOL    HW229124   4.088   1.726   6.287
 9409SOL     OW29125   5.581   4.149   3.025
 9409SOL    HW129126   5.518   4.182   3.095
 9409SOL    HW229127   5.675   4.172   3.051
 9410SOL     OW29128   4.412   6.364   2.853
 9410SOL    HW129129   4.510   6.341   2.850
 9410SOL    HW229130   4.369   6.337   2.767
 9411SOL     OW29131   4.745   5.483   0.900
 9411SOL    HW129132   4.692   5.568   0.894
 9411SOL    HW229133   4.793   5.479   0.987
 9412SOL     OW29134   6.265   2.530   1.348
 9412SOL    HW129135   6.235   2.589   1.272
 9412SOL    HW229136   6.282   2.438   1.313
 9413SOL     OW29137   3.949   6.126   5.658
 9413SOL    HW129138   3.863   6.097   5.699
 9413SOL    HW229139   3.941   6.220   5.625
 9414SOL     OW29140   2.350   1.539   1.767
 9414SOL    HW129141   2.348   1.550   1.866
 9414SOL    HW229142   2.401   1.614   1.725
 9415SOL     OW29143   2.849   0.499   2.308
 9415SOL    HW129144   2.908   0.435   2.356
 9415SOL    HW229145   2.772   0.449   2.267
 9416SOL     OW29146   0.566   2.720   1.717
 9416SOL    HW129147   0.569   2.727   1.816
 9416SOL    HW229148   0.582   2.810   1.676
 9417SOL     OW29149   2.597   6.224   4.453
 9417SOL    HW129150   2.603   6.276   4.538
 9417SOL    HW229151   2.682   6.236   4.401
 9418SOL     OW29152   3.554   5.059   0.687
 9418SOL    HW129153   3.500   5.014   0.615
 9418SOL    HW229154   3.544   5.008   0.773
 9419SOL     OW29155   3.693   6.705   5.708
 9419SOL    HW129156   3.622   6.775   5.713
 9419SOL    HW229157   3.783   6.749   5.706
 9420SOL     OW29158   0.545   1.375   4.254
 9420SOL    HW129159   0.485   1.299   4.280
 9420SOL    HW229160   0.638   1.357   4.289
 9421SOL     OW29161   1.859   4.474   5.517
 9421SOL    HW129162   1.921   4.401   5.545
 9421SOL    HW229163   1.873   4.494   5.420
 9422SOL     OW29164   3.793   1.646   2.035
 9422SOL    HW129165   3.855   1.631   2.112
 9422SOL    HW229166   3.832   1.715   1.974
 9423SOL     OW29167   5.024   1.096   4.893
 9423SOL    HW129168   4.927   1.104   4.914
 9423SOL    HW229169   5.059   1.183   4.859
 9424SOL     OW29170   3.081   6.435   4.636
 9424SOL    HW129171   3.146   6.506   4.661
 9424SOL    HW229172   3.006   6.433   4.703
 9425SOL     OW29173   1.118   3.320   4.405
 9425SOL    HW129174   1.166   3.340   4.320
 9425SOL    HW229175   1.132   3.394   4.470
 9426SOL     OW29176   3.369   6.600   0.204
 9426SOL    HW129177   3.452   6.620   0.150
 9426SOL    HW229178   3.304   6.551   0.147
 9427SOL     OW29179   3.111   5.092   4.095
 9427SOL    HW129180   3.031   5.114   4.038
 9427SOL    HW229181   3.086   5.100   4.191
 9428SOL     OW29182   5.020   6.157   2.786
 9428SOL    HW129183   4.988   6.251   2.794
 9428SOL    HW229184   4.942   6.096   2.774
 9429SOL     OW29185   0.226   3.664   2.180
 9429SOL    HW129186   0.243   3.761   2.195
 9429SOL    HW229187   0.153   3.633   2.240
 9430SOL     OW29188   5.797   6.627   1.706
 9430SOL    HW129189   5.792   6.578   1.793
 9430SOL    HW229190   5.781   6.563   1.631
 9431SOL     OW29191   6.745   4.467   1.881
 9431SOL    HW129192   6.651   4.441   1.902
 9431SOL    HW229193   6.772   4.545   1.937
 9432SOL     OW29194   6.631   6.812   4.465
 9432SOL    HW129195   6.727   6.784   4.456
 9432SOL    HW229196   6.573   6.730   4.461
 9433SOL     OW29197   2.829   4.802   4.853
 9433SOL    HW129198   2.902   4.791   4.786
 9433SOL    HW229199   2.818   4.718   4.906
 9434SOL     OW29200   5.015   5.211   2.863
 9434SOL    HW129201   4.930   5.162   2.846
 9434SOL    HW229202   5.042   5.260   2.780
 9435SOL     OW29203   1.329   0.663   4.478
 9435SOL    HW129204   1.377   0.577   4.464
 9435SOL    HW229205   1.370   0.734   4.421
 9436SOL     OW29206   2.339   2.442   6.790
 9436SOL    HW129207   2.283   2.520   6.817
 9436SOL    HW229208   2.430   2.474   6.763
 9437SOL     OW29209   1.005   5.125   4.089
 9437SOL    HW129210   1.052   5.043   4.058
 9437SOL    HW229211   0.924   5.099   4.142
 9438SOL     OW29212   1.311   6.054   1.947
 9438SOL    HW129213   1.301   6.149   1.917
 9438SOL    HW229214   1.390   6.047   2.008
 9439SOL     OW29215   0.127   2.512   1.829
 9439SOL    HW129216   0.186   2.590   1.805
 9439SOL    HW229217   0.137   2.491   1.926
 9440SOL     OW29218   5.027   6.448   5.718
 9440SOL    HW129219   4.942   6.395   5.708
 9440SOL    HW229220   5.092   6.395   5.772
 9441SOL     OW29221   1.535   4.484   5.294
 9441SOL    HW129222   1.606   4.481   5.365
 9441SOL    HW229223   1.578   4.483   5.204
 9442SOL     OW29224   0.471   3.875   1.865
 9442SOL    HW129225   0.474   3.969   1.830
 9442SOL    HW229226   0.459   3.812   1.788
 9443SOL     OW29227   1.727   3.832   1.777
 9443SOL    HW129228   1.633   3.804   1.796
 9443SOL    HW229229   1.731   3.876   1.688
 9444SOL     OW29230   0.109   3.597   6.711
 9444SOL    HW129231   0.139   3.563   6.623
 9444SOL    HW229232   0.037   3.665   6.698
 9445SOL     OW29233   5.691   3.325   1.451
 9445SOL    HW129234   5.614   3.261   1.444
 9445SOL    HW229235   5.738   3.310   1.538
 9446SOL     OW29236   6.338   5.390   1.345
 9446SOL    HW129237   6.427   5.413   1.307
 9446SOL    HW229238   6.290   5.474   1.371
 9447SOL     OW29239   5.724   2.516   1.777
 9447SOL    HW129240   5.763   2.451   1.842
 9447SOL    HW229241   5.794   2.543   1.711
 9448SOL     OW29242   6.286   6.539   0.433
 9448SOL    HW129243   6.190   6.555   0.454
 9448SOL    HW229244   6.343   6.580   0.504
 9449SOL     OW29245   6.682   5.171   5.701
 9449SOL    HW129246   6.590   5.177   5.661
 9449SOL    HW229247   6.743   5.234   5.653
 9450SOL     OW29248   3.270   4.883   4.137
 9450SOL    HW129249   3.224   4.971   4.127
 9450SOL    HW229250   3.224   4.829   4.207
 9451SOL     OW29251   4.412   4.806   5.878
 9451SOL    HW129252   4.386   4.725   5.826
 9451SOL    HW229253   4.443   4.780   5.969
 9452SOL     OW29254   2.504   4.404   1.229
 9452SOL    HW129255   2.522   4.497   1.260
 9452SOL    HW229256   2.590   4.358   1.207
 9453SOL     OW29257   3.488   5.093   2.357
 9453SOL    HW129258   3.417   5.159   2.333
 9453SOL    HW229259   3.506   5.033   2.279
 9454SOL     OW29260   2.282   2.861   5.245
 9454SOL    HW129261   2.329   2.925   5.184
 9454SOL    HW229262   2.204   2.907   5.287
 9455SOL     OW29263   3.052   1.622   1.817
 9455SOL    HW129264   3.040   1.721   1.816
 9455SOL    HW229265   2.976   1.580   1.867
 9456SOL     OW29266   1.309   3.316   1.584
 9456SOL    HW129267   1.303   3.409   1.548
 9456SOL    HW229268   1.406   3.289   1.589
 9457SOL     OW29269   0.264   3.430   0.634
 9457SOL    HW129270   0.287   3.338   0.664
 9457SOL    HW229271   0.223   3.481   0.710
 9458SOL     OW29272   7.000   5.692   5.209
 9458SOL    HW129273   6.950   5.664   5.127
 9458SOL    HW229274   6.960   5.777   5.244
 9459SOL     OW29275   5.834   5.680   1.517
 9459SOL    HW129276   5.755   5.740   1.531
 9459SOL    HW229277   5.912   5.735   1.488
 9460SOL     OW29278   0.997   2.215   5.396
 9460SOL    HW129279   0.984   2.306   5.437
 9460SOL    HW229280   1.043   2.225   5.308
 9461SOL     OW29281   1.128   0.948   3.571
 9461SOL    HW129282   1.071   0.933   3.491
 9461SOL    HW229283   1.078   0.919   3.653
 9462SOL     OW29284   0.674   3.336   2.508
 9462SOL    HW129285   0.661   3.400   2.433
 9462SOL    HW229286   0.748   3.367   2.568
 9463SOL     OW29287   5.552   1.616   0.381
 9463SOL    HW129288   5.642   1.572   0.380
 9463SOL    HW229289   5.491   1.570   0.316
 9464SOL     OW29290   5.565   0.680   6.087
 9464SOL    HW129291   5.621   0.759   6.110
 9464SOL    HW229292   5.542   0.630   6.170
 9465SOL     OW29293   6.471   0.455   3.913
 9465SOL    HW129294   6.565   0.477   3.939
 9465SOL    HW229295   6.423   0.538   3.887
 9466SOL     OW29296   2.822   2.618   6.615
 9466SOL    HW129297   2.863   2.706   6.588
 9466SOL    HW229298   2.828   2.554   6.539
 9467SOL     OW29299   2.014   3.382   1.923
 9467SOL    HW129300   2.080   3.449   1.960
 9467SOL    HW229301   2.030   3.370   1.825
 9468SOL     OW29302   6.830   2.898   5.771
 9468SOL    HW129303   6.822   2.897   5.871
 9468SOL    HW229304   6.802   2.988   5.736
 9469SOL     OW29305   6.424   4.736   1.897
 9469SOL    HW129306   6.408   4.773   1.805
 9469SOL    HW229307   6.338   4.734   1.947
 9470SOL     OW29308   5.384   3.707   0.749
 9470SOL    HW129309   5.439   3.692   0.667
 9470SOL    HW229310   5.390   3.627   0.809
 9471SOL     OW29311   6.907   1.818   6.092
 9471SOL    HW129312   6.915   1.730   6.046
 9471SOL    HW229313   6.830   1.815   6.156
 9472SOL     OW29314   6.600   3.921   3.932
 9472SOL    HW129315   6.690   3.900   3.970
 9472SOL    HW229316   6.545   3.838   3.928
 9473SOL     OW29317   3.061   5.335   5.370
 9473SOL    HW129318   3.112   5.325   5.285
 9473SOL    HW229319   3.099   5.410   5.424
 9474SOL     OW29320   4.446   5.486   2.347
 9474SOL    HW129321   4.417   5.489   2.443
 9474SOL    HW229322   4.486   5.574   2.322
 9475SOL     OW29323   2.094   3.422   1.060
 9475SOL    HW129324   2.160   3.384   0.996
 9475SOL    HW229325   2.139   3.489   1.119
 9476SOL     OW29326   3.669   3.965   5.281
 9476SOL    HW129327   3.581   3.947   5.236
 9476SOL    HW229328   3.719   4.034   5.228
 9477SOL     OW29329   1.119   2.749   1.366
 9477SOL    HW129330   1.115   2.669   1.306
 9477SOL    HW229331   1.183   2.732   1.441
 9478SOL     OW29332   5.693   4.697   5.613
 9478SOL    HW129333   5.688   4.780   5.556
 9478SOL    HW229334   5.740   4.719   5.698
 9479SOL     OW29335   6.217   5.960   6.234
 9479SOL    HW129336   6.157   5.996   6.305
 9479SOL    HW229337   6.177   5.877   6.195
 9480SOL     OW29338   5.650   4.879   0.107
 9480SOL    HW129339   5.598   4.964   0.117
 9480SOL    HW229340   5.745   4.901   0.085
 9481SOL     OW29341   0.179   3.501   1.968
 9481SOL    HW129342   0.192   3.558   2.049
 9481SOL    HW229343   0.253   3.517   1.903
 9482SOL     OW29344   4.254   0.569   2.774
 9482SOL    HW129345   4.265   0.526   2.685
 9482SOL    HW229346   4.156   0.574   2.796
 9483SOL     OW29347   1.742   1.922   6.978
 9483SOL    HW129348   1.660   1.962   7.017
 9483SOL    HW229349   1.733   1.916   6.878
 9484SOL     OW29350   6.391   1.689   3.468
 9484SOL    HW129351   6.329   1.761   3.501
 9484SOL    HW229352   6.475   1.690   3.522
 9485SOL     OW29353   1.234   6.977   2.838
 9485SOL    HW129354   1.310   6.954   2.777
 9485SOL    HW229355   1.256   0.038   2.888
 9486SOL     OW29356   3.047   5.913   2.034
 9486SOL    HW129357   3.133   5.874   2.066
 9486SOL    HW229358   3.064   6.003   1.992
 9487SOL     OW29359   3.293   2.922   4.219
 9487SOL    HW129360   3.208   2.880   4.250
 9487SOL    HW229361   3.291   3.020   4.241
 9488SOL     OW29362   1.921   6.890   0.840
 9488SOL    HW129363   1.941   6.896   0.742
 9488SOL    HW229364   1.850   6.822   0.856
 9489SOL     OW29365   3.635   4.675   0.749
 9489SOL    HW129366   3.576   4.595   0.737
 9489SOL    HW229367   3.580   4.754   0.776
 9490SOL     OW29368   5.459   1.328   1.091
 9490SOL    HW129369   5.449   1.428   1.094
 9490SOL    HW229370   5.527   1.304   1.022
 9491SOL     OW29371   5.891   5.302   6.573
 9491SOL    HW129372   5.881   5.350   6.660
 9491SOL    HW229373   5.802   5.271   6.541
 9492SOL     OW29374   3.011   4.049   1.752
 9492SOL    HW129375   3.074   4.126   1.745
 9492SOL    HW229376   3.023   4.005   1.841
 9493SOL     OW29377   4.683   6.586   3.175
 9493SOL    HW129378   4.667   6.601   3.272
 9493SOL    HW229379   4.781   6.594   3.156
 9494SOL     OW29380   3.935   3.369   5.418
 9494SOL    HW129381   3.990   3.353   5.500
 9494SOL    HW229382   3.933   3.466   5.398
 9495SOL     OW29383   5.826   2.485   5.429
 9495SOL    HW129384   5.869   2.399   5.456
 9495SOL    HW229385   5.747   2.502   5.488
 9496SOL     OW29386   5.627   4.570   0.017
 9496SOL    HW129387   5.597   4.649   0.071
 9496SOL    HW229388   5.563   4.494   0.031
 9497SOL     OW29389   5.851   5.823   6.188
 9497SOL    HW129390   5.826   5.773   6.105
 9497SOL    HW229391   5.792   5.904   6.197
 9498SOL     OW29392   3.920   0.667   6.353
 9498SOL    HW129393   3.983   0.592   6.332
 9498SOL    HW229394   3.832   0.649   6.311
 9499SOL     OW29395   3.749   4.383   5.361
 9499SOL    HW129396   3.829   4.405   5.305
 9499SOL    HW229397   3.776   4.325   5.437
 9500SOL     OW29398   4.971   6.183   1.442
 9500SOL    HW129399   5.043   6.251   1.426
 9500SOL    HW229400   4.885   6.215   1.404
 9501SOL     OW29401   3.247   1.648   4.832
 9501SOL    HW129402   3.232   1.715   4.904
 9501SOL    HW229403   3.181   1.663   4.758
 9502SOL     OW29404   6.155   3.182   5.831
 9502SOL    HW129405   6.205   3.243   5.770
 9502SOL    HW229406   6.088   3.129   5.779
 9503SOL     OW29407   1.587   6.913   1.106
 9503SOL    HW129408   1.673   6.888   1.061
 9503SOL    HW229409   1.561   6.841   1.171
 9504SOL     OW29410   0.499   2.705   6.651
 9504SOL    HW129411   0.479   2.710   6.749
 9504SOL    HW229412   0.594   2.730   6.635
 9505SOL     OW29413   6.110   2.991   3.018
 9505SOL    HW129414   6.034   3.000   3.082
 9505SOL    HW229415   6.125   2.894   2.996
 9506SOL     OW29416   6.431   4.165   0.466
 9506SOL    HW129417   6.472   4.172   0.375
 9506SOL    HW229418   6.428   4.069   0.494
 9507SOL     OW29419   0.802   2.245   3.331
 9507SOL    HW129420   0.824   2.148   3.317
 9507SOL    HW229421   0.867   2.285   3.396
 9508SOL     OW29422   6.035   2.028   0.155
 9508SOL    HW129423   6.047   1.933   0.184
 9508SOL    HW229424   5.938   2.053   0.161
 9509SOL     OW29425   2.300   6.214   5.442
 9509SOL    HW129426   2.250   6.146   5.388
 9509SOL    HW229427   2.347   6.169   5.517
 9510SOL     OW29428   6.496   4.863   3.351
 9510SOL    HW129429   6.453   4.782   3.311
 9510SOL    HW229430   6.595   4.861   3.334
 9511SOL     OW29431   0.536   1.509   0.741
 9511SOL    HW129432   0.513   1.448   0.665
 9511SOL    HW229433   0.617   1.562   0.718
 9512SOL     OW29434   1.331   2.102   3.680
 9512SOL    HW129435   1.430   2.120   3.676
 9512SOL    HW229436   1.284   2.181   3.719
 9513SOL     OW29437   2.387   4.387   4.045
 9513SOL    HW129438   2.409   4.407   3.949
 9513SOL    HW229439   2.362   4.291   4.054
 9514SOL     OW29440   2.149   2.803   6.731
 9514SOL    HW129441   2.187   2.891   6.702
 9514SOL    HW229442   2.155   2.737   6.655
 9515SOL     OW29443   1.966   5.574   6.339
 9515SOL    HW129444   2.027   5.513   6.390
 9515SOL    HW229445   1.997   5.668   6.351
 9516SOL     OW29446   5.480   3.500   4.116
 9516SOL    HW129447   5.409   3.431   4.103
 9516SOL    HW229448   5.532   3.480   4.200
 9517SOL     OW29449   0.415   5.444   2.169
 9517SOL    HW129450   0.495   5.405   2.214
 9517SOL    HW229451   0.442   5.486   2.083
 9518SOL     OW29452   0.741   2.441   6.147
 9518SOL    HW129453   0.702   2.366   6.094
 9518SOL    HW229454   0.669   2.508   6.167
 9519SOL     OW29455   3.700   3.702   3.268
 9519SOL    HW129456   3.761   3.623   3.263
 9519SOL    HW229457   3.606   3.671   3.285
 9520SOL     OW29458   6.199   0.539   5.539
 9520SOL    HW129459   6.248   0.502   5.459
 9520SOL    HW229460   6.101   0.535   5.522
 9521SOL     OW29461   3.766   0.451   1.023
 9521SOL    HW129462   3.713   0.456   0.938
 9521SOL    HW229463   3.843   0.389   1.011
 9522SOL     OW29464   3.785   6.445   2.509
 9522SOL    HW129465   3.777   6.488   2.419
 9522SOL    HW229466   3.788   6.516   2.580
 9523SOL     OW29467   2.655   5.189   3.969
 9523SOL    HW129468   2.634   5.108   4.024
 9523SOL    HW229469   2.572   5.221   3.923
 9524SOL     OW29470   2.253   4.347   1.107
 9524SOL    HW129471   2.238   4.442   1.133
 9524SOL    HW229472   2.340   4.315   1.145
 9525SOL     OW29473   1.906   3.202   5.492
 9525SOL    HW129474   1.914   3.273   5.422
 9525SOL    HW229475   1.972   3.129   5.472
 9526SOL     OW29476   4.820   4.983   6.837
 9526SOL    HW129477   4.737   4.994   6.783
 9526SOL    HW229478   4.898   4.967   6.776
 9527SOL     OW29479   4.190   0.057   3.304
 9527SOL    HW129480   4.218   7.016   3.377
 9527SOL    HW229481   4.163   0.144   3.345
 9528SOL     OW29482   5.621   2.220   1.416
 9528SOL    HW129483   5.631   2.211   1.515
 9528SOL    HW229484   5.658   2.139   1.371
 9529SOL     OW29485   6.401   1.207   1.655
 9529SOL    HW129486   6.378   1.303   1.637
 9529SOL    HW229487   6.382   1.186   1.751
 9530SOL     OW29488   0.734   5.404   4.142
 9530SOL    HW129489   0.790   5.376   4.065
 9530SOL    HW229490   0.787   5.399   4.227
 9531SOL     OW29491   3.713   5.361   2.476
 9531SOL    HW129492   3.649   5.432   2.449
 9531SOL    HW229493   3.665   5.290   2.527
 9532SOL     OW29494   6.551   5.185   2.823
 9532SOL    HW129495   6.562   5.176   2.724
 9532SOL    HW229496   6.473   5.245   2.842
 9533SOL     OW29497   2.256   4.207   3.364
 9533SOL    HW129498   2.162   4.240   3.371
 9533SOL    HW229499   2.257   4.107   3.377
 9534SOL     OW29500   5.436   4.282   4.763
 9534SOL    HW129501   5.380   4.252   4.840
 9534SOL    HW229502   5.530   4.295   4.793
 9535SOL     OW29503   0.910   1.023   5.760
 9535SOL    HW129504   0.902   1.057   5.667
 9535SOL    HW229505   0.819   1.024   5.803
 9536SOL     OW29506   4.116   3.891   5.311
 9536SOL    HW129507   4.036   3.870   5.366
 9536SOL    HW229508   4.182   3.816   5.317
 9537SOL     OW29509   1.164   1.448   3.490
 9537SOL    HW129510   1.244   1.425   3.436
 9537SOL    HW229511   1.133   1.368   3.541
 9538SOL     OW29512   4.269   0.922   5.002
 9538SOL    HW129513   4.221   0.965   5.079
 9538SOL    HW229514   4.360   0.894   5.032
 9539SOL     OW29515   3.663   3.219   2.696
 9539SOL    HW129516   3.759   3.222   2.724
 9539SOL    HW229517   3.634   3.124   2.687
 9540SOL     OW29518   4.911   4.645   3.834
 9540SOL    HW129519   4.872   4.597   3.755
 9540SOL    HW229520   4.950   4.732   3.804
 9541SOL     OW29521   2.004   5.821   5.734
 9541SOL    HW129522   1.986   5.838   5.831
 9541SOL    HW229523   2.008   5.723   5.717
 9542SOL     OW29524   6.319   4.326   4.124
 9542SOL    HW129525   6.369   4.248   4.162
 9542SOL    HW229526   6.382   4.401   4.108
 9543SOL     OW29527   1.909   0.250   5.953
 9543SOL    HW129528   1.825   0.282   5.909
 9543SOL    HW229529   1.906   0.271   6.050
 9544SOL     OW29530   5.797   3.600   4.109
 9544SOL    HW129531   5.718   3.551   4.148
 9544SOL    HW229532   5.773   3.696   4.095
 9545SOL     OW29533   1.811   4.431   1.854
 9545SOL    HW129534   1.838   4.452   1.760
 9545SOL    HW229535   1.867   4.485   1.917
 9546SOL     OW29536   2.697   2.355   6.251
 9546SOL    HW129537   2.661   2.267   6.219
 9546SOL    HW229538   2.626   2.403   6.303
 9547SOL     OW29539   3.959   5.827   4.377
 9547SOL    HW129540   3.944   5.889   4.299
 9547SOL    HW229541   4.002   5.878   4.451
 9548SOL     OW29542   1.044   4.863   0.000
 9548SOL    HW129543   1.102   4.794   0.044
 9548SOL    HW229544   0.953   4.825   7.007
 9549SOL     OW29545   4.347   3.017   1.270
 9549SOL    HW129546   4.417   3.003   1.340
 9549SOL    HW229547   4.263   2.971   1.298
 9550SOL     OW29548   5.285   2.801   1.176
 9550SOL    HW129549   5.324   2.709   1.180
 9550SOL    HW229550   5.201   2.799   1.122
 9551SOL     OW29551   6.541   2.312   6.596
 9551SOL    HW129552   6.544   2.213   6.578
 9551SOL    HW229553   6.603   2.359   6.533
 9552SOL     OW29554   2.980   2.299   6.927
 9552SOL    HW129555   2.904   2.234   6.920
 9552SOL    HW229556   3.006   2.330   6.836
 9553SOL     OW29557   5.123   1.757   6.815
 9553SOL    HW129558   5.172   1.840   6.842
 9553SOL    HW229559   5.175   1.677   6.843
 9554SOL     OW29560   2.048   6.503   4.224
 9554SOL    HW129561   2.098   6.426   4.186
 9554SOL    HW229562   1.950   6.483   4.224
 9555SOL     OW29563   6.702   0.532   3.645
 9555SOL    HW129564   6.740   0.619   3.616
 9555SOL    HW229565   6.716   0.520   3.743
 9556SOL     OW29566   2.224   4.577   0.316
 9556SOL    HW129567   2.232   4.503   0.249
 9556SOL    HW229568   2.305   4.576   0.375
 9557SOL     OW29569   5.146   0.273   1.893
 9557SOL    HW129570   5.198   0.324   1.824
 9557SOL    HW229571   5.051   0.263   1.862
 9558SOL     OW29572   4.998   6.474   6.088
 9558SOL    HW129573   4.917   6.436   6.131
 9558SOL    HW229574   4.992   6.574   6.086
 9559SOL     OW29575   1.585   4.222   0.349
 9559SOL    HW129576   1.681   4.252   0.351
 9559SOL    HW229577   1.533   4.282   0.289
 9560SOL     OW29578   3.226   6.937   2.063
 9560SOL    HW129579   3.223   6.932   1.963
 9560SOL    HW229580   3.286   7.012   2.090
 9561SOL     OW29581   0.935   1.155   0.583
 9561SOL    HW129582   0.877   1.235   0.600
 9561SOL    HW229583   0.882   1.086   0.533
 9562SOL     OW29584   3.161   5.280   3.694
 9562SOL    HW129585   3.064   5.303   3.692
 9562SOL    HW229586   3.182   5.233   3.780
 9563SOL     OW29587   0.669   5.768   1.400
 9563SOL    HW129588   0.749   5.725   1.359
 9563SOL    HW229589   0.681   5.868   1.399
 9564SOL     OW29590   1.415   0.151   0.240
 9564SOL    HW129591   1.376   0.101   0.317
 9564SOL    HW229592   1.377   0.115   0.154
 9565SOL     OW29593   3.110   1.838   4.185
 9565SOL    HW129594   3.058   1.848   4.270
 9565SOL    HW229595   3.073   1.762   4.132
 9566SOL     OW29596   2.755   0.014   0.490
 9566SOL    HW129597   2.711   6.976   0.556
 9566SOL    HW229598   2.802   0.088   0.538
 9567SOL     OW29599   6.952   4.317   1.118
 9567SOL    HW129600   6.949   4.223   1.154
 9567SOL    HW229601   0.002   4.323   1.049
 9568SOL     OW29602   4.389   1.424   6.808
 9568SOL    HW129603   4.317   1.489   6.782
 9568SOL    HW229604   4.418   1.442   6.902
 9569SOL     OW29605   5.180   1.026   2.357
 9569SOL    HW129606   5.270   1.044   2.316
 9569SOL    HW229607   5.158   0.929   2.349
 9570SOL     OW29608   0.007   3.293   1.148
 9570SOL    HW129609   7.017   3.221   1.079
 9570SOL    HW229610   0.098   3.285   1.188
 9571SOL     OW29611   2.852   1.795   6.873
 9571SOL    HW129612   2.850   1.834   6.965
 9571SOL    HW229613   2.810   1.859   6.808
 9572SOL     OW29614   2.217   4.131   3.926
 9572SOL    HW129615   2.243   4.068   3.853
 9572SOL    HW229616   2.177   4.214   3.886
 9573SOL     OW29617   6.167   1.359   4.622
 9573SOL    HW129618   6.110   1.423   4.570
 9573SOL    HW229619   6.263   1.386   4.616
 9574SOL     OW29620   3.346   3.285   1.492
 9574SOL    HW129621   3.379   3.303   1.399
 9574SOL    HW229622   3.316   3.372   1.533
 9575SOL     OW29623   6.160   6.466   1.930
 9575SOL    HW129624   6.187   6.379   1.890
 9575SOL    HW229625   6.081   6.451   1.991
 9576SOL     OW29626   0.673   6.710   7.007
 9576SOL    HW129627   0.717   6.791   0.025
 9576SOL    HW229628   0.576   6.710   0.006
 9577SOL     OW29629   6.288   5.249   2.046
 9577SOL    HW129630   6.215   5.295   2.096
 9577SOL    HW229631   6.249   5.194   1.972
 9578SOL     OW29632   1.545   2.508   2.882
 9578SOL    HW129633   1.577   2.570   2.954
 9578SOL    HW229634   1.620   2.489   2.818
 9579SOL     OW29635   5.767   6.306   2.273
 9579SOL    HW129636   5.690   6.364   2.244
 9579SOL    HW229637   5.758   6.216   2.230
 9580SOL     OW29638   4.997   4.708   2.550
 9580SOL    HW129639   4.911   4.758   2.558
 9580SOL    HW229640   4.989   4.638   2.479
 9581SOL     OW29641   6.034   1.235   0.251
 9581SOL    HW129642   6.117   1.203   0.206
 9581SOL    HW229643   6.056   1.311   0.311
 9582SOL     OW29644   4.642   5.847   4.251
 9582SOL    HW129645   4.711   5.907   4.291
 9582SOL    HW229646   4.551   5.889   4.261
 9583SOL     OW29647   3.379   4.707   1.634
 9583SOL    HW129648   3.451   4.715   1.703
 9583SOL    HW229649   3.386   4.618   1.590
 9584SOL     OW29650   2.001   4.792   4.582
 9584SOL    HW129651   2.094   4.820   4.560
 9584SOL    HW229652   1.941   4.872   4.584
 9585SOL     OW29653   4.641   5.525   1.552
 9585SOL    HW129654   4.549   5.563   1.539
 9585SOL    HW229655   4.709   5.595   1.528
 9586SOL     OW29656   4.697   5.063   2.069
 9586SOL    HW129657   4.719   4.998   1.996
 9586SOL    HW229658   4.606   5.041   2.106
 9587SOL     OW29659   2.804   6.261   1.511
 9587SOL    HW129660   2.729   6.321   1.537
 9587SOL    HW229661   2.781   6.211   1.428
 9588SOL     OW29662   6.449   5.549   0.755
 9588SOL    HW129663   6.427   5.632   0.807
 9588SOL    HW229664   6.364   5.505   0.725
 9589SOL     OW29665   1.978   3.645   6.484
 9589SOL    HW129666   2.071   3.611   6.472
 9589SOL    HW229667   1.974   3.740   6.452
 9590SOL     OW29668   5.203   1.589   2.432
 9590SOL    HW129669   5.119   1.594   2.376
 9590SOL    HW229670   5.189   1.523   2.506
 9591SOL     OW29671   3.432   7.012   6.314
 9591SOL    HW129672   3.493   0.024   6.385
 9591SOL    HW229673   3.363   6.952   6.355
 9592SOL     OW29674   2.475   4.953   6.374
 9592SOL    HW129675   2.522   5.003   6.303
 9592SOL    HW229676   2.421   4.879   6.333
 9593SOL     OW29677   1.585   1.756   4.968
 9593SOL    HW129678   1.560   1.713   4.881
 9593SOL    HW229679   1.504   1.796   5.010
 9594SOL     OW29680   0.580   5.926   4.119
 9594SOL    HW129681   0.672   5.964   4.132
 9594SOL    HW229682   0.581   5.858   4.047
 9595SOL     OW29683   0.170   3.175   3.767
 9595SOL    HW129684   0.095   3.136   3.713
 9595SOL    HW229685   0.132   3.233   3.840
 9596SOL     OW29686   0.311   6.676   0.462
 9596SOL    HW129687   0.335   6.753   0.521
 9596SOL    HW229688   0.380   6.604   0.471
 9597SOL     OW29689   0.632   3.896   2.654
 9597SOL    HW129690   0.618   3.820   2.590
 9597SOL    HW229691   0.554   3.957   2.651
 9598SOL     OW29692   1.523   3.858   2.979
 9598SOL    HW129693   1.482   3.927   2.920
 9598SOL    HW229694   1.451   3.807   3.026
 9599SOL     OW29695   3.541   6.804   3.662
 9599SOL    HW129696   3.584   6.828   3.749
 9599SOL    HW229697   3.521   6.887   3.610
 9600SOL     OW29698   3.308   0.562   0.976
 9600SOL    HW129699   3.294   0.503   1.056
 9600SOL    HW229700   3.246   0.534   0.904
 9601SOL     OW29701   6.673   4.429   1.347
 9601SOL    HW129702   6.675   4.408   1.445
 9601SOL    HW229703   6.649   4.347   1.296
 9602SOL     OW29704   4.782   3.969   5.464
 9602SOL    HW129705   4.842   3.962   5.544
 9602SOL    HW229706   4.818   3.913   5.390
 9603SOL     OW29707   5.548   6.132   5.360
 9603SOL    HW129708   5.587   6.177   5.279
 9603SOL    HW229709   5.502   6.200   5.417
 9604SOL     OW29710   5.439   0.363   0.919
 9604SOL    HW129711   5.406   0.353   1.013
 9604SOL    HW229712   5.517   0.303   0.905
 9605SOL     OW29713   6.404   6.318   3.612
 9605SOL    HW129714   6.460   6.308   3.530
 9605SOL    HW229715   6.449   6.380   3.677
 9606SOL     OW29716   1.317   1.167   6.473
 9606SOL    HW129717   1.377   1.207   6.541
 9606SOL    HW229718   1.223   1.198   6.489
 9607SOL     OW29719   3.304   2.702   6.219
 9607SOL    HW129720   3.269   2.789   6.185
 9607SOL    HW229721   3.230   2.636   6.226
 9608SOL     OW29722   6.732   4.396   2.722
 9608SOL    HW129723   6.738   4.354   2.812
 9608SOL    HW229724   6.786   4.343   2.656
 9609SOL     OW29725   4.131   2.427   5.992
 9609SOL    HW129726   4.210   2.435   6.052
 9609SOL    HW229727   4.090   2.518   5.978
 9610SOL     OW29728   1.719   3.715   2.853
 9610SOL    HW129729   1.669   3.761   2.926
 9610SOL    HW229730   1.767   3.783   2.797
 9611SOL     OW29731   1.941   0.416   1.069
 9611SOL    HW129732   1.952   0.318   1.083
 9611SOL    HW229733   1.999   0.446   0.994
 9612SOL     OW29734   0.573   3.193   2.754
 9612SOL    HW129735   0.671   3.207   2.772
 9612SOL    HW229736   0.553   3.221   2.660
 9613SOL     OW29737   5.763   5.828   3.566
 9613SOL    HW129738   5.750   5.925   3.545
 9613SOL    HW229739   5.718   5.807   3.652
 9614SOL     OW29740   4.967   1.752   2.945
 9614SOL    HW129741   4.945   1.735   2.849
 9614SOL    HW229742   4.959   1.850   2.964
 9615SOL     OW29743   2.475   2.531   1.357
 9615SOL    HW129744   2.540   2.598   1.322
 9615SOL    HW229745   2.523   2.461   1.410
 9616SOL     OW29746   3.569   3.216   0.002
 9616SOL    HW129747   3.534   3.187   6.936
 9616SOL    HW229748   3.583   3.136   0.061
 9617SOL     OW29749   2.416   2.738   4.026
 9617SOL    HW129750   2.494   2.704   4.078
 9617SOL    HW229751   2.423   2.707   3.931
 9618SOL     OW29752   3.032   0.688   0.710
 9618SOL    HW129753   3.036   0.746   0.628
 9618SOL    HW229754   2.942   0.697   0.753
 9619SOL     OW29755   2.281   1.321   5.481
 9619SOL    HW129756   2.351   1.255   5.508
 9619SOL    HW229757   2.209   1.323   5.551
 9620SOL     OW29758   5.405   6.919   5.063
 9620SOL    HW129759   5.394   6.882   5.155
 9620SOL    HW229760   5.348   7.001   5.053
 9621SOL     OW29761   1.594   2.577   2.282
 9621SOL    HW129762   1.646   2.631   2.348
 9621SOL    HW229763   1.612   2.611   2.189
 9622SOL     OW29764   6.154   0.724   1.276
 9622SOL    HW129765   6.238   0.671   1.267
 9622SOL    HW229766   6.160   0.805   1.217
 9623SOL     OW29767   3.477   3.381   6.292
 9623SOL    HW129768   3.529   3.301   6.324
 9623SOL    HW229769   3.464   3.374   6.193
 9624SOL     OW29770   5.940   3.278   2.923
 9624SOL    HW129771   6.006   3.302   2.995
 9624SOL    HW229772   5.902   3.188   2.942
 9625SOL     OW29773   6.194   6.150   0.571
 9625SOL    HW129774   6.226   6.140   0.477
 9625SOL    HW229775   6.269   6.131   0.634
 9626SOL     OW29776   3.813   6.160   6.498
 9626SOL    HW129777   3.909   6.131   6.501
 9626SOL    HW229778   3.754   6.082   6.519
 9627SOL     OW29779   1.579   6.153   6.421
 9627SOL    HW129780   1.528   6.184   6.341
 9627SOL    HW229781   1.672   6.128   6.395
 9628SOL     OW29782   4.358   5.934   1.504
 9628SOL    HW129783   4.344   6.031   1.483
 9628SOL    HW229784   4.270   5.886   1.499
 9629SOL     OW29785   2.973   6.665   1.147
 9629SOL    HW129786   2.935   6.726   1.217
 9629SOL    HW229787   3.073   6.663   1.156
 9630SOL     OW29788   6.648   0.538   5.692
 9630SOL    HW129789   6.715   0.494   5.633
 9630SOL    HW229790   6.588   0.469   5.732
 9631SOL     OW29791   6.440   6.506   6.745
 9631SOL    HW129792   6.511   6.475   6.808
 9631SOL    HW229793   6.479   6.518   6.654
 9632SOL     OW29794   1.605   6.675   2.051
 9632SOL    HW129795   1.579   6.658   2.146
 9632SOL    HW229796   1.702   6.697   2.047
 9633SOL     OW29797   6.425   5.308   6.276
 9633SOL    HW129798   6.413   5.209   6.269
 9633SOL    HW229799   6.337   5.353   6.290
 9634SOL     OW29800   0.866   6.633   4.382
 9634SOL    HW129801   0.779   6.642   4.333
 9634SOL    HW229802   0.851   6.643   4.480
 9635SOL     OW29803   2.488   5.148   4.880
 9635SOL    HW129804   2.479   5.241   4.845
 9635SOL    HW229805   2.584   5.119   4.876
 9636SOL     OW29806   4.287   1.428   5.070
 9636SOL    HW129807   4.294   1.496   4.997
 9636SOL    HW229808   4.211   1.452   5.130
 9637SOL     OW29809   2.354   2.020   6.914
 9637SOL    HW129810   2.306   2.103   6.943
 9637SOL    HW229811   2.446   2.019   6.955
 9638SOL     OW29812   6.629   2.554   5.153
 9638SOL    HW129813   6.605   2.458   5.135
 9638SOL    HW229814   6.688   2.588   5.079
 9639SOL     OW29815   4.243   1.298   2.660
 9639SOL    HW129816   4.343   1.309   2.658
 9639SOL    HW229817   4.201   1.381   2.696
 9640SOL     OW29818   2.067   2.128   2.673
 9640SOL    HW129819   2.134   2.157   2.740
 9640SOL    HW229820   2.010   2.055   2.712
 9641SOL     OW29821   6.346   6.281   0.315
 9641SOL    HW129822   6.332   6.365   0.366
 9641SOL    HW229823   6.284   6.279   0.236
 9642SOL     OW29824   2.719   0.932   4.451
 9642SOL    HW129825   2.706   1.018   4.500
 9642SOL    HW229826   2.791   0.943   4.382
 9643SOL     OW29827   4.661   4.646   3.482
 9643SOL    HW129828   4.567   4.622   3.506
 9643SOL    HW229829   4.725   4.604   3.547
 9644SOL     OW29830   1.851   2.324   6.387
 9644SOL    HW129831   1.907   2.264   6.445
 9644SOL    HW229832   1.779   2.366   6.442
 9645SOL     OW29833   2.980   5.217   5.060
 9645SOL    HW129834   2.975   5.124   5.096
 9645SOL    HW229835   3.059   5.264   5.099
 9646SOL     OW29836   3.949   4.928   2.579
 9646SOL    HW129837   3.867   4.984   2.587
 9646SOL    HW229838   3.936   4.859   2.508
 9647SOL     OW29839   6.479   3.222   0.499
 9647SOL    HW129840   6.543   3.294   0.471
 9647SOL    HW229841   6.437   3.181   0.418
 9648SOL     OW29842   4.789   3.079   0.774
 9648SOL    HW129843   4.774   3.122   0.685
 9648SOL    HW229844   4.878   3.107   0.810
 9649SOL     OW29845   2.107   6.038   0.749
 9649SOL    HW129846   2.101   6.101   0.827
 9649SOL    HW229847   2.068   5.950   0.774
 9650SOL     OW29848   6.946   6.549   1.665
 9650SOL    HW129849   6.907   6.636   1.697
 9650SOL    HW229850   7.017   6.520   1.728
 9651SOL     OW29851   0.537   1.122   6.365
 9651SOL    HW129852   0.621   1.124   6.311
 9651SOL    HW229853   0.483   1.042   6.338
 9652SOL     OW29854   0.429   5.692   2.796
 9652SOL    HW129855   0.345   5.684   2.744
 9652SOL    HW229856   0.507   5.693   2.733
 9653SOL     OW29857   5.773   5.130   4.306
 9653SOL    HW129858   5.787   5.223   4.341
 9653SOL    HW229859   5.773   5.066   4.382
 9654SOL     OW29860   2.493   2.813   1.711
 9654SOL    HW129861   2.574   2.786   1.659
 9654SOL    HW229862   2.436   2.873   1.654
 9655SOL     OW29863   6.584   2.157   0.298
 9655SOL    HW129864   6.501   2.183   0.346
 9655SOL    HW229865   6.660   2.215   0.329
 9656SOL     OW29866   3.254   0.920   2.860
 9656SOL    HW129867   3.340   0.897   2.813
 9656SOL    HW229868   3.182   0.857   2.832
 9657SOL     OW29869   6.349   0.400   4.701
 9657SOL    HW129870   6.425   0.363   4.754
 9657SOL    HW229871   6.291   0.325   4.668
 9658SOL     OW29872   6.498   2.399   2.350
 9658SOL    HW129873   6.513   2.353   2.438
 9658SOL    HW229874   6.412   2.450   2.354
 9659SOL     OW29875   0.565   4.568   6.946
 9659SOL    HW129876   0.514   4.573   0.010
 9659SOL    HW229877   0.538   4.485   6.896
 9660SOL     OW29878   0.551   5.093   0.257
 9660SOL    HW129879   0.504   5.045   0.331
 9660SOL    HW229880   0.506   5.073   0.170
 9661SOL     OW29881   4.131   6.633   1.020
 9661SOL    HW129882   4.056   6.568   1.009
 9661SOL    HW229883   4.098   6.725   0.998
 9662SOL     OW29884   6.395   1.185   4.476
 9662SOL    HW129885   6.296   1.172   4.468
 9662SOL    HW229886   6.441   1.101   4.449
 9663SOL     OW29887   2.596   5.609   2.582
 9663SOL    HW129888   2.526   5.540   2.561
 9663SOL    HW229889   2.594   5.681   2.513
 9664SOL     OW29890   3.487   6.296   1.991
 9664SOL    HW129891   3.459   6.207   1.954
 9664SOL    HW229892   3.570   6.326   1.946
 9665SOL     OW29893   5.786   4.424   4.521
 9665SOL    HW129894   5.740   4.490   4.462
 9665SOL    HW229895   5.732   4.339   4.525
 9666SOL     OW29896   5.758   4.681   3.910
 9666SOL    HW129897   5.797   4.591   3.928
 9666SOL    HW229898   5.700   4.677   3.829
 9667SOL     OW29899   4.073   3.604   3.979
 9667SOL    HW129900   4.156   3.548   3.975
 9667SOL    HW229901   4.080   3.667   4.057
 9668SOL     OW29902   0.337   0.588   5.642
 9668SOL    HW129903   0.316   0.561   5.737
 9668SOL    HW229904   0.278   0.537   5.580
 9669SOL     OW29905   1.413   5.917   0.605
 9669SOL    HW129906   1.485   5.888   0.669
 9669SOL    HW229907   1.328   5.930   0.655
 9670SOL     OW29908   5.251   5.116   6.982
 9670SOL    HW129909   5.174   5.174   7.006
 9670SOL    HW229910   5.271   5.126   6.884
 9671SOL     OW29911   6.913   5.959   5.796
 9671SOL    HW129912   6.994   5.960   5.738
 9671SOL    HW229913   6.912   5.875   5.850
 9672SOL     OW29914   0.204   6.385   4.471
 9672SOL    HW129915   0.111   6.422   4.463
 9672SOL    HW229916   0.214   6.308   4.408
 9673SOL     OW29917   2.823   3.726   6.343
 9673SOL    HW129918   2.784   3.705   6.254
 9673SOL    HW229919   2.776   3.671   6.413
 9674SOL     OW29920   3.293   6.212   2.524
 9674SOL    HW129921   3.259   6.283   2.585
 9674SOL    HW229922   3.388   6.190   2.548
 9675SOL     OW29923   6.651   2.421   1.708
 9675SOL    HW129924   6.684   2.342   1.658
 9675SOL    HW229925   6.727   2.483   1.728
 9676SOL     OW29926   0.107   3.569   4.355
 9676SOL    HW129927   0.119   3.645   4.292
 9676SOL    HW229928   0.176   3.499   4.337
 9677SOL     OW29929   1.758   3.222   5.933
 9677SOL    HW129930   1.768   3.151   6.003
 9677SOL    HW229931   1.698   3.294   5.967
 9678SOL     OW29932   3.237   3.257   3.350
 9678SOL    HW129933   3.219   3.205   3.267
 9678SOL    HW229934   3.323   3.307   3.341
 9679SOL     OW29935   0.844   3.032   1.862
 9679SOL    HW129936   0.916   2.964   1.868
 9679SOL    HW229937   0.868   3.111   1.919
 9680SOL     OW29938   5.794   5.602   3.415
 9680SOL    HW129939   5.881   5.553   3.424
 9680SOL    HW229940   5.800   5.689   3.465
 9681SOL     OW29941   2.104   0.785   2.984
 9681SOL    HW129942   2.079   0.850   2.913
 9681SOL    HW229943   2.161   0.830   3.052
 9682SOL     OW29944   6.295   4.360   2.863
 9682SOL    HW129945   6.393   4.354   2.880
 9682SOL    HW229946   6.275   4.323   2.772
 9683SOL     OW29947   4.893   5.725   6.848
 9683SOL    HW129948   4.910   5.714   6.946
 9683SOL    HW229949   4.820   5.663   6.820
 9684SOL     OW29950   1.116   3.282   4.825
 9684SOL    HW129951   1.026   3.238   4.833
 9684SOL    HW229952   1.140   3.325   4.912
 9685SOL     OW29953   1.387   2.678   6.986
 9685SOL    HW129954   1.320   2.735   6.939
 9685SOL    HW229955   1.449   2.736   0.016
 9686SOL     OW29956   6.144   0.828   1.667
 9686SOL    HW129957   6.161   0.854   1.572
 9686SOL    HW229958   6.047   0.837   1.688
 9687SOL     OW29959   3.112   0.539   4.138
 9687SOL    HW129960   3.136   0.581   4.225
 9687SOL    HW229961   3.160   0.452   4.128
 9688SOL     OW29962   0.059   1.347   2.824
 9688SOL    HW129963   0.127   1.348   2.751
 9688SOL    HW229964   0.029   1.441   2.844
 9689SOL     OW29965   2.433   6.170   6.105
 9689SOL    HW129966   2.437   6.109   6.184
 9689SOL    HW229967   2.349   6.151   6.053
 9690SOL     OW29968   6.401   4.434   1.387
 9690SOL    HW129969   6.496   4.453   1.364
 9690SOL    HW229970   6.342   4.461   1.310
 9691SOL     OW29971   1.961   4.568   2.013
 9691SOL    HW129972   2.016   4.535   2.089
 9691SOL    HW229973   2.011   4.641   1.965
 9692SOL     OW29974   2.492   5.734   1.939
 9692SOL    HW129975   2.409   5.763   1.892
 9692SOL    HW229976   2.562   5.710   1.872
 9693SOL     OW29977   6.015   5.886   1.788
 9693SOL    HW129978   5.931   5.870   1.737
 9693SOL    HW229979   6.079   5.940   1.732
 9694SOL     OW29980   1.844   2.677   6.944
 9694SOL    HW129981   1.777   2.712   7.010
 9694SOL    HW229982   1.936   2.695   6.977
 9695SOL     OW29983   6.402   4.267   1.615
 9695SOL    HW129984   6.395   4.293   1.519
 9695SOL    HW229985   6.360   4.178   1.630
 9696SOL     OW29986   4.065   3.558   1.567
 9696SOL    HW129987   4.100   3.580   1.658
 9696SOL    HW229988   3.965   3.562   1.567
 9697SOL     OW29989   1.144   5.669   0.404
 9697SOL    HW129990   1.190   5.614   0.474
 9697SOL    HW229991   1.103   5.608   0.335
 9698SOL     OW29992   6.179   1.924   4.916
 9698SOL    HW129993   6.183   1.924   4.816
 9698SOL    HW229994   6.091   1.962   4.946
 9699SOL     OW29995   1.928   3.347   0.219
 9699SOL    HW129996   1.847   3.399   0.191
 9699SOL    HW229997   1.941   3.269   0.157
 9700SOL     OW29998   3.400   4.191   4.717
 9700SOL    HW129999   3.338   4.165   4.791
 9700SOL    HW230000   3.384   4.287   4.693
 9701SOL     OW30001   5.082   4.915   5.113
 9701SOL    HW130002   5.037   4.968   5.041
 9701SOL    HW230003   5.044   4.941   5.202
 9702SOL     OW30004   4.430   0.717   0.823
 9702SOL    HW130005   4.493   0.794   0.821
 9702SOL    HW230006   4.337   0.750   0.840
 9703SOL     OW30007   3.092   6.370   4.117
 9703SOL    HW130008   3.092   6.385   4.216
 9703SOL    HW230009   3.067   6.275   4.098
 9704SOL     OW30010   3.528   0.215   3.258
 9704SOL    HW130011   3.496   0.300   3.216
 9704SOL    HW230012   3.627   0.210   3.251
 9705SOL     OW30013   3.756   3.884   0.556
 9705SOL    HW130014   3.688   3.830   0.507
 9705SOL    HW230015   3.805   3.825   0.620
 9706SOL     OW30016   5.177   3.223   2.882
 9706SOL    HW130017   5.236   3.270   2.947
 9706SOL    HW230018   5.083   3.258   2.892
 9707SOL     OW30019   2.822   5.487   2.480
 9707SOL    HW130020   2.732   5.523   2.506
 9707SOL    HW230021   2.823   5.471   2.382
 9708SOL     OW30022   2.161   1.639   3.198
 9708SOL    HW130023   2.205   1.559   3.239
 9708SOL    HW230024   2.226   1.688   3.141
 9709SOL     OW30025   1.891   5.970   2.783
 9709SOL    HW130026   1.955   6.044   2.803
 9709SOL    HW230027   1.879   5.962   2.684
 9710SOL     OW30028   0.621   0.538   3.189
 9710SOL    HW130029   0.629   0.442   3.215
 9710SOL    HW230030   0.543   0.551   3.128
 9711SOL     OW30031   1.145   3.773   5.388
 9711SOL    HW130032   1.222   3.750   5.447
 9711SOL    HW230033   1.146   3.714   5.307
 9712SOL     OW30034   5.341   2.018   3.993
 9712SOL    HW130035   5.325   1.931   3.948
 9712SOL    HW230036   5.354   2.090   3.925
 9713SOL     OW30037   0.059   5.101   2.624
 9713SOL    HW130038   0.101   5.186   2.658
 9713SOL    HW230039   0.082   5.090   2.527
 9714SOL     OW30040   1.973   2.339   1.374
 9714SOL    HW130041   2.051   2.393   1.405
 9714SOL    HW230042   1.908   2.399   1.327
 9715SOL     OW30043   4.972   5.692   4.878
 9715SOL    HW130044   5.001   5.786   4.861
 9715SOL    HW230045   4.872   5.689   4.891
 9716SOL     OW30046   4.183   2.018   6.492
 9716SOL    HW130047   4.168   2.066   6.406
 9716SOL    HW230048   4.245   1.941   6.477
 9717SOL     OW30049   5.377   5.458   3.770
 9717SOL    HW130050   5.445   5.396   3.809
 9717SOL    HW230051   5.416   5.506   3.691
 9718SOL     OW30052   4.459   3.378   1.487
 9718SOL    HW130053   4.398   3.372   1.565
 9718SOL    HW230054   4.426   3.448   1.423
 9719SOL     OW30055   0.690   1.754   0.035
 9719SOL    HW130056   0.603   1.796   0.011
 9719SOL    HW230057   0.679   1.702   0.121
 9720SOL     OW30058   6.845   0.327   2.218
 9720SOL    HW130059   6.882   0.408   2.173
 9720SOL    HW230060   6.853   0.337   2.317
 9721SOL     OW30061   6.665   3.976   2.727
 9721SOL    HW130062   6.622   4.047   2.670
 9721SOL    HW230063   6.753   4.010   2.761
 9722SOL     OW30064   0.967   0.304   4.281
 9722SOL    HW130065   0.974   0.253   4.195
 9722SOL    HW230066   0.870   0.316   4.305
 9723SOL     OW30067   0.009   1.006   3.659
 9723SOL    HW130068   6.988   0.988   3.747
 9723SOL    HW230069   7.018   0.928   3.598
 9724SOL     OW30070   3.520   2.535   1.464
 9724SOL    HW130071   3.582   2.595   1.414
 9724SOL    HW230072   3.571   2.488   1.536
 9725SOL     OW30073   4.081   3.316   5.656
 9725SOL    HW130074   4.038   3.379   5.721
 9725SOL    HW230075   4.180   3.331   5.656
 9726SOL     OW30076   4.752   6.777   4.873
 9726SOL    HW130077   4.831   6.824   4.912
 9726SOL    HW230078   4.769   6.760   4.776
 9727SOL     OW30079   1.584   2.657   5.769
 9727SOL    HW130080   1.653   2.704   5.825
 9727SOL    HW230081   1.505   2.635   5.826
 9728SOL     OW30082   3.086   5.825   6.925
 9728SOL    HW130083   3.183   5.827   6.904
 9728SOL    HW230084   3.062   5.736   6.964
 9729SOL     OW30085   2.949   5.116   2.789
 9729SOL    HW130086   2.891   5.178   2.842
 9729SOL    HW230087   2.936   5.133   2.691
 9730SOL     OW30088   6.556   3.064   2.641
 9730SOL    HW130089   6.463   3.101   2.638
 9730SOL    HW230090   6.573   3.010   2.559
 9731SOL     OW30091   3.865   4.935   1.068
 9731SOL    HW130092   3.858   4.917   0.969
 9731SOL    HW230093   3.782   4.902   1.113
 9732SOL     OW30094   6.404   6.600   2.519
 9732SOL    HW130095   6.349   6.598   2.436
 9732SOL    HW230096   6.347   6.577   2.598
 9733SOL     OW30097   5.322   4.413   6.194
 9733SOL    HW130098   5.297   4.474   6.119
 9733SOL    HW230099   5.294   4.454   6.281
 9734SOL     OW30100   5.263   2.389   4.622
 9734SOL    HW130101   5.234   2.485   4.623
 9734SOL    HW230102   5.359   2.383   4.652
 9735SOL     OW30103   1.424   4.548   1.314
 9735SOL    HW130104   1.399   4.458   1.350
 9735SOL    HW230105   1.444   4.541   1.217
 9736SOL     OW30106   3.483   1.043   0.707
 9736SOL    HW130107   3.385   1.057   0.720
 9736SOL    HW230108   3.525   1.131   0.682
 9737SOL     OW30109   4.108   2.104   5.129
 9737SOL    HW130110   4.183   2.149   5.081
 9737SOL    HW230111   4.060   2.171   5.186
 9738SOL     OW30112   1.389   0.770   2.776
 9738SOL    HW130113   1.290   0.756   2.781
 9738SOL    HW230114   1.434   0.683   2.752
 9739SOL     OW30115   5.362   4.503   1.598
 9739SOL    HW130116   5.328   4.504   1.692
 9739SOL    HW230117   5.436   4.436   1.590
 9740SOL     OW30118   6.895   4.733   3.059
 9740SOL    HW130119   6.961   4.661   3.040
 9740SOL    HW230120   6.885   4.792   2.979
 9741SOL     OW30121   4.693   2.310   2.033
 9741SOL    HW130122   4.747   2.382   2.076
 9741SOL    HW230123   4.695   2.321   1.934
 9742SOL     OW30124   5.094   1.599   4.207
 9742SOL    HW130125   5.047   1.524   4.254
 9742SOL    HW230126   5.026   1.656   4.160
 9743SOL     OW30127   1.784   3.047   6.153
 9743SOL    HW130128   1.852   3.000   6.210
 9743SOL    HW230129   1.692   3.015   6.178
 9744SOL     OW30130   1.801   1.031   1.797
 9744SOL    HW130131   1.827   1.112   1.745
 9744SOL    HW230132   1.818   1.047   1.894
 9745SOL     OW30133   0.129   2.427   5.238
 9745SOL    HW130134   0.141   2.517   5.198
 9745SOL    HW230135   0.033   2.412   5.258
 9746SOL     OW30136   6.105   0.988   4.960
 9746SOL    HW130137   6.130   0.987   4.863
 9746SOL    HW230138   6.186   1.006   5.016
 9747SOL     OW30139   0.507   6.865   6.501
 9747SOL    HW130140   0.492   6.941   6.438
 9747SOL    HW230141   0.424   6.848   6.554
 9748SOL     OW30142   0.171   6.158   4.252
 9748SOL    HW130143   0.121   6.115   4.327
 9748SOL    HW230144   0.108   6.212   4.196
 9749SOL     OW30145   0.608   4.517   4.251
 9749SOL    HW130146   0.517   4.506   4.210
 9749SOL    HW230147   0.641   4.610   4.232
 9750SOL     OW30148   4.334   4.845   3.482
 9750SOL    HW130149   4.329   4.880   3.388
 9750SOL    HW230150   4.428   4.816   3.501
 9751SOL     OW30151   2.016   2.545   0.398
 9751SOL    HW130152   2.023   2.506   0.490
 9751SOL    HW230153   1.941   2.502   0.349
 9752SOL     OW30154   4.019   1.315   5.839
 9752SOL    HW130155   4.017   1.231   5.893
 9752SOL    HW230156   3.941   1.315   5.776
 9753SOL     OW30157   0.039   5.425   5.514
 9753SOL    HW130158   7.010   5.504   5.547
 9753SOL    HW230159   0.007   5.343   5.562
 9754SOL     OW30160   0.930   1.429   6.295
 9754SOL    HW130161   0.844   1.481   6.299
 9754SOL    HW230162   1.005   1.490   6.270
 9755SOL     OW30163   4.029   4.796   5.402
 9755SOL    HW130164   3.941   4.782   5.355
 9755SOL    HW230165   4.072   4.879   5.366
 9756SOL     OW30166   5.880   2.751   6.577
 9756SOL    HW130167   5.797   2.704   6.607
 9756SOL    HW230168   5.912   2.710   6.491
 9757SOL     OW30169   6.261   2.453   3.685
 9757SOL    HW130170   6.358   2.444   3.706
 9757SOL    HW230171   6.250   2.494   3.594
 9758SOL     OW30172   2.709   0.383   6.731
 9758SOL    HW130173   2.669   0.458   6.677
 9758SOL    HW230174   2.720   0.303   6.673
 9759SOL     OW30175   3.614   6.038   0.736
 9759SOL    HW130176   3.636   5.972   0.665
 9759SOL    HW230177   3.518   6.066   0.726
 9760SOL     OW30178   5.817   4.443   6.085
 9760SOL    HW130179   5.902   4.471   6.131
 9760SOL    HW230180   5.829   4.450   5.986
 9761SOL     OW30181   5.429   5.753   1.687
 9761SOL    HW130182   5.361   5.813   1.730
 9761SOL    HW230183   5.385   5.666   1.663
 9762SOL     OW30184   2.477   1.486   5.054
 9762SOL    HW130185   2.383   1.508   5.029
 9762SOL    HW230186   2.490   1.387   5.052
 9763SOL     OW30187   2.692   1.508   1.036
 9763SOL    HW130188   2.774   1.520   0.979
 9763SOL    HW230189   2.708   1.548   1.126
 9764SOL     OW30190   1.065   2.241   2.079
 9764SOL    HW130191   1.128   2.317   2.097
 9764SOL    HW230192   1.111   2.155   2.099
 9765SOL     OW30193   0.250   1.647   5.626
 9765SOL    HW130194   0.218   1.657   5.720
 9765SOL    HW230195   0.316   1.719   5.605
 9766SOL     OW30196   2.524   0.589   2.559
 9766SOL    HW130197   2.622   0.570   2.567
 9766SOL    HW230198   2.510   0.687   2.546
 9767SOL     OW30199   5.294   0.563   5.165
 9767SOL    HW130200   5.248   0.476   5.146
 9767SOL    HW230201   5.302   0.576   5.264
 9768SOL     OW30202   4.732   2.592   2.520
 9768SOL    HW130203   4.802   2.605   2.450
 9768SOL    HW230204   4.764   2.525   2.587
 9769SOL     OW30205   0.819   1.902   1.554
 9769SOL    HW130206   0.914   1.894   1.584
 9769SOL    HW230207   0.806   1.988   1.505
 9770SOL     OW30208   5.820   4.920   6.241
 9770SOL    HW130209   5.784   4.984   6.309
 9770SOL    HW230210   5.747   4.859   6.211
 9771SOL     OW30211   3.943   5.885   6.067
 9771SOL    HW130212   4.002   5.832   6.128
 9771SOL    HW230213   3.902   5.825   5.998
 9772SOL     OW30214   6.426   0.469   1.573
 9772SOL    HW130215   6.384   0.379   1.583
 9772SOL    HW230216   6.381   0.533   1.635
 9773SOL     OW30217   6.202   5.740   2.924
 9773SOL    HW130218   6.186   5.780   2.834
 9773SOL    HW230219   6.248   5.807   2.982
 9774SOL     OW30220   0.432   4.887   3.173
 9774SOL    HW130221   0.401   4.805   3.220
 9774SOL    HW230222   0.482   4.946   3.238
 9775SOL     OW30223   2.451   2.658   4.407
 9775SOL    HW130224   2.462   2.559   4.409
 9775SOL    HW230225   2.483   2.694   4.319
 9776SOL     OW30226   0.343   5.431   4.768
 9776SOL    HW130227   0.382   5.340   4.753
 9776SOL    HW230228   0.410   5.501   4.742
 9777SOL     OW30229   5.328   4.760   6.359
 9777SOL    HW130230   5.405   4.700   6.381
 9777SOL    HW230231   5.345   4.851   6.395
 9778SOL     OW30232   4.314   0.870   2.692
 9778SOL    HW130233   4.286   0.947   2.750
 9778SOL    HW230234   4.273   0.786   2.726
 9779SOL     OW30235   2.589   2.095   6.064
 9779SOL    HW130236   2.588   2.031   5.987
 9779SOL    HW230237   2.498   2.135   6.076
 9780SOL     OW30238   3.664   4.420   0.052
 9780SOL    HW130239   3.608   4.456   0.127
 9780SOL    HW230240   3.754   4.462   0.055
 9781SOL     OW30241   1.955   5.163   4.201
 9781SOL    HW130242   1.962   5.218   4.284
 9781SOL    HW230243   1.970   5.067   4.223
 9782SOL     OW30244   6.582   0.205   1.231
 9782SOL    HW130245   6.644   0.199   1.153
 9782SOL    HW230246   6.588   0.295   1.273
 9783SOL     OW30247   4.790   1.253   2.560
 9783SOL    HW130248   4.807   1.351   2.573
 9783SOL    HW230249   4.872   1.202   2.585
 9784SOL     OW30250   4.899   1.134   4.058
 9784SOL    HW130251   4.912   1.082   4.142
 9784SOL    HW230252   4.813   1.185   4.064
 9785SOL     OW30253   0.515   3.085   1.330
 9785SOL    HW130254   0.543   3.176   1.299
 9785SOL    HW230255   0.585   3.018   1.305
 9786SOL     OW30256   2.763   6.819   4.836
 9786SOL    HW130257   2.666   6.810   4.859
 9786SOL    HW230258   2.816   6.753   4.888
 9787SOL     OW30259   5.477   4.275   1.722
 9787SOL    HW130260   5.439   4.185   1.743
 9787SOL    HW230261   5.541   4.268   1.646
 9788SOL     OW30262   0.481   1.008   5.452
 9788SOL    HW130263   0.492   1.099   5.412
 9788SOL    HW230264   0.565   0.956   5.440
 9789SOL     OW30265   2.021   5.799   4.631
 9789SOL    HW130266   2.035   5.715   4.684
 9789SOL    HW230267   1.954   5.856   4.678
 9790SOL     OW30268   6.613   2.095   4.579
 9790SOL    HW130269   6.555   2.044   4.643
 9790SOL    HW230270   6.615   2.191   4.604
 9791SOL     OW30271   1.072   2.600   1.055
 9791SOL    HW130272   1.153   2.590   0.998
 9791SOL    HW230273   1.021   2.680   1.027
 9792SOL     OW30274   4.704   5.587   2.018
 9792SOL    HW130275   4.757   5.563   1.937
 9792SOL    HW230276   4.681   5.684   2.015
 9793SOL     OW30277   4.339   6.120   2.457
 9793SOL    HW130278   4.431   6.082   2.460
 9793SOL    HW230279   4.339   6.210   2.502
 9794SOL     OW30280   3.534   2.887   6.820
 9794SOL    HW130281   3.603   2.816   6.809
 9794SOL    HW230282   3.446   2.846   6.839
 9795SOL     OW30283   1.970   3.640   4.199
 9795SOL    HW130284   2.041   3.664   4.264
 9795SOL    HW230285   1.937   3.547   4.218
 9796SOL     OW30286   3.223   5.281   0.080
 9796SOL    HW130287   3.196   5.306   7.010
 9796SOL    HW230288   3.266   5.359   0.125
 9797SOL     OW30289   5.039   2.968   5.214
 9797SOL    HW130290   5.003   2.891   5.267
 9797SOL    HW230291   4.976   3.046   5.222
 9798SOL     OW30292   1.871   2.049   1.644
 9798SOL    HW130293   1.968   2.070   1.657
 9798SOL    HW230294   1.818   2.134   1.647
 9799SOL     OW30295   3.022   3.985   2.010
 9799SOL    HW130296   2.970   3.900   2.000
 9799SOL    HW230297   2.979   4.042   2.080
 9800SOL     OW30298   4.307   5.381   6.360
 9800SOL    HW130299   4.356   5.369   6.274
 9800SOL    HW230300   4.347   5.457   6.411
 9801SOL     OW30301   4.308   4.848   6.902
 9801SOL    HW130302   4.311   4.861   7.001
 9801SOL    HW230303   4.244   4.914   6.861
 9802SOL     OW30304   6.972   3.701   1.213
 9802SOL    HW130305   6.881   3.739   1.232
 9802SOL    HW230306   0.019   3.770   1.229
 9803SOL     OW30307   6.210   1.108   6.524
 9803SOL    HW130308   6.288   1.135   6.581
 9803SOL    HW230309   6.125   1.117   6.577
 9804SOL     OW30310   5.475   5.282   4.291
 9804SOL    HW130311   5.531   5.241   4.220
 9804SOL    HW230312   5.408   5.344   4.249
 9805SOL     OW30313   3.174   4.464   0.100
 9805SOL    HW130314   3.273   4.458   0.110
 9805SOL    HW230315   3.151   4.521   0.021
 9806SOL     OW30316   6.527   1.811   2.887
 9806SOL    HW130317   6.561   1.897   2.850
 9806SOL    HW230318   6.431   1.799   2.861
 9807SOL     OW30319   3.398   2.627   0.582
 9807SOL    HW130320   3.461   2.587   0.649
 9807SOL    HW230321   3.398   2.572   0.499
 9808SOL     OW30322   0.718   1.353   4.780
 9808SOL    HW130323   0.623   1.368   4.755
 9808SOL    HW230324   0.775   1.356   4.698
 9809SOL     OW30325   1.261   0.934   4.904
 9809SOL    HW130326   1.166   0.928   4.935
 9809SOL    HW230327   1.297   1.025   4.926
 9810SOL     OW30328   3.681   0.834   3.742
 9810SOL    HW130329   3.649   0.913   3.795
 9810SOL    HW230330   3.655   0.750   3.788
 9811SOL     OW30331   1.146   6.742   2.537
 9811SOL    HW130332   1.096   6.721   2.621
 9811SOL    HW230333   1.095   6.707   2.458
 9812SOL     OW30334   4.983   2.728   5.417
 9812SOL    HW130335   4.893   2.693   5.442
 9812SOL    HW230336   5.042   2.653   5.388
 9813SOL     OW30337   6.723   4.792   0.268
 9813SOL    HW130338   6.666   4.710   0.262
 9813SOL    HW230339   6.696   4.856   0.196
 9814SOL     OW30340   0.100   0.182   5.509
 9814SOL    HW130341   0.081   0.137   5.596
 9814SOL    HW230342   0.195   0.166   5.483
 9815SOL     OW30343   6.733   4.055   3.086
 9815SOL    HW130344   6.787   3.971   3.078
 9815SOL    HW230345   6.638   4.036   3.061
 9816SOL     OW30346   0.112   7.005   6.132
 9816SOL    HW130347   0.020   6.969   6.146
 9816SOL    HW230348   0.176   6.929   6.125
 9817SOL     OW30349   2.967   6.991   6.932
 9817SOL    HW130350   2.958   6.899   6.969
 9817SOL    HW230351   2.950   6.989   6.833
 9818SOL     OW30352   0.971   6.684   3.460
 9818SOL    HW130353   0.946   6.741   3.381
 9818SOL    HW230354   0.888   6.647   3.502
 9819SOL     OW30355   6.953   3.342   4.486
 9819SOL    HW130356   6.931   3.275   4.415
 9819SOL    HW230357   6.873   3.356   4.544
 9820SOL     OW30358   3.999   1.746   5.979
 9820SOL    HW130359   3.952   1.833   5.997
 9820SOL    HW230360   3.996   1.727   5.881
 9821SOL     OW30361   3.897   3.244   1.496
 9821SOL    HW130362   3.905   3.150   1.464
 9821SOL    HW230363   3.948   3.253   1.582
 9822SOL     OW30364   3.515   6.626   5.417
 9822SOL    HW130365   3.571   6.708   5.431
 9822SOL    HW230366   3.513   6.572   5.501
 9823SOL     OW30367   2.692   6.738   3.117
 9823SOL    HW130368   2.695   6.649   3.163
 9823SOL    HW230369   2.765   6.742   3.048
 9824SOL     OW30370   0.813   5.880   5.036
 9824SOL    HW130371   0.876   5.804   5.049
 9824SOL    HW230372   0.846   5.960   5.085
 9825SOL     OW30373   6.016   6.780   5.019
 9825SOL    HW130374   6.047   6.727   5.098
 9825SOL    HW230375   5.955   6.724   4.963
 9826SOL     OW30376   2.408   5.444   5.118
 9826SOL    HW130377   2.424   5.372   5.186
 9826SOL    HW230378   2.457   5.422   5.034
 9827SOL     OW30379   1.734   4.759   1.963
 9827SOL    HW130380   1.765   4.672   1.999
 9827SOL    HW230381   1.728   4.753   1.863
 9828SOL     OW30382   4.655   2.515   4.661
 9828SOL    HW130383   4.639   2.568   4.578
 9828SOL    HW230384   4.579   2.528   4.724
 9829SOL     OW30385   4.673   5.467   5.678
 9829SOL    HW130386   4.615   5.536   5.636
 9829SOL    HW230387   4.703   5.401   5.608
 9830SOL     OW30388   5.715   1.593   3.448
 9830SOL    HW130389   5.789   1.625   3.389
 9830SOL    HW230390   5.627   1.620   3.409
 9831SOL     OW30391   0.620   4.308   2.651
 9831SOL    HW130392   0.671   4.228   2.683
 9831SOL    HW230393   0.665   4.391   2.684
 9832SOL     OW30394   4.662   5.509   4.701
 9832SOL    HW130395   4.670   5.551   4.791
 9832SOL    HW230396   4.672   5.580   4.630
 9833SOL     OW30397   3.992   3.811   3.778
 9833SOL    HW130398   4.028   3.754   3.852
 9833SOL    HW230399   3.932   3.881   3.817
 9834SOL     OW30400   2.698   6.533   5.832
 9834SOL    HW130401   2.724   6.604   5.897
 9834SOL    HW230402   2.685   6.573   5.741
 9835SOL     OW30403   4.045   3.775   4.182
 9835SOL    HW130404   4.007   3.867   4.170
 9835SOL    HW230405   4.072   3.763   4.278
 9836SOL     OW30406   0.069   3.938   6.106
 9836SOL    HW130407   0.157   3.891   6.110
 9836SOL    HW230408   0.001   3.886   6.158
 9837SOL     OW30409   5.622   2.112   3.366
 9837SOL    HW130410   5.562   2.052   3.420
 9837SOL    HW230411   5.717   2.092   3.388
 9838SOL     OW30412   1.860   6.844   1.306
 9838SOL    HW130413   1.840   6.861   1.402
 9838SOL    HW230414   1.956   6.818   1.295
 9839SOL     OW30415   5.027   6.959   3.818
 9839SOL    HW130416   5.005   0.009   3.752
 9839SOL    HW230417   4.947   6.938   3.873
 9840SOL     OW30418   6.499   1.583   7.006
 9840SOL    HW130419   6.552   1.508   0.022
 9840SOL    HW230420   6.514   1.667   0.036
 9841SOL     OW30421   0.051   6.581   2.609
 9841SOL    HW130422   0.122   6.581   2.680
 9841SOL    HW230423   6.983   6.590   2.652
 9842SOL     OW30424   3.261   0.633   6.725
 9842SOL    HW130425   3.176   0.643   6.776
 9842SOL    HW230426   3.332   0.597   6.786
 9843SOL     OW30427   0.521   0.442   1.471
 9843SOL    HW130428   0.495   0.435   1.567
 9843SOL    HW230429   0.581   0.521   1.459
 9844SOL     OW30430   5.056   0.164   4.266
 9844SOL    HW130431   5.048   0.186   4.169
 9844SOL    HW230432   5.117   0.230   4.311
 9845SOL     OW30433   1.757   3.335   2.462
 9845SOL    HW130434   1.729   3.416   2.410
 9845SOL    HW230435   1.854   3.317   2.446
 9846SOL     OW30436   6.111   2.382   1.525
 9846SOL    HW130437   6.014   2.407   1.522
 9846SOL    HW230438   6.160   2.434   1.455
 9847SOL     OW30439   3.997   4.095   6.501
 9847SOL    HW130440   4.071   4.160   6.489
 9847SOL    HW230441   4.019   4.033   6.577
 9848SOL     OW30442   3.448   3.822   5.748
 9848SOL    HW130443   3.505   3.863   5.678
 9848SOL    HW230444   3.377   3.886   5.776
 9849SOL     OW30445   0.666   2.524   4.313
 9849SOL    HW130446   0.600   2.549   4.243
 9849SOL    HW230447   0.626   2.538   4.404
 9850SOL     OW30448   1.934   0.011   4.276
 9850SOL    HW130449   2.020   0.006   4.327
 9850SOL    HW230450   1.953   0.021   4.179
 9851SOL     OW30451   3.664   5.306   4.768
 9851SOL    HW130452   3.626   5.366   4.838
 9851SOL    HW230453   3.622   5.216   4.775
 9852SOL     OW30454   1.931   6.963   0.290
 9852SOL    HW130455   1.944   0.034   0.258
 9852SOL    HW230456   1.947   6.958   0.388
 9853SOL     OW30457   0.277   4.437   3.714
 9853SOL    HW130458   0.188   4.447   3.760
 9853SOL    HW230459   0.285   4.344   3.679
 9854SOL     OW30460   1.026   4.591   6.199
 9854SOL    HW130461   1.112   4.614   6.152
 9854SOL    HW230462   0.965   4.543   6.136
 9855SOL     OW30463   1.156   5.061   0.731
 9855SOL    HW130464   1.084   5.020   0.675
 9855SOL    HW230465   1.164   5.011   0.817
 9856SOL     OW30466   5.592   3.849   3.149
 9856SOL    HW130467   5.597   3.749   3.158
 9856SOL    HW230468   5.662   3.891   3.208
 9857SOL     OW30469   4.569   0.423   5.535
 9857SOL    HW130470   4.631   0.378   5.599
 9857SOL    HW230471   4.611   0.424   5.444
 9858SOL     OW30472   6.665   5.922   1.752
 9858SOL    HW130473   6.621   6.004   1.790
 9858SOL    HW230474   6.729   5.949   1.680
 9859SOL     OW30475   0.003   5.231   3.096
 9859SOL    HW130476   0.007   5.168   3.174
 9859SOL    HW230477   6.965   5.194   3.026
 9860SOL     OW30478   1.313   2.869   4.700
 9860SOL    HW130479   1.313   2.962   4.663
 9860SOL    HW230480   1.380   2.862   4.774
 9861SOL     OW30481   3.384   2.005   2.615
 9861SOL    HW130482   3.316   2.037   2.549
 9861SOL    HW230483   3.443   1.936   2.571
 9862SOL     OW30484   1.129   4.306   0.115
 9862SOL    HW130485   1.180   4.228   0.150
 9862SOL    HW230486   1.137   4.383   0.180
 9863SOL     OW30487   4.127   6.307   1.347
 9863SOL    HW130488   4.147   6.405   1.344
 9863SOL    HW230489   4.160   6.268   1.433
 9864SOL     OW30490   2.279   5.468   5.554
 9864SOL    HW130491   2.315   5.527   5.625
 9864SOL    HW230492   2.353   5.414   5.514
 9865SOL     OW30493   1.099   5.299   5.853
 9865SOL    HW130494   1.122   5.258   5.942
 9865SOL    HW230495   1.179   5.348   5.818
 9866SOL     OW30496   6.968   5.168   5.587
 9866SOL    HW130497   6.983   5.096   5.655
 9866SOL    HW230498   6.900   5.137   5.521
 9867SOL     OW30499   3.852   1.907   2.358
 9867SOL    HW130500   3.849   1.981   2.290
 9867SOL    HW230501   3.939   1.858   2.350
 9868SOL     OW30502   2.523   4.667   3.947
 9868SOL    HW130503   2.442   4.646   4.001
 9868SOL    HW230504   2.527   4.607   3.867
 9869SOL     OW30505   6.655   2.496   0.927
 9869SOL    HW130506   6.743   2.543   0.931
 9869SOL    HW230507   6.630   2.464   1.018
 9870SOL     OW30508   2.232   2.027   2.474
 9870SOL    HW130509   2.190   1.975   2.399
 9870SOL    HW230510   2.177   2.015   2.557
 9871SOL     OW30511   5.382   5.272   3.488
 9871SOL    HW130512   5.396   5.278   3.587
 9871SOL    HW230513   5.411   5.358   3.446
 9872SOL     OW30514   0.695   4.887   6.009
 9872SOL    HW130515   0.713   4.980   5.976
 9872SOL    HW230516   0.639   4.839   5.941
 9873SOL     OW30517   1.153   1.297   5.352
 9873SOL    HW130518   1.125   1.355   5.275
 9873SOL    HW230519   1.199   1.215   5.317
 9874SOL     OW30520   0.171   2.666   5.080
 9874SOL    HW130521   0.252   2.648   5.025
 9874SOL    HW230522   0.145   2.762   5.071
 9875SOL     OW30523   6.196   6.094   0.921
 9875SOL    HW130524   6.190   6.190   0.946
 9875SOL    HW230525   6.289   6.072   0.894
 9876SOL     OW30526   0.969   6.192   3.452
 9876SOL    HW130527   0.993   6.180   3.548
 9876SOL    HW230528   0.872   6.216   3.445
 9877SOL     OW30529   0.744   5.080   5.281
 9877SOL    HW130530   0.767   4.988   5.313
 9877SOL    HW230531   0.767   5.147   5.351
 9878SOL     OW30532   3.161   2.892   6.669
 9878SOL    HW130533   3.179   2.849   6.758
 9878SOL    HW230534   3.063   2.911   6.661
 9879SOL     OW30535   6.985   5.205   5.919
 9879SOL    HW130536   6.920   5.130   5.936
 9879SOL    HW230537   6.937   5.281   5.876
 9880SOL     OW30538   2.699   0.835   0.816
 9880SOL    HW130539   2.703   0.776   0.735
 9880SOL    HW230540   2.738   0.786   0.894
 9881SOL     OW30541   6.106   1.514   3.793
 9881SOL    HW130542   6.103   1.425   3.838
 9881SOL    HW230543   6.201   1.537   3.771
 9882SOL     OW30544   3.551   3.164   5.239
 9882SOL    HW130545   3.630   3.156   5.178
 9882SOL    HW230546   3.471   3.122   5.196
 9883SOL     OW30547   1.973   0.048   2.298
 9883SOL    HW130548   2.026   0.130   2.278
 9883SOL    HW230549   2.024   7.013   2.361
 9884SOL     OW30550   2.951   2.623   5.322
 9884SOL    HW130551   3.005   2.557   5.270
 9884SOL    HW230552   3.010   2.695   5.357
 9885SOL     OW30553   4.932   2.961   5.610
 9885SOL    HW130554   4.967   2.944   5.703
 9885SOL    HW230555   4.932   2.875   5.559
 9886SOL     OW30556   3.437   5.886   1.398
 9886SOL    HW130557   3.358   5.889   1.459
 9886SOL    HW230558   3.507   5.827   1.438
 9887SOL     OW30559   2.937   2.019   6.472
 9887SOL    HW130560   2.938   2.033   6.373
 9887SOL    HW230561   3.028   1.989   6.501
 9888SOL     OW30562   6.520   6.665   3.320
 9888SOL    HW130563   6.587   6.632   3.387
 9888SOL    HW230564   6.442   6.704   3.368
 9889SOL     OW30565   6.885   6.054   2.924
 9889SOL    HW130566   6.852   6.139   2.883
 9889SOL    HW230567   6.862   5.977   2.864
 9890SOL     OW30568   0.609   3.508   2.309
 9890SOL    HW130569   0.511   3.524   2.323
 9890SOL    HW230570   0.634   3.532   2.215
 9891SOL     OW30571   5.442   5.492   1.624
 9891SOL    HW130572   5.417   5.397   1.641
 9891SOL    HW230573   5.504   5.498   1.546
 9892SOL     OW30574   1.442   5.529   3.963
 9892SOL    HW130575   1.362   5.510   3.906
 9892SOL    HW230576   1.428   5.490   4.054
 9893SOL     OW30577   5.445   5.121   4.712
 9893SOL    HW130578   5.536   5.104   4.750
 9893SOL    HW230579   5.376   5.073   4.766
 9894SOL     OW30580   4.510   2.812   5.535
 9894SOL    HW130581   4.447   2.802   5.458
 9894SOL    HW230582   4.567   2.894   5.521
 9895SOL     OW30583   5.663   1.802   0.038
 9895SOL    HW130584   5.703   1.838   0.122
 9895SOL    HW230585   5.684   1.862   6.984
 9896SOL     OW30586   4.477   3.042   6.995
 9896SOL    HW130587   4.558   3.011   6.945
 9896SOL    HW230588   4.483   3.140   7.011
 9897SOL     OW30589   6.852   1.930   3.805
 9897SOL    HW130590   6.768   1.961   3.759
 9897SOL    HW230591   6.909   2.010   3.826
 9898SOL     OW30592   1.331   4.984   5.890
 9898SOL    HW130593   1.235   4.970   5.914
 9898SOL    HW230594   1.385   4.990   5.974
 9899SOL     OW30595   4.847   5.031   2.489
 9899SOL    HW130596   4.825   4.951   2.545
 9899SOL    HW230597   4.805   5.022   2.399
 9900SOL     OW30598   1.103   3.695   3.501
 9900SOL    HW130599   1.197   3.663   3.500
 9900SOL    HW230600   1.084   3.740   3.588
 9901SOL     OW30601   2.505   1.652   5.706
 9901SOL    HW130602   2.559   1.582   5.659
 9901SOL    HW230603   2.458   1.709   5.638
 9902SOL     OW30604   4.592   3.577   0.268
 9902SOL    HW130605   4.496   3.551   0.265
 9902SOL    HW230606   4.617   3.623   0.183
 9903SOL     OW30607   3.622   0.610   1.452
 9903SOL    HW130608   3.711   0.657   1.453
 9903SOL    HW230609   3.620   0.546   1.376
 9904SOL     OW30610   0.169   0.259   2.073
 9904SOL    HW130611   0.245   0.323   2.083
 9904SOL    HW230612   0.091   0.292   2.126
 9905SOL     OW30613   1.831   6.123   6.344
 9905SOL    HW130614   1.912   6.100   6.397
 9905SOL    HW230615   1.856   6.133   6.247
 9906SOL     OW30616   3.646   3.682   6.036
 9906SOL    HW130617   3.602   3.647   5.953
 9906SOL    HW230618   3.744   3.663   6.032
 9907SOL     OW30619   1.335   6.406   2.615
 9907SOL    HW130620   1.355   6.489   2.564
 9907SOL    HW230621   1.311   6.429   2.710
 9908SOL     OW30622   0.878   3.190   4.861
 9908SOL    HW130623   0.801   3.188   4.925
 9908SOL    HW230624   0.855   3.138   4.779
 9909SOL     OW30625   3.371   0.109   2.784
 9909SOL    HW130626   3.432   0.082   2.710
 9909SOL    HW230627   3.289   0.052   2.783
 9910SOL     OW30628   0.905   4.726   1.581
 9910SOL    HW130629   0.998   4.729   1.616
 9910SOL    HW230630   0.840   4.719   1.657
 9911SOL     OW30631   4.087   4.880   3.214
 9911SOL    HW130632   4.038   4.899   3.299
 9911SOL    HW230633   4.179   4.917   3.220
 9912SOL     OW30634   4.132   0.039   1.351
 9912SOL    HW130635   4.175   0.064   1.265
 9912SOL    HW230636   4.180   6.982   1.391
 9913SOL     OW30637   4.481   2.389   2.526
 9913SOL    HW130638   4.529   2.477   2.520
 9913SOL    HW230639   4.437   2.381   2.616
 9914SOL     OW30640   2.099   5.334   5.700
 9914SOL    HW130641   2.165   5.362   5.631
 9914SOL    HW230642   2.148   5.300   5.781
 9915SOL     OW30643   5.719   3.857   4.069
 9915SOL    HW130644   5.626   3.893   4.074
 9915SOL    HW230645   5.784   3.928   4.095
 9916SOL     OW30646   2.566   3.272   0.657
 9916SOL    HW130647   2.475   3.313   0.660
 9916SOL    HW230648   2.557   3.173   0.644
 9917SOL     OW30649   1.958   3.155   4.781
 9917SOL    HW130650   1.964   3.150   4.681
 9917SOL    HW230651   2.037   3.109   4.822
 9918SOL     OW30652   2.223   0.949   4.661
 9918SOL    HW130653   2.134   0.970   4.702
 9918SOL    HW230654   2.237   0.850   4.659
 9919SOL     OW30655   0.139   5.349   2.690
 9919SOL    HW130656   0.190   5.399   2.620
 9919SOL    HW230657   0.203   5.314   2.758
 9920SOL     OW30658   4.364   6.381   2.518
 9920SOL    HW130659   4.459   6.405   2.498
 9920SOL    HW230660   4.303   6.441   2.466
 9921SOL     OW30661   4.711   0.246   3.529
 9921SOL    HW130662   4.685   0.316   3.595
 9921SOL    HW230663   4.739   0.290   3.443
 9922SOL     OW30664   5.132   3.237   1.418
 9922SOL    HW130665   5.166   3.148   1.388
 9922SOL    HW230666   5.050   3.262   1.366
 9923SOL     OW30667   6.348   0.917   6.018
 9923SOL    HW130668   6.357   0.822   6.047
 9923SOL    HW230669   6.304   0.921   5.928
 9924SOL     OW30670   5.031   0.930   2.973
 9924SOL    HW130671   4.975   1.011   2.955
 9924SOL    HW230672   4.999   0.884   3.055
 9925SOL     OW30673   2.988   2.201   4.765
 9925SOL    HW130674   2.948   2.152   4.842
 9925SOL    HW230675   3.049   2.273   4.799
 9926SOL     OW30676   1.469   1.000   6.813
 9926SOL    HW130677   1.395   0.941   6.781
 9926SOL    HW230678   1.473   1.082   6.755
 9927SOL     OW30679   0.861   2.154   2.278
 9927SOL    HW130680   0.924   2.199   2.214
 9927SOL    HW230681   0.906   2.141   2.366
 9928SOL     OW30682   6.692   3.320   2.685
 9928SOL    HW130683   6.642   3.234   2.676
 9928SOL    HW230684   6.739   3.339   2.599
 9929SOL     OW30685   1.882   4.021   5.564
 9929SOL    HW130686   1.798   4.029   5.510
 9929SOL    HW230687   1.862   3.973   5.650
 9930SOL     OW30688   0.475   5.372   0.309
 9930SOL    HW130689   0.497   5.283   0.270
 9930SOL    HW230690   0.433   5.430   0.238
 9931SOL     OW30691   2.890   5.045   0.029
 9931SOL    HW130692   2.946   5.099   0.091
 9931SOL    HW230693   2.898   5.082   6.959
 9932SOL     OW30694   1.767   2.412   0.930
 9932SOL    HW130695   1.852   2.359   0.938
 9932SOL    HW230696   1.710   2.396   1.010
 9933SOL     OW30697   0.698   1.458   2.483
 9933SOL    HW130698   0.653   1.505   2.408
 9933SOL    HW230699   0.645   1.376   2.508
 9934SOL     OW30700   4.642   1.460   0.231
 9934SOL    HW130701   4.654   1.429   0.325
 9934SOL    HW230702   4.547   1.447   0.204
 9935SOL     OW30703   2.901   2.219   1.152
 9935SOL    HW130704   2.963   2.212   1.230
 9935SOL    HW230705   2.913   2.140   1.092
 9936SOL     OW30706   5.723   6.287   6.043
 9936SOL    HW130707   5.623   6.286   6.044
 9936SOL    HW230708   5.756   6.270   5.950
 9937SOL     OW30709   1.301   0.276   3.486
 9937SOL    HW130710   1.399   0.259   3.499
 9937SOL    HW230711   1.284   0.374   3.481
 9938SOL     OW30712   6.730   1.327   3.818
 9938SOL    HW130713   6.721   1.283   3.907
 9938SOL    HW230714   6.739   1.258   3.747
 9939SOL     OW30715   2.735   4.048   1.239
 9939SOL    HW130716   2.777   3.972   1.289
 9939SOL    HW230717   2.806   4.097   1.188
 9940SOL     OW30718   0.038   0.842   3.420
 9940SOL    HW130719   7.014   0.876   3.338
 9940SOL    HW230720   0.133   0.873   3.420
 9941SOL     OW30721   5.111   5.128   0.637
 9941SOL    HW130722   5.172   5.082   0.702
 9941SOL    HW230723   5.028   5.074   0.625
 9942SOL     OW30724   5.514   5.788   3.003
 9942SOL    HW130725   5.530   5.731   3.083
 9942SOL    HW230726   5.594   5.783   2.942
 9943SOL     OW30727   1.384   3.699   6.009
 9943SOL    HW130728   1.388   3.653   6.097
 9943SOL    HW230729   1.295   3.744   6.000
 9944SOL     OW30730   1.200   5.514   6.210
 9944SOL    HW130731   1.135   5.466   6.269
 9944SOL    HW230732   1.284   5.461   6.201
 9945SOL     OW30733   6.718   3.668   6.657
 9945SOL    HW130734   6.734   3.569   6.664
 9945SOL    HW230735   6.631   3.685   6.611
 9946SOL     OW30736   5.061   2.097   1.669
 9946SOL    HW130737   5.095   2.004   1.661
 9946SOL    HW230738   4.989   2.100   1.739
 9947SOL     OW30739   0.173   1.977   3.285
 9947SOL    HW130740   0.214   1.888   3.302
 9947SOL    HW230741   0.103   1.996   3.353
 9948SOL     OW30742   5.687   0.487   4.523
 9948SOL    HW130743   5.760   0.520   4.583
 9948SOL    HW230744   5.726   0.431   4.450
 9949SOL     OW30745   6.689   4.509   3.057
 9949SOL    HW130746   6.605   4.548   3.019
 9949SOL    HW230747   6.741   4.580   3.103
 9950SOL     OW30748   4.825   4.270   5.449
 9950SOL    HW130749   4.738   4.248   5.405
 9950SOL    HW230750   4.900   4.255   5.384
 9951SOL     OW30751   6.853   1.976   3.192
 9951SOL    HW130752   6.881   1.884   3.216
 9951SOL    HW230753   6.817   1.977   3.099
 9952SOL     OW30754   1.386   4.530   2.256
 9952SOL    HW130755   1.430   4.542   2.167
 9952SOL    HW230756   1.302   4.584   2.260
 9953SOL     OW30757   5.961   4.105   3.852
 9953SOL    HW130758   5.920   4.089   3.762
 9953SOL    HW230759   6.047   4.055   3.858
 9954SOL     OW30760   3.417   0.805   1.084
 9954SOL    HW130761   3.380   0.712   1.079
 9954SOL    HW230762   3.449   0.823   1.177
 9955SOL     OW30763   5.563   4.601   1.243
 9955SOL    HW130764   5.524   4.653   1.319
 9955SOL    HW230765   5.648   4.558   1.272
 9956SOL     OW30766   2.175   3.047   3.834
 9956SOL    HW130767   2.163   3.146   3.839
 9956SOL    HW230768   2.101   3.008   3.778
 9957SOL     OW30769   5.477   0.606   0.798
 9957SOL    HW130770   5.572   0.634   0.809
 9957SOL    HW230771   5.462   0.518   0.843
 9958SOL     OW30772   5.709   5.634   0.168
 9958SOL    HW130773   5.740   5.541   0.187
 9958SOL    HW230774   5.697   5.684   0.254
 9959SOL     OW30775   4.934   5.526   0.385
 9959SOL    HW130776   5.034   5.516   0.380
 9959SOL    HW230777   4.891   5.448   0.339
 9960SOL     OW30778   6.785   0.056   0.398
 9960SOL    HW130779   6.799   0.081   0.494
 9960SOL    HW230780   6.830   0.123   0.339
 9961SOL     OW30781   3.295   5.645   0.788
 9961SOL    HW130782   3.209   5.657   0.838
 9961SOL    HW230783   3.302   5.550   0.757
 9962SOL     OW30784   3.453   0.653   1.698
 9962SOL    HW130785   3.503   0.676   1.615
 9962SOL    HW230786   3.355   0.644   1.677
 9963SOL     OW30787   0.998   0.331   5.697
 9963SOL    HW130788   1.016   0.388   5.777
 9963SOL    HW230789   0.959   0.388   5.624
 9964SOL     OW30790   4.318   4.776   6.335
 9964SOL    HW130791   4.266   4.846   6.384
 9964SOL    HW230792   4.375   4.819   6.265
 9965SOL     OW30793   3.287   5.158   3.894
 9965SOL    HW130794   3.226   5.177   3.971
 9965SOL    HW230795   3.324   5.066   3.904
 9966SOL     OW30796   3.464   5.165   2.990
 9966SOL    HW130797   3.530   5.162   3.065
 9966SOL    HW230798   3.371   5.174   3.028
 9967SOL     OW30799   0.086   0.299   3.127
 9967SOL    HW130800   0.018   0.367   3.154
 9967SOL    HW230801   0.043   0.209   3.120
 9968SOL     OW30802   4.312   6.665   6.905
 9968SOL    HW130803   4.263   6.579   6.922
 9968SOL    HW230804   4.403   6.645   6.869
 9969SOL     OW30805   0.259   5.688   4.097
 9969SOL    HW130806   0.256   5.742   4.013
 9969SOL    HW230807   0.187   5.718   4.159
 9970SOL     OW30808   6.467   3.662   2.120
 9970SOL    HW130809   6.514   3.749   2.110
 9970SOL    HW230810   6.531   3.592   2.150
 9971SOL     OW30811   0.237   5.010   4.305
 9971SOL    HW130812   0.275   5.101   4.288
 9971SOL    HW230813   0.160   4.994   4.243
 9972SOL     OW30814   3.565   4.222   5.977
 9972SOL    HW130815   3.609   4.141   5.937
 9972SOL    HW230816   3.523   4.197   6.064
 9973SOL     OW30817   2.396   2.233   3.279
 9973SOL    HW130818   2.381   2.221   3.377
 9973SOL    HW230819   2.331   2.176   3.229
 9974SOL     OW30820   1.168   2.280   3.075
 9974SOL    HW130821   1.196   2.196   3.030
 9974SOL    HW230822   1.249   2.328   3.110
 9975SOL     OW30823   2.560   4.423   6.869
 9975SOL    HW130824   2.581   4.506   6.817
 9975SOL    HW230825   2.484   4.375   6.826
 9976SOL     OW30826   4.017   5.302   5.727
 9976SOL    HW130827   3.925   5.337   5.749
 9976SOL    HW230828   4.025   5.292   5.628
 9977SOL     OW30829   4.705   0.122   5.574
 9977SOL    HW130830   4.644   0.105   5.498
 9977SOL    HW230831   4.684   0.059   5.649
 9978SOL     OW30832   0.991   3.011   6.862
 9978SOL    HW130833   0.981   3.070   6.782
 9978SOL    HW230834   1.033   3.064   6.937
 9979SOL     OW30835   3.503   3.586   5.143
 9979SOL    HW130836   3.551   3.508   5.103
 9979SOL    HW230837   3.408   3.561   5.163
 9980SOL     OW30838   1.822   1.687   1.341
 9980SOL    HW130839   1.859   1.678   1.248
 9980SOL    HW230840   1.739   1.744   1.338
 9981SOL     OW30841   6.514   1.865   0.083
 9981SOL    HW130842   6.514   1.878   0.182
 9981SOL    HW230843   6.420   1.874   0.048
 9982SOL     OW30844   1.876   2.001   4.348
 9982SOL    HW130845   1.938   2.064   4.394
 9982SOL    HW230846   1.813   1.961   4.415
 9983SOL     OW30847   1.075   3.625   2.481
 9983SOL    HW130848   1.155   3.622   2.541
 9983SOL    HW230849   1.065   3.716   2.442
 9984SOL     OW30850   0.234   5.016   1.027
 9984SOL    HW130851   0.136   4.998   1.039
 9984SOL    HW230852   0.269   5.062   1.109
 9985SOL     OW30853   5.041   4.724   0.197
 9985SOL    HW130854   5.103   4.803   0.196
 9985SOL    HW230855   5.090   4.643   0.165
 9986SOL     OW30856   5.744   5.380   0.309
 9986SOL    HW130857   5.704   5.399   0.398
 9986SOL    HW230858   5.724   5.286   0.282
 9987SOL     OW30859   5.884   2.588   1.305
 9987SOL    HW130860   5.923   2.545   1.224
 9987SOL    HW230861   5.789   2.558   1.316
 9988SOL     OW30862   5.566   6.930   3.697
 9988SOL    HW130863   5.560   6.992   3.619
 9988SOL    HW230864   5.518   6.971   3.775
 9989SOL     OW30865   0.322   5.829   2.333
 9989SOL    HW130866   0.408   5.797   2.373
 9989SOL    HW230867   0.330   5.926   2.309
 9990SOL     OW30868   0.197   6.806   3.242
 9990SOL    HW130869   0.224   6.887   3.189
 9990SOL    HW230870   0.151   6.835   3.326
 9991SOL     OW30871   1.861   4.920   3.156
 9991SOL    HW130872   1.885   4.884   3.246
 9991SOL    HW230873   1.944   4.954   3.111
 9992SOL     OW30874   2.283   5.017   0.518
 9992SOL    HW130875   2.257   4.929   0.558
 9992SOL    HW230876   2.378   5.037   0.542
 9993SOL     OW30877   3.932   6.931   4.889
 9993SOL    HW130878   3.962   7.022   4.919
 9993SOL    HW230879   3.839   6.914   4.923
 9994SOL     OW30880   6.042   5.075   4.720
 9994SOL    HW130881   6.119   5.125   4.759
 9994SOL    HW230882   5.959   5.131   4.727
 9995SOL     OW30883   3.510   1.534   5.953
 9995SOL    HW130884   3.474   1.620   5.916
 9995SOL    HW230885   3.448   1.459   5.931
 9996SOL     OW30886   2.628   3.680   0.663
 9996SOL    HW130887   2.676   3.678   0.576
 9996SOL    HW230888   2.673   3.744   0.725
 9997SOL     OW30889   6.223   2.880   3.376
 9997SOL    HW130890   6.137   2.829   3.364
 9997SOL    HW230891   6.285   2.857   3.301
 9998SOL     OW30892   4.987   4.418   2.597
 9998SOL    HW130893   5.055   4.433   2.669
 9998SOL    HW230894   5.033   4.388   2.514
 9999SOL     OW30895   0.752   6.750   3.922
 9999SOL    HW130896   0.683   6.810   3.884
 9999SOL    HW230897   0.729   6.655   3.900
10000SOL     OW30898   4.715   2.547   1.078
10000SOL    HW130899   4.775   2.499   1.014
10000SOL    HW230900   4.659   2.612   1.028
10001SOL     OW30901   3.991   6.253   1.820
10001SOL    HW130902   4.028   6.168   1.858
10001SOL    HW230903   3.893   6.242   1.804
10002SOL     OW30904   2.970   1.111   1.989
10002SOL    HW130905   2.983   1.033   2.051
10002SOL    HW230906   3.013   1.091   1.901
10003SOL     OW30907   1.310   0.754   3.482
10003SOL    HW130908   1.408   0.770   3.473
10003SOL    HW230909   1.262   0.841   3.494
10004SOL     OW30910   6.403   4.627   4.669
10004SOL    HW130911   6.340   4.549   4.662
10004SOL    HW230912   6.497   4.593   4.673
10005SOL     OW30913   2.131   5.124   3.404
10005SOL    HW130914   2.206   5.058   3.396
10005SOL    HW230915   2.118   5.149   3.499
10006SOL     OW30916   5.907   0.671   5.412
10006SOL    HW130917   5.866   0.752   5.454
10006SOL    HW230918   5.866   0.656   5.322
10007SOL     OW30919   1.284   4.844   4.287
10007SOL    HW130920   1.268   4.839   4.386
10007SOL    HW230921   1.360   4.785   4.262
10008SOL     OW30922   3.761   1.413   5.741
10008SOL    HW130923   3.693   1.373   5.802
10008SOL    HW230924   3.734   1.399   5.646
10009SOL     OW30925   1.105   3.888   2.360
10009SOL    HW130926   1.030   3.900   2.295
10009SOL    HW230927   1.192   3.900   2.312
10010SOL     OW30928   2.680   3.888   0.021
10010SOL    HW130929   2.775   3.862   0.006
10010SOL    HW230930   2.628   3.807   0.048
10011SOL     OW30931   1.934   3.118   7.019
10011SOL    HW130932   1.965   3.027   0.023
10011SOL    HW230933   1.842   3.111   6.979
10012SOL     OW30934   6.119   2.717   3.050
10012SOL    HW130935   6.097   2.638   2.992
10012SOL    HW230936   6.044   2.733   3.114
10013SOL     OW30937   0.152   6.196   5.073
10013SOL    HW130938   0.074   6.257   5.083
10013SOL    HW230939   0.231   6.248   5.041
10014SOL     OW30940   0.929   0.637   3.262
10014SOL    HW130941   0.835   0.626   3.232
10014SOL    HW230942   0.955   0.733   3.259
10015SOL     OW30943   4.109   5.558   6.006
10015SOL    HW130944   4.028   5.518   6.048
10015SOL    HW230945   4.171   5.485   5.977
10016SOL     OW30946   2.283   0.462   3.632
10016SOL    HW130947   2.279   0.363   3.643
10016SOL    HW230948   2.294   0.485   3.535
10017SOL     OW30949   2.499   2.403   2.944
10017SOL    HW130950   2.520   2.392   3.041
10017SOL    HW230951   2.554   2.477   2.906
10018SOL     OW30952   6.800   3.417   5.225
10018SOL    HW130953   6.847   3.503   5.247
10018SOL    HW230954   6.724   3.403   5.288
10019SOL     OW30955   0.512   2.265   1.892
10019SOL    HW130956   0.580   2.193   1.902
10019SOL    HW230957   0.556   2.348   1.858
10020SOL     OW30958   6.073   0.812   2.070
10020SOL    HW130959   6.011   0.881   2.107
10020SOL    HW230960   6.020   0.742   2.022
10021SOL     OW30961   1.079   3.434   2.272
10021SOL    HW130962   1.005   3.368   2.286
10021SOL    HW230963   1.073   3.506   2.342
10022SOL     OW30964   2.226   5.137   6.536
10022SOL    HW130965   2.314   5.101   6.503
10022SOL    HW230966   2.163   5.062   6.550
10023SOL     OW30967   0.689   0.756   6.181
10023SOL    HW130968   0.763   0.807   6.224
10023SOL    HW230969   0.601   0.790   6.215
10024SOL     OW30970   1.578   4.754   2.716
10024SOL    HW130971   1.675   4.734   2.707
10024SOL    HW230972   1.533   4.739   2.627
10025SOL     OW30973   1.087   4.460   1.305
10025SOL    HW130974   1.057   4.554   1.292
10025SOL    HW230975   1.094   4.441   1.403
10026SOL     OW30976   5.161   1.872   4.329
10026SOL    HW130977   5.177   1.951   4.271
10026SOL    HW230978   5.211   1.793   4.293
10027SOL     OW30979   2.702   1.665   5.118
10027SOL    HW130980   2.623   1.637   5.063
10027SOL    HW230981   2.786   1.649   5.067
10028SOL     OW30982   4.355   0.404   1.156
10028SOL    HW130983   4.388   0.382   1.248
10028SOL    HW230984   4.313   0.495   1.157
10029SOL     OW30985   0.512   4.077   4.577
10029SOL    HW130986   0.516   3.978   4.562
10029SOL    HW230987   0.513   4.124   4.488
10030SOL     OW30988   2.308   6.940   4.821
10030SOL    HW130989   2.381   6.956   4.754
10030SOL    HW230990   2.219   6.942   4.774
10031SOL     OW30991   2.978   4.781   3.389
10031SOL    HW130992   3.039   4.838   3.444
10031SOL    HW230993   3.009   4.686   3.392
10032SOL     OW30994   3.159   6.464   5.060
10032SOL    HW130995   3.230   6.420   5.114
10032SOL    HW230996   3.196   6.546   5.015
10033SOL     OW30997   2.908   0.899   4.241
10033SOL    HW130998   2.818   0.906   4.198
10033SOL    HW230999   2.977   0.874   4.173
10034SOL     OW31000   2.613   0.870   4.179
10034SOL    HW131001   2.605   0.914   4.269
10034SOL    HW231002   2.551   0.914   4.115
10035SOL     OW31003   5.948   2.274   2.399
10035SOL    HW131004   5.893   2.352   2.430
10035SOL    HW231005   6.009   2.302   2.326
10036SOL     OW31006   6.967   0.510   0.031
10036SOL    HW131007   0.001   0.431   0.052
10036SOL    HW231008   0.002   0.592   0.025
10037SOL     OW31009   6.145   6.869   6.926
10037SOL    HW131010   6.184   6.780   6.951
10037SOL    HW231011   6.049   6.858   6.902
10038SOL     OW31012   4.615   6.550   6.108
10038SOL    HW131013   4.580   6.643   6.120
10038SOL    HW231014   4.674   6.525   6.186
10039SOL     OW31015   6.743   5.735   2.461
10039SOL    HW131016   6.784   5.766   2.547
10039SOL    HW231017   6.708   5.814   2.411
10040SOL     OW31018   3.264   6.649   1.117
10040SOL    HW131019   3.338   6.715   1.127
10040SOL    HW231020   3.303   6.558   1.105
10041SOL     OW31021   6.794   5.051   4.908
10041SOL    HW131022   6.738   5.007   4.978
10041SOL    HW231023   6.779   5.005   4.820
10042SOL     OW31024   0.431   0.485   4.812
10042SOL    HW131025   0.408   0.398   4.855
10042SOL    HW231026   0.528   0.486   4.790
10043SOL     OW31027   0.401   0.810   3.630
10043SOL    HW131028   0.338   0.734   3.645
10043SOL    HW231029   0.477   0.804   3.696
10044SOL     OW31030   3.039   1.667   6.646
10044SOL    HW131031   2.961   1.703   6.696
10044SOL    HW231032   3.116   1.656   6.709
10045SOL     OW31033   3.693   6.847   5.039
10045SOL    HW131034   3.595   6.829   5.048
10045SOL    HW231035   3.743   6.761   5.036
10046SOL     OW31036   7.012   2.492   1.560
10046SOL    HW131037   0.080   2.497   1.603
10046SOL    HW231038   6.943   2.533   1.619
10047SOL     OW31039   0.117   2.278   4.017
10047SOL    HW131040   0.190   2.305   4.080
10047SOL    HW231041   0.157   2.247   3.931
10048SOL     OW31042   3.879   2.073   1.497
10048SOL    HW131043   3.813   2.146   1.516
10048SOL    HW231044   3.890   2.063   1.398
10049SOL     OW31045   1.656   6.833   5.126
10049SOL    HW131046   1.712   6.799   5.202
10049SOL    HW231047   1.709   6.832   5.042
10050SOL     OW31048   5.120   2.694   3.766
10050SOL    HW131049   5.192   2.763   3.770
10050SOL    HW231050   5.043   2.721   3.824
10051SOL     OW31051   5.882   2.766   5.494
10051SOL    HW131052   5.796   2.794   5.451
10051SOL    HW231053   5.923   2.692   5.442
10052SOL     OW31054   0.695   3.508   1.641
10052SOL    HW131055   0.699   3.598   1.598
10052SOL    HW231056   0.631   3.450   1.591
10053SOL     OW31057   3.167   5.534   3.538
10053SOL    HW131058   3.182   5.456   3.600
10053SOL    HW231059   3.241   5.600   3.550
10054SOL     OW31060   3.672   5.559   4.941
10054SOL    HW131061   3.758   5.534   4.986
10054SOL    HW231062   3.685   5.554   4.842
10055SOL     OW31063   5.844   2.771   5.777
10055SOL    HW131064   5.799   2.698   5.828
10055SOL    HW231065   5.851   2.745   5.681
10056SOL     OW31066   6.407   4.840   1.353
10056SOL    HW131067   6.483   4.782   1.325
10056SOL    HW231068   6.418   4.931   1.313
10057SOL     OW31069   3.387   1.991   3.844
10057SOL    HW131070   3.431   2.009   3.756
10057SOL    HW231071   3.375   1.892   3.856
10058SOL     OW31072   1.178   5.521   3.838
10058SOL    HW131073   1.204   5.617   3.828
10058SOL    HW231074   1.174   5.478   3.748
10059SOL     OW31075   5.893   0.346   1.003
10059SOL    HW131076   5.911   0.267   1.061
10059SOL    HW231077   5.975   0.370   0.951
10060SOL     OW31078   2.726   2.720   1.611
10060SOL    HW131079   2.826   2.721   1.606
10060SOL    HW231080   2.695   2.642   1.665
10061SOL     OW31081   6.189   1.972   4.630
10061SOL    HW131082   6.114   2.034   4.606
10061SOL    HW231083   6.227   1.932   4.546
10062SOL     OW31084   6.599   6.494   2.833
10062SOL    HW131085   6.515   6.512   2.781
10062SOL    HW231086   6.578   6.490   2.931
10063SOL     OW31087   1.487   3.253   3.317
10063SOL    HW131088   1.543   3.190   3.372
10063SOL    HW231089   1.402   3.207   3.291
10064SOL     OW31090   5.320   6.668   4.297
10064SOL    HW131091   5.294   6.591   4.239
10064SOL    HW231092   5.356   6.742   4.240
10065SOL     OW31093   1.113   6.378   3.261
10065SOL    HW131094   1.168   6.315   3.315
10065SOL    HW231095   1.034   6.408   3.314
10066SOL     OW31096   0.824   0.044   3.361
10066SOL    HW131097   0.803   0.022   3.456
10066SOL    HW231098   0.913   0.090   3.357
10067SOL     OW31099   4.082   4.878   4.110
10067SOL    HW131100   4.153   4.941   4.077
10067SOL    HW231101   3.995   4.900   4.064
10068SOL     OW31102   5.003   3.478   5.117
10068SOL    HW131103   4.916   3.526   5.109
10068SOL    HW231104   5.023   3.460   5.213
10069SOL     OW31105   2.817   1.393   3.182
10069SOL    HW131106   2.884   1.453   3.227
10069SOL    HW231107   2.815   1.415   3.084
10070SOL     OW31108   0.386   6.978   4.740
10070SOL    HW131109   0.338   0.040   4.766
10070SOL    HW231110   0.408   6.982   4.642
10071SOL     OW31111   5.480   5.843   5.011
10071SOL    HW131112   5.435   5.855   5.099
10071SOL    HW231113   5.415   5.863   4.937
10072SOL     OW31114   0.833   6.450   2.927
10072SOL    HW131115   0.825   6.502   3.012
10072SOL    HW231116   0.892   6.371   2.942
10073SOL     OW31117   6.999   4.720   6.141
10073SOL    HW131118   0.028   4.718   6.226
10073SOL    HW231119   6.987   4.627   6.107
10074SOL     OW31120   2.494   0.049   6.317
10074SOL    HW131121   2.431   0.125   6.297
10074SOL    HW231122   2.525   0.056   6.412
10075SOL     OW31123   0.865   2.346   3.660
10075SOL    HW131124   0.914   2.405   3.596
10075SOL    HW231125   0.929   2.310   3.728
10076SOL     OW31126   5.228   6.906   4.732
10076SOL    HW131127   5.203   6.835   4.798
10076SOL    HW231128   5.258   6.988   4.780
10077SOL     OW31129   4.022   1.465   6.058
10077SOL    HW131130   4.012   1.404   5.980
10077SOL    HW231131   4.014   1.560   6.028
10078SOL     OW31132   5.711   0.074   5.807
10078SOL    HW131133   5.801   0.077   5.850
10078SOL    HW231134   5.714   0.125   5.721
10079SOL     OW31135   7.010   3.389   0.836
10079SOL    HW131136   6.930   3.429   0.881
10079SOL    HW231137   0.071   3.420   0.881
10080SOL     OW31138   1.939   3.012   6.733
10080SOL    HW131139   1.964   2.923   6.694
10080SOL    HW231140   1.999   3.032   6.810
10081SOL     OW31141   0.188   0.491   6.782
10081SOL    HW131142   0.106   0.535   6.746
10081SOL    HW231143   0.217   0.539   6.865
10082SOL     OW31144   6.339   1.464   1.599
10082SOL    HW131145   6.314   1.486   1.505
10082SOL    HW231146   6.270   1.499   1.662
10083SOL     OW31147   4.823   0.528   4.231
10083SOL    HW131148   4.813   0.624   4.258
10083SOL    HW231149   4.900   0.487   4.280
10084SOL     OW31150   2.574   1.304   5.731
10084SOL    HW131151   2.567   1.208   5.758
10084SOL    HW231152   2.641   1.313   5.658
10085SOL     OW31153   0.741   5.670   2.758
10085SOL    HW131154   0.774   5.764   2.772
10085SOL    HW231155   0.780   5.611   2.829
10086SOL     OW31156   6.037   4.079   2.303
10086SOL    HW131157   6.100   4.131   2.246
10086SOL    HW231158   5.944   4.113   2.290
10087SOL     OW31159   1.351   0.510   4.199
10087SOL    HW131160   1.387   0.483   4.289
10087SOL    HW231161   1.398   0.592   4.168
10088SOL     OW31162   0.291   6.805   4.434
10088SOL    HW131163   0.308   6.837   4.341
10088SOL    HW231164   0.373   6.763   4.471
10089SOL     OW31165   1.326   3.348   1.969
10089SOL    HW131166   1.326   3.248   1.964
10089SOL    HW231167   1.391   3.384   1.902
10090SOL     OW31168   1.164   4.521   0.789
10090SOL    HW131169   1.193   4.616   0.803
10090SOL    HW231170   1.137   4.508   0.694
10091SOL     OW31171   0.765   2.594   4.669
10091SOL    HW131172   0.764   2.647   4.754
10091SOL    HW231173   0.859   2.575   4.643
10092SOL     OW31174   2.083   4.066   5.408
10092SOL    HW131175   2.002   4.042   5.461
10092SOL    HW231176   2.061   4.140   5.345
10093SOL     OW31177   6.207   5.299   5.973
10093SOL    HW131178   6.135   5.254   5.920
10093SOL    HW231179   6.261   5.230   6.021
10094SOL     OW31180   1.516   1.700   2.110
10094SOL    HW131181   1.437   1.639   2.105
10094SOL    HW231182   1.589   1.656   2.163
10095SOL     OW31183   6.972   0.961   6.000
10095SOL    HW131184   6.987   1.027   5.926
10095SOL    HW231185   7.017   0.874   5.977
10096SOL     OW31186   0.225   5.689   2.613
10096SOL    HW131187   0.220   5.695   2.513
10096SOL    HW231188   0.135   5.709   2.652
10097SOL     OW31189   1.244   0.630   0.799
10097SOL    HW131190   1.251   0.582   0.711
10097SOL    HW231191   1.149   0.656   0.815
10098SOL     OW31192   2.438   4.944   6.657
10098SOL    HW131193   2.346   4.906   6.660
10098SOL    HW231194   2.477   4.931   6.566
10099SOL     OW31195   6.785   4.314   4.832
10099SOL    HW131196   6.824   4.369   4.758
10099SOL    HW231197   6.857   4.288   4.896
10100SOL     OW31198   5.267   0.891   4.563
10100SOL    HW131199   5.321   0.959   4.613
10100SOL    HW231200   5.175   0.925   4.548
10101SOL     OW31201   6.948   4.778   2.500
10101SOL    HW131202   6.938   4.722   2.418
10101SOL    HW231203   6.977   4.719   2.576
10102SOL     OW31204   2.645   1.525   2.095
10102SOL    HW131205   2.699   1.550   2.176
10102SOL    HW231206   2.652   1.426   2.081
10103SOL     OW31207   2.609   1.708   6.355
10103SOL    HW131208   2.701   1.687   6.388
10103SOL    HW231209   2.556   1.624   6.346
10104SOL     OW31210   0.984   5.683   5.129
10104SOL    HW131211   1.004   5.687   5.227
10104SOL    HW231212   0.899   5.633   5.114
10105SOL     OW31213   1.804   0.425   6.613
10105SOL    HW131214   1.810   0.442   6.515
10105SOL    HW231215   1.887   0.459   6.658
10106SOL     OW31216   5.509   6.119   0.390
10106SOL    HW131217   5.505   6.024   0.361
10106SOL    HW231218   5.465   6.177   0.321
10107SOL     OW31219   5.598   1.474   5.998
10107SOL    HW131220   5.599   1.522   5.910
10107SOL    HW231221   5.509   1.432   6.013
10108SOL     OW31222   6.576   6.988   0.200
10108SOL    HW131223   6.511   6.987   0.276
10108SOL    HW231224   6.661   0.008   0.230
10109SOL     OW31225   4.464   5.454   3.877
10109SOL    HW131226   4.459   5.550   3.907
10109SOL    HW231227   4.455   5.394   3.956
10110SOL     OW31228   3.731   0.609   6.161
10110SOL    HW131229   3.632   0.612   6.171
10110SOL    HW231230   3.758   0.519   6.126
10111SOL     OW31231   0.236   2.736   2.544
10111SOL    HW131232   0.334   2.753   2.552
10111SOL    HW231233   0.199   2.789   2.468
10112SOL     OW31234   4.832   4.605   5.902
10112SOL    HW131235   4.744   4.563   5.919
10112SOL    HW231236   4.896   4.536   5.868
10113SOL     OW31237   3.946   6.730   6.914
10113SOL    HW131238   3.908   6.791   6.845
10113SOL    HW231239   4.029   6.771   6.953
10114SOL     OW31240   5.167   1.184   1.194
10114SOL    HW131241   5.247   1.227   1.152
10114SOL    HW231242   5.197   1.109   1.254
10115SOL     OW31243   1.711   2.396   3.795
10115SOL    HW131244   1.677   2.433   3.708
10115SOL    HW231245   1.744   2.470   3.852
10116SOL     OW31246   1.004   1.179   1.060
10116SOL    HW131247   0.944   1.151   1.134
10116SOL    HW231248   1.038   1.099   1.012
10117SOL     OW31249   5.794   0.513   5.997
10117SOL    HW131250   5.711   0.559   6.026
10117SOL    HW231251   5.792   0.500   5.898
10118SOL     OW31252   7.016   5.380   1.986
10118SOL    HW131253   6.982   5.447   2.052
10118SOL    HW231254   6.958   5.299   1.987
10119SOL     OW31255   2.152   0.839   5.667
10119SOL    HW131256   2.054   0.854   5.685
10119SOL    HW231257   2.203   0.921   5.694
10120SOL     OW31258   6.960   3.038   3.664
10120SOL    HW131259   6.974   2.999   3.573
10120SOL    HW231260   6.905   2.976   3.719
10121SOL     OW31261   6.685   4.450   5.058
10121SOL    HW131262   6.691   4.380   4.987
10121SOL    HW231263   6.689   4.541   5.017
10122SOL     OW31264   5.582   3.407   0.222
10122SOL    HW131265   5.545   3.473   0.157
10122SOL    HW231266   5.550   3.429   0.314
10123SOL     OW31267   6.993   5.932   0.428
10123SOL    HW131268   6.996   5.841   0.469
10123SOL    HW231269   0.000   6.000   0.495
10124SOL     OW31270   3.215   4.126   6.891
10124SOL    HW131271   3.219   4.225   6.874
10124SOL    HW231272   3.306   4.092   6.913
10125SOL     OW31273   1.481   0.549   1.668
10125SOL    HW131274   1.522   0.559   1.759
10125SOL    HW231275   1.408   0.481   1.672
10126SOL     OW31276   6.319   5.152   0.752
10126SOL    HW131277   6.228   5.154   0.794
10126SOL    HW231278   6.386   5.187   0.817
10127SOL     OW31279   3.607   5.736   5.324
10127SOL    HW131280   3.576   5.817   5.373
10127SOL    HW231281   3.532   5.700   5.268
10128SOL     OW31282   0.130   2.411   1.018
10128SOL    HW131283   0.103   2.417   1.115
10128SOL    HW231284   0.227   2.386   1.012
10129SOL     OW31285   6.164   2.521   3.327
10129SOL    HW131286   6.168   2.424   3.302
10129SOL    HW231287   6.257   2.556   3.338
10130SOL     OW31288   6.439   5.741   1.663
10130SOL    HW131289   6.405   5.730   1.756
10130SOL    HW231290   6.506   5.815   1.661
10131SOL     OW31291   0.560   0.908   1.523
10131SOL    HW131292   0.467   0.945   1.523
10131SOL    HW231293   0.602   0.923   1.433
10132SOL     OW31294   3.001   6.385   2.708
10132SOL    HW131295   2.990   6.286   2.714
10132SOL    HW231296   3.064   6.416   2.780
10133SOL     OW31297   4.625   6.097   3.589
10133SOL    HW131298   4.552   6.134   3.533
10133SOL    HW231299   4.674   6.026   3.538
10134SOL     OW31300   6.860   1.563   3.528
10134SOL    HW131301   6.842   1.662   3.528
10134SOL    HW231302   6.857   1.529   3.434
10135SOL     OW31303   4.300   4.920   2.934
10135SOL    HW131304   4.246   4.992   2.977
10135SOL    HW231305   4.239   4.853   2.893
10136SOL     OW31306   6.277   0.185   3.310
10136SOL    HW131307   6.373   0.159   3.299
10136SOL    HW231308   6.271   0.283   3.328
10137SOL     OW31309   6.490   5.373   4.062
10137SOL    HW131310   6.466   5.312   3.986
10137SOL    HW231311   6.410   5.425   4.089
10138SOL     OW31312   6.051   1.993   6.747
10138SOL    HW131313   6.137   2.024   6.706
10138SOL    HW231314   6.041   1.894   6.732
10139SOL     OW31315   3.557   3.048   3.026
10139SOL    HW131316   3.614   3.086   3.099
10139SOL    HW231317   3.611   2.984   2.971
10140SOL     OW31318   6.843   5.192   6.835
10140SOL    HW131319   6.851   5.099   6.799
10140SOL    HW231320   6.748   5.222   6.828
10141SOL     OW31321   1.826   0.958   4.074
10141SOL    HW131322   1.763   0.951   4.151
10141SOL    HW231323   1.798   0.893   4.003
10142SOL     OW31324   4.247   5.751   4.812
10142SOL    HW131325   4.225   5.675   4.874
10142SOL    HW231326   4.283   5.714   4.726
10143SOL     OW31327   4.905   0.061   1.224
10143SOL    HW131328   4.872   7.020   1.154
10143SOL    HW231329   4.828   0.116   1.259
10144SOL     OW31330   3.124   5.938   4.339
10144SOL    HW131331   3.217   5.902   4.338
10144SOL    HW231332   3.126   6.035   4.366
10145SOL     OW31333   3.025   5.974   5.613
10145SOL    HW131334   3.025   6.023   5.701
10145SOL    HW231335   3.102   5.910   5.612
10146SOL     OW31336   4.156   5.324   4.144
10146SOL    HW131337   4.230   5.385   4.172
10146SOL    HW231338   4.174   5.231   4.177
10147SOL     OW31339   4.847   4.424   4.370
10147SOL    HW131340   4.946   4.438   4.368
10147SOL    HW231341   4.827   4.326   4.368
10148SOL     OW31342   5.485   5.652   0.557
10148SOL    HW131343   5.492   5.704   0.642
10148SOL    HW231344   5.568   5.664   0.503
10149SOL     OW31345   4.164   2.318   1.299
10149SOL    HW131346   4.261   2.339   1.283
10149SOL    HW231347   4.155   2.259   1.379
10150SOL     OW31348   4.957   4.460   0.501
10150SOL    HW131349   4.908   4.375   0.484
10150SOL    HW231350   4.968   4.509   0.414
10151SOL     OW31351   1.499   6.768   6.186
10151SOL    HW131352   1.496   6.725   6.095
10151SOL    HW231353   1.560   6.846   6.184
10152SOL     OW31354   0.242   5.275   3.524
10152SOL    HW131355   0.295   5.345   3.572
10152SOL    HW231356   0.239   5.191   3.578
10153SOL     OW31357   5.107   6.309   3.894
10153SOL    HW131358   5.008   6.304   3.907
10153SOL    HW231359   5.128   6.301   3.796
10154SOL     OW31360   6.474   5.512   5.936
10154SOL    HW131361   6.523   5.579   5.879
10154SOL    HW231362   6.417   5.455   5.878
10155SOL     OW31363   3.878   0.794   6.026
10155SOL    HW131364   3.829   0.854   5.964
10155SOL    HW231365   3.813   0.734   6.073
10156SOL     OW31366   5.332   0.375   2.261
10156SOL    HW131367   5.388   0.360   2.343
10156SOL    HW231368   5.241   0.404   2.288
10157SOL     OW31369   5.696   1.410   6.481
10157SOL    HW131370   5.665   1.321   6.515
10157SOL    HW231371   5.781   1.398   6.430
10158SOL     OW31372   4.426   3.547   6.901
10158SOL    HW131373   4.357   3.611   6.868
10158SOL    HW231374   4.502   3.598   6.941
10159SOL     OW31375   2.049   2.083   6.134
10159SOL    HW131376   1.990   2.162   6.147
10159SOL    HW231377   2.002   2.000   6.164
10160SOL     OW31378   0.741   5.113   3.573
10160SOL    HW131379   0.728   5.181   3.645
10160SOL    HW231380   0.775   5.028   3.613
10161SOL     OW31381   3.687   5.399   6.286
10161SOL    HW131382   3.735   5.312   6.293
10161SOL    HW231383   3.655   5.427   6.376
10162SOL     OW31384   2.907   2.451   6.394
10162SOL    HW131385   2.826   2.417   6.345
10162SOL    HW231386   2.989   2.405   6.358
10163SOL     OW31387   6.654   3.709   5.943
10163SOL    HW131388   6.742   3.669   5.970
10163SOL    HW231389   6.607   3.647   5.881
10164SOL     OW31390   6.418   2.987   5.275
10164SOL    HW131391   6.444   3.040   5.195
10164SOL    HW231392   6.413   2.890   5.250
10165SOL     OW31393   0.889   2.144   4.428
10165SOL    HW131394   0.888   2.102   4.337
10165SOL    HW231395   0.971   2.201   4.436
10166SOL     OW31396   2.298   1.340   2.108
10166SOL    HW131397   2.278   1.433   2.080
10166SOL    HW231398   2.364   1.299   2.044
10167SOL     OW31399   4.858   0.428   6.563
10167SOL    HW131400   4.843   0.341   6.516
10167SOL    HW231401   4.952   0.459   6.547
10168SOL     OW31402   6.786   4.037   4.268
10168SOL    HW131403   6.824   4.076   4.352
10168SOL    HW231404   6.833   3.951   4.248
10169SOL     OW31405   6.615   4.460   3.399
10169SOL    HW131406   6.562   4.386   3.441
10169SOL    HW231407   6.586   4.471   3.304
10170SOL     OW31408   1.642   4.168   5.188
10170SOL    HW131409   1.556   4.207   5.156
10170SOL    HW231410   1.686   4.119   5.113
10171SOL     OW31411   6.815   4.123   5.469
10171SOL    HW131412   6.857   4.040   5.434
10171SOL    HW231413   6.868   4.158   5.546
10172SOL     OW31414   4.857   0.420   2.703
10172SOL    HW131415   4.939   0.434   2.760
10172SOL    HW231416   4.822   0.328   2.719
10173SOL     OW31417   1.752   1.797   1.636
10173SOL    HW131418   1.660   1.822   1.606
10173SOL    HW231419   1.806   1.879   1.650
10174SOL     OW31420   6.150   4.924   2.505
10174SOL    HW131421   6.076   4.989   2.523
10174SOL    HW231422   6.211   4.920   2.584
10175SOL     OW31423   6.469   2.189   5.534
10175SOL    HW131424   6.472   2.180   5.434
10175SOL    HW231425   6.562   2.186   5.570
10176SOL     OW31426   1.886   3.714   6.871
10176SOL    HW131427   1.800   3.742   6.829
10176SOL    HW231428   1.961   3.772   6.838
10177SOL     OW31429   2.980   6.599   0.193
10177SOL    HW131430   2.984   6.692   0.229
10177SOL    HW231431   2.983   6.534   0.269
10178SOL     OW31432   5.986   2.723   4.549
10178SOL    HW131433   6.039   2.639   4.545
10178SOL    HW231434   5.890   2.701   4.566
10179SOL     OW31435   1.201   2.783   6.312
10179SOL    HW131436   1.269   2.832   6.257
10179SOL    HW231437   1.117   2.837   6.318
10180SOL     OW31438   2.863   5.677   5.643
10180SOL    HW131439   2.808   5.668   5.560
10180SOL    HW231440   2.871   5.773   5.669
10181SOL     OW31441   6.122   3.144   1.334
10181SOL    HW131442   6.047   3.199   1.371
10181SOL    HW231443   6.085   3.074   1.273
10182SOL     OW31444   5.656   0.843   1.466
10182SOL    HW131445   5.734   0.822   1.407
10182SOL    HW231446   5.652   0.941   1.484
10183SOL     OW31447   1.355   1.888   6.650
10183SOL    HW131448   1.257   1.871   6.635
10183SOL    HW231449   1.391   1.819   6.712
10184SOL     OW31450   4.256   1.561   6.325
10184SOL    HW131451   4.267   1.536   6.229
10184SOL    HW231452   4.233   1.479   6.378
10185SOL     OW31453   4.895   0.176   0.919
10185SOL    HW131454   4.946   0.144   0.998
10185SOL    HW231455   4.889   0.103   0.851
10186SOL     OW31456   4.979   2.790   3.357
10186SOL    HW131457   5.063   2.757   3.313
10186SOL    HW231458   4.974   2.890   3.347
10187SOL     OW31459   0.850   2.315   1.685
10187SOL    HW131460   0.842   2.284   1.780
10187SOL    HW231461   0.927   2.269   1.642
10188SOL     OW31462   4.438   6.320   0.565
10188SOL    HW131463   4.369   6.282   0.627
10188SOL    HW231464   4.430   6.420   0.564
10189SOL     OW31465   1.994   6.322   5.126
10189SOL    HW131466   2.018   6.272   5.043
10189SOL    HW231467   1.986   6.257   5.202
10190SOL     OW31468   4.195   2.473   6.988
10190SOL    HW131469   4.253   2.550   7.013
10190SOL    HW231470   4.114   2.506   6.940
10191SOL     OW31471   4.822   4.484   6.575
10191SOL    HW131472   4.778   4.535   6.648
10191SOL    HW231473   4.900   4.433   6.613
10192SOL     OW31474   3.573   1.235   5.600
10192SOL    HW131475   3.490   1.291   5.602
10192SOL    HW231476   3.565   1.162   5.667
10193SOL     OW31477   4.642   4.356   0.450
10193SOL    HW131478   4.595   4.394   0.530
10193SOL    HW231479   4.638   4.256   0.455
10194SOL     OW31480   5.656   4.207   5.499
10194SOL    HW131481   5.633   4.240   5.408
10194SOL    HW231482   5.755   4.211   5.513
10195SOL     OW31483   6.843   4.809   1.403
10195SOL    HW131484   6.850   4.761   1.491
10195SOL    HW231485   6.929   4.798   1.353
10196SOL     OW31486   0.048   1.492   4.873
10196SOL    HW131487   0.141   1.528   4.876
10196SOL    HW231488   7.013   1.543   4.937
10197SOL     OW31489   6.469   0.664   5.501
10197SOL    HW131490   6.391   0.650   5.562
10197SOL    HW231491   6.553   0.641   5.550
10198SOL     OW31492   3.796   0.258   2.478
10198SOL    HW131493   3.765   0.165   2.460
10198SOL    HW231494   3.850   0.290   2.400
10199SOL     OW31495   1.351   2.506   5.563
10199SOL    HW131496   1.444   2.470   5.551
10199SOL    HW231497   1.355   2.598   5.602
10200SOL     OW31498   6.244   3.139   0.840
10200SOL    HW131499   6.176   3.208   0.814
10200SOL    HW231500   6.242   3.126   0.939
10201SOL     OW31501   1.232   4.152   0.943
10201SOL    HW131502   1.233   4.195   1.033
10201SOL    HW231503   1.270   4.215   0.875
10202SOL     OW31504   3.991   1.130   5.618
10202SOL    HW131505   4.074   1.115   5.672
10202SOL    HW231506   4.014   1.184   5.537
10203SOL     OW31507   6.139   2.826   5.133
10203SOL    HW131508   6.103   2.772   5.058
10203SOL    HW231509   6.237   2.809   5.143
10204SOL     OW31510   5.205   6.980   6.368
10204SOL    HW131511   5.166   6.898   6.410
10204SOL    HW231512   5.259   6.954   6.288
10205SOL     OW31513   0.944   0.461   6.711
10205SOL    HW131514   0.945   0.390   6.641
10205SOL    HW231515   0.916   0.548   6.670
10206SOL     OW31516   1.035   0.761   5.728
10206SOL    HW131517   0.978   0.711   5.793
10206SOL    HW231518   1.008   0.857   5.728
10207SOL     OW31519   1.437   1.556   5.579
10207SOL    HW131520   1.340   1.571   5.599
10207SOL    HW231521   1.467   1.472   5.625
10208SOL     OW31522   6.355   4.838   5.145
10208SOL    HW131523   6.309   4.908   5.200
10208SOL    HW231524   6.303   4.821   5.062
10209SOL     OW31525   6.750   6.867   6.409
10209SOL    HW131526   6.768   6.914   6.496
10209SOL    HW231527   6.656   6.884   6.381
10210SOL     OW31528   4.303   5.595   1.864
10210SOL    HW131529   4.206   5.589   1.840
10210SOL    HW231530   4.312   5.631   1.957
10211SOL     OW31531   4.295   6.199   5.470
10211SOL    HW131532   4.337   6.270   5.526
10211SOL    HW231533   4.263   6.124   5.528
10212SOL     OW31534   0.913   0.045   6.121
10212SOL    HW131535   0.835   0.107   6.123
10212SOL    HW231536   0.941   0.029   6.026
10213SOL     OW31537   5.399   1.727   0.055
10213SOL    HW131538   5.338   1.805   0.039
10213SOL    HW231539   5.493   1.754   0.034
10214SOL     OW31540   0.228   2.721   1.239
10214SOL    HW131541   0.275   2.733   1.326
10214SOL    HW231542   0.227   2.808   1.189
10215SOL     OW31543   3.494   3.395   2.591
10215SOL    HW131544   3.407   3.353   2.566
10215SOL    HW231545   3.557   3.324   2.624
10216SOL     OW31546   6.937   6.911   2.159
10216SOL    HW131547   6.869   6.845   2.191
10216SOL    HW231548   6.890   6.987   2.112
10217SOL     OW31549   3.075   1.314   3.535
10217SOL    HW131550   2.990   1.273   3.566
10217SOL    HW231551   3.057   1.406   3.499
10218SOL     OW31552   1.319   2.443   2.729
10218SOL    HW131553   1.352   2.495   2.650
10218SOL    HW231554   1.382   2.455   2.805
10219SOL     OW31555   0.282   1.144   2.394
10219SOL    HW131556   0.244   1.137   2.303
10219SOL    HW231557   0.363   1.203   2.392
10220SOL     OW31558   3.334   2.610   1.766
10220SOL    HW131559   3.287   2.590   1.681
10220SOL    HW231560   3.432   2.590   1.756
10221SOL     OW31561   1.294   5.908   3.132
10221SOL    HW131562   1.216   5.968   3.115
10221SOL    HW231563   1.356   5.912   3.053
10222SOL     OW31564   3.202   4.116   4.522
10222SOL    HW131565   3.213   4.130   4.424
10222SOL    HW231566   3.288   4.136   4.568
10223SOL     OW31567   1.383   5.745   1.851
10223SOL    HW131568   1.317   5.820   1.862
10223SOL    HW231569   1.475   5.779   1.867
10224SOL     OW31570   5.844   4.212   3.095
10224SOL    HW131571   5.933   4.191   3.054
10224SOL    HW231572   5.854   4.219   3.194
10225SOL     OW31573   2.426   3.577   6.015
10225SOL    HW131574   2.416   3.478   6.011
10225SOL    HW231575   2.392   3.617   5.930
10226SOL     OW31576   4.504   2.907   0.219
10226SOL    HW131577   4.582   2.854   0.186
10226SOL    HW231578   4.477   2.974   0.149
10227SOL     OW31579   4.965   3.675   1.072
10227SOL    HW131580   5.005   3.584   1.084
10227SOL    HW231581   5.003   3.717   0.990
10228SOL     OW31582   5.136   0.638   0.912
10228SOL    HW131583   5.083   0.686   0.842
10228SOL    HW231584   5.216   0.693   0.937
10229SOL     OW31585   0.179   3.797   4.170
10229SOL    HW131586   0.245   3.797   4.094
10229SOL    HW231587   0.199   3.873   4.231
10230SOL     OW31588   6.885   6.248   2.068
10230SOL    HW131589   6.907   6.342   2.093
10230SOL    HW231590   6.863   6.244   1.970
10231SOL     OW31591   1.788   5.632   3.356
10231SOL    HW131592   1.745   5.545   3.333
10231SOL    HW231593   1.802   5.638   3.455
10232SOL     OW31594   4.946   5.415   3.980
10232SOL    HW131595   5.016   5.383   3.916
10232SOL    HW231596   4.972   5.505   4.014
10233SOL     OW31597   4.358   4.488   6.209
10233SOL    HW131598   4.287   4.459   6.144
10233SOL    HW231599   4.317   4.547   6.279
10234SOL     OW31600   6.870   0.552   1.821
10234SOL    HW131601   6.934   0.622   1.790
10234SOL    HW231602   6.778   0.574   1.788
10235SOL     OW31603   1.590   1.184   3.225
10235SOL    HW131604   1.620   1.132   3.305
10235SOL    HW231605   1.597   1.282   3.244
10236SOL     OW31606   2.440   0.196   1.751
10236SOL    HW131607   2.502   0.146   1.691
10236SOL    HW231608   2.363   0.231   1.697
10237SOL     OW31609   0.453   3.466   6.357
10237SOL    HW131610   0.407   3.539   6.407
10237SOL    HW231611   0.545   3.454   6.395
10238SOL     OW31612   3.498   6.060   1.189
10238SOL    HW131613   3.485   5.994   1.264
10238SOL    HW231614   3.590   6.050   1.151
10239SOL     OW31615   1.834   2.817   4.413
10239SOL    HW131616   1.750   2.763   4.417
10239SOL    HW231617   1.884   2.796   4.329
10240SOL     OW31618   2.678   6.368   1.161
10240SOL    HW131619   2.727   6.438   1.212
10240SOL    HW231620   2.628   6.410   1.086
10241SOL     OW31621   3.956   2.186   1.880
10241SOL    HW131622   3.991   2.155   1.968
10241SOL    HW231623   3.864   2.222   1.891
10242SOL     OW31624   0.083   2.817   6.795
10242SOL    HW131625   0.126   2.808   6.884
10242SOL    HW231626   7.017   2.769   6.795
10243SOL     OW31627   2.586   5.244   1.067
10243SOL    HW131628   2.493   5.216   1.042
10243SOL    HW231629   2.596   5.241   1.166
10244SOL     OW31630   2.457   4.088   1.395
10244SOL    HW131631   2.405   4.173   1.390
10244SOL    HW231632   2.548   4.102   1.355
10245SOL     OW31633   3.773   4.325   0.804
10245SOL    HW131634   3.796   4.355   0.897
10245SOL    HW231635   3.766   4.225   0.802
10246SOL     OW31636   3.306   3.668   4.368
10246SOL    HW131637   3.332   3.582   4.411
10246SOL    HW231638   3.357   3.743   4.410
10247SOL     OW31639   0.649   2.379   5.094
10247SOL    HW131640   0.553   2.404   5.077
10247SOL    HW231641   0.693   2.356   5.007
10248SOL     OW31642   1.120   6.907   3.535
10248SOL    HW131643   1.112   6.818   3.491
10248SOL    HW231644   1.071   6.907   3.622
10249SOL     OW31645   2.971   4.914   6.373
10249SOL    HW131646   2.965   4.969   6.290
10249SOL    HW231647   3.066   4.886   6.387
10250SOL     OW31648   4.824   2.097   0.275
10250SOL    HW131649   4.752   2.086   0.207
10250SOL    HW231650   4.893   2.026   0.263
10251SOL     OW31651   2.182   7.007   4.391
10251SOL    HW131652   2.257   6.968   4.445
10251SOL    HW231653   2.190   0.084   4.391
10252SOL     OW31654   5.578   4.119   6.068
10252SOL    HW131655   5.616   4.175   6.142
10252SOL    HW231656   5.492   4.160   6.036
10253SOL     OW31657   4.212   6.596   6.377
10253SOL    HW131658   4.115   6.584   6.357
10253SOL    HW231659   4.224   6.674   6.439
10254SOL     OW31660   5.442   1.115   4.631
10254SOL    HW131661   5.488   1.099   4.544
10254SOL    HW231662   5.509   1.117   4.705
10255SOL     OW31663   3.899   5.203   1.982
10255SOL    HW131664   3.865   5.199   2.076
10255SOL    HW231665   3.853   5.276   1.932
10256SOL     OW31666   4.151   0.777   3.037
10256SOL    HW131667   4.096   0.798   2.956
10256SOL    HW231668   4.099   0.797   3.120
10257SOL     OW31669   3.461   4.896   2.932
10257SOL    HW131670   3.497   4.842   2.855
10257SOL    HW231671   3.464   4.993   2.908
10258SOL     OW31672   1.582   1.462   1.788
10258SOL    HW131673   1.593   1.457   1.688
10258SOL    HW231674   1.490   1.431   1.812
10259SOL     OW31675   1.359   3.938   3.604
10259SOL    HW131676   1.393   3.891   3.522
10259SOL    HW231677   1.262   3.917   3.616
10260SOL     OW31678   0.635   1.016   3.496
10260SOL    HW131679   0.640   0.993   3.593
10260SOL    HW231680   0.711   1.076   3.472
10261SOL     OW31681   6.622   3.530   1.145
10261SOL    HW131682   6.548   3.497   1.086
10261SOL    HW231683   6.657   3.454   1.200
10262SOL     OW31684   3.808   1.515   0.104
10262SOL    HW131685   3.871   1.497   0.029
10262SOL    HW231686   3.755   1.598   0.085
10263SOL     OW31687   5.969   0.585   1.659
10263SOL    HW131688   6.014   0.659   1.709
10263SOL    HW231689   5.937   0.619   1.570
10264SOL     OW31690   6.955   5.468   6.542
10264SOL    HW131691   6.964   5.556   6.495
10264SOL    HW231692   6.944   5.395   6.475
10265SOL     OW31693   1.867   1.848   0.467
10265SOL    HW131694   1.849   1.919   0.398
10265SOL    HW231695   1.844   1.884   0.557
10266SOL     OW31696   2.856   3.499   2.123
10266SOL    HW131697   2.898   3.424   2.175
10266SOL    HW231698   2.756   3.495   2.133
10267SOL     OW31699   5.865   0.795   0.867
10267SOL    HW131700   5.791   0.862   0.860
10267SOL    HW231701   5.827   0.702   0.862
10268SOL     OW31702   4.248   0.645   1.070
10268SOL    HW131703   4.193   0.674   0.991
10268SOL    HW231704   4.201   0.672   1.154
10269SOL     OW31705   2.572   2.045   0.026
10269SOL    HW131706   2.551   2.134   0.065
10269SOL    HW231707   2.642   2.055   6.977
10270SOL     OW31708   2.898   6.645   2.279
10270SOL    HW131709   2.805   6.621   2.306
10270SOL    HW231710   2.963   6.600   2.340
10271SOL     OW31711   1.363   2.114   6.893
10271SOL    HW131712   1.264   2.116   6.909
10271SOL    HW231713   1.381   2.106   6.795
10272SOL     OW31714   6.539   0.224   4.889
10272SOL    HW131715   6.622   0.181   4.852
10272SOL    HW231716   6.488   0.157   4.942
10273SOL     OW31717   2.363   4.960   3.413
10273SOL    HW131718   2.384   4.893   3.342
10273SOL    HW231719   2.445   4.979   3.466
10274SOL     OW31720   0.231   4.953   5.290
10274SOL    HW131721   0.229   5.048   5.260
10274SOL    HW231722   0.139   4.915   5.287
10275SOL     OW31723   0.255   0.422   2.850
10275SOL    HW131724   0.166   0.462   2.872
10275SOL    HW231725   0.263   0.332   2.893
10276SOL     OW31726   3.485   6.174   6.284
10276SOL    HW131727   3.537   6.253   6.250
10276SOL    HW231728   3.530   6.090   6.256
10277SOL     OW31729   0.531   6.671   4.526
10277SOL    HW131730   0.560   6.674   4.430
10277SOL    HW231731   0.609   6.693   4.585
10278SOL     OW31732   6.880   0.516   5.426
10278SOL    HW131733   6.974   0.483   5.431
10278SOL    HW231734   6.832   0.471   5.350
10279SOL     OW31735   1.993   5.695   4.367
10279SOL    HW131736   1.978   5.597   4.353
10279SOL    HW231737   1.992   5.716   4.465
10280SOL     OW31738   5.838   4.004   0.401
10280SOL    HW131739   5.860   4.095   0.436
10280SOL    HW231740   5.750   3.974   0.438
10281SOL     OW31741   6.730   2.025   4.063
10281SOL    HW131742   6.745   1.965   3.985
10281SOL    HW231743   6.816   2.039   4.112
10282SOL     OW31744   5.331   3.616   3.191
10282SOL    HW131745   5.299   3.690   3.250
10282SOL    HW231746   5.411   3.572   3.233
10283SOL     OW31747   0.482   3.405   0.915
10283SOL    HW131748   0.508   3.309   0.901
10283SOL    HW231749   0.550   3.464   0.872
10284SOL     OW31750   0.427   2.999   3.662
10284SOL    HW131751   0.414   3.027   3.567
10284SOL    HW231752   0.378   3.060   3.723
10285SOL     OW31753   5.331   6.248   4.791
10285SOL    HW131754   5.319   6.255   4.890
10285SOL    HW231755   5.252   6.200   4.751
10286SOL     OW31756   2.781   1.508   4.321
10286SOL    HW131757   2.692   1.496   4.366
10286SOL    HW231758   2.853   1.473   4.381
10287SOL     OW31759   2.392   5.606   2.960
10287SOL    HW131760   2.477   5.613   3.013
10287SOL    HW231761   2.391   5.519   2.911
10288SOL     OW31762   3.700   0.085   5.651
10288SOL    HW131763   3.788   0.086   5.602
10288SOL    HW231764   3.631   0.132   5.596
10289SOL     OW31765   3.012   6.152   6.264
10289SOL    HW131766   3.051   6.139   6.356
10289SOL    HW231767   3.071   6.107   6.197
10290SOL     OW31768   3.115   3.064   2.269
10290SOL    HW131769   3.111   3.046   2.171
10290SOL    HW231770   3.053   3.139   2.292
10291SOL     OW31771   2.205   1.491   2.635
10291SOL    HW131772   2.288   1.485   2.579
10291SOL    HW231773   2.180   1.399   2.667
10292SOL     OW31774   6.221   6.333   6.684
10292SOL    HW131775   6.304   6.385   6.708
10292SOL    HW231776   6.141   6.381   6.719
10293SOL     OW31777   0.788   4.278   4.193
10293SOL    HW131778   0.721   4.353   4.189
10293SOL    HW231779   0.878   4.315   4.217
10294SOL     OW31780   3.475   1.649   1.946
10294SOL    HW131781   3.397   1.593   1.974
10294SOL    HW231782   3.508   1.618   1.857
10295SOL     OW31783   0.957   2.285   0.140
10295SOL    HW131784   0.880   2.288   0.204
10295SOL    HW231785   1.023   2.216   0.170
10296SOL     OW31786   5.685   1.280   6.190
10296SOL    HW131787   5.654   1.361   6.141
10296SOL    HW231788   5.780   1.293   6.220
10297SOL     OW31789   3.108   1.694   6.917
10297SOL    HW131790   3.010   1.689   6.901
10297SOL    HW231791   3.125   1.716   7.013
10298SOL     OW31792   0.522   2.483   2.700
10298SOL    HW131793   0.430   2.489   2.739
10298SOL    HW231794   0.589   2.482   2.775
10299SOL     OW31795   3.862   6.059   2.811
10299SOL    HW131796   3.847   5.961   2.816
10299SOL    HW231797   3.959   6.077   2.794
10300SOL     OW31798   0.515   3.717   1.624
10300SOL    HW131799   0.599   3.773   1.619
10300SOL    HW231800   0.473   3.711   1.534
10301SOL     OW31801   3.744   1.028   6.244
10301SOL    HW131802   3.803   1.031   6.325
10301SOL    HW231803   3.773   1.097   6.178
10302SOL     OW31804   2.789   5.933   4.576
10302SOL    HW131805   2.756   5.889   4.493
10302SOL    HW231806   2.858   6.001   4.553
10303SOL     OW31807   0.852   5.961   4.792
10303SOL    HW131808   0.851   6.059   4.773
10303SOL    HW231809   0.840   5.946   4.890
10304SOL     OW31810   6.331   6.755   0.237
10304SOL    HW131811   6.423   6.787   0.259
10304SOL    HW231812   6.304   6.684   0.302
10305SOL     OW31813   2.321   4.168   5.756
10305SOL    HW131814   2.359   4.083   5.792
10305SOL    HW231815   2.251   4.147   5.688
10306SOL     OW31816   4.971   6.983   1.468
10306SOL    HW131817   5.063   7.021   1.475
10306SOL    HW231818   4.934   7.002   1.377
10307SOL     OW31819   2.621   0.010   5.043
10307SOL    HW131820   2.649   6.936   5.040
10307SOL    HW231821   2.533   0.018   5.090
10308SOL     OW31822   2.587   4.572   2.873
10308SOL    HW131823   2.604   4.637   2.799
10308SOL    HW231824   2.507   4.515   2.850
10309SOL     OW31825   6.541   1.255   5.214
10309SOL    HW131826   6.480   1.271   5.292
10309SOL    HW231827   6.608   1.185   5.238
10310SOL     OW31828   2.838   3.100   5.807
10310SOL    HW131829   2.904   3.127   5.738
10310SOL    HW231830   2.864   3.139   5.896
10311SOL     OW31831   5.455   6.274   0.162
10311SOL    HW131832   5.516   6.332   0.216
10311SOL    HW231833   5.426   6.324   0.080
10312SOL     OW31834   4.659   0.190   2.124
10312SOL    HW131835   4.625   0.283   2.135
10312SOL    HW231836   4.709   0.163   2.206
10313SOL     OW31837   4.983   6.439   2.946
10313SOL    HW131838   5.073   6.470   2.916
10313SOL    HW231839   4.951   6.496   3.022
10314SOL     OW31840   0.704   6.938   1.196
10314SOL    HW131841   0.689   6.963   1.292
10314SOL    HW231842   0.681   6.842   1.183
10315SOL     OW31843   5.329   6.743   3.938
10315SOL    HW131844   5.262   6.676   3.969
10315SOL    HW231845   5.358   6.800   4.015
10316SOL     OW31846   0.484   2.389   7.012
10316SOL    HW131847   0.488   2.334   6.929
10316SOL    HW231848   0.574   2.393   0.032
10317SOL     OW31849   3.365   6.044   5.801
10317SOL    HW131850   3.317   5.968   5.758
10317SOL    HW231851   3.329   6.057   5.893
10318SOL     OW31852   6.230   6.641   0.004
10318SOL    HW131853   6.281   6.586   6.960
10318SOL    HW231854   6.295   6.684   0.067
10319SOL     OW31855   0.264   4.531   4.423
10319SOL    HW131856   0.177   4.555   4.465
10319SOL    HW231857   0.314   4.614   4.400
10320SOL     OW31858   0.618   0.004   4.096
10320SOL    HW131859   0.553   0.035   4.165
10320SOL    HW231860   0.700   0.061   4.100
10321SOL     OW31861   5.494   2.576   2.157
10321SOL    HW131862   5.564   2.634   2.199
10321SOL    HW231863   5.477   2.497   2.216
10322SOL     OW31864   4.623   4.402   4.963
10322SOL    HW131865   4.690   4.456   5.015
10322SOL    HW231866   4.532   4.443   4.972
10323SOL     OW31867   0.395   4.132   5.093
10323SOL    HW131868   0.411   4.116   4.996
10323SOL    HW231869   0.482   4.151   5.138
10324SOL     OW31870   3.289   3.331   2.254
10324SOL    HW131871   3.373   3.278   2.259
10324SOL    HW231872   3.302   3.410   2.194
10325SOL     OW31873   0.545   6.273   2.991
10325SOL    HW131874   0.551   6.321   3.078
10325SOL    HW231875   0.602   6.191   2.995
10326SOL     OW31876   5.482   3.386   6.381
10326SOL    HW131877   5.574   3.422   6.364
10326SOL    HW231878   5.459   3.319   6.310
10327SOL     OW31879   2.619   3.861   1.041
10327SOL    HW131880   2.571   3.889   0.958
10327SOL    HW231881   2.636   3.941   1.098
10328SOL     OW31882   6.511   2.876   1.688
10328SOL    HW131883   6.585   2.834   1.741
10328SOL    HW231884   6.471   2.807   1.627
10329SOL     OW31885   3.582   1.521   2.802
10329SOL    HW131886   3.594   1.616   2.772
10329SOL    HW231887   3.569   1.519   2.901
10330SOL     OW31888   4.544   0.653   1.524
10330SOL    HW131889   4.462   0.645   1.580
10330SOL    HW231890   4.599   0.730   1.557
10331SOL     OW31891   6.304   5.723   0.404
10331SOL    HW131892   6.316   5.628   0.374
10331SOL    HW231893   6.227   5.763   0.355
10332SOL     OW31894   0.931   0.856   0.199
10332SOL    HW131895   1.005   0.913   0.165
10332SOL    HW231896   0.947   0.761   0.172
10333SOL     OW31897   0.756   5.507   4.477
10333SOL    HW131898   0.799   5.418   4.495
10333SOL    HW231899   0.808   5.579   4.522
10334SOL     OW31900   3.262   0.264   4.053
10334SOL    HW131901   3.342   0.257   4.113
10334SOL    HW231902   3.192   0.199   4.082
10335SOL     OW31903   0.601   3.100   5.827
10335SOL    HW131904   0.585   3.195   5.857
10335SOL    HW231905   0.674   3.099   5.759
10336SOL     OW31906   5.555   0.420   2.758
10336SOL    HW131907   5.542   0.475   2.840
10336SOL    HW231908   5.642   0.371   2.763
10337SOL     OW31909   6.311   5.139   0.118
10337SOL    HW131910   6.254   5.147   0.036
10337SOL    HW231911   6.263   5.086   0.187
10338SOL     OW31912   1.879   6.592   1.979
10338SOL    HW131913   1.879   6.493   1.987
10338SOL    HW231914   1.958   6.630   2.027
10339SOL     OW31915   6.601   2.202   5.952
10339SOL    HW131916   6.557   2.168   6.035
10339SOL    HW231917   6.562   2.291   5.927
10340SOL     OW31918   2.330   3.943   6.423
10340SOL    HW131919   2.304   3.955   6.327
10340SOL    HW231920   2.274   4.002   6.481
10341SOL     OW31921   2.546   2.489   2.598
10341SOL    HW131922   2.511   2.430   2.525
10341SOL    HW231923   2.497   2.576   2.596
10342SOL     OW31924   1.099   0.563   3.524
10342SOL    HW131925   1.173   0.621   3.491
10342SOL    HW231926   1.075   0.496   3.453
10343SOL     OW31927   2.192   5.581   0.816
10343SOL    HW131928   2.253   5.569   0.895
10343SOL    HW231929   2.206   5.506   0.752
10344SOL     OW31930   3.940   4.761   6.408
10344SOL    HW131931   3.860   4.703   6.392
10344SOL    HW231932   3.932   4.805   6.498
10345SOL     OW31933   1.277   3.054   5.070
10345SOL    HW131934   1.330   3.045   4.986
10345SOL    HW231935   1.335   3.032   5.148
10346SOL     OW31936   0.429   5.885   1.725
10346SOL    HW131937   0.423   5.975   1.681
10346SOL    HW231938   0.519   5.845   1.707
10347SOL     OW31939   4.739   1.431   3.704
10347SOL    HW131940   4.708   1.515   3.747
10347SOL    HW231941   4.660   1.382   3.666
10348SOL     OW31942   6.097   4.003   0.562
10348SOL    HW131943   6.033   4.070   0.525
10348SOL    HW231944   6.166   4.049   0.618
10349SOL     OW31945   6.792   6.172   6.393
10349SOL    HW131946   6.785   6.262   6.437
10349SOL    HW231947   6.755   6.177   6.301
10350SOL     OW31948   3.012   0.120   5.591
10350SOL    HW131949   2.971   0.045   5.644
10350SOL    HW231950   2.962   0.204   5.609
10351SOL     OW31951   4.382   5.184   5.592
10351SOL    HW131952   4.345   5.118   5.658
10351SOL    HW231953   4.482   5.177   5.591
10352SOL     OW31954   3.722   2.578   5.878
10352SOL    HW131955   3.682   2.642   5.943
10352SOL    HW231956   3.746   2.493   5.925
10353SOL     OW31957   6.835   2.683   5.035
10353SOL    HW131958   6.878   2.765   4.998
10353SOL    HW231959   6.881   2.602   4.998
10354SOL     OW31960   5.366   1.540   2.230
10354SOL    HW131961   5.375   1.636   2.206
10354SOL    HW231962   5.288   1.528   2.292
10355SOL     OW31963   2.264   5.765   2.166
10355SOL    HW131964   2.286   5.861   2.152
10355SOL    HW231965   2.170   5.747   2.137
10356SOL     OW31966   0.395   3.815   5.302
10356SOL    HW131967   0.445   3.800   5.217
10356SOL    HW231968   0.310   3.764   5.301
10357SOL     OW31969   2.219   1.712   6.968
10357SOL    HW131970   2.285   1.674   0.010
10357SOL    HW231971   2.242   1.808   6.948
10358SOL     OW31972   0.313   1.697   1.836
10358SOL    HW131973   0.334   1.760   1.911
10358SOL    HW231974   0.360   1.610   1.852
10359SOL     OW31975   0.272   0.965   1.555
10359SOL    HW131976   0.300   0.934   1.645
10359SOL    HW231977   0.174   0.949   1.543
10360SOL     OW31978   5.678   6.416   3.360
10360SOL    HW131979   5.618   6.450   3.433
10360SOL    HW231980   5.761   6.471   3.356
10361SOL     OW31981   2.948   5.241   1.708
10361SOL    HW131982   2.983   5.323   1.753
10361SOL    HW231983   2.859   5.217   1.747
10362SOL     OW31984   1.957   4.425   4.782
10362SOL    HW131985   1.928   4.330   4.785
10362SOL    HW231986   1.973   4.453   4.688
10363SOL     OW31987   5.217   0.846   3.848
10363SOL    HW131988   5.248   0.914   3.914
10363SOL    HW231989   5.241   0.754   3.881
10364SOL     OW31990   1.865   4.386   1.554
10364SOL    HW131991   1.895   4.479   1.533
10364SOL    HW231992   1.806   4.353   1.480
10365SOL     OW31993   4.822   5.464   0.055
10365SOL    HW131994   4.746   5.509   0.103
10365SOL    HW231995   4.786   5.417   6.996
10366SOL     OW31996   3.159   6.406   3.359
10366SOL    HW131997   3.206   6.319   3.371
10366SOL    HW231998   3.107   6.405   3.274
10367SOL     OW31999   6.960   2.588   3.667
10367SOL    HW132000   6.982   2.492   3.683
10367SOL    HW232001   6.931   2.600   3.572
10368SOL     OW32002   2.222   0.778   1.791
10368SOL    HW132003   2.254   0.766   1.885
10368SOL    HW232004   2.133   0.823   1.791
10369SOL     OW32005   3.952   2.593   0.000
10369SOL    HW132006   3.941   2.692   7.010
10369SOL    HW232007   3.960   2.573   0.098
10370SOL     OW32008   3.348   0.784   5.617
10370SOL    HW132009   3.427   0.777   5.556
10370SOL    HW232010   3.269   0.740   5.575
10371SOL     OW32011   5.184   6.603   5.555
10371SOL    HW132012   5.128   6.533   5.601
10371SOL    HW232013   5.280   6.588   5.577
10372SOL     OW32014   1.572   0.805   3.470
10372SOL    HW132015   1.607   0.896   3.444
10372SOL    HW232016   1.621   0.735   3.418
10373SOL     OW32017   0.809   5.778   4.592
10373SOL    HW132018   0.841   5.837   4.666
10373SOL    HW232019   0.775   5.835   4.517
10374SOL     OW32020   2.903   2.279   2.916
10374SOL    HW132021   2.856   2.222   2.983
10374SOL    HW232022   2.999   2.288   2.941
10375SOL     OW32023   5.972   1.942   0.752
10375SOL    HW132024   5.948   1.894   0.837
10375SOL    HW232025   5.951   2.039   0.761
10376SOL     OW32026   0.523   1.214   3.727
10376SOL    HW132027   0.466   1.173   3.656
10376SOL    HW232028   0.483   1.196   3.817
10377SOL     OW32029   1.026   0.162   4.560
10377SOL    HW132030   1.001   0.105   4.481
10377SOL    HW232031   1.029   0.258   4.533
10378SOL     OW32032   0.047   7.008   6.615
10378SOL    HW132033   0.087   0.075   6.597
10378SOL    HW232034   6.974   7.008   6.584
10379SOL     OW32035   5.355   1.603   4.157
10379SOL    HW132036   5.398   1.662   4.225
10379SOL    HW232037   5.256   1.603   4.169
10380SOL     OW32038   4.955   0.368   2.135
10380SOL    HW132039   4.989   0.430   2.207
10380SOL    HW232040   5.021   0.366   2.060
10381SOL     OW32041   4.798   4.989   5.249
10381SOL    HW132042   4.719   4.929   5.265
10381SOL    HW232043   4.871   4.965   5.313
10382SOL     OW32044   2.500   5.204   0.252
10382SOL    HW132045   2.532   5.298   0.237
10382SOL    HW232046   2.525   5.174   0.344
10383SOL     OW32047   0.067   2.321   0.405
10383SOL    HW132048   0.086   2.229   0.440
10383SOL    HW232049   0.136   2.384   0.439
10384SOL     OW32050   6.073   0.088   0.326
10384SOL    HW132051   6.167   0.055   0.334
10384SOL    HW232052   6.057   0.120   0.232
10385SOL     OW32053   6.024   1.732   6.658
10385SOL    HW132054   6.065   1.707   6.570
10385SOL    HW232055   5.929   1.701   6.660
10386SOL     OW32056   5.999   2.921   6.260
10386SOL    HW132057   5.923   2.930   6.195
10386SOL    HW232058   6.051   3.007   6.262
10387SOL     OW32059   2.169   2.988   3.211
10387SOL    HW132060   2.210   2.943   3.290
10387SOL    HW232061   2.097   2.930   3.173
10388SOL     OW32062   1.754   4.589   3.053
10388SOL    HW132063   1.727   4.516   2.991
10388SOL    HW232064   1.843   4.625   3.026
10389SOL     OW32065   0.842   5.264   3.123
10389SOL    HW132066   0.827   5.168   3.146
10389SOL    HW232067   0.811   5.322   3.198
10390SOL     OW32068   1.658   3.437   3.563
10390SOL    HW132069   1.623   3.407   3.651
10390SOL    HW232070   1.690   3.532   3.570
10391SOL     OW32071   2.679   6.648   6.320
10391SOL    HW132072   2.726   6.679   6.403
10391SOL    HW232073   2.645   6.728   6.270
10392SOL     OW32074   6.538   5.152   6.836
10392SOL    HW132075   6.475   5.189   6.904
10392SOL    HW232076   6.512   5.184   6.745
10393SOL     OW32077   1.264   1.409   3.874
10393SOL    HW132078   1.293   1.505   3.863
10393SOL    HW232079   1.180   1.394   3.821
10394SOL     OW32080   1.923   6.400   6.916
10394SOL    HW132081   1.832   6.437   6.895
10394SOL    HW232082   1.929   6.381   7.014
10395SOL     OW32083   0.434   1.516   4.582
10395SOL    HW132084   0.379   1.462   4.517
10395SOL    HW232085   0.408   1.491   4.675
10396SOL     OW32086   0.307   0.255   4.924
10396SOL    HW132087   0.237   0.200   4.970
10396SOL    HW232088   0.398   0.226   4.956
10397SOL     OW32089   4.040   1.581   2.719
10397SOL    HW132090   4.021   1.677   2.740
10397SOL    HW232091   3.955   1.534   2.698
10398SOL     OW32092   6.606   2.696   2.341
10398SOL    HW132093   6.544   2.618   2.346
10398SOL    HW232094   6.688   2.670   2.289
10399SOL     OW32095   5.869   1.746   5.562
10399SOL    HW132096   5.896   1.840   5.543
10399SOL    HW232097   5.771   1.743   5.582
10400SOL     OW32098   2.299   4.536   1.433
10400SOL    HW132099   2.362   4.580   1.370
10400SOL    HW232100   2.304   4.437   1.423
10401SOL     OW32101   0.665   6.464   1.387
10401SOL    HW132102   0.686   6.435   1.480
10401SOL    HW232103   0.577   6.425   1.359
10402SOL     OW32104   0.471   3.245   4.140
10402SOL    HW132105   0.451   3.156   4.182
10402SOL    HW232106   0.569   3.263   4.146
10403SOL     OW32107   5.071   1.512   1.889
10403SOL    HW132108   5.139   1.465   1.946
10403SOL    HW232109   5.073   1.610   1.909
10404SOL     OW32110   0.431   6.128   3.771
10404SOL    HW132111   0.374   6.162   3.846
10404SOL    HW232112   0.402   6.036   3.747
10405SOL     OW32113   1.831   6.574   6.336
10405SOL    HW132114   1.782   6.584   6.250
10405SOL    HW232115   1.919   6.622   6.331
10406SOL     OW32116   2.634   5.111   6.206
10406SOL    HW132117   2.642   5.208   6.187
10406SOL    HW232118   2.684   5.059   6.137
10407SOL     OW32119   1.042   1.188   6.877
10407SOL    HW132120   0.959   1.186   6.932
10407SOL    HW232121   1.103   1.114   6.904
10408SOL     OW32122   4.236   5.144   3.442
10408SOL    HW132123   4.270   5.238   3.434
10408SOL    HW232124   4.302   5.082   3.398
10409SOL     OW32125   6.258   5.051   2.282
10409SOL    HW132126   6.308   5.134   2.308
10409SOL    HW232127   6.218   5.010   2.364
10410SOL     OW32128   6.259   6.793   1.091
10410SOL    HW132129   6.159   6.799   1.087
10410SOL    HW232130   6.285   6.712   1.144
10411SOL     OW32131   1.938   4.353   2.507
10411SOL    HW132132   1.932   4.257   2.479
10411SOL    HW232133   1.999   4.402   2.445
10412SOL     OW32134   0.691   2.127   0.076
10412SOL    HW132135   0.738   2.178   0.148
10412SOL    HW232136   0.592   2.132   0.090
10413SOL     OW32137   0.292   1.779   6.773
10413SOL    HW132138   0.338   1.861   6.807
10413SOL    HW232139   0.216   1.805   6.713
10414SOL     OW32140   5.664   7.018   5.320
10414SOL    HW132141   5.619   0.074   5.276
10414SOL    HW232142   5.608   6.936   5.306
10415SOL     OW32143   0.799   5.690   3.359
10415SOL    HW132144   0.836   5.691   3.452
10415SOL    HW232145   0.833   5.768   3.308
10416SOL     OW32146   5.044   0.691   6.618
10416SOL    HW132147   5.119   0.727   6.674
10416SOL    HW232148   4.959   0.692   6.671
10417SOL     OW32149   3.717   4.932   4.567
10417SOL    HW132150   3.807   4.897   4.540
10417SOL    HW232151   3.655   4.930   4.489
10418SOL     OW32152   6.413   3.711   6.558
10418SOL    HW132153   6.418   3.808   6.582
10418SOL    HW232154   6.335   3.695   6.498
10419SOL     OW32155   2.551   1.504   4.470
10419SOL    HW132156   2.522   1.555   4.389
10419SOL    HW232157   2.597   1.566   4.534
10420SOL     OW32158   5.501   3.454   3.318
10420SOL    HW132159   5.495   3.506   3.403
10420SOL    HW232160   5.550   3.368   3.335
10421SOL     OW32161   0.716   4.950   3.925
10421SOL    HW132162   0.781   4.982   3.857
10421SOL    HW232163   0.657   5.026   3.953
10422SOL     OW32164   6.671   3.819   5.231
10422SOL    HW132165   6.674   3.919   5.231
10422SOL    HW232166   6.648   3.786   5.140
10423SOL     OW32167   2.398   5.129   4.092
10423SOL    HW132168   2.411   5.051   4.030
10423SOL    HW232169   2.325   5.187   4.056
10424SOL     OW32170   3.323   1.071   0.393
10424SOL    HW132171   3.297   1.069   0.489
10424SOL    HW232172   3.337   0.978   0.360
10425SOL     OW32173   1.596   2.715   0.948
10425SOL    HW132174   1.688   2.678   0.959
10425SOL    HW232175   1.573   2.717   0.850
10426SOL     OW32176   6.425   1.910   6.165
10426SOL    HW132177   6.405   1.935   6.071
10426SOL    HW232178   6.389   1.981   6.226
10427SOL     OW32179   5.310   1.013   4.251
10427SOL    HW132180   5.218   1.002   4.291
10427SOL    HW232181   5.374   0.955   4.301
10428SOL     OW32182   2.459   0.379   4.378
10428SOL    HW132183   2.473   0.305   4.311
10428SOL    HW232184   2.539   0.440   4.376
10429SOL     OW32185   1.077   3.151   1.436
10429SOL    HW132186   1.088   3.090   1.358
10429SOL    HW232187   1.164   3.195   1.458
10430SOL     OW32188   2.968   6.959   3.731
10430SOL    HW132189   3.067   6.945   3.726
10430SOL    HW232190   2.949   0.034   3.743
10431SOL     OW32191   4.107   0.462   3.191
10431SOL    HW132192   4.098   0.395   3.118
10431SOL    HW232193   4.030   0.525   3.188
10432SOL     OW32194   0.641   5.649   6.373
10432SOL    HW132195   0.678   5.557   6.385
10432SOL    HW232196   0.634   5.671   6.276
10433SOL     OW32197   3.046   6.837   3.017
10433SOL    HW132198   3.060   6.826   3.115
10433SOL    HW232199   3.016   6.930   2.997
10434SOL     OW32200   5.151   1.044   5.756
10434SOL    HW132201   5.120   1.102   5.680
10434SOL    HW232202   5.250   1.046   5.761
10435SOL     OW32203   2.380   1.840   0.464
10435SOL    HW132204   2.378   1.904   0.387
10435SOL    HW232205   2.292   1.792   0.469
10436SOL     OW32206   6.995   3.695   4.939
10436SOL    HW132207   0.036   3.765   4.907
10436SOL    HW232208   0.017   3.606   4.939
10437SOL     OW32209   5.814   6.661   4.804
10437SOL    HW132210   5.798   6.562   4.811
10437SOL    HW232211   5.730   6.709   4.829
10438SOL     OW32212   6.899   5.913   6.735
10438SOL    HW132213   6.818   5.908   6.677
10438SOL    HW232214   6.883   5.864   6.821
10439SOL     OW32215   6.510   5.715   4.430
10439SOL    HW132216   6.444   5.789   4.424
10439SOL    HW232217   6.566   5.713   4.347
10440SOL     OW32218   6.005   2.767   0.898
10440SOL    HW132219   6.084   2.777   0.837
10440SOL    HW232220   5.928   2.727   0.846
10441SOL     OW32221   4.495   1.907   6.901
10441SOL    HW132222   4.562   1.833   6.910
10441SOL    HW232223   4.414   1.886   6.956
10442SOL     OW32224   1.718   1.292   4.914
10442SOL    HW132225   1.677   1.275   5.004
10442SOL    HW232226   1.648   1.325   4.851
10443SOL     OW32227   0.644   1.319   0.921
10443SOL    HW132228   0.743   1.329   0.912
10443SOL    HW232229   0.598   1.390   0.868
10444SOL     OW32230   3.975   4.878   4.441
10444SOL    HW132231   4.064   4.845   4.409
10444SOL    HW232232   3.920   4.907   4.362
10445SOL     OW32233   0.969   3.241   3.517
10445SOL    HW132234   0.931   3.331   3.496
10445SOL    HW232235   1.069   3.247   3.516
10446SOL     OW32236   2.208   4.562   5.613
10446SOL    HW132237   2.264   4.628   5.564
10446SOL    HW232238   2.211   4.474   5.565
10447SOL     OW32239   0.551   2.179   2.544
10447SOL    HW132240   0.600   2.265   2.534
10447SOL    HW232241   0.609   2.112   2.590
10448SOL     OW32242   2.148   6.631   1.659
10448SOL    HW132243   2.188   6.722   1.657
10448SOL    HW232244   2.067   6.631   1.718
10449SOL     OW32245   3.609   5.133   5.063
10449SOL    HW132246   3.530   5.136   5.125
10449SOL    HW232247   3.586   5.079   4.983
10450SOL     OW32248   6.581   0.760   5.121
10450SOL    HW132249   6.562   0.745   5.024
10450SOL    HW232250   6.646   0.691   5.153
10451SOL     OW32251   3.325   1.355   3.674
10451SOL    HW132252   3.301   1.418   3.748
10451SOL    HW232253   3.243   1.330   3.623
10452SOL     OW32254   6.141   2.924   4.644
10452SOL    HW132255   6.144   2.990   4.569
10452SOL    HW232256   6.070   2.856   4.626
10453SOL     OW32257   4.501   6.198   3.985
10453SOL    HW132258   4.579   6.148   4.021
10453SOL    HW232259   4.459   6.146   3.910
10454SOL     OW32260   6.429   1.469   6.528
10454SOL    HW132261   6.520   1.510   6.520
10454SOL    HW232262   6.362   1.525   6.480
10455SOL     OW32263   0.322   5.565   3.276
10455SOL    HW132264   0.386   5.490   3.296
10455SOL    HW232265   0.235   5.527   3.244
10456SOL     OW32266   1.290   5.459   6.611
10456SOL    HW132267   1.229   5.528   6.570
10456SOL    HW232268   1.274   5.456   6.710
10457SOL     OW32269   3.805   2.393   6.486
10457SOL    HW132270   3.883   2.403   6.548
10457SOL    HW232271   3.747   2.318   6.516
10458SOL     OW32272   0.300   5.986   6.800
10458SOL    HW132273   0.323   5.899   6.843
10458SOL    HW232274   0.234   6.035   6.857
10459SOL     OW32275   6.164   5.183   1.258
10459SOL    HW132276   6.246   5.238   1.277
10459SOL    HW232277   6.114   5.224   1.181
10460SOL     OW32278   6.904   0.348   0.819
10460SOL    HW132279   7.002   0.337   0.832
10460SOL    HW232280   6.887   0.395   0.732
10461SOL     OW32281   0.090   4.703   6.407
10461SOL    HW132282   0.165   4.637   6.394
10461SOL    HW232283   0.098   4.744   6.497
10462SOL     OW32284   3.845   2.669   6.145
10462SOL    HW132285   3.930   2.673   6.094
10462SOL    HW232286   3.778   2.730   6.103
10463SOL     OW32287   4.904   1.857   6.360
10463SOL    HW132288   4.885   1.765   6.396
10463SOL    HW232289   4.826   1.888   6.306
10464SOL     OW32290   6.491   4.955   2.355
10464SOL    HW132291   6.547   5.000   2.286
10464SOL    HW232292   6.394   4.972   2.336
10465SOL     OW32293   5.253   4.401   1.360
10465SOL    HW132294   5.284   4.440   1.447
10465SOL    HW232295   5.327   4.407   1.293
10466SOL     OW32296   6.291   4.580   6.099
10466SOL    HW132297   6.243   4.640   6.035
10466SOL    HW232298   6.390   4.584   6.081
10467SOL     OW32299   0.841   3.093   0.337
10467SOL    HW132300   0.764   3.147   0.303
10467SOL    HW232301   0.890   3.145   0.407
10468SOL     OW32302   1.790   4.405   3.644
10468SOL    HW132303   1.880   4.432   3.611
10468SOL    HW232304   1.792   4.397   3.743
10469SOL     OW32305   0.177   1.564   4.045
10469SOL    HW132306   0.081   1.568   4.017
10469SOL    HW232307   0.182   1.554   4.145
10470SOL     OW32308   2.125   3.354   2.880
10470SOL    HW132309   2.213   3.390   2.910
10470SOL    HW232310   2.089   3.292   2.950
10471SOL     OW32311   2.675   6.577   6.610
10471SOL    HW132312   2.731   6.528   6.676
10471SOL    HW232313   2.616   6.513   6.561
10472SOL     OW32314   3.865   5.085   6.743
10472SOL    HW132315   3.790   5.127   6.794
10472SOL    HW232316   3.888   5.143   6.665
10473SOL     OW32317   5.738   4.634   0.888
10473SOL    HW132318   5.834   4.644   0.863
10473SOL    HW232319   5.725   4.661   0.984
10474SOL     OW32320   5.722   0.859   4.863
10474SOL    HW132321   5.760   0.858   4.955
10474SOL    HW232322   5.777   0.800   4.803
10475SOL     OW32323   1.446   5.426   1.340
10475SOL    HW132324   1.361   5.438   1.391
10475SOL    HW232325   1.509   5.500   1.364
10476SOL     OW32326   4.833   6.588   1.011
10476SOL    HW132327   4.923   6.617   1.043
10476SOL    HW232328   4.843   6.511   0.948
10477SOL     OW32329   0.139   5.659   3.759
10477SOL    HW132330   0.071   5.702   3.700
10477SOL    HW232331   0.099   5.576   3.800
10478SOL     OW32332   6.839   0.822   6.928
10478SOL    HW132333   6.767   0.778   6.982
10478SOL    HW232334   6.897   0.877   6.988
10479SOL     OW32335   0.661   2.948   2.053
10479SOL    HW132336   0.687   2.961   2.148
10479SOL    HW232337   0.735   2.978   1.993
10480SOL     OW32338   2.381   0.277   3.141
10480SOL    HW132339   2.456   0.307   3.082
10480SOL    HW232340   2.375   0.177   3.138
10481SOL     OW32341   0.203   1.169   1.875
10481SOL    HW132342   0.132   1.169   1.805
10481SOL    HW232343   0.266   1.245   1.858
10482SOL     OW32344   5.515   3.394   3.751
10482SOL    HW132345   5.526   3.487   3.789
10482SOL    HW232346   5.566   3.329   3.808
10483SOL     OW32347   6.605   6.265   0.370
10483SOL    HW132348   6.512   6.244   0.338
10483SOL    HW232349   6.601   6.328   0.447
10484SOL     OW32350   6.378   1.330   2.719
10484SOL    HW132351   6.390   1.244   2.669
10484SOL    HW232352   6.455   1.342   2.782
10485SOL     OW32353   5.093   3.651   5.428
10485SOL    HW132354   5.072   3.646   5.526
10485SOL    HW232355   5.173   3.709   5.414
10486SOL     OW32356   5.681   3.085   1.997
10486SOL    HW132357   5.624   3.040   1.928
10486SOL    HW232358   5.638   3.171   2.025
10487SOL     OW32359   5.545   6.682   1.457
10487SOL    HW132360   5.575   6.704   1.550
10487SOL    HW232361   5.469   6.743   1.432
10488SOL     OW32362   2.466   2.352   0.156
10488SOL    HW132363   2.383   2.329   0.105
10488SOL    HW232364   2.457   2.321   0.251
10489SOL     OW32365   1.163   5.742   5.680
10489SOL    HW132366   1.192   5.742   5.776
10489SOL    HW232367   1.073   5.785   5.672
10490SOL     OW32368   0.048   0.192   3.979
10490SOL    HW132369   6.972   0.186   3.995
10490SOL    HW232370   0.080   0.285   3.997
10491SOL     OW32371   0.874   4.175   5.995
10491SOL    HW132372   0.856   4.178   5.896
10491SOL    HW232373   0.845   4.260   6.037
10492SOL     OW32374   3.999   3.644   5.609
10492SOL    HW132375   3.947   3.637   5.524
10492SOL    HW232376   3.939   3.623   5.687
10493SOL     OW32377   3.635   0.956   0.913
10493SOL    HW132378   3.595   0.959   1.005
10493SOL    HW232379   3.567   0.988   0.846
10494SOL     OW32380   5.783   2.527   4.309
10494SOL    HW132381   5.868   2.477   4.293
10494SOL    HW232382   5.769   2.538   4.408
10495SOL     OW32383   1.556   6.882   6.827
10495SOL    HW132384   1.561   6.978   6.857
10495SOL    HW232385   1.490   6.874   6.753
10496SOL     OW32386   6.605   0.159   5.463
10496SOL    HW132387   6.556   0.246   5.454
10496SOL    HW232388   6.547   0.092   5.509
10497SOL     OW32389   1.289   1.092   0.898
10497SOL    HW132390   1.338   1.128   0.978
10497SOL    HW232391   1.344   1.019   0.856
10498SOL     OW32392   3.081   5.550   6.209
10498SOL    HW132393   3.119   5.539   6.117
10498SOL    HW232394   3.048   5.461   6.242
10499SOL     OW32395   3.754   5.307   3.426
10499SOL    HW132396   3.845   5.275   3.401
10499SOL    HW232397   3.749   5.318   3.525
10500SOL     OW32398   1.150   2.060   6.286
10500SOL    HW132399   1.090   2.018   6.217
10500SOL    HW232400   1.163   2.156   6.264
10501SOL     OW32401   1.650   2.890   2.951
10501SOL    HW132402   1.669   2.855   3.043
10501SOL    HW232403   1.674   2.987   2.946
10502SOL     OW32404   3.070   6.498   6.063
10502SOL    HW132405   3.029   6.436   5.996
10502SOL    HW232406   3.005   6.514   6.137
10503SOL     OW32407   2.384   3.306   5.912
10503SOL    HW132408   2.482   3.317   5.896
10503SOL    HW232409   2.333   3.373   5.857
10504SOL     OW32410   2.869   3.122   0.652
10504SOL    HW132411   2.837   3.118   0.747
10504SOL    HW232412   2.963   3.157   0.650
10505SOL     OW32413   0.198   6.400   1.143
10505SOL    HW132414   0.114   6.416   1.194
10505SOL    HW232415   0.250   6.485   1.135
10506SOL     OW32416   0.784   4.302   5.731
10506SOL    HW132417   0.828   4.364   5.666
10506SOL    HW232418   0.697   4.342   5.761
10507SOL     OW32419   0.954   0.261   5.041
10507SOL    HW132420   0.928   0.340   4.985
10507SOL    HW232421   0.909   0.179   5.005
10508SOL     OW32422   5.091   4.514   2.869
10508SOL    HW132423   5.168   4.554   2.820
10508SOL    HW232424   5.116   4.496   2.964
10509SOL     OW32425   1.608   0.152   5.766
10509SOL    HW132426   1.644   0.245   5.773
10509SOL    HW232427   1.554   0.143   5.682
10510SOL     OW32428   6.766   5.909   0.135
10510SOL    HW132429   6.713   5.920   0.219
10510SOL    HW232430   6.824   5.990   0.122
10511SOL     OW32431   5.369   2.470   0.148
10511SOL    HW132432   5.424   2.452   0.230
10511SOL    HW232433   5.419   2.438   0.067
10512SOL     OW32434   3.485   6.458   6.804
10512SOL    HW132435   3.562   6.448   6.741
10512SOL    HW232436   3.517   6.500   6.889
10513SOL     OW32437   6.453   2.326   0.073
10513SOL    HW132438   6.510   2.275   0.137
10513SOL    HW232439   6.426   2.413   0.114
10514SOL     OW32440   0.039   4.137   1.478
10514SOL    HW132441   0.002   4.217   1.525
10514SOL    HW232442   6.989   4.070   1.464
10515SOL     OW32443   6.572   2.343   4.630
10515SOL    HW132444   6.650   2.370   4.687
10515SOL    HW232445   6.536   2.423   4.581
10516SOL     OW32446   4.013   0.458   6.586
10516SOL    HW132447   4.050   0.470   6.494
10516SOL    HW232448   4.064   0.516   6.650
10517SOL     OW32449   0.426   1.788   3.350
10517SOL    HW132450   0.439   1.848   3.429
10517SOL    HW232451   0.432   1.842   3.266
10518SOL     OW32452   0.641   6.670   1.172
10518SOL    HW132453   0.636   6.619   1.258
10518SOL    HW232454   0.599   6.616   1.099
10519SOL     OW32455   2.943   3.456   5.397
10519SOL    HW132456   2.877   3.492   5.332
10519SOL    HW232457   3.014   3.524   5.414
10520SOL     OW32458   3.974   3.030   6.276
10520SOL    HW132459   4.010   2.994   6.189
10520SOL    HW232460   4.041   3.092   6.316
10521SOL     OW32461   6.530   5.514   1.577
10521SOL    HW132462   6.469   5.436   1.593
10521SOL    HW232463   6.487   5.597   1.613
10522SOL     OW32464   6.182   0.467   2.022
10522SOL    HW132465   6.124   0.547   2.037
10522SOL    HW232466   6.150   0.417   1.942
10523SOL     OW32467   0.379   5.714   6.877
10523SOL    HW132468   0.406   5.701   6.782
10523SOL    HW232469   0.299   5.658   6.897
10524SOL     OW32470   3.446   0.851   4.384
10524SOL    HW132471   3.472   0.809   4.297
10524SOL    HW232472   3.436   0.780   4.454
10525SOL     OW32473   2.935   6.163   4.597
10525SOL    HW132474   2.936   6.222   4.516
10525SOL    HW232475   2.982   6.208   4.672
10526SOL     OW32476   5.624   6.607   2.545
10526SOL    HW132477   5.561   6.547   2.595
10526SOL    HW232478   5.689   6.647   2.608
10527SOL     OW32479   1.484   2.513   4.876
10527SOL    HW132480   1.533   2.431   4.907
10527SOL    HW232481   1.386   2.499   4.886
10528SOL     OW32482   6.607   4.890   5.056
10528SOL    HW132483   6.674   4.816   5.049
10528SOL    HW232484   6.528   4.859   5.109
10529SOL     OW32485   6.123   6.295   3.646
10529SOL    HW132486   6.222   6.303   3.638
10529SOL    HW232487   6.100   6.212   3.697
10530SOL     OW32488   1.819   1.638   5.933
10530SOL    HW132489   1.812   1.723   5.882
10530SOL    HW232490   1.912   1.629   5.970
10531SOL     OW32491   1.938   2.807   5.293
10531SOL    HW132492   1.953   2.859   5.378
10531SOL    HW232493   1.894   2.720   5.315
10532SOL     OW32494   3.306   2.732   5.736
10532SOL    HW132495   3.245   2.798   5.779
10532SOL    HW232496   3.280   2.720   5.640
10533SOL     OW32497   2.483   1.221   6.303
10533SOL    HW132498   2.442   1.170   6.227
10533SOL    HW232499   2.549   1.162   6.350
10534SOL     OW32500   5.922   5.524   0.997
10534SOL    HW132501   5.873   5.571   1.070
10534SOL    HW232502   5.861   5.508   0.919
10535SOL     OW32503   6.967   1.178   2.462
10535SOL    HW132504   6.971   1.265   2.413
10535SOL    HW232505   6.976   1.103   2.396
10536SOL     OW32506   4.563   0.338   3.103
10536SOL    HW132507   4.613   0.314   3.020
10536SOL    HW232508   4.480   0.388   3.078
10537SOL     OW32509   0.958   4.747   1.291
10537SOL    HW132510   0.927   4.729   1.384
10537SOL    HW232511   0.891   4.803   1.243
10538SOL     OW32512   5.370   3.661   0.108
10538SOL    HW132513   5.320   3.608   0.040
10538SOL    HW232514   5.434   3.723   0.062
10539SOL     OW32515   0.628   2.777   5.638
10539SOL    HW132516   0.653   2.872   5.616
10539SOL    HW232517   0.538   2.757   5.598
10540SOL     OW32518   2.654   0.559   6.977
10540SOL    HW132519   2.661   0.650   7.019
10540SOL    HW232520   2.703   0.559   6.890
10541SOL     OW32521   3.813   2.437   0.558
10541SOL    HW132522   3.755   2.466   0.483
10541SOL    HW232523   3.906   2.471   0.544
10542SOL     OW32524   0.551   2.539   0.241
10542SOL    HW132525   0.552   2.581   0.150
10542SOL    HW232526   0.469   2.567   0.290
10543SOL     OW32527   1.837   1.181   5.378
10543SOL    HW132528   1.760   1.195   5.440
10543SOL    HW232529   1.895   1.263   5.378
10544SOL     OW32530   0.752   2.526   2.066
10544SOL    HW132531   0.832   2.586   2.074
10544SOL    HW232532   0.711   2.513   2.156
10545SOL     OW32533   5.701   0.147   2.480
10545SOL    HW132534   5.781   0.193   2.440
10545SOL    HW232535   5.727   0.058   2.515
10546SOL     OW32536   3.198   1.105   4.352
10546SOL    HW132537   3.123   1.061   4.302
10546SOL    HW232538   3.279   1.108   4.293
10547SOL     OW32539   4.062   1.428   1.093
10547SOL    HW132540   4.067   1.427   0.993
10547SOL    HW232541   4.087   1.339   1.128
10548SOL     OW32542   4.824   3.995   4.819
10548SOL    HW132543   4.787   4.042   4.900
10548SOL    HW232544   4.860   3.906   4.846
10549SOL     OW32545   1.203   1.153   1.960
10549SOL    HW132546   1.195   1.054   1.945
10549SOL    HW232547   1.113   1.195   1.948
10550SOL     OW32548   4.945   0.033   4.719
10550SOL    HW132549   4.880   0.109   4.721
10550SOL    HW232550   4.945   7.014   4.628
10551SOL     OW32551   1.339   2.770   5.655
10551SOL    HW132552   1.425   2.752   5.703
10551SOL    HW232553   1.287   2.839   5.705
10552SOL     OW32554   2.882   2.342   5.261
10552SOL    HW132555   2.825   2.401   5.204
10552SOL    HW232556   2.978   2.350   5.232
10553SOL     OW32557   3.005   4.569   6.916
10553SOL    HW132558   2.974   4.653   6.870
10553SOL    HW232559   2.927   4.525   6.959
10554SOL     OW32560   6.691   4.478   5.977
10554SOL    HW132561   6.676   4.406   5.909
10554SOL    HW232562   6.626   4.552   5.963
10555SOL     OW32563   3.246   2.344   1.273
10555SOL    HW132564   3.165   2.402   1.281
10555SOL    HW232565   3.280   2.321   1.365
10556SOL     OW32566   1.975   3.122   4.519
10556SOL    HW132567   1.892   3.068   4.506
10556SOL    HW232568   2.055   3.064   4.509
10557SOL     OW32569   6.126   2.726   3.706
10557SOL    HW132570   6.096   2.751   3.797
10557SOL    HW232571   6.151   2.629   3.704
10558SOL     OW32572   5.109   6.497   5.048
10558SOL    HW132573   5.035   6.459   4.993
10558SOL    HW232574   5.099   6.465   5.143
10559SOL     OW32575   4.155   2.171   0.441
10559SOL    HW132576   4.110   2.244   0.390
10559SOL    HW232577   4.107   2.157   0.528
10560SOL     OW32578   0.466   2.983   4.193
10560SOL    HW132579   0.422   2.949   4.110
10560SOL    HW232580   0.404   2.972   4.270
10561SOL     OW32581   2.496   3.985   6.788
10561SOL    HW132582   2.427   3.922   6.824
10561SOL    HW232583   2.549   3.939   6.717
10562SOL     OW32584   3.514   1.030   0.151
10562SOL    HW132585   3.467   0.977   0.082
10562SOL    HW232586   3.613   1.018   0.141
10563SOL     OW32587   1.568   1.378   4.592
10563SOL    HW132588   1.551   1.476   4.581
10563SOL    HW232589   1.616   1.343   4.511
10564SOL     OW32590   6.444   1.846   2.033
10564SOL    HW132591   6.429   1.750   2.011
10564SOL    HW232592   6.452   1.898   1.947
10565SOL     OW32593   5.917   1.990   5.008
10565SOL    HW132594   5.850   1.937   5.061
10565SOL    HW232595   5.874   2.024   4.924
10566SOL     OW32596   3.854   4.495   6.754
10566SOL    HW132597   3.801   4.422   6.712
10566SOL    HW232598   3.804   4.581   6.747
10567SOL     OW32599   1.552   4.764   4.223
10567SOL    HW132600   1.607   4.686   4.192
10567SOL    HW232601   1.571   4.782   4.319
10568SOL     OW32602   4.095   1.373   3.371
10568SOL    HW132603   4.193   1.354   3.364
10568SOL    HW232604   4.062   1.349   3.462
10569SOL     OW32605   6.015   3.223   4.064
10569SOL    HW132606   5.989   3.193   4.156
10569SOL    HW232607   6.110   3.255   4.065
10570SOL     OW32608   1.610   4.464   2.857
10570SOL    HW132609   1.646   4.452   2.765
10570SOL    HW232610   1.526   4.409   2.867
10571SOL     OW32611   5.969   6.796   4.062
10571SOL    HW132612   5.985   6.895   4.061
10571SOL    HW232613   5.925   6.771   4.147
10572SOL     OW32614   6.160   3.464   2.013
10572SOL    HW132615   6.208   3.492   2.096
10572SOL    HW232616   6.210   3.391   1.967
10573SOL     OW32617   5.901   4.895   5.962
10573SOL    HW132618   5.879   4.897   6.059
10573SOL    HW232619   5.844   4.827   5.916
10574SOL     OW32620   0.584   1.909   2.911
10574SOL    HW132621   0.495   1.898   2.957
10574SOL    HW232622   0.631   1.989   2.950
10575SOL     OW32623   0.880   6.890   5.502
10575SOL    HW132624   0.832   6.966   5.545
10575SOL    HW232625   0.972   6.918   5.476
10576SOL     OW32626   1.656   5.069   3.567
10576SOL    HW132627   1.742   5.057   3.617
10576SOL    HW232628   1.673   5.061   3.469
10577SOL     OW32629   1.370   2.240   5.400
10577SOL    HW132630   1.305   2.316   5.386
10577SOL    HW232631   1.456   2.277   5.434
10578SOL     OW32632   6.335   0.755   5.738
10578SOL    HW132633   6.341   0.855   5.731
10578SOL    HW232634   6.402   0.722   5.804
10579SOL     OW32635   4.471   1.275   0.761
10579SOL    HW132636   4.447   1.349   0.698
10579SOL    HW232637   4.519   1.203   0.712
10580SOL     OW32638   6.648   5.990   0.363
10580SOL    HW132639   6.615   6.084   0.365
10580SOL    HW232640   6.665   5.959   0.457
10581SOL     OW32641   4.992   1.133   3.797
10581SOL    HW132642   5.091   1.147   3.804
10581SOL    HW232643   4.951   1.136   3.888
10582SOL     OW32644   3.645   4.693   6.787
10582SOL    HW132645   3.678   4.734   6.872
10582SOL    HW232646   3.545   4.688   6.788
10583SOL     OW32647   4.553   1.965   1.024
10583SOL    HW132648   4.528   2.062   1.025
10583SOL    HW232649   4.564   1.933   1.118
10584SOL     OW32650   5.861   0.142   1.923
10584SOL    HW132651   5.871   0.219   1.859
10584SOL    HW232652   5.936   0.077   1.909
10585SOL     OW32653   1.553   3.808   6.458
10585SOL    HW132654   1.627   3.829   6.394
10585SOL    HW232655   1.486   3.883   6.458
10586SOL     OW32656   3.767   0.602   6.925
10586SOL    HW132657   3.814   0.676   6.974
10586SOL    HW232658   3.713   0.641   6.851
10587SOL     OW32659   6.389   3.759   1.056
10587SOL    HW132660   6.302   3.721   1.024
10587SOL    HW232661   6.394   3.753   1.156
10588SOL     OW32662   6.922   5.416   2.798
10588SOL    HW132663   7.009   5.385   2.759
10588SOL    HW232664   6.906   5.369   2.885
10589SOL     OW32665   6.014   1.679   4.141
10589SOL    HW132666   5.993   1.587   4.173
10589SOL    HW232667   6.113   1.687   4.126
10590SOL     OW32668   0.830   0.742   3.922
10590SOL    HW132669   0.907   0.718   3.981
10590SOL    HW232670   0.841   0.698   3.833
10591SOL     OW32671   1.320   2.858   0.809
10591SOL    HW132672   1.385   2.816   0.746
10591SOL    HW232673   1.279   2.788   0.867
10592SOL     OW32674   6.678   1.375   0.067
10592SOL    HW132675   6.737   1.421   0.001
10592SOL    HW232676   6.668   1.279   0.041
10593SOL     OW32677   1.949   4.926   0.847
10593SOL    HW132678   1.865   4.979   0.836
10593SOL    HW232679   1.979   4.891   0.759
10594SOL     OW32680   0.582   2.084   4.313
10594SOL    HW132681   0.570   2.168   4.365
10594SOL    HW232682   0.656   2.096   4.247
10595SOL     OW32683   3.280   6.141   6.088
10595SOL    HW132684   3.334   6.159   6.170
10595SOL    HW232685   3.282   6.221   6.029
10596SOL     OW32686   3.668   0.936   1.251
10596SOL    HW132687   3.717   0.865   1.200
10596SOL    HW232688   3.730   0.976   1.319
10597SOL     OW32689   1.423   0.114   4.539
10597SOL    HW132690   1.384   0.025   4.514
10597SOL    HW232691   1.476   0.149   4.462
10598SOL     OW32692   1.858   2.030   0.186
10598SOL    HW132693   1.814   2.001   0.101
10598SOL    HW232694   1.791   2.080   0.242
10599SOL     OW32695   4.909   1.323   6.907
10599SOL    HW132696   4.823   1.284   6.874
10599SOL    HW232697   4.969   1.249   6.937
10600SOL     OW32698   2.000   2.731   6.066
10600SOL    HW132699   2.019   2.781   6.151
10600SOL    HW232700   2.086   2.710   6.020
10601SOL     OW32701   3.185   6.717   5.917
10601SOL    HW132702   3.150   6.639   5.969
10601SOL    HW232703   3.215   6.788   5.981
10602SOL     OW32704   4.570   1.359   2.148
10602SOL    HW132705   4.646   1.417   2.117
10602SOL    HW232706   4.606   1.274   2.186
10603SOL     OW32707   1.829   5.481   4.756
10603SOL    HW132708   1.795   5.440   4.672
10603SOL    HW232709   1.794   5.574   4.764
10604SOL     OW32710   7.016   4.248   4.990
10604SOL    HW132711   7.018   4.348   4.989
10604SOL    HW232712   0.079   4.213   5.030
10605SOL     OW32713   1.973   4.855   6.592
10605SOL    HW132714   1.991   4.939   6.642
10605SOL    HW232715   1.908   4.799   6.644
10606SOL     OW32716   0.532   0.764   2.882
10606SOL    HW132717   0.619   0.716   2.888
10606SOL    HW232718   0.462   0.713   2.933
10607SOL     OW32719   5.502   5.102   0.094
10607SOL    HW132720   5.419   5.097   0.038
10607SOL    HW232721   5.480   5.142   0.183
10608SOL     OW32722   6.028   1.722   3.417
10608SOL    HW132723   6.082   1.775   3.481
10608SOL    HW232724   6.019   1.772   3.330
10609SOL     OW32725   4.104   6.453   1.672
10609SOL    HW132726   4.031   6.514   1.640
10609SOL    HW232727   4.065   6.387   1.737
10610SOL     OW32728   1.477   3.082   5.540
10610SOL    HW132729   1.384   3.058   5.565
10610SOL    HW232730   1.529   3.105   5.622
10611SOL     OW32731   5.007   2.322   6.582
10611SOL    HW132732   4.944   2.289   6.512
10611SOL    HW232733   5.076   2.252   6.601
10612SOL     OW32734   1.592   6.650   0.650
10612SOL    HW132735   1.585   6.563   0.700
10612SOL    HW232736   1.502   6.693   0.646
10613SOL     OW32737   0.623   6.623   6.138
10613SOL    HW132738   0.669   6.640   6.225
10613SOL    HW232739   0.584   6.709   6.104
10614SOL     OW32740   6.547   0.976   4.765
10614SOL    HW132741   6.540   0.957   4.667
10614SOL    HW232742   6.546   0.891   4.817
10615SOL     OW32743   5.939   5.814   5.500
10615SOL    HW132744   6.037   5.833   5.501
10615SOL    HW232745   5.918   5.746   5.571
10616SOL     OW32746   3.046   5.484   0.305
10616SOL    HW132747   3.012   5.469   0.398
10616SOL    HW232748   3.146   5.482   0.304
10617SOL     OW32749   1.323   2.160   6.553
10617SOL    HW132750   1.268   2.078   6.572
10617SOL    HW232751   1.264   2.230   6.511
10618SOL     OW32752   6.130   3.687   0.978
10618SOL    HW132753   6.119   3.689   0.879
10618SOL    HW232754   6.093   3.602   1.014
10619SOL     OW32755   1.364   3.852   4.195
10619SOL    HW132756   1.337   3.942   4.161
10619SOL    HW232757   1.462   3.851   4.212
10620SOL     OW32758   1.570   5.665   4.500
10620SOL    HW132759   1.563   5.566   4.494
10620SOL    HW232760   1.575   5.692   4.596
10621SOL     OW32761   2.895   6.202   1.121
10621SOL    HW132762   2.816   6.256   1.146
10621SOL    HW232763   2.881   6.162   1.030
10622SOL     OW32764   4.114   1.076   1.497
10622SOL    HW132765   4.147   1.170   1.495
10622SOL    HW232766   4.191   1.014   1.506
10623SOL     OW32767   6.585   1.562   3.730
10623SOL    HW132768   6.547   1.481   3.774
10623SOL    HW232769   6.674   1.583   3.769
10624SOL     OW32770   2.255   0.559   3.879
10624SOL    HW132771   2.349   0.561   3.912
10624SOL    HW232772   2.254   0.530   3.783
10625SOL     OW32773   0.236   3.250   6.983
10625SOL    HW132774   0.310   3.202   6.935
10625SOL    HW232775   0.163   3.270   6.918
10626SOL     OW32776   0.092   2.452   1.292
10626SOL    HW132777   0.074   2.543   1.255
10626SOL    HW232778   0.053   2.445   1.384
10627SOL     OW32779   5.985   5.666   4.351
10627SOL    HW132780   5.958   5.662   4.447
10627SOL    HW232781   5.959   5.754   4.312
10628SOL     OW32782   6.395   5.629   6.183
10628SOL    HW132783   6.435   5.569   6.114
10628SOL    HW232784   6.390   5.723   6.147
10629SOL     OW32785   2.875   5.364   5.779
10629SOL    HW132786   2.900   5.436   5.715
10629SOL    HW232787   2.834   5.405   5.861
10630SOL     OW32788   6.782   1.466   3.219
10630SOL    HW132789   6.767   1.369   3.197
10630SOL    HW232790   6.694   1.513   3.222
10631SOL     OW32791   1.020   6.902   4.400
10631SOL    HW132792   1.007   6.804   4.420
10631SOL    HW232793   0.978   6.924   4.313
10632SOL     OW32794   0.342   2.463   5.425
10632SOL    HW132795   0.276   2.495   5.492
10632SOL    HW232796   0.299   2.458   5.335
10633SOL     OW32797   1.275   5.198   1.278
10633SOL    HW132798   1.329   5.282   1.271
10633SOL    HW232799   1.288   5.157   1.368
10634SOL     OW32800   3.503   6.985   1.854
10634SOL    HW132801   3.540   6.908   1.906
10634SOL    HW232802   3.407   6.966   1.832
10635SOL     OW32803   2.544   1.225   1.283
10635SOL    HW132804   2.492   1.309   1.265
10635SOL    HW232805   2.531   1.161   1.208
10636SOL     OW32806   0.668   1.739   1.804
10636SOL    HW132807   0.619   1.806   1.747
10636SOL    HW232808   0.604   1.670   1.837
10637SOL     OW32809   3.774   4.618   5.502
10637SOL    HW132810   3.784   4.698   5.443
10637SOL    HW232811   3.787   4.535   5.447
10638SOL     OW32812   6.613   6.827   5.433
10638SOL    HW132813   6.527   6.817   5.384
10638SOL    HW232814   6.603   6.896   5.505
10639SOL     OW32815   2.686   1.188   4.561
10639SOL    HW132816   2.701   1.255   4.488
10639SOL    HW232817   2.620   1.225   4.626
10640SOL     OW32818   3.833   7.016   0.335
10640SOL    HW132819   3.872   6.924   0.336
10640SOL    HW232820   3.748   7.017   0.388
10641SOL     OW32821   4.817   1.011   6.654
10641SOL    HW132822   4.807   0.917   6.687
10641SOL    HW232823   4.748   1.028   6.584
10642SOL     OW32824   6.750   3.298   1.188
10642SOL    HW132825   6.849   3.309   1.174
10642SOL    HW232826   6.708   3.261   1.105
10643SOL     OW32827   3.439   3.570   5.652
10643SOL    HW132828   3.426   3.659   5.696
10643SOL    HW232829   3.485   3.583   5.564
10644SOL     OW32830   3.678   1.173   4.570
10644SOL    HW132831   3.652   1.262   4.532
10644SOL    HW232832   3.777   1.170   4.586
10645SOL     OW32833   2.654   0.539   5.297
10645SOL    HW132834   2.675   0.442   5.292
10645SOL    HW232835   2.630   0.573   5.206
10646SOL     OW32836   0.291   4.002   6.848
10646SOL    HW132837   0.358   4.041   6.911
10646SOL    HW232838   0.280   3.904   6.868
10647SOL     OW32839   0.226   4.827   0.721
10647SOL    HW132840   0.321   4.797   0.734
10647SOL    HW232841   0.217   4.923   0.747
10648SOL     OW32842   4.584   3.801   6.383
10648SOL    HW132843   4.516   3.812   6.310
10648SOL    HW232844   4.640   3.720   6.364
10649SOL     OW32845   0.361   4.269   5.791
10649SOL    HW132846   0.430   4.341   5.793
10649SOL    HW232847   0.333   4.246   5.884
10650SOL     OW32848   3.229   6.907   3.695
10650SOL    HW132849   3.205   6.813   3.722
10650SOL    HW232850   3.290   6.947   3.763
10651SOL     OW32851   3.922   6.853   5.709
10651SOL    HW132852   3.895   6.879   5.802
10651SOL    HW232853   3.962   6.932   5.663
10652SOL     OW32854   3.601   0.702   6.730
10652SOL    HW132855   3.622   0.783   6.675
10652SOL    HW232856   3.568   0.629   6.671
10653SOL     OW32857   5.622   3.104   3.562
10653SOL    HW132858   5.643   3.074   3.469
10653SOL    HW232859   5.525   3.128   3.568
10654SOL     OW32860   4.327   0.941   1.104
10654SOL    HW132861   4.376   0.974   1.023
10654SOL    HW232862   4.343   0.843   1.115
10655SOL     OW32863   3.224   5.901   1.545
10655SOL    HW132864   3.194   5.992   1.573
10655SOL    HW232865   3.151   5.835   1.562
10656SOL     OW32866   6.580   3.181   6.092
10656SOL    HW132867   6.596   3.274   6.126
10656SOL    HW232868   6.481   3.164   6.088
10657SOL     OW32869   5.924   0.717   1.388
10657SOL    HW132870   5.865   0.643   1.355
10657SOL    HW232871   6.013   0.711   1.345
10658SOL     OW32872   0.423   5.542   5.065
10658SOL    HW132873   0.444   5.529   4.967
10658SOL    HW232874   0.358   5.617   5.075
10659SOL     OW32875   5.354   0.667   0.545
10659SOL    HW132876   5.390   0.757   0.521
10659SOL    HW232877   5.363   0.652   0.643
10660SOL     OW32878   5.060   5.310   5.719
10660SOL    HW132879   5.038   5.339   5.812
10660SOL    HW232880   5.125   5.374   5.678
10661SOL     OW32881   0.238   0.469   2.566
10661SOL    HW132882   0.270   0.481   2.660
10661SOL    HW232883   0.316   0.475   2.504
10662SOL     OW32884   6.249   1.412   0.691
10662SOL    HW132885   6.347   1.392   0.687
10662SOL    HW232886   6.201   1.356   0.624
10663SOL     OW32887   0.273   0.645   0.350
10663SOL    HW132888   0.203   0.686   0.292
10663SOL    HW232889   0.335   0.716   0.384
10664SOL     OW32890   1.983   4.459   0.008
10664SOL    HW132891   1.914   4.516   0.053
10664SOL    HW232892   1.988   4.484   6.934
10665SOL     OW32893   6.402   0.765   0.548
10665SOL    HW132894   6.396   0.671   0.582
10665SOL    HW232895   6.455   0.820   0.613
10666SOL     OW32896   1.152   6.716   0.223
10666SOL    HW132897   1.215   6.713   0.301
10666SOL    HW232898   1.201   6.686   0.140
10667SOL     OW32899   3.410   2.046   5.231
10667SOL    HW132900   3.380   1.956   5.200
10667SOL    HW232901   3.475   2.084   5.165
10668SOL     OW32902   2.271   1.058   5.754
10668SOL    HW132903   2.362   1.049   5.795
10668SOL    HW232904   2.218   1.125   5.805
10669SOL     OW32905   1.168   6.646   6.404
10669SOL    HW132906   1.112   6.659   6.486
10669SOL    HW232907   1.263   6.668   6.425
10670SOL     OW32908   0.008   4.945   5.749
10670SOL    HW132909   6.959   4.883   5.782
10670SOL    HW232910   0.083   4.891   5.711
10671SOL     OW32911   1.389   1.579   3.248
10671SOL    HW132912   1.360   1.483   3.249
10671SOL    HW232913   1.484   1.584   3.218
10672SOL     OW32914   0.006   2.919   0.587
10672SOL    HW132915   6.978   3.005   0.595
10672SOL    HW232916   0.083   2.932   0.524
10673SOL     OW32917   3.236   3.597   4.820
10673SOL    HW132918   3.287   3.677   4.789
10673SOL    HW232919   3.298   3.534   4.868
10674SOL     OW32920   4.063   1.846   2.074
10674SOL    HW132921   4.038   1.750   2.091
10674SOL    HW232922   3.980   1.899   2.059
10675SOL     OW32923   0.343   0.606   6.302
10675SOL    HW132924   0.283   0.545   6.251
10675SOL    HW232925   0.403   0.553   6.362
10676SOL     OW32926   6.745   0.456   0.157
10676SOL    HW132927   6.835   0.466   0.114
10676SOL    HW232928   6.688   0.396   0.102
10677SOL     OW32929   6.807   1.063   0.219
10677SOL    HW132930   6.852   1.134   0.273
10677SOL    HW232931   6.750   1.007   0.278
10678SOL     OW32932   2.869   6.188   3.479
10678SOL    HW132933   2.814   6.256   3.528
10678SOL    HW232934   2.863   6.206   3.381
10679SOL     OW32935   5.590   5.293   3.867
10679SOL    HW132936   5.577   5.255   3.959
10679SOL    HW232937   5.661   5.241   3.820
10680SOL     OW32938   1.514   2.609   3.379
10680SOL    HW132939   1.423   2.594   3.419
10680SOL    HW232940   1.505   2.662   3.294
10681SOL     OW32941   0.686   1.463   5.730
10681SOL    HW132942   0.652   1.545   5.776
10681SOL    HW232943   0.683   1.385   5.793
10682SOL     OW32944   6.529   1.875   3.153
10682SOL    HW132945   6.539   1.855   3.055
10682SOL    HW232946   6.562   1.968   3.171
10683SOL     OW32947   1.676   1.283   3.900
10683SOL    HW132948   1.646   1.378   3.899
10683SOL    HW232949   1.716   1.261   3.989
10684SOL     OW32950   5.845   5.985   0.434
10684SOL    HW132951   5.897   6.004   0.517
10684SOL    HW232952   5.890   6.028   0.356
10685SOL     OW32953   6.983   2.209   1.926
10685SOL    HW132954   0.059   2.199   1.910
10685SOL    HW232955   6.960   2.306   1.931
10686SOL     OW32956   3.579   4.240   0.978
10686SOL    HW132957   3.547   4.289   1.059
10686SOL    HW232958   3.658   4.184   1.003
10687SOL     OW32959   0.134   4.999   1.623
10687SOL    HW132960   0.191   5.064   1.672
10687SOL    HW232961   0.064   5.048   1.572
10688SOL     OW32962   0.109   5.793   1.968
10688SOL    HW132963   0.115   5.892   1.982
10688SOL    HW232964   0.044   5.754   2.034
10689SOL     OW32965   0.643   0.723   1.750
10689SOL    HW132966   0.628   0.628   1.780
10689SOL    HW232967   0.569   0.781   1.785
10690SOL     OW32968   4.605   5.871   2.028
10690SOL    HW132969   4.539   5.885   1.954
10690SOL    HW232970   4.573   5.919   2.110
10691SOL     OW32971   6.812   1.389   1.431
10691SOL    HW132972   6.751   1.465   1.456
10691SOL    HW232973   6.759   1.304   1.427
10692SOL     OW32974   5.088   6.100   4.745
10692SOL    HW132975   5.016   6.155   4.787
10692SOL    HW232976   5.047   6.025   4.693
10693SOL     OW32977   5.210   2.432   3.200
10693SOL    HW132978   5.269   2.352   3.206
10693SOL    HW232979   5.149   2.435   3.279
10694SOL     OW32980   4.264   6.177   1.006
10694SOL    HW132981   4.180   6.188   0.954
10694SOL    HW232982   4.273   6.082   1.035
10695SOL     OW32983   6.280   3.078   4.815
10695SOL    HW132984   6.242   3.089   4.907
10695SOL    HW232985   6.225   3.013   4.764
10696SOL     OW32986   5.957   0.125   1.620
10696SOL    HW132987   5.992   0.031   1.626
10696SOL    HW232988   5.927   0.143   1.526
10697SOL     OW32989   2.147   6.152   3.478
10697SOL    HW132990   2.243   6.151   3.450
10697SOL    HW232991   2.134   6.086   3.551
10698SOL     OW32992   2.823   0.635   3.302
10698SOL    HW132993   2.840   0.554   3.358
10698SOL    HW232994   2.747   0.687   3.341
10699SOL     OW32995   1.760   2.460   2.744
10699SOL    HW132996   1.768   2.559   2.731
10699SOL    HW232997   1.815   2.413   2.674
10700SOL     OW32998   6.598   0.484   2.180
10700SOL    HW132999   6.567   0.419   2.249
10700SOL    HW233000   6.679   0.447   2.134
10701SOL     OW33001   3.608   6.409   1.082
10701SOL    HW133002   3.656   6.339   1.135
10701SOL    HW233003   3.675   6.467   1.036
10702SOL     OW33004   6.087   3.365   0.819
10702SOL    HW133005   6.016   3.406   0.762
10702SOL    HW233006   6.174   3.410   0.800
10703SOL     OW33007   3.669   3.180   4.148
10703SOL    HW133008   3.671   3.159   4.050
10703SOL    HW233009   3.708   3.103   4.199
10704SOL     OW33010   5.514   6.523   2.162
10704SOL    HW133011   5.490   6.597   2.225
10704SOL    HW233012   5.441   6.512   2.095
10705SOL     OW33013   1.305   3.307   6.509
10705SOL    HW133014   1.358   3.342   6.432
10705SOL    HW233015   1.331   3.212   6.527
10706SOL     OW33016   3.703   1.788   1.380
10706SOL    HW133017   3.799   1.761   1.382
10706SOL    HW233018   3.688   1.861   1.446
10707SOL     OW33019   6.388   0.055   5.935
10707SOL    HW133020   6.379   0.106   6.021
10707SOL    HW233021   6.481   0.017   5.930
10708SOL     OW33022   4.510   1.255   1.358
10708SOL    HW133023   4.413   1.276   1.350
10708SOL    HW233024   4.563   1.340   1.356
10709SOL     OW33025   0.947   6.643   5.853
10709SOL    HW133026   1.033   6.688   5.829
10709SOL    HW233027   0.956   6.601   5.943
10710SOL     OW33028   6.476   5.418   3.204
10710SOL    HW133029   6.454   5.396   3.109
10710SOL    HW233030   6.564   5.377   3.228
10711SOL     OW33031   2.621   6.215   4.908
10711SOL    HW133032   2.663   6.128   4.881
10711SOL    HW233033   2.524   6.213   4.886
10712SOL     OW33034   4.822   1.475   4.780
10712SOL    HW133035   4.758   1.424   4.722
10712SOL    HW233036   4.826   1.431   4.870
10713SOL     OW33037   1.715   6.338   1.198
10713SOL    HW133038   1.715   6.430   1.158
10713SOL    HW233039   1.705   6.270   1.125
10714SOL     OW33040   6.960   5.456   5.825
10714SOL    HW133041   7.021   5.470   5.903
10714SOL    HW233042   6.982   5.520   5.752
10715SOL     OW33043   5.777   1.148   3.782
10715SOL    HW133044   5.730   1.208   3.716
10715SOL    HW233045   5.804   1.201   3.862
10716SOL     OW33046   6.355   1.053   2.831
10716SOL    HW133047   6.308   1.079   2.915
10716SOL    HW233048   6.327   0.960   2.806
10717SOL     OW33049   6.294   6.669   1.835
10717SOL    HW133050   6.282   6.727   1.916
10717SOL    HW233051   6.238   6.587   1.845
10718SOL     OW33052   0.753   3.413   5.753
10718SOL    HW133053   0.737   3.377   5.661
10718SOL    HW233054   0.670   3.403   5.808
10719SOL     OW33055   3.666   0.521   2.423
10719SOL    HW133056   3.715   0.434   2.425
10719SOL    HW233057   3.724   0.591   2.383
10720SOL     OW33058   0.442   3.111   6.882
10720SOL    HW133059   0.400   3.061   6.807
10720SOL    HW233060   0.525   3.063   6.912
10721SOL     OW33061   4.809   2.841   4.472
10721SOL    HW133062   4.809   2.909   4.398
10721SOL    HW233063   4.899   2.839   4.515
10722SOL     OW33064   0.357   3.836   0.778
10722SOL    HW133065   0.368   3.807   0.683
10722SOL    HW233066   0.342   3.935   0.781
10723SOL     OW33067   6.185   4.797   0.364
10723SOL    HW133068   6.207   4.885   0.406
10723SOL    HW233069   6.211   4.723   0.426
10724SOL     OW33070   4.009   0.080   5.623
10724SOL    HW133071   4.075   0.054   5.553
10724SOL    HW233072   4.053   0.139   5.690
10725SOL     OW33073   6.754   0.095   5.204
10725SOL    HW133074   6.693   0.070   5.129
10725SOL    HW233075   6.709   0.078   5.291
10726SOL     OW33076   6.032   1.615   4.785
10726SOL    HW133077   6.026   1.550   4.709
10726SOL    HW233078   5.971   1.692   4.768
10727SOL     OW33079   2.470   6.613   6.976
10727SOL    HW133080   2.409   6.572   6.908
10727SOL    HW233081   2.522   6.687   6.934
10728SOL     OW33082   5.979   6.276   3.436
10728SOL    HW133083   6.044   6.308   3.505
10728SOL    HW233084   5.903   6.341   3.429
10729SOL     OW33085   5.848   3.111   4.693
10729SOL    HW133086   5.929   3.133   4.637
10729SOL    HW233087   5.867   3.130   4.789
10730SOL     OW33088   2.370   5.733   4.071
10730SOL    HW133089   2.373   5.666   4.145
10730SOL    HW233090   2.316   5.697   3.996
10731SOL     OW33091   4.988   6.413   6.798
10731SOL    HW133092   5.003   6.315   6.812
10731SOL    HW233093   5.076   6.458   6.782
10732SOL     OW33094   6.395   6.187   2.905
10732SOL    HW133095   6.357   6.232   2.825
10732SOL    HW233096   6.320   6.147   2.959
10733SOL     OW33097   0.366   0.905   6.263
10733SOL    HW133098   0.328   0.814   6.253
10733SOL    HW233099   0.344   0.960   6.182
10734SOL     OW33100   1.764   0.291   4.328
10734SOL    HW133101   1.827   0.215   4.312
10734SOL    HW233102   1.698   0.265   4.398
10735SOL     OW33103   6.830   6.774   1.775
10735SOL    HW133104   6.742   6.771   1.822
10735SOL    HW233105   6.894   6.832   1.826
10736SOL     OW33106   5.086   6.534   3.416
10736SOL    HW133107   5.004   6.542   3.474
10736SOL    HW233108   5.118   6.439   3.419
10737SOL     OW33109   5.855   0.940   1.709
10737SOL    HW133110   5.810   0.998   1.641
10737SOL    HW233111   5.806   0.947   1.796
10738SOL     OW33112   3.511   0.213   0.900
10738SOL    HW133113   3.547   0.295   0.855
10738SOL    HW233114   3.420   0.193   0.864
10739SOL     OW33115   5.600   3.179   3.923
10739SOL    HW133116   5.620   3.192   4.020
10739SOL    HW233117   5.512   3.133   3.912
10740SOL     OW33118   3.083   0.696   6.271
10740SOL    HW133119   3.039   0.682   6.360
10740SOL    HW233120   3.015   0.687   6.198
10741SOL     OW33121   1.610   2.163   3.723
10741SOL    HW133122   1.625   2.177   3.625
10741SOL    HW233123   1.641   2.244   3.773
10742SOL     OW33124   6.648   6.871   2.451
10742SOL    HW133125   6.586   6.793   2.459
10742SOL    HW233126   6.743   6.838   2.444
10743SOL     OW33127   3.077   1.735   5.433
10743SOL    HW133128   3.094   1.671   5.359
10743SOL    HW233129   3.041   1.821   5.396
10744SOL     OW33130   2.412   0.946   0.574
10744SOL    HW133131   2.406   1.013   0.648
10744SOL    HW233132   2.405   0.853   0.611
10745SOL     OW33133   2.305   4.660   1.679
10745SOL    HW133134   2.327   4.608   1.596
10745SOL    HW233135   2.345   4.615   1.758
10746SOL     OW33136   2.397   5.851   6.590
10746SOL    HW133137   2.347   5.937   6.592
10746SOL    HW233138   2.434   5.835   6.499
10747SOL     OW33139   6.845   1.492   4.588
10747SOL    HW133140   6.828   1.462   4.682
10747SOL    HW233141   6.833   1.591   4.583
10748SOL     OW33142   3.079   6.768   1.512
10748SOL    HW133143   3.042   6.823   1.438
10748SOL    HW233144   3.064   6.671   1.493
10749SOL     OW33145   5.995   4.329   1.472
10749SOL    HW133146   5.985   4.262   1.399
10749SOL    HW233147   5.986   4.284   1.560
10750SOL     OW33148   4.095   2.245   4.392
10750SOL    HW133149   4.108   2.342   4.412
10750SOL    HW233150   4.158   2.217   4.319
10751SOL     OW33151   6.903   5.764   4.366
10751SOL    HW133152   6.974   5.772   4.297
10751SOL    HW233153   6.936   5.801   4.453
10752SOL     OW33154   6.615   6.449   0.601
10752SOL    HW133155   6.690   6.486   0.547
10752SOL    HW233156   6.557   6.523   0.633
10753SOL     OW33157   5.168   0.471   4.184
10753SOL    HW133158   5.106   0.525   4.126
10753SOL    HW233159   5.194   0.387   4.135
10754SOL     OW33160   1.054   4.791   2.420
10754SOL    HW133161   1.006   4.713   2.462
10754SOL    HW233162   1.106   4.839   2.490
10755SOL     OW33163   0.268   2.810   0.933
10755SOL    HW133164   0.328   2.795   0.854
10755SOL    HW233165   0.175   2.825   0.901
10756SOL     OW33166   1.440   0.825   0.784
10756SOL    HW133167   1.404   0.744   0.829
10756SOL    HW233168   1.430   0.815   0.685
10757SOL     OW33169   0.458   3.279   2.031
10757SOL    HW133170   0.375   3.291   2.086
10757SOL    HW233171   0.455   3.191   1.984
10758SOL     OW33172   0.969   0.411   0.354
10758SOL    HW133173   0.941   0.353   0.277
10758SOL    HW233174   1.053   0.459   0.330
10759SOL     OW33175   2.850   2.945   5.378
10759SOL    HW133176   2.870   2.890   5.459
10759SOL    HW233177   2.779   2.901   5.324
10760SOL     OW33178   1.081   4.473   6.597
10760SOL    HW133179   1.108   4.559   6.555
10760SOL    HW233180   1.000   4.488   6.654
10761SOL     OW33181   1.168   1.604   5.605
10761SOL    HW133182   1.166   1.691   5.556
10761SOL    HW233183   1.085   1.552   5.585
10762SOL     OW33184   2.758   6.194   6.198
10762SOL    HW133185   2.686   6.127   6.214
10762SOL    HW233186   2.847   6.156   6.224
10763SOL     OW33187   4.840   0.692   2.979
10763SOL    HW133188   4.877   0.746   2.903
10763SOL    HW233189   4.744   0.716   2.993
10764SOL     OW33190   5.143   6.568   4.467
10764SOL    HW133191   5.082   6.643   4.489
10764SOL    HW233192   5.213   6.599   4.402
10765SOL     OW33193   0.824   1.495   1.753
10765SOL    HW133194   0.803   1.416   1.696
10765SOL    HW233195   0.761   1.569   1.731
10766SOL     OW33196   2.446   5.103   7.020
10766SOL    HW133197   2.509   5.166   6.975
10766SOL    HW233198   2.437   5.128   0.094
10767SOL     OW33199   1.658   5.188   6.844
10767SOL    HW133200   1.627   5.212   6.751
10767SOL    HW233201   1.587   5.211   6.910
10768SOL     OW33202   5.509   6.400   6.651
10768SOL    HW133203   5.553   6.329   6.707
10768SOL    HW233204   5.413   6.376   6.637
10769SOL     OW33205   3.134   3.387   4.657
10769SOL    HW133206   3.085   3.420   4.576
10769SOL    HW233207   3.175   3.463   4.705
10770SOL     OW33208   5.736   0.081   3.225
10770SOL    HW133209   5.659   0.018   3.219
10770SOL    HW233210   5.801   0.047   3.293
10771SOL     OW33211   4.518   5.973   5.691
10771SOL    HW133212   4.552   6.049   5.746
10771SOL    HW233213   4.422   5.989   5.667
10772SOL     OW33214   5.734   5.083   2.297
10772SOL    HW133215   5.660   5.041   2.349
10772SOL    HW233216   5.783   5.012   2.246
10773SOL     OW33217   0.288   4.227   1.654
10773SOL    HW133218   0.198   4.268   1.665
10773SOL    HW233219   0.323   4.247   1.562
10774SOL     OW33220   0.847   3.826   0.600
10774SOL    HW133221   0.794   3.776   0.532
10774SOL    HW233222   0.877   3.913   0.562
10775SOL     OW33223   1.660   3.788   0.753
10775SOL    HW133224   1.582   3.725   0.753
10775SOL    HW233225   1.741   3.740   0.718
10776SOL     OW33226   0.279   2.725   3.719
10776SOL    HW133227   0.335   2.749   3.639
10776SOL    HW233228   0.194   2.683   3.689
10777SOL     OW33229   2.156   0.589   1.585
10777SOL    HW133230   2.063   0.621   1.566
10777SOL    HW233231   2.194   0.641   1.662
10778SOL     OW33232   5.004   0.307   3.195
10778SOL    HW133233   4.982   0.403   3.211
10778SOL    HW233234   4.935   0.249   3.238
10779SOL     OW33235   5.480   3.297   5.976
10779SOL    HW133236   5.418   3.347   6.037
10779SOL    HW233237   5.429   3.227   5.927
10780SOL     OW33238   2.068   5.128   4.541
10780SOL    HW133239   2.139   5.193   4.570
10780SOL    HW233240   2.112   5.045   4.506
10781SOL     OW33241   5.682   2.249   4.446
10781SOL    HW133242   5.607   2.185   4.457
10781SOL    HW233243   5.729   2.233   4.359
10782SOL     OW33244   0.854   1.450   5.507
10782SOL    HW133245   0.785   1.446   5.579
10782SOL    HW233246   0.877   1.546   5.488
10783SOL     OW33247   0.981   2.487   3.453
10783SOL    HW133248   0.979   2.581   3.487
10783SOL    HW233249   0.949   2.485   3.358
10784SOL     OW33250   4.175   5.785   3.461
10784SOL    HW133251   4.176   5.688   3.436
10784SOL    HW233252   4.173   5.840   3.378
10785SOL     OW33253   1.801   5.319   2.017
10785SOL    HW133254   1.814   5.414   2.044
10785SOL    HW233255   1.861   5.298   1.940
10786SOL     OW33256   4.268   2.045   1.982
10786SOL    HW133257   4.213   1.976   2.029
10786SOL    HW233258   4.316   2.102   2.049
10787SOL     OW33259   3.738   1.666   3.397
10787SOL    HW133260   3.647   1.627   3.413
10787SOL    HW233261   3.735   1.726   3.317
10788SOL     OW33262   1.850   4.317   0.339
10788SOL    HW133263   1.902   4.402   0.333
10788SOL    HW233264   1.902   4.243   0.297
10789SOL     OW33265   6.543   1.188   2.359
10789SOL    HW133266   6.474   1.152   2.422
10789SOL    HW233267   6.589   1.112   2.314
10790SOL     OW33268   0.184   1.732   5.876
10790SOL    HW133269   0.125   1.810   5.853
10790SOL    HW233270   0.280   1.758   5.862
10791SOL     OW33271   1.665   2.597   3.110
10791SOL    HW133272   1.665   2.687   3.153
10791SOL    HW233273   1.744   2.545   3.143
10792SOL     OW33274   3.613   1.761   2.228
10792SOL    HW133275   3.703   1.732   2.261
10792SOL    HW233276   3.605   1.739   2.131
10793SOL     OW33277   3.885   1.537   4.316
10793SOL    HW133278   3.814   1.471   4.338
10793SOL    HW233279   3.962   1.527   4.379
10794SOL     OW33280   5.142   2.279   0.561
10794SOL    HW133281   5.198   2.205   0.597
10794SOL    HW233282   5.057   2.286   0.614
10795SOL     OW33283   0.012   3.285   3.060
10795SOL    HW133284   6.939   3.256   3.064
10795SOL    HW233285   0.022   3.372   3.108
10796SOL     OW33286   0.204   0.209   6.228
10796SOL    HW133287   0.159   0.124   6.203
10796SOL    HW233288   0.156   0.252   6.304
10797SOL     OW33289   4.165   4.496   0.038
10797SOL    HW133290   4.133   4.522   0.129
10797SOL    HW233291   4.147   4.571   6.996
10798SOL     OW33292   2.084   6.252   6.757
10798SOL    HW133293   2.033   6.307   6.823
10798SOL    HW233294   2.045   6.265   6.666
10799SOL     OW33295   2.788   1.414   2.888
10799SOL    HW133296   2.871   1.412   2.832
10799SOL    HW233297   2.730   1.336   2.865
10800SOL     OW33298   2.645   0.257   5.277
10800SOL    HW133299   2.583   0.222   5.347
10800SOL    HW233300   2.623   0.213   5.189
10801SOL     OW33301   3.012   6.122   5.859
10801SOL    HW133302   3.039   6.057   5.930
10801SOL    HW233303   2.921   6.158   5.880
10802SOL     OW33304   0.321   5.272   4.305
10802SOL    HW133305   0.329   5.314   4.215
10802SOL    HW233306   0.279   5.336   4.369
10803SOL     OW33307   0.292   4.336   4.682
10803SOL    HW133308   0.342   4.422   4.689
10803SOL    HW233309   0.270   4.318   4.586
10804SOL     OW33310   4.937   4.636   0.869
10804SOL    HW133311   5.010   4.687   0.823
10804SOL    HW233312   4.957   4.633   0.967
10805SOL     OW33313   3.727   6.176   0.407
10805SOL    HW133314   3.715   6.263   0.361
10805SOL    HW233315   3.824   6.154   0.414
10806SOL     OW33316   6.001   4.374   6.551
10806SOL    HW133317   6.054   4.397   6.633
10806SOL    HW233318   5.905   4.364   6.576
10807SOL     OW33319   4.409   1.520   4.315
10807SOL    HW133320   4.331   1.492   4.259
10807SOL    HW233321   4.381   1.596   4.375
10808SOL     OW33322   0.072   2.071   0.160
10808SOL    HW133323   0.134   2.141   0.125
10808SOL    HW233324   7.000   2.101   0.146
10809SOL     OW33325   2.971   1.395   2.258
10809SOL    HW133326   3.033   1.324   2.225
10809SOL    HW233327   2.978   1.403   2.357
10810SOL     OW33328   1.961   1.444   6.344
10810SOL    HW133329   1.881   1.504   6.351
10810SOL    HW233330   1.947   1.378   6.270
10811SOL     OW33331   4.568   4.615   6.353
10811SOL    HW133332   4.472   4.640   6.351
10811SOL    HW233333   4.619   4.678   6.412
10812SOL     OW33334   6.067   2.648   2.249
10812SOL    HW133335   6.061   2.671   2.152
10812SOL    HW233336   5.994   2.695   2.299
10813SOL     OW33337   3.593   5.563   2.336
10813SOL    HW133338   3.646   5.580   2.253
10813SOL    HW233339   3.504   5.607   2.328
10814SOL     OW33340   2.112   5.578   4.776
10814SOL    HW133341   2.024   5.530   4.777
10814SOL    HW233342   2.144   5.591   4.870
10815SOL     OW33343   4.835   2.023   3.702
10815SOL    HW133344   4.784   2.022   3.788
10815SOL    HW233345   4.777   2.060   3.630
10816SOL     OW33346   2.058   2.153   2.068
10816SOL    HW133347   2.078   2.088   2.141
10816SOL    HW233348   2.098   2.121   1.982
10817SOL     OW33349   4.491   0.472   2.166
10817SOL    HW133350   4.488   0.515   2.256
10817SOL    HW233351   4.416   0.407   2.158
10818SOL     OW33352   4.700   2.930   6.878
10818SOL    HW133353   4.759   2.986   6.819
10818SOL    HW233354   4.743   2.841   6.892
10819SOL     OW33355   0.506   3.838   5.901
10819SOL    HW133356   0.566   3.895   5.846
10819SOL    HW233357   0.444   3.787   5.842
10820SOL     OW33358   6.632   0.023   4.345
10820SOL    HW133359   6.611   6.962   4.397
10820SOL    HW233360   6.574   0.098   4.376
10821SOL     OW33361   6.980   6.532   1.011
10821SOL    HW133362   7.001   6.528   1.108
10821SOL    HW233363   7.015   6.617   0.972
10822SOL     OW33364   0.268   4.241   0.077
10822SOL    HW133365   0.283   4.303   0.155
10822SOL    HW233366   0.170   4.221   0.070
10823SOL     OW33367   1.880   2.165   1.051
10823SOL    HW133368   1.788   2.182   1.016
10823SOL    HW233369   1.874   2.139   1.148
10824SOL     OW33370   5.771   0.762   3.156
10824SOL    HW133371   5.719   0.847   3.162
10824SOL    HW233372   5.810   0.740   3.245
10825SOL     OW33373   3.730   0.964   1.932
10825SOL    HW133374   3.823   0.996   1.954
10825SOL    HW233375   3.711   0.881   1.984
10826SOL     OW33376   6.341   2.848   1.011
10826SOL    HW133377   6.434   2.833   0.977
10826SOL    HW233378   6.308   2.764   1.054
10827SOL     OW33379   1.222   3.027   3.767
10827SOL    HW133380   1.252   3.103   3.709
10827SOL    HW233381   1.298   2.999   3.826
10828SOL     OW33382   0.809   5.802   0.370
10828SOL    HW133383   0.779   5.709   0.350
10828SOL    HW233384   0.771   5.864   0.301
10829SOL     OW33385   2.192   3.798   1.573
10829SOL    HW133386   2.107   3.793   1.624
10829SOL    HW233387   2.253   3.866   1.615
10830SOL     OW33388   4.405   1.110   3.213
10830SOL    HW133389   4.459   1.027   3.231
10830SOL    HW233390   4.426   1.144   3.122
10831SOL     OW33391   5.396   2.835   2.143
10831SOL    HW133392   5.375   2.879   2.055
10831SOL    HW233393   5.442   2.748   2.126
10832SOL     OW33394   0.012   3.193   2.678
10832SOL    HW133395   0.081   3.124   2.699
10832SOL    HW233396   0.055   3.282   2.671
10833SOL     OW33397   2.683   0.059   4.017
10833SOL    HW133398   2.660   7.004   3.958
10833SOL    HW233399   2.782   0.060   4.033
10834SOL     OW33400   0.102   0.900   5.694
10834SOL    HW133401   0.056   0.869   5.611
10834SOL    HW233402   0.056   0.982   5.729
10835SOL     OW33403   6.792   2.847   1.709
10835SOL    HW133404   6.811   2.832   1.613
10835SOL    HW233405   6.838   2.931   1.740
10836SOL     OW33406   1.830   3.195   1.086
10836SOL    HW133407   1.843   3.249   1.169
10836SOL    HW233408   1.760   3.126   1.102
10837SOL     OW33409   1.509   5.852   1.329
10837SOL    HW133410   1.418   5.843   1.369
10837SOL    HW233411   1.561   5.769   1.346
10838SOL     OW33412   6.497   0.210   0.424
10838SOL    HW133413   6.467   0.120   0.453
10838SOL    HW233414   6.576   0.239   0.479
10839SOL     OW33415   1.629   1.639   0.129
10839SOL    HW133416   1.646   1.716   0.067
10839SOL    HW233417   1.696   1.566   0.110
10840SOL     OW33418   3.376   5.978   2.229
10840SOL    HW133419   3.457   6.008   2.281
10840SOL    HW233420   3.318   6.057   2.209
10841SOL     OW33421   5.051   2.836   6.301
10841SOL    HW133422   5.070   2.922   6.253
10841SOL    HW233423   4.952   2.823   6.308
10842SOL     OW33424   6.382   2.922   1.290
10842SOL    HW133425   6.394   2.843   1.350
10842SOL    HW233426   6.371   2.890   1.195
10843SOL     OW33427   0.128   1.148   2.122
10843SOL    HW133428   0.073   1.230   2.142
10843SOL    HW233429   0.161   1.154   2.028
10844SOL     OW33430   3.286   6.994   3.436
10844SOL    HW133431   3.260   6.978   3.531
10844SOL    HW233432   3.383   7.019   3.432
10845SOL     OW33433   2.270   3.281   0.913
10845SOL    HW133434   2.250   3.307   0.819
10845SOL    HW233435   2.349   3.219   0.915
10846SOL     OW33436   3.921   1.637   1.502
10846SOL    HW133437   3.972   1.720   1.478
10846SOL    HW233438   3.930   1.570   1.429
10847SOL     OW33439   4.437   3.215   5.813
10847SOL    HW133440   4.515   3.169   5.771
10847SOL    HW233441   4.421   3.302   5.766
10848SOL     OW33442   1.260   0.703   0.332
10848SOL    HW133443   1.275   0.791   0.287
10848SOL    HW233444   1.341   0.680   0.387
10849SOL     OW33445   2.252   5.506   3.654
10849SOL    HW133446   2.227   5.567   3.729
10849SOL    HW233447   2.182   5.511   3.583
10850SOL     OW33448   5.680   0.535   2.298
10850SOL    HW133449   5.758   0.516   2.357
10850SOL    HW233450   5.597   0.494   2.337
10851SOL     OW33451   4.147   1.888   6.732
10851SOL    HW133452   4.148   1.912   6.829
10851SOL    HW233453   4.159   1.971   6.677
10852SOL     OW33454   0.564   0.176   5.929
10852SOL    HW133455   0.494   0.114   5.895
10852SOL    HW233456   0.594   0.237   5.855
10853SOL     OW33457   2.498   0.644   4.764
10853SOL    HW133458   2.541   0.559   4.733
10853SOL    HW233459   2.537   0.721   4.714
10854SOL     OW33460   6.959   5.917   1.094
10854SOL    HW133461   6.910   5.989   1.143
10854SOL    HW233462   0.032   5.915   1.124
10855SOL     OW33463   1.238   5.496   1.482
10855SOL    HW133464   1.152   5.481   1.434
10855SOL    HW233465   1.252   5.424   1.550
10856SOL     OW33466   5.921   0.710   6.812
10856SOL    HW133467   5.874   0.675   6.731
10856SOL    HW233468   5.888   0.661   6.893
10857SOL     OW33469   6.857   0.444   4.691
10857SOL    HW133470   6.924   0.370   4.703
10857SOL    HW233471   6.906   0.529   4.670
10858SOL     OW33472   1.693   2.179   0.334
10858SOL    HW133473   1.632   2.258   0.332
10858SOL    HW233474   1.678   2.127   0.418
10859SOL     OW33475   1.331   5.239   2.853
10859SOL    HW133476   1.246   5.221   2.804
10859SOL    HW233477   1.408   5.207   2.799
10860SOL     OW33478   6.359   3.297   1.908
10860SOL    HW133479   6.448   3.337   1.929
10860SOL    HW233480   6.368   3.197   1.901
10861SOL     OW33481   2.922   3.517   1.180
10861SOL    HW133482   2.828   3.542   1.156
10861SOL    HW233483   2.976   3.601   1.193
10862SOL     OW33484   3.515   3.979   5.514
10862SOL    HW133485   3.458   4.038   5.457
10862SOL    HW233486   3.586   3.937   5.457
10863SOL     OW33487   2.113   0.323   3.029
10863SOL    HW133488   2.124   0.225   3.013
10863SOL    HW233489   2.174   0.352   3.103
10864SOL     OW33490   3.181   4.248   1.712
10864SOL    HW133491   3.200   4.224   1.617
10864SOL    HW233492   3.142   4.339   1.716
10865SOL     OW33493   3.987   1.628   2.232
10865SOL    HW133494   4.077   1.586   2.245
10865SOL    HW233495   3.938   1.628   2.319
10866SOL     OW33496   0.331   3.600   3.575
10866SOL    HW133497   0.302   3.505   3.589
10866SOL    HW233498   0.431   3.606   3.579
10867SOL     OW33499   4.338   2.399   0.315
10867SOL    HW133500   4.283   2.421   0.235
10867SOL    HW233501   4.348   2.299   0.322
10868SOL     OW33502   1.521   0.059   5.118
10868SOL    HW133503   1.537   6.983   5.119
10868SOL    HW233504   1.429   0.078   5.084
10869NA      NA33505   6.815   1.020   6.182
10870NA      NA33506   4.420   4.599   5.213
10871NA      NA33507   1.563   4.686   2.954
10872NA      NA33508   5.629   3.933   2.931
10873NA      NA33509   3.684   2.335   5.469
10874NA      NA33510   2.246   4.782   0.177
10875NA      NA33511   1.892   5.505   6.667
10876NA      NA33512   4.040   4.559   1.384
10877NA      NA33513   4.814   4.801   0.198
10878NA      NA33514   3.444   1.226   0.251
10879NA      NA33515   5.297   6.923   1.893
10880NA      NA33516   2.466   6.352   5.327
10881NA      NA33517   4.267   5.056   2.032
10882NA      NA33518   4.074   3.706   6.764
   7.02252   7.02252   7.02252
