Generated by trjconv : CNT in water t= 279.00000
33518
    1C        C    1   2.842   2.768   4.745
    1C        C    2   2.900   2.721   4.865
    1C        C    3   2.841   2.771   4.982
    1C        C    4   2.849   2.777   4.256
    1C        C    5   2.902   2.731   4.379
    1C        C    6   2.847   2.777   4.501
    1C        C    7   3.009   2.640   4.622
    1C        C    8   2.895   2.723   4.622
    1C        C    9   3.073   2.597   4.740
    1C        C   10   3.009   2.631   4.862
    1C        C   11   3.178   2.489   4.972
    1C        C   12   3.059   2.562   4.973
    1C        C   13   2.846   2.771   3.770
    1C        C   14   2.896   2.724   3.893
    1C        C   15   2.844   2.774   4.015
    1C        C   16   3.016   2.646   4.136
    1C        C   17   2.899   2.724   4.135
    1C        C   18   3.079   2.610   4.258
    1C        C   19   3.018   2.651   4.378
    1C        C   20   3.206   2.555   4.502
    1C        C   21   3.077   2.611   4.501
    1C        C   22   3.276   2.527   4.621
    1C        C   23   3.205   2.545   4.741
    1C        C   24   3.410   2.481   4.862
    1C        C   25   3.268   2.499   4.861
    1C        C   26   3.488   2.480   4.978
    1C        C   27   2.847   2.766   3.279
    1C        C   28   2.899   2.723   3.402
    1C        C   29   2.848   2.770   3.525
    1C        C   30   3.014   2.640   3.646
    1C        C   31   2.900   2.724   3.649
    1C        C   32   3.076   2.610   3.769
    1C        C   33   3.013   2.645   3.891
    1C        C   34   3.206   2.556   4.015
    1C        C   35   3.075   2.609   4.013
    1C        C   36   3.277   2.536   4.136
    1C        C   37   3.211   2.559   4.258
    1C        C   38   3.415   2.505   4.379
    1C        C   39   3.277   2.537   4.381
    1C        C   40   3.487   2.497   4.501
    1C        C   41   3.416   2.504   4.623
    1C        C   42   3.629   2.478   4.741
    1C        C   43   3.487   2.482   4.743
    1C        C   44   3.701   2.487   4.862
    1C        C   45   3.627   2.468   4.979
    1C        C   46   2.835   2.751   2.792
    1C        C   47   2.888   2.702   2.914
    1C        C   48   2.837   2.755   3.034
    1C        C   49   3.018   2.642   3.158
    1C        C   50   2.899   2.719   3.156
    1C        C   51   3.080   2.610   3.281
    1C        C   52   3.016   2.643   3.402
    1C        C   53   3.206   2.550   3.526
    1C        C   54   3.076   2.604   3.525
    1C        C   55   3.274   2.529   3.648
    1C        C   56   3.204   2.551   3.769
    1C        C   57   3.411   2.512   3.892
    1C        C   58   3.271   2.532   3.892
    1C        C   59   3.483   2.499   4.013
    1C        C   60   3.414   2.501   4.136
    1C        C   61   3.627   2.493   4.257
    1C        C   62   3.486   2.494   4.258
    1C        C   63   3.699   2.502   4.378
    1C        C   64   3.628   2.497   4.499
    1C        C   65   3.836   2.531   4.621
    1C        C   66   3.701   2.491   4.620
    1C        C   67   3.901   2.561   4.743
    1C        C   68   3.836   2.529   4.864
    1C        C   69   4.049   2.582   4.978
    1C        C   70   3.919   2.529   4.977
    1C        C   71   2.828   2.734   2.307
    1C        C   72   2.884   2.692   2.429
    1C        C   73   2.830   2.743   2.549
    1C        C   74   3.006   2.625   2.670
    1C        C   75   2.890   2.704   2.671
    1C        C   76   3.072   2.597   2.792
    1C        C   77   3.008   2.627   2.915
    1C        C   78   3.206   2.547   3.035
    1C        C   79   3.075   2.600   3.036
    1C        C   80   3.271   2.523   3.158
    1C        C   81   3.209   2.553   3.281
    1C        C   82   3.411   2.495   3.401
    1C        C   83   3.273   2.527   3.404
    1C        C   84   3.482   2.494   3.523
    1C        C   85   3.413   2.502   3.646
    1C        C   86   3.622   2.497   3.768
    1C        C   87   3.481   2.502   3.770
    1C        C   88   3.695   2.501   3.889
    1C        C   89   3.624   2.500   4.011
    1C        C   90   3.831   2.543   4.133
    1C        C   91   3.694   2.508   4.133
    1C        C   92   3.900   2.567   4.254
    1C        C   93   3.836   2.536   4.377
    1C        C   94   4.025   2.629   4.497
    1C        C   95   3.902   2.561   4.499
    1C        C   96   4.088   2.664   4.619
    1C        C   97   4.030   2.622   4.740
    1C        C   98   4.184   2.766   4.858
    1C        C   99   4.092   2.656   4.863
    1C        C  100   4.200   2.850   4.968
    1C        C  101   2.828   2.732   2.064
    1C        C  102   2.988   2.590   2.187
    1C        C  103   2.876   2.680   2.185
    1C        C  104   3.059   2.566   2.307
    1C        C  105   3.002   2.613   2.428
    1C        C  106   3.200   2.535   2.548
    1C        C  107   3.068   2.586   2.549
    1C        C  108   3.267   2.514   2.671
    1C        C  109   3.201   2.540   2.793
    1C        C  110   3.411   2.492   2.913
    1C        C  111   3.273   2.524   2.913
    1C        C  112   3.481   2.485   3.036
    1C        C  113   3.410   2.496   3.157
    1C        C  114   3.623   2.492   3.276
    1C        C  115   3.482   2.489   3.279
    1C        C  116   3.692   2.499   3.399
    1C        C  117   3.623   2.495   3.522
    1C        C  118   3.828   2.540   3.644
    1C        C  119   3.692   2.501   3.645
    1C        C  120   3.892   2.571   3.766
    1C        C  121   3.831   2.541   3.890
    1C        C  122   4.021   2.637   4.008
    1C        C  123   3.897   2.571   4.011
    1C        C  124   4.082   2.672   4.131
    1C        C  125   4.025   2.633   4.254
    1C        C  126   4.191   2.764   4.373
    1C        C  127   4.087   2.668   4.376
    1C        C  128   4.233   2.820   4.495
    1C        C  129   4.188   2.763   4.617
    1C        C  130   4.319   2.936   4.736
    1C        C  131   4.238   2.819   4.737
    1C        C  132   4.347   3.005   4.856
    1C        C  133   4.275   2.967   4.970
    1C        C  134   3.167   2.464   2.076
    1C        C  135   3.034   2.508   2.079
    1C        C  136   3.255   2.477   2.184
    1C        C  137   3.190   2.512   2.305
    1C        C  138   3.402   2.480   2.424
    1C        C  139   3.263   2.504   2.426
    1C        C  140   3.475   2.483   2.545
    1C        C  141   3.406   2.490   2.668
    1C        C  142   3.620   2.486   2.788
    1C        C  143   3.478   2.483   2.789
    1C        C  144   3.693   2.496   2.909
    1C        C  145   3.622   2.487   3.031
    1C        C  146   3.829   2.535   3.153
    1C        C  147   3.692   2.499   3.153
    1C        C  148   3.895   2.560   3.276
    1C        C  149   3.828   2.537   3.398
    1C        C  150   4.024   2.618   3.521
    1C        C  151   3.895   2.559   3.521
    1C        C  152   4.085   2.661   3.641
    1C        C  153   4.020   2.630   3.763
    1C        C  154   4.191   2.758   3.885
    1C        C  155   4.081   2.670   3.885
    1C        C  156   4.245   2.809   4.006
    1C        C  157   4.192   2.761   4.128
    1C        C  158   4.327   2.923   4.249
    1C        C  159   4.244   2.809   4.250
    1C        C  160   4.365   2.984   4.370
    1C        C  161   4.321   2.931   4.493
    1C        C  162   4.432   3.114   4.613
    1C        C  163   4.359   2.994   4.614
    1C        C  164   4.462   3.184   4.732
    1C        C  165   4.425   3.123   4.853
    1C        C  166   4.506   3.318   4.973
    1C        C  167   4.477   3.182   4.969
    1C        C  168   3.471   2.425   2.070
    1C        C  169   3.395   2.455   2.184
    1C        C  170   3.614   2.463   2.304
    1C        C  171   3.471   2.457   2.303
    1C        C  172   3.688   2.481   2.423
    1C        C  173   3.616   2.487   2.544
    1C        C  174   3.825   2.531   2.665
    1C        C  175   3.688   2.497   2.665
    1C        C  176   3.894   2.558   2.785
    1C        C  177   3.829   2.533   2.908
    1C        C  178   4.021   2.622   3.029
    1C        C  179   3.895   2.557   3.030
    1C        C  180   4.079   2.658   3.153
    1C        C  181   4.022   2.621   3.276
    1C        C  182   4.191   2.746   3.394
    1C        C  183   4.086   2.652   3.399
    1C        C  184   4.240   2.799   3.516
    1C        C  185   4.191   2.753   3.640
    1C        C  186   4.336   2.911   3.761
    1C        C  187   4.242   2.805   3.762
    1C        C  188   4.371   2.977   3.881
    1C        C  189   4.332   2.920   4.005
    1C        C  190   4.439   3.104   4.126
    1C        C  191   4.367   2.982   4.127
    1C        C  192   4.467   3.170   4.248
    1C        C  193   4.429   3.110   4.370
    1C        C  194   4.499   3.315   4.491
    1C        C  195   4.456   3.180   4.490
    1C        C  196   4.519   3.387   4.611
    1C        C  197   4.505   3.319   4.734
    1C        C  198   4.549   3.532   4.849
    1C        C  199   4.528   3.390   4.855
    1C        C  200   4.584   3.616   4.960
    1C        C  201   3.610   2.415   2.072
    1C        C  202   3.824   2.506   2.179
    1C        C  203   3.689   2.457   2.184
    1C        C  204   3.894   2.534   2.299
    1C        C  205   3.825   2.515   2.421
    1C        C  206   4.015   2.614   2.540
    1C        C  207   3.892   2.545   2.541
    1C        C  208   4.078   2.653   2.660
    1C        C  209   4.021   2.621   2.785
    1C        C  210   4.192   2.746   2.903
    1C        C  211   4.081   2.659   2.907
    1C        C  212   4.241   2.795   3.027
    1C        C  213   4.191   2.745   3.149
    1C        C  214   4.327   2.908   3.270
    1C        C  215   4.239   2.797   3.271
    1C        C  216   4.360   2.969   3.393
    1C        C  217   4.326   2.911   3.517
    1C        C  218   4.430   3.097   3.637
    1C        C  219   4.374   2.967   3.637
    1C        C  220   4.455   3.168   3.757
    1C        C  221   4.435   3.103   3.881
    1C        C  222   4.495   3.306   4.001
    1C        C  223   4.461   3.169   4.003
    1C        C  224   4.505   3.377   4.123
    1C        C  225   4.501   3.307   4.245
    1C        C  226   4.516   3.520   4.366
    1C        C  227   4.517   3.378   4.366
    1C        C  228   4.516   3.596   4.485
    1C        C  229   4.531   3.528   4.608
    1C        C  230   4.504   3.742   4.726
    1C        C  231   4.537   3.603   4.727
    1C        C  232   4.502   3.818   4.845
    1C        C  233   4.541   3.749   4.961
    1C        C  234   4.020   2.602   2.058
    1C        C  235   3.895   2.541   2.063
    1C        C  236   4.081   2.642   2.178
    1C        C  237   4.020   2.601   2.299
    1C        C  238   4.190   2.736   2.416
    1C        C  239   4.080   2.646   2.418
    1C        C  240   4.241   2.789   2.537
    1C        C  241   4.186   2.744   2.659
    1C        C  242   4.332   2.901   2.781
    1C        C  243   4.244   2.791   2.780
    1C        C  244   4.373   2.960   2.903
    1C        C  245   4.328   2.906   3.026
    1C        C  246   4.429   3.092   3.145
    1C        C  247   4.370   2.964   3.148
    1C        C  248   4.450   3.157   3.269
    1C        C  249   4.421   3.097   3.393
    1C        C  250   4.490   3.299   3.511
    1C        C  251   4.452   3.163   3.514
    1C        C  252   4.502   3.370   3.632
    1C        C  253   4.491   3.304   3.757
    1C        C  254   4.521   3.515   3.876
    1C        C  255   4.511   3.374   3.878
    1C        C  256   4.520   3.586   3.998
    1C        C  257   4.523   3.517   4.122
    1C        C  258   4.488   3.728   4.242
    1C        C  259   4.520   3.590   4.243
    1C        C  260   4.469   3.802   4.360
    1C        C  261   4.489   3.734   4.483
    1C        C  262   4.428   3.939   4.602
    1C        C  263   4.476   3.806   4.604
    1C        C  264   4.406   4.008   4.723
    1C        C  265   4.443   3.946   4.844
    1C        C  266   4.318   4.126   4.953
    1C        C  267   4.394   4.010   4.959
    1C        C  268   4.257   2.771   2.059
    1C        C  269   4.190   2.731   2.176
    1C        C  270   4.341   2.888   2.297
    1C        C  271   4.247   2.781   2.295
    1C        C  272   4.373   2.954   2.418
    1C        C  273   4.329   2.899   2.540
    1C        C  274   4.437   3.087   2.658
    1C        C  275   4.365   2.966   2.659
    1C        C  276   4.468   3.152   2.779
    1C        C  277   4.439   3.085   2.900
    1C        C  278   4.498   3.289   3.023
    1C        C  279   4.458   3.154   3.021
    1C        C  280   4.506   3.361   3.144
    1C        C  281   4.489   3.293   3.267
    1C        C  282   4.515   3.507   3.386
    1C        C  283   4.503   3.366   3.388
    1C        C  284   4.510   3.579   3.508
    1C        C  285   4.512   3.511   3.632
    1C        C  286   4.501   3.725   3.750
    1C        C  287   4.516   3.584   3.753
    1C        C  288   4.485   3.794   3.872
    1C        C  289   4.497   3.725   3.995
    1C        C  290   4.429   3.927   4.114
    1C        C  291   4.474   3.793   4.117
    1C        C  292   4.397   3.996   4.232
    1C        C  293   4.425   3.936   4.357
    1C        C  294   4.320   4.121   4.479
    1C        C  295   4.391   3.999   4.479
    1C        C  296   4.285   4.187   4.599
    1C        C  297   4.333   4.131   4.719
    1C        C  298   4.201   4.310   4.836
    1C        C  299   4.289   4.197   4.836
    1C        C  300   4.170   4.401   4.942
    1C        C  301   4.343   2.880   2.060
    1C        C  302   4.467   3.063   2.176
    1C        C  303   4.392   2.942   2.175
    1C        C  304   4.481   3.140   2.295
    1C        C  305   4.437   3.080   2.415
    1C        C  306   4.505   3.284   2.532
    1C        C  307   4.470   3.147   2.534
    1C        C  308   4.507   3.357   2.654
    1C        C  309   4.500   3.290   2.778
    1C        C  310   4.517   3.500   2.895
    1C        C  311   4.516   3.358   2.900
    1C        C  312   4.508   3.570   3.017
    1C        C  313   4.509   3.502   3.141
    1C        C  314   4.482   3.714   3.260
    1C        C  315   4.510   3.575   3.262
    1C        C  316   4.463   3.783   3.382
    1C        C  317   4.484   3.717   3.505
    1C        C  318   4.423   3.920   3.626
    1C        C  319   4.474   3.788   3.627
    1C        C  320   4.391   3.985   3.747
    1C        C  321   4.424   3.921   3.869
    1C        C  322   4.321   4.108   3.989
    1C        C  323   4.396   3.988   3.990
    1C        C  324   4.276   4.165   4.109
    1C        C  325   4.321   4.115   4.234
    1C        C  326   4.184   4.279   4.353
    1C        C  327   4.281   4.176   4.355
    1C        C  328   4.137   4.339   4.471
    1C        C  329   4.194   4.295   4.593
    1C        C  330   4.027   4.433   4.709
    1C        C  331   4.142   4.349   4.712
    1C        C  332   3.970   4.490   4.825
    1C        C  333   4.048   4.469   4.939
    1C        C  334   4.545   3.265   2.057
    1C        C  335   4.523   3.127   2.061
    1C        C  336   4.538   3.346   2.172
    1C        C  337   4.515   3.278   2.293
    1C        C  338   4.514   3.497   2.408
    1C        C  339   4.514   3.356   2.411
    1C        C  340   4.519   3.568   2.529
    1C        C  341   4.524   3.497   2.651
    1C        C  342   4.491   3.709   2.771
    1C        C  343   4.514   3.569   2.772
    1C        C  344   4.476   3.779   2.893
    1C        C  345   4.487   3.709   3.015
    1C        C  346   4.424   3.914   3.134
    1C        C  347   4.470   3.781   3.136
    1C        C  348   4.393   3.982   3.255
    1C        C  349   4.420   3.918   3.378
    1C        C  350   4.325   4.103   3.502
    1C        C  351   4.399   3.983   3.502
    1C        C  352   4.274   4.160   3.621
    1C        C  353   4.313   4.103   3.744
    1C        C  354   4.179   4.266   3.865
    1C        C  355   4.275   4.163   3.867
    1C        C  356   4.127   4.317   3.986
    1C        C  357   4.177   4.266   4.108
    1C        C  358   4.009   4.395   4.230
    1C        C  359   4.124   4.313   4.230
    1C        C  360   3.949   4.443   4.348
    1C        C  361   4.018   4.416   4.469
    1C        C  362   3.827   4.513   4.589
    1C        C  363   3.958   4.459   4.589
    1C        C  364   3.760   4.546   4.709
    1C        C  365   3.836   4.535   4.827
    1C        C  366   3.628   4.586   4.946
    1C        C  367   3.766   4.573   4.942
    1C        C  368   4.505   3.560   2.050
    1C        C  369   4.524   3.487   2.168
    1C        C  370   4.501   3.706   2.283
    1C        C  371   4.516   3.566   2.284
    1C        C  372   4.487   3.778   2.405
    1C        C  373   4.502   3.708   2.527
    1C        C  374   4.422   3.907   2.646
    1C        C  375   4.472   3.775   2.648
    1C        C  376   4.394   3.972   2.769
    1C        C  377   4.430   3.913   2.892
    1C        C  378   4.319   4.097   3.012
    1C        C  379   4.397   3.979   3.012
    1C        C  380   4.269   4.151   3.133
    1C        C  381   4.310   4.096   3.256
    1C        C  382   4.173   4.252   3.376
    1C        C  383   4.275   4.154   3.380
    1C        C  384   4.118   4.302   3.496
    1C        C  385   4.174   4.260   3.619
    1C        C  386   4.008   4.386   3.743
    1C        C  387   4.128   4.312   3.742
    1C        C  388   3.944   4.421   3.864
    1C        C  389   4.006   4.390   3.987
    1C        C  390   3.815   4.485   4.102
    1C        C  391   3.943   4.427   4.108
    1C        C  392   3.749   4.512   4.225
    1C        C  393   3.817   4.494   4.347
    1C        C  394   3.614   4.551   4.471
    1C        C  395   3.753   4.525   4.469
    1C        C  396   3.545   4.561   4.593
    1C        C  397   3.620   4.568   4.712
    1C        C  398   3.409   4.545   4.834
    1C        C  399   3.546   4.576   4.832
    1C        C  400   3.339   4.517   4.953
    1C        C  401   4.502   3.699   2.049
    1C        C  402   4.452   3.914   2.162
    1C        C  403   4.497   3.780   2.163
    1C        C  404   4.406   3.973   2.282
    1C        C  405   4.438   3.910   2.405
    1C        C  406   4.327   4.096   2.524
    1C        C  407   4.402   3.976   2.524
    1C        C  408   4.277   4.148   2.645
    1C        C  409   4.317   4.090   2.768
    1C        C  410   4.174   4.249   2.886
    1C        C  411   4.271   4.147   2.889
    1C        C  412   4.116   4.292   3.008
    1C        C  413   4.167   4.249   3.132
    1C        C  414   4.002   4.380   3.251
    1C        C  415   4.115   4.296   3.255
    1C        C  416   3.942   4.415   3.374
    1C        C  417   4.003   4.385   3.498
    1C        C  418   3.811   4.467   3.617
    1C        C  419   3.943   4.420   3.621
    1C        C  420   3.744   4.497   3.738
    1C        C  421   3.816   4.479   3.858
    1C        C  422   3.609   4.530   3.982
    1C        C  423   3.748   4.506   3.980
    1C        C  424   3.540   4.536   4.105
    1C        C  425   3.609   4.528   4.227
    1C        C  426   3.400   4.544   4.353
    1C        C  427   3.541   4.547   4.350
    1C        C  428   3.330   4.548   4.476
    1C        C  429   3.403   4.559   4.596
    1C        C  430   3.192   4.518   4.723
    1C        C  431   3.331   4.543   4.716
    1C        C  432   3.121   4.492   4.844
    1C        C  433   3.203   4.488   4.957
    1C        C  434   4.384   4.120   2.049
    1C        C  435   4.449   3.995   2.048
    1C        C  436   4.300   4.156   2.159
    1C        C  437   4.333   4.094   2.283
    1C        C  438   4.179   4.246   2.400
    1C        C  439   4.285   4.153   2.402
    1C        C  440   4.121   4.293   2.520
    1C        C  441   4.177   4.248   2.642
    1C        C  442   4.001   4.368   2.765
    1C        C  443   4.123   4.297   2.763
    1C        C  444   3.937   4.410   2.884
    1C        C  445   4.002   4.375   3.005
    1C        C  446   3.810   4.463   3.130
    1C        C  447   3.942   4.412   3.127
    1C        C  448   3.744   4.489   3.252
    1C        C  449   3.810   4.466   3.375
    1C        C  450   3.603   4.520   3.495
    1C        C  451   3.740   4.488   3.496
    1C        C  452   3.535   4.540   3.617
    1C        C  453   3.607   4.531   3.738
    1C        C  454   3.395   4.534   3.863
    1C        C  455   3.537   4.537   3.861
    1C        C  456   3.327   4.528   3.987
    1C        C  457   3.399   4.542   4.108
    1C        C  458   3.192   4.502   4.235
    1C        C  459   3.330   4.535   4.231
    1C        C  460   3.127   4.484   4.358
    1C        C  461   3.192   4.517   4.479
    1C        C  462   2.997   4.432   4.601
    1C        C  463   3.124   4.493   4.601
    1C        C  464   2.929   4.400   4.721
    1C        C  465   2.986   4.444   4.843
    1C        C  466   2.800   4.334   4.959
    1C        C  467   2.905   4.427   4.960
    1C        C  468   4.119   4.280   2.040
    1C        C  469   4.185   4.242   2.157
    1C        C  470   4.008   4.371   2.275
    1C        C  471   4.125   4.290   2.276
    1C        C  472   3.942   4.399   2.397
    1C        C  473   4.003   4.370   2.521
    1C        C  474   3.811   4.461   2.638
    1C        C  475   3.941   4.406   2.643
    1C        C  476   3.742   4.487   2.759
    1C        C  477   3.809   4.470   2.882
    1C        C  478   3.605   4.508   3.006
    1C        C  479   3.744   4.486   3.007
    1C        C  480   3.534   4.520   3.128
    1C        C  481   3.606   4.517   3.249
    1C        C  482   3.394   4.534   3.373
    1C        C  483   3.535   4.530   3.371
    1C        C  484   3.323   4.530   3.496
    1C        C  485   3.393   4.541   3.618
    1C        C  486   3.187   4.500   3.743
    1C        C  487   3.324   4.532   3.741
    1C        C  488   3.122   4.478   3.866
    1C        C  489   3.189   4.503   3.988
    1C        C  490   3.001   4.413   4.115
    1C        C  491   3.124   4.483   4.112
    1C        C  492   2.941   4.378   4.238
    1C        C  493   3.000   4.423   4.359
    1C        C  494   2.827   4.300   4.482
    1C        C  495   2.939   4.386   4.481
    1C        C  496   2.772   4.252   4.603
    1C        C  497   2.817   4.312   4.723
    1C        C  498   2.664   4.163   4.844
    1C        C  499   2.756   4.270   4.843
    1C        C  500   2.600   4.109   4.957
    1C        C  501   4.003   4.358   2.039
    1C        C  502   3.813   4.462   2.153
    1C        C  503   3.944   4.409   2.155
    1C        C  504   3.743   4.479   2.275
    1C        C  505   3.811   4.452   2.396
    1C        C  506   3.605   4.509   2.517
    1C        C  507   3.745   4.485   2.516
    1C        C  508   3.534   4.515   2.638
    1C        C  509   3.604   4.514   2.761
    1C        C  510   3.393   4.528   2.885
    1C        C  511   3.534   4.519   2.884
    1C        C  512   3.319   4.525   3.005
    1C        C  513   3.393   4.530   3.126
    1C        C  514   3.189   4.492   3.253
    1C        C  515   3.326   4.523   3.250
    1C        C  516   3.122   4.467   3.375
    1C        C  517   3.187   4.494   3.497
    1C        C  518   2.996   4.407   3.622
    1C        C  519   3.120   4.474   3.621
    1C        C  520   2.938   4.369   3.746
    1C        C  521   3.000   4.407   3.867
    1C        C  522   2.842   4.274   3.996
    1C        C  523   2.946   4.370   3.993
    1C        C  524   2.790   4.229   4.119
    1C        C  525   2.833   4.288   4.240
    1C        C  526   2.698   4.125   4.365
    1C        C  527   2.780   4.241   4.362
    1C        C  528   2.660   4.068   4.488
    1C        C  529   2.691   4.136   4.608
    1C        C  530   2.585   3.953   4.730
    1C        C  531   2.641   4.084   4.729
    1C        C  532   2.535   3.896   4.850
    1C        C  533   2.523   3.992   4.955
    1C        C  534   3.615   4.547   2.035
    1C        C  535   3.751   4.513   2.039
    1C        C  536   3.535   4.529   2.152
    1C        C  537   3.604   4.508   2.274
    1C        C  538   3.392   4.511   2.397
    1C        C  539   3.533   4.518   2.396
    1C        C  540   3.322   4.507   2.520
    1C        C  541   3.393   4.519   2.642
    1C        C  542   3.183   4.489   2.763
    1C        C  543   3.322   4.514   2.764
    1C        C  544   3.117   4.465   2.885
    1C        C  545   3.184   4.486   3.008
    1C        C  546   2.996   4.396   3.131
    1C        C  547   3.119   4.465   3.132
    1C        C  548   2.937   4.362   3.255
    1C        C  549   2.994   4.406   3.376
    1C        C  550   2.833   4.273   3.502
    1C        C  551   2.940   4.364   3.500
    1C        C  552   2.780   4.228   3.625
    1C        C  553   2.829   4.279   3.748
    1C        C  554   2.703   4.116   3.871
    1C        C  555   2.790   4.228   3.873
    1C        C  556   2.670   4.055   3.994
    1C        C  557   2.708   4.114   4.117
    1C        C  558   2.606   3.935   4.244
    1C        C  559   2.668   4.062   4.242
    1C        C  560   2.575   3.873   4.367
    1C        C  561   2.595   3.942   4.489
    1C        C  562   2.529   3.742   4.615
    1C        C  563   2.567   3.878   4.611
    1C        C  564   2.510   3.676   4.738
    1C        C  565   2.514   3.754   4.857
    1C        C  566   2.527   3.542   4.980
    1C        C  567   2.524   3.681   4.976
    1C        C  568   3.324   4.477   2.038
    1C        C  569   3.394   4.514   2.154
    1C        C  570   3.181   4.477   2.280
    1C        C  571   3.320   4.505   2.276
    1C        C  572   3.111   4.462   2.402
    1C        C  573   3.183   4.483   2.522
    1C        C  574   2.988   4.397   2.646
    1C        C  575   3.112   4.464   2.643
    1C        C  576   2.928   4.356   2.767
    1C        C  577   2.991   4.400   2.886
    1C        C  578   2.827   4.270   3.013
    1C        C  579   2.934   4.361   3.009
    1C        C  580   2.780   4.219   3.136
    1C        C  581   2.830   4.271   3.258
    1C        C  582   2.693   4.109   3.380
    1C        C  583   2.784   4.218   3.381
    1C        C  584   2.660   4.053   3.506
    1C        C  585   2.697   4.114   3.627
    1C        C  586   2.597   3.931   3.754
    1C        C  587   2.656   4.059   3.751
    1C        C  588   2.579   3.865   3.877
    1C        C  589   2.611   3.927   4.001
    1C        C  590   2.532   3.733   4.127
    1C        C  591   2.578   3.866   4.124
    1C        C  592   2.520   3.666   4.251
    1C        C  593   2.533   3.738   4.371
    1C        C  594   2.507   3.529   4.495
    1C        C  595   2.519   3.670   4.494
    1C        C  596   2.507   3.460   4.619
    1C        C  597   2.509   3.534   4.739
    1C        C  598   2.531   3.326   4.859
    1C        C  599   2.522   3.467   4.862
    1C        C  600   2.523   3.246   4.974
    1C        C  601   3.189   4.447   2.043
    1C        C  602   2.977   4.398   2.156
    1C        C  603   3.112   4.444   2.160
    1C        C  604   2.924   4.354   2.281
    1C        C  605   2.988   4.393   2.401
    1C        C  606   2.817   4.271   2.526
    1C        C  607   2.928   4.358   2.524
    1C        C  608   2.766   4.220   2.648
    1C        C  609   2.819   4.266   2.770
    1C        C  610   2.685   4.105   2.893
    1C        C  611   2.772   4.216   2.894
    1C        C  612   2.652   4.045   3.017
    1C        C  613   2.695   4.106   3.137
    1C        C  614   2.591   3.922   3.263
    1C        C  615   2.657   4.047   3.259
    1C        C  616   2.568   3.861   3.388
    1C        C  617   2.598   3.926   3.510
    1C        C  618   2.526   3.728   3.636
    1C        C  619   2.570   3.862   3.633
    1C        C  620   2.513   3.662   3.761
    1C        C  621   2.526   3.734   3.882
    1C        C  622   2.506   3.525   4.008
    1C        C  623   2.511   3.666   4.004
    1C        C  624   2.506   3.454   4.130
    1C        C  625   2.505   3.525   4.252
    1C        C  626   2.528   3.316   4.376
    1C        C  627   2.503   3.455   4.375
    1C        C  628   2.547   3.249   4.499
    1C        C  629   2.528   3.321   4.619
    1C        C  630   2.586   3.115   4.741
    1C        C  631   2.542   3.250   4.740
    1C        C  632   2.616   3.048   4.863
    1C        C  633   2.560   3.111   4.979
    1C        C  634   2.781   4.301   2.052
    1C        C  635   2.891   4.386   2.042
    1C        C  636   2.751   4.223   2.165
    1C        C  637   2.812   4.267   2.285
    1C        C  638   2.680   4.102   2.409
    1C        C  639   2.762   4.217   2.407
    1C        C  640   2.639   4.043   2.531
    1C        C  641   2.682   4.107   2.650
    1C        C  642   2.580   3.920   2.774
    1C        C  643   2.643   4.046   2.772
    1C        C  644   2.557   3.853   2.897
    1C        C  645   2.586   3.920   3.017
    1C        C  646   2.527   3.719   3.148
    1C        C  647   2.566   3.855   3.141
    1C        C  648   2.512   3.651   3.270
    1C        C  649   2.528   3.725   3.389
    1C        C  650   2.502   3.518   3.515
    1C        C  651   2.514   3.659   3.513
    1C        C  652   2.509   3.451   3.639
    1C        C  653   2.506   3.521   3.762
    1C        C  654   2.527   3.314   3.886
    1C        C  655   2.504   3.454   3.886
    1C        C  656   2.547   3.248   4.010
    1C        C  657   2.531   3.315   4.133
    1C        C  658   2.599   3.114   4.254
    1C        C  659   2.552   3.247   4.255
    1C        C  660   2.633   3.055   4.377
    1C        C  661   2.598   3.117   4.499
    1C        C  662   2.705   2.935   4.623
    1C        C  663   2.625   3.051   4.621
    1C        C  664   2.747   2.873   4.743
    1C        C  665   2.690   2.925   4.862
    1C        C  666   2.736   2.862   4.979
    1C        C  667   2.677   4.016   2.054
    1C        C  668   2.684   4.099   2.166
    1C        C  669   2.594   3.907   2.292
    1C        C  670   2.645   4.039   2.288
    1C        C  671   2.565   3.841   2.414
    1C        C  672   2.582   3.914   2.533
    1C        C  673   2.513   3.713   2.659
    1C        C  674   2.553   3.849   2.655
    1C        C  675   2.507   3.643   2.782
    1C        C  676   2.524   3.715   2.902
    1C        C  677   2.499   3.508   3.029
    1C        C  678   2.517   3.648   3.026
    1C        C  679   2.507   3.437   3.151
    1C        C  680   2.502   3.510   3.272
    1C        C  681   2.527   3.302   3.397
    1C        C  682   2.504   3.442   3.396
    1C        C  683   2.550   3.239   3.522
    1C        C  684   2.528   3.311   3.641
    1C        C  685   2.597   3.113   3.767
    1C        C  686   2.549   3.246   3.765
    1C        C  687   2.629   3.050   3.889
    1C        C  688   2.596   3.116   4.010
    1C        C  689   2.701   2.931   4.135
    1C        C  690   2.620   3.047   4.131
    1C        C  691   2.749   2.878   4.257
    1C        C  692   2.708   2.935   4.379
    1C        C  693   2.748   2.877   4.501
    1C        C  694   2.624   3.886   2.053
    1C        C  695   2.522   3.701   2.174
    1C        C  696   2.579   3.831   2.174
    1C        C  697   2.500   3.636   2.297
    1C        C  698   2.522   3.707   2.418
    1C        C  699   2.490   3.498   2.541
    1C        C  700   2.505   3.638   2.540
    1C        C  701   2.495   3.431   2.666
    1C        C  702   2.491   3.503   2.788
    1C        C  703   2.516   3.292   2.909
    1C        C  704   2.495   3.432   2.910
    1C        C  705   2.531   3.225   3.032
    1C        C  706   2.518   3.296   3.154
    1C        C  707   2.580   3.094   3.276
    1C        C  708   2.540   3.229   3.277
    1C        C  709   2.626   3.041   3.399
    1C        C  710   2.600   3.107   3.522
    1C        C  711   2.705   2.928   3.644
    1C        C  712   2.627   3.046   3.646
    1C        C  713   2.752   2.877   3.767
    1C        C  714   2.707   2.932   3.889
    1C        C  715   2.749   2.879   4.013
    1C        C  716   2.440   3.498   2.060
    1C        C  717   2.488   3.629   2.059
    1C        C  718   2.459   3.421   2.179
    1C        C  719   2.477   3.496   2.298
    1C        C  720   2.513   3.286   2.422
    1C        C  721   2.486   3.425   2.420
    1C        C  722   2.529   3.217   2.544
    1C        C  723   2.517   3.292   2.664
    1C        C  724   2.589   3.093   2.788
    1C        C  725   2.539   3.225   2.787
    1C        C  726   2.616   3.031   2.912
    1C        C  727   2.584   3.094   3.034
    1C        C  728   2.702   2.919   3.155
    1C        C  729   2.614   3.029   3.156
    1C        C  730   2.749   2.868   3.278
    1C        C  731   2.705   2.924   3.400
    1C        C  732   2.748   2.870   3.523
    1C        C  733   2.484   3.196   2.070
    1C        C  734   2.484   3.280   2.183
    1C        C  735   2.579   3.082   2.301
    1C        C  736   2.519   3.211   2.302
    1C        C  737   2.612   3.019   2.423
    1C        C  738   2.577   3.085   2.544
    1C        C  739   2.697   2.911   2.668
    1C        C  740   2.613   3.025   2.667
    1C        C  741   2.739   2.855   2.790
    1C        C  742   2.695   2.913   2.911
    1C        C  743   2.741   2.859   3.033
    1C        C  744   2.542   3.070   2.071
    1C        C  745   2.689   2.899   2.185
    1C        C  746   2.609   3.015   2.181
    1C        C  747   2.729   2.836   2.305
    1C        C  748   2.687   2.900   2.425
    1C        C  749   2.735   2.848   2.547
    1C        C  750   2.733   2.834   2.069
    1C        C  751   3.667   2.346   1.954
    1C        O  752   3.686   2.222   1.952
    1C        O  753   3.649   2.405   1.828
    1C        C  754   4.605   3.055   1.960
    1C        O  755   4.577   3.062   1.837
    1C        O  756   4.724   2.987   1.986
    1C        C  757   4.468   4.225   1.987
    1C        O  758   4.508   4.330   2.044
    1C        O  759   4.466   4.244   1.849
    1C        C  760   3.577   4.628   1.917
    1C        O  761   3.632   4.739   1.893
    1C        O  762   3.566   4.563   1.793
    1C        C  763   2.888   4.475   1.923
    1C        O  764   2.904   4.431   1.806
    1C        O  765   2.811   4.592   1.929
    1C        C  766   2.386   3.461   1.927
    1C        O  767   2.449   3.437   1.820
    1C        O  768   2.250   3.481   1.900
    1C        C  769   4.703   3.597   5.046
    1C        O  770   4.684   3.582   5.169
    1C        O  771   4.824   3.667   5.031
    1C        C  772   4.278   4.470   5.016
    1C        O  773   4.320   4.419   5.124
    1C        O  774   4.360   4.567   4.956
    1C        C  775   4.145   2.504   5.059
    1C        O  776   4.157   2.379   5.061
    1C        O  777   4.160   2.543   5.192
    1C        C  778   2.891   4.522   5.073
    1C        O  779   2.836   4.634   5.057
    1C        O  780   2.937   4.507   5.204
    1C        C  781   2.470   3.024   5.057
    1C        O  782   2.357   2.994   5.011
    1C        O  783   2.485   2.973   5.186
    1C        C  784   2.396   4.000   5.031
    1C        O  785   2.292   4.046   4.977
    1C        O  786   2.391   4.003   5.171
    1C        C  787   2.937   2.427   2.002
    1C        O  788   2.964   2.406   1.881
    1C        O  789   2.880   2.316   2.063
    1C        C  790   3.184   2.378   5.070
    1C        O  791   3.164   2.257   5.040
    1C        O  792   3.185   2.395   5.209
    1C        H  793   4.264   3.033   5.054
    1C        H  794   4.165   2.814   5.063
    1C        H  795   4.521   3.115   5.039
    1C        H  796   4.468   3.371   5.058
    1C        H  797   4.503   3.780   5.056
    1C        H  798   4.434   3.988   5.056
    1C        H  799   4.276   4.170   5.041
    1C        H  800   4.012   4.494   5.037
    1C        H  801   3.819   4.622   5.021
    1C        H  802   3.585   4.598   5.043
    1C        H  803   3.396   4.474   5.033
    1C        H  804   3.154   4.517   5.047
    1C        H  805   3.891   2.472   5.063
    1C        H  806   3.678   2.450   5.072
    1C        H  807   3.025   2.594   5.070
    1C        H  808   3.447   2.528   5.064
    1C        H  809   2.899   2.780   5.071
    1C        H  810   2.667   2.853   5.060
    1C        H  811   2.486   3.285   5.067
    1C        H  812   2.498   3.499   5.074
    1C        H  813   2.496   3.726   5.069
    1C        H  814   2.632   4.151   5.050
    1C        H  815   2.714   4.363   5.016
    1C        H  816   2.673   2.841   1.981
    1C        H  817   2.875   2.707   1.972
    1C        H  818   3.200   2.395   2.002
    1C        H  819   3.426   2.450   1.976
    1C        H  820   3.862   2.499   1.970
    1C        H  821   4.083   2.570   1.979
    1C        H  822   4.282   2.693   1.989
    1C        H  823   4.335   2.945   1.975
    1C        H  824   4.542   3.313   1.961
    1C        H  825   4.456   3.510   1.969
    1C        H  826   4.516   3.745   1.953
    1C        H  827   3.808   4.542   1.953
    1C        H  828   3.929   4.344   1.963
    1C        H  829   4.155   4.246   1.945
    1C        H  830   4.497   3.961   1.959
    1C        H  831   2.666   3.829   1.973
    1C        H  832   2.751   4.029   1.977
    1C        H  833   2.700   4.313   1.983
    1C        H  834   3.382   4.443   1.955
    1C        H  835   3.158   4.382   1.964
    1C        H  836   2.486   3.007   2.004
    1C        H  837   2.392   3.206   2.016
    1C        H  838   2.482   3.684   1.968
    2V3OU   H29  839   2.808   3.548   2.752
    2V3OU   C27  840   2.789   3.501   2.851
    2V3OU   H27  841   2.729   3.565   2.921
    2V3OU   H28  842   2.744   3.401   2.827
    2V3OU   O11  843   2.916   3.479   2.913
    2V3OU   C15  844   2.924   3.400   3.026
    2V3OU   C13  845   3.051   3.379   3.085
    2V3OU   C14  846   3.079   3.273   3.172
    2V3OU   C16  847   2.979   3.180   3.198
    2V3OU    H6  848   2.991   3.098   3.270
    2V3OU   C12  849   3.210   3.241   3.232
    2V3OU    O2  850   3.233   3.135   3.295
    2V3OU   C10  851   3.324   3.315   3.176
    2V3OU    C8  852   3.454   3.271   3.197
    2V3OU   O10  853   3.485   3.155   3.260
    2V3OU   H26  854   3.402   3.113   3.287
    2V3OU    C6  855   3.563   3.350   3.149
    2V3OU    C5  856   3.538   3.467   3.078
    2V3OU    C4  857   3.699   3.289   3.147
    2V3OU    H4  858   3.719   3.223   3.236
    2V3OU    H5  859   3.711   3.228   3.053
    2V3OU    C2  860   3.812   3.393   3.150
    2V3OU    O6  861   3.800   3.472   3.268
    2V3OU   H21  862   3.765   3.558   3.239
    2V3OU    C3  863   3.780   3.493   3.038
    2V3OU    H2  864   3.866   3.564   3.039
    2V3OU    H3  865   3.775   3.436   2.941
    2V3OU   C25  866   3.949   3.326   3.143
    2V3OU    O7  867   3.999   3.291   3.037
    2V3OU   C26  868   4.030   3.290   3.267
    2V3OU   H22  869   4.069   3.387   3.308
    2V3OU   H23  870   4.114   3.222   3.239
    2V3OU    O8  871   3.963   3.214   3.366
    2V3OU   H24  872   3.924   3.271   3.434
    2V3OU    C1  873   3.648   3.566   3.051
    2V3OU    H1  874   3.623   3.617   2.954
    2V3OU    O3  875   3.657   3.654   3.163
    2V3OU   C19  876   3.614   3.791   3.155
    2V3OU    H9  877   3.512   3.797   3.107
    2V3OU    O4  878   3.710   3.850   3.070
    2V3OU   C20  879   3.843   3.873   3.117
    2V3OU   H10  880   3.900   3.776   3.135
    2V3OU   C24  881   3.609   3.854   3.294
    2V3OU   H16  882   3.542   3.791   3.358
    2V3OU   H17  883   3.557   3.952   3.280
    2V3OU   C23  884   3.749   3.873   3.354
    2V3OU   H15  885   3.791   3.768   3.368
    2V3OU    N1  886   3.731   3.950   3.475
    2V3OU   H19  887   3.804   3.923   3.539
    2V3OU   H20  888   3.642   3.930   3.515
    2V3OU   C21  889   3.841   3.945   3.251
    2V3OU   H11  890   3.944   3.925   3.294
    2V3OU    O5  891   3.825   4.086   3.264
    2V3OU   H18  892   3.789   4.098   3.354
    2V3OU   C22  893   3.909   3.952   3.004
    2V3OU   H12  894   3.856   4.048   2.984
    2V3OU   H13  895   3.901   3.894   2.909
    2V3OU   H14  896   4.020   3.952   3.021
    2V3OU   C11  897   3.160   3.473   3.059
    2V3OU    O1  898   3.135   3.582   3.003
    2V3OU    C9  899   3.297   3.431   3.098
    2V3OU    C7  900   3.404   3.504   3.047
    2V3OU    O9  901   3.385   3.614   2.966
    2V3OU   H25  902   3.290   3.631   2.965
    2V3OU   C17  903   2.822   3.318   3.078
    2V3OU    H7  904   2.727   3.343   3.030
    2V3OU   C18  905   2.848   3.209   3.160
    2V3OU    H8  906   2.781   3.167   3.236
    3SOL     OW  907   2.337   5.287   6.418
    3SOL    HW1  908   2.314   5.198   6.459
    3SOL    HW2  909   2.392   5.272   6.336
    4SOL     OW  910   6.716   0.633   2.014
    4SOL    HW1  911   6.753   0.552   2.060
    4SOL    HW2  912   6.652   0.604   1.943
    5SOL     OW  913   4.210   2.295   2.365
    5SOL    HW1  914   4.198   2.308   2.266
    5SOL    HW2  915   4.143   2.228   2.398
    6SOL     OW  916   4.190   1.668   1.301
    6SOL    HW1  917   4.122   1.690   1.230
    6SOL    HW2  918   4.276   1.715   1.280
    7SOL     OW  919   0.640   3.590   3.854
    7SOL    HW1  920   0.726   3.622   3.895
    7SOL    HW2  921   0.563   3.619   3.911
    8SOL     OW  922   2.755   1.372   5.712
    8SOL    HW1  923   2.748   1.376   5.612
    8SOL    HW2  924   2.824   1.305   5.738
    9SOL     OW  925   4.671   1.447   6.036
    9SOL    HW1  926   4.707   1.539   6.050
    9SOL    HW2  927   4.713   1.385   6.103
   10SOL     OW  928   2.066   5.218   4.953
   10SOL    HW1  929   2.062   5.142   5.018
   10SOL    HW2  930   1.993   5.207   4.885
   11SOL     OW  931   2.733   1.278   5.451
   11SOL    HW1  932   2.749   1.287   5.352
   11SOL    HW2  933   2.764   1.188   5.481
   12SOL     OW  934   2.828   5.228   3.433
   12SOL    HW1  935   2.855   5.153   3.373
   12SOL    HW2  936   2.873   5.313   3.403
   13SOL     OW  937   3.482   6.699   4.228
   13SOL    HW1  938   3.546   6.774   4.247
   13SOL    HW2  939   3.468   6.646   4.311
   14SOL     OW  940   3.515   5.210   6.428
   14SOL    HW1  941   3.598   5.191   6.376
   14SOL    HW2  942   3.540   5.258   6.513
   15SOL     OW  943   0.721   6.699   1.058
   15SOL    HW1  944   0.719   6.599   1.062
   15SOL    HW2  945   0.808   6.732   1.096
   16SOL     OW  946   5.825   2.751   6.093
   16SOL    HW1  947   5.781   2.708   6.172
   16SOL    HW2  948   5.790   2.844   6.082
   17SOL     OW  949   6.000   5.353   6.659
   17SOL    HW1  950   5.951   5.313   6.737
   17SOL    HW2  951   6.069   5.417   6.692
   18SOL     OW  952   3.119   1.539   5.430
   18SOL    HW1  953   3.206   1.586   5.416
   18SOL    HW2  954   3.069   1.583   5.505
   19SOL     OW  955   0.196   1.591   2.921
   19SOL    HW1  956   0.237   1.515   2.971
   19SOL    HW2  957   0.268   1.646   2.879
   20SOL     OW  958   4.680   1.848   4.503
   20SOL    HW1  959   4.659   1.946   4.498
   20SOL    HW2  960   4.714   1.826   4.595
   21SOL     OW  961   3.461   0.691   2.006
   21SOL    HW1  962   3.362   0.685   2.020
   21SOL    HW2  963   3.508   0.647   2.082
   22SOL     OW  964   1.489   6.165   6.624
   22SOL    HW1  965   1.393   6.158   6.597
   22SOL    HW2  966   1.494   6.190   6.721
   23SOL     OW  967   4.931   5.282   2.603
   23SOL    HW1  968   5.000   5.256   2.670
   23SOL    HW2  969   4.841   5.285   2.647
   24SOL     OW  970   3.422   0.395   2.579
   24SOL    HW1  971   3.494   0.380   2.646
   24SOL    HW2  972   3.384   0.487   2.590
   25SOL     OW  973   3.585   6.992   3.573
   25SOL    HW1  974   3.500   6.939   3.578
   25SOL    HW2  975   3.653   6.951   3.633
   26SOL     OW  976   6.766   1.156   0.611
   26SOL    HW1  977   6.703   1.149   0.688
   26SOL    HW2  978   6.807   1.247   0.609
   27SOL     OW  979   2.246   1.274   2.198
   27SOL    HW1  980   2.218   1.227   2.114
   27SOL    HW2  981   2.189   1.355   2.212
   28SOL     OW  982   1.664   0.156   5.012
   28SOL    HW1  983   1.681   0.070   4.965
   28SOL    HW2  984   1.576   0.153   5.058
   29SOL     OW  985   6.149   1.791   1.771
   29SOL    HW1  986   6.164   1.776   1.674
   29SOL    HW2  987   6.237   1.803   1.817
   30SOL     OW  988   4.406   0.609   3.422
   30SOL    HW1  989   4.395   0.615   3.521
   30SOL    HW2  990   4.427   0.699   3.385
   31SOL     OW  991   0.407   2.528   6.705
   31SOL    HW1  992   0.416   2.623   6.735
   31SOL    HW2  993   0.480   2.506   6.640
   32SOL     OW  994   0.431   1.807   3.245
   32SOL    HW1  995   0.466   1.889   3.201
   32SOL    HW2  996   0.397   1.743   3.175
   33SOL     OW  997   1.243   4.477   4.897
   33SOL    HW1  998   1.224   4.567   4.937
   33SOL    HW2  999   1.250   4.486   4.798
   34SOL     OW 1000   2.749   6.652   4.862
   34SOL    HW1 1001   2.763   6.609   4.952
   34SOL    HW2 1002   2.702   6.739   4.873
   35SOL     OW 1003   4.720   3.085   5.777
   35SOL    HW1 1004   4.800   3.062   5.721
   35SOL    HW2 1005   4.748   3.149   5.849
   36SOL     OW 1006   5.015   1.924   4.430
   36SOL    HW1 1007   5.039   1.978   4.510
   36SOL    HW2 1008   4.916   1.912   4.425
   37SOL     OW 1009   1.246   1.528   5.732
   37SOL    HW1 1010   1.314   1.524   5.806
   37SOL    HW2 1011   1.263   1.608   5.676
   38SOL     OW 1012   0.579   5.612   2.759
   38SOL    HW1 1013   0.588   5.553   2.678
   38SOL    HW2 1014   0.669   5.626   2.800
   39SOL     OW 1015   6.041   4.462   6.370
   39SOL    HW1 1016   6.004   4.523   6.441
   39SOL    HW2 1017   6.140   4.474   6.365
   40SOL     OW 1018   4.680   2.080   0.743
   40SOL    HW1 1019   4.654   2.027   0.823
   40SOL    HW2 1020   4.684   2.177   0.766
   41SOL     OW 1021   6.501   4.020   3.684
   41SOL    HW1 1022   6.441   4.075   3.626
   41SOL    HW2 1023   6.588   4.069   3.697
   42SOL     OW 1024   3.158   5.560   4.020
   42SOL    HW1 1025   3.072   5.582   3.974
   42SOL    HW2 1026   3.186   5.467   3.995
   43SOL     OW 1027   4.993   6.940   5.659
   43SOL    HW1 1028   4.942   6.918   5.576
   43SOL    HW2 1029   4.952   0.003   5.702
   44SOL     OW 1030   4.655   2.241   6.223
   44SOL    HW1 1031   4.646   2.337   6.249
   44SOL    HW2 1032   4.568   2.193   6.240
   45SOL     OW 1033   4.842   4.887   1.107
   45SOL    HW1 1034   4.852   4.866   1.205
   45SOL    HW2 1035   4.770   4.955   1.095
   46SOL     OW 1036   0.657   2.973   3.923
   46SOL    HW1 1037   0.695   2.992   3.832
   46SOL    HW2 1038   0.704   2.895   3.963
   47SOL     OW 1039   4.600   4.080   0.777
   47SOL    HW1 1040   4.505   4.094   0.806
   47SOL    HW2 1041   4.638   4.168   0.746
   48SOL     OW 1042   6.520   2.524   5.855
   48SOL    HW1 1043   6.445   2.590   5.851
   48SOL    HW2 1044   6.606   2.573   5.872
   49SOL     OW 1045   5.765   3.335   2.391
   49SOL    HW1 1046   5.827   3.372   2.321
   49SOL    HW2 1047   5.786   3.238   2.406
   50SOL     OW 1048   5.496   1.035   4.853
   50SOL    HW1 1049   5.559   0.960   4.874
   50SOL    HW2 1050   5.453   1.067   4.937
   51SOL     OW 1051   2.341   6.550   3.100
   51SOL    HW1 1052   2.410   6.477   3.100
   51SOL    HW2 1053   2.379   6.631   3.146
   52SOL     OW 1054   6.233   2.835   2.250
   52SOL    HW1 1055   6.329   2.839   2.277
   52SOL    HW2 1056   6.207   2.739   2.233
   53SOL     OW 1057   4.720   1.283   3.520
   53SOL    HW1 1058   4.770   1.305   3.604
   53SOL    HW2 1059   4.637   1.338   3.515
   54SOL     OW 1060   5.166   5.349   1.049
   54SOL    HW1 1061   5.137   5.254   1.040
   54SOL    HW2 1062   5.251   5.354   1.103
   55SOL     OW 1063   1.959   2.662   5.673
   55SOL    HW1 1064   1.964   2.742   5.613
   55SOL    HW2 1065   2.042   2.657   5.729
   56SOL     OW 1066   0.218   0.856   1.336
   56SOL    HW1 1067   0.296   0.862   1.274
   56SOL    HW2 1068   0.186   0.761   1.339
   57SOL     OW 1069   4.276   1.194   1.286
   57SOL    HW1 1070   4.304   1.129   1.216
   57SOL    HW2 1071   4.291   1.287   1.252
   58SOL     OW 1072   1.203   0.138   5.102
   58SOL    HW1 1073   1.136   0.194   5.053
   58SOL    HW2 1074   1.274   0.108   5.038
   59SOL     OW 1075   0.238   2.746   6.295
   59SOL    HW1 1076   0.160   2.782   6.243
   59SOL    HW2 1077   0.243   2.647   6.284
   60SOL     OW 1078   5.140   2.674   4.575
   60SOL    HW1 1079   5.191   2.759   4.581
   60SOL    HW2 1080   5.059   2.679   4.634
   61SOL     OW 1081   6.474   1.878   4.234
   61SOL    HW1 1082   6.457   1.964   4.186
   61SOL    HW2 1083   6.571   1.872   4.260
   62SOL     OW 1084   2.067   0.939   2.022
   62SOL    HW1 1085   2.072   1.033   1.989
   62SOL    HW2 1086   1.972   0.907   2.017
   63SOL     OW 1087   4.783   0.721   4.412
   63SOL    HW1 1088   4.685   0.703   4.413
   63SOL    HW2 1089   4.807   0.781   4.488
   64SOL     OW 1090   0.038   2.878   5.702
   64SOL    HW1 1091   0.067   2.917   5.615
   64SOL    HW2 1092   0.078   2.787   5.713
   65SOL     OW 1093   0.604   4.212   6.500
   65SOL    HW1 1094   0.686   4.261   6.470
   65SOL    HW2 1095   0.523   4.264   6.474
   66SOL     OW 1096   3.556   0.744   3.786
   66SOL    HW1 1097   3.472   0.742   3.841
   66SOL    HW2 1098   3.534   0.728   3.690
   67SOL     OW 1099   6.764   2.373   5.749
   67SOL    HW1 1100   6.814   2.351   5.832
   67SOL    HW2 1101   6.666   2.373   5.768
   68SOL     OW 1102   0.198   1.403   0.001
   68SOL    HW1 1103   0.263   1.461   0.051
   68SOL    HW2 1104   0.181   1.319   0.053
   69SOL     OW 1105   0.993   2.928   6.078
   69SOL    HW1 1106   1.029   3.011   6.034
   69SOL    HW2 1107   0.896   2.920   6.058
   70SOL     OW 1108   5.000   4.478   4.375
   70SOL    HW1 1109   5.014   4.380   4.364
   70SOL    HW2 1110   5.082   4.520   4.414
   71SOL     OW 1111   4.218   2.236   3.455
   71SOL    HW1 1112   4.273   2.298   3.511
   71SOL    HW2 1113   4.128   2.276   3.440
   72SOL     OW 1114   1.101   1.021   3.413
   72SOL    HW1 1115   1.123   0.924   3.424
   72SOL    HW2 1116   1.121   1.070   3.498
   73SOL     OW 1117   3.623   0.021   1.526
   73SOL    HW1 1118   3.659   0.019   1.433
   73SOL    HW2 1119   3.637   6.950   1.569
   74SOL     OW 1120   3.750   0.395   0.242
   74SOL    HW1 1121   3.712   0.458   0.309
   74SOL    HW2 1122   3.849   0.406   0.237
   75SOL     OW 1123   4.248   0.270   1.284
   75SOL    HW1 1124   4.244   0.312   1.374
   75SOL    HW2 1125   4.159   0.278   1.239
   76SOL     OW 1126   2.775   3.098   0.910
   76SOL    HW1 1127   2.699   3.130   0.966
   76SOL    HW2 1128   2.751   3.108   0.813
   77SOL     OW 1129   1.088   0.388   3.478
   77SOL    HW1 1130   1.045   0.450   3.543
   77SOL    HW2 1131   1.036   0.390   3.392
   78SOL     OW 1132   4.970   1.437   0.572
   78SOL    HW1 1133   4.919   1.440   0.658
   78SOL    HW2 1134   4.945   1.516   0.516
   79SOL     OW 1135   3.309   5.388   0.943
   79SOL    HW1 1136   3.362   5.307   0.968
   79SOL    HW2 1137   3.360   5.470   0.969
   80SOL     OW 1138   4.796   0.740   3.525
   80SOL    HW1 1139   4.894   0.720   3.529
   80SOL    HW2 1140   4.779   0.834   3.555
   81SOL     OW 1141   2.197   0.199   2.195
   81SOL    HW1 1142   2.193   0.109   2.151
   81SOL    HW2 1143   2.293   0.229   2.200
   82SOL     OW 1144   5.795   5.110   1.048
   82SOL    HW1 1145   5.883   5.073   1.080
   82SOL    HW2 1146   5.746   5.040   0.996
   83SOL     OW 1147   0.112   0.045   0.536
   83SOL    HW1 1148   0.120   0.134   0.580
   83SOL    HW2 1149   0.016   0.022   0.524
   84SOL     OW 1150   6.364   3.184   3.052
   84SOL    HW1 1151   6.290   3.121   3.074
   84SOL    HW2 1152   6.343   3.233   2.967
   85SOL     OW 1153   1.777   1.551   2.994
   85SOL    HW1 1154   1.795   1.633   3.048
   85SOL    HW2 1155   1.813   1.471   3.042
   86SOL     OW 1156   0.305   1.512   6.541
   86SOL    HW1 1157   0.261   1.527   6.630
   86SOL    HW2 1158   0.381   1.448   6.552
   87SOL     OW 1159   4.992   4.090   0.852
   87SOL    HW1 1160   4.951   4.037   0.927
   87SOL    HW2 1161   4.919   4.128   0.795
   88SOL     OW 1162   2.940   1.668   6.364
   88SOL    HW1 1163   2.854   1.637   6.323
   88SOL    HW2 1164   3.014   1.659   6.298
   89SOL     OW 1165   2.433   3.078   6.796
   89SOL    HW1 1166   2.468   3.043   6.883
   89SOL    HW2 1167   2.507   3.078   6.729
   90SOL     OW 1168   4.137   5.566   2.323
   90SOL    HW1 1169   4.041   5.557   2.347
   90SOL    HW2 1170   4.160   5.662   2.311
   91SOL     OW 1171   6.638   4.101   6.451
   91SOL    HW1 1172   6.734   4.079   6.470
   91SOL    HW2 1173   6.585   4.017   6.449
   92SOL     OW 1174   4.935   4.262   1.276
   92SOL    HW1 1175   5.013   4.241   1.335
   92SOL    HW2 1176   4.928   4.193   1.204
   93SOL     OW 1177   3.210   3.571   0.309
   93SOL    HW1 1178   3.280   3.542   0.244
   93SOL    HW2 1179   3.245   3.648   0.363
   94SOL     OW 1180   3.125   5.806   6.760
   94SOL    HW1 1181   3.107   5.903   6.774
   94SOL    HW2 1182   3.165   5.767   6.843
   95SOL     OW 1183   1.947   1.188   2.551
   95SOL    HW1 1184   1.945   1.246   2.633
   95SOL    HW2 1185   2.014   1.115   2.564
   96SOL     OW 1186   4.059   6.577   5.531
   96SOL    HW1 1187   4.019   6.524   5.606
   96SOL    HW2 1188   3.988   6.600   5.465
   97SOL     OW 1189   2.251   3.240   6.161
   97SOL    HW1 1190   2.293   3.218   6.249
   97SOL    HW2 1191   2.318   3.283   6.101
   98SOL     OW 1192   1.146   2.346   0.405
   98SOL    HW1 1193   1.156   2.316   0.500
   98SOL    HW2 1194   1.134   2.266   0.347
   99SOL     OW 1195   4.587   3.411   1.682
   99SOL    HW1 1196   4.532   3.380   1.604
   99SOL    HW2 1197   4.652   3.340   1.707
  100SOL     OW 1198   0.729   6.090   3.674
  100SOL    HW1 1199   0.642   6.125   3.639
  100SOL    HW2 1200   0.755   6.143   3.756
  101SOL     OW 1201   1.074   4.416   2.060
  101SOL    HW1 1202   1.047   4.372   1.975
  101SOL    HW2 1203   1.083   4.515   2.046
  102SOL     OW 1204   3.567   5.468   2.166
  102SOL    HW1 1205   3.616   5.408   2.230
  102SOL    HW2 1206   3.558   5.423   2.078
  103SOL     OW 1207   2.505   2.006   1.658
  103SOL    HW1 1208   2.497   2.006   1.559
  103SOL    HW2 1209   2.496   2.100   1.693
  104SOL     OW 1210   1.291   6.058   2.606
  104SOL    HW1 1211   1.230   6.075   2.683
  104SOL    HW2 1212   1.242   6.075   2.521
  105SOL     OW 1213   5.849   1.256   6.304
  105SOL    HW1 1214   5.825   1.247   6.208
  105SOL    HW2 1215   5.774   1.221   6.361
  106SOL     OW 1216   3.450   6.058   3.525
  106SOL    HW1 1217   3.493   6.017   3.445
  106SOL    HW2 1218   3.503   6.035   3.607
  107SOL     OW 1219   0.440   1.006   6.697
  107SOL    HW1 1220   0.505   1.082   6.697
  107SOL    HW2 1221   0.354   1.034   6.740
  108SOL     OW 1222   3.977   6.699   5.924
  108SOL    HW1 1223   3.962   6.666   5.830
  108SOL    HW2 1224   3.899   6.755   5.952
  109SOL     OW 1225   2.995   1.580   3.128
  109SOL    HW1 1226   2.958   1.629   3.049
  109SOL    HW2 1227   3.017   1.486   3.102
  110SOL     OW 1228   3.130   4.952   4.213
  110SOL    HW1 1229   3.173   4.936   4.124
  110SOL    HW2 1230   3.153   5.043   4.246
  111SOL     OW 1231   2.246   1.293   3.778
  111SOL    HW1 1232   2.338   1.314   3.744
  111SOL    HW2 1233   2.220   1.202   3.747
  112SOL     OW 1234   3.462   5.983   0.294
  112SOL    HW1 1235   3.409   6.068   0.291
  112SOL    HW2 1236   3.504   5.974   0.384
  113SOL     OW 1237   0.939   6.450   2.672
  113SOL    HW1 1238   1.000   6.404   2.608
  113SOL    HW2 1239   0.849   6.406   2.670
  114SOL     OW 1240   0.939   6.406   1.286
  114SOL    HW1 1241   0.877   6.473   1.326
  114SOL    HW2 1242   1.016   6.453   1.242
  115SOL     OW 1243   5.142   0.695   3.007
  115SOL    HW1 1244   5.107   0.601   3.010
  115SOL    HW2 1245   5.232   0.698   3.050
  116SOL     OW 1246   6.811   6.396   1.137
  116SOL    HW1 1247   6.758   6.322   1.178
  116SOL    HW2 1248   6.884   6.423   1.199
  117SOL     OW 1249   6.982   1.363   1.004
  117SOL    HW1 1250   6.993   1.403   1.095
  117SOL    HW2 1251   6.959   1.435   0.939
  118SOL     OW 1252   1.568   1.466   2.121
  118SOL    HW1 1253   1.647   1.522   2.096
  118SOL    HW2 1254   1.484   1.519   2.107
  119SOL     OW 1255   0.464   0.146   6.964
  119SOL    HW1 1256   0.412   0.118   6.883
  119SOL    HW2 1257   0.405   0.195   0.009
  120SOL     OW 1258   4.939   1.490   5.481
  120SOL    HW1 1259   4.962   1.468   5.576
  120SOL    HW2 1260   5.007   1.451   5.420
  121SOL     OW 1261   1.484   3.059   0.471
  121SOL    HW1 1262   1.466   3.148   0.512
  121SOL    HW2 1263   1.436   3.052   0.384
  122SOL     OW 1264   1.703   3.924   7.012
  122SOL    HW1 1265   1.780   3.982   0.016
  122SOL    HW2 1266   1.620   3.980   7.003
  123SOL     OW 1267   1.354   2.173   2.765
  123SOL    HW1 1268   1.292   2.125   2.703
  123SOL    HW2 1269   1.370   2.266   2.732
  124SOL     OW 1270   3.727   2.961   0.965
  124SOL    HW1 1271   3.633   2.949   0.934
  124SOL    HW2 1272   3.766   3.043   0.922
  125SOL     OW 1273   4.120   2.426   0.524
  125SOL    HW1 1274   4.119   2.513   0.575
  125SOL    HW2 1275   4.082   2.440   0.433
  126SOL     OW 1276   3.311   3.304   2.025
  126SOL    HW1 1277   3.391   3.244   2.032
  126SOL    HW2 1278   3.253   3.274   1.950
  127SOL     OW 1279   0.867   5.082   6.584
  127SOL    HW1 1280   0.895   5.003   6.529
  127SOL    HW2 1281   0.841   5.157   6.523
  128SOL     OW 1282   5.003   3.143   1.344
  128SOL    HW1 1283   4.917   3.192   1.352
  128SOL    HW2 1284   5.077   3.196   1.385
  129SOL     OW 1285   2.660   3.318   6.656
  129SOL    HW1 1286   2.746   3.355   6.622
  129SOL    HW2 1287   2.636   3.361   6.743
  130SOL     OW 1288   1.050   1.057   4.369
  130SOL    HW1 1289   1.106   1.111   4.431
  130SOL    HW2 1290   1.013   1.116   4.297
  131SOL     OW 1291   4.847   0.486   3.195
  131SOL    HW1 1292   4.882   0.440   3.277
  131SOL    HW2 1293   4.900   0.455   3.115
  132SOL     OW 1294   2.829   2.315   1.695
  132SOL    HW1 1295   2.781   2.384   1.641
  132SOL    HW2 1296   2.893   2.361   1.757
  133SOL     OW 1297   5.244   0.957   4.153
  133SOL    HW1 1298   5.185   0.876   4.162
  133SOL    HW2 1299   5.234   1.014   4.235
  134SOL     OW 1300   0.252   0.998   2.756
  134SOL    HW1 1301   0.157   1.026   2.753
  134SOL    HW2 1302   0.257   0.901   2.780
  135SOL     OW 1303   4.947   3.342   4.368
  135SOL    HW1 1304   5.044   3.351   4.392
  135SOL    HW2 1305   4.911   3.430   4.339
  136SOL     OW 1306   1.338   4.961   5.515
  136SOL    HW1 1307   1.434   4.992   5.511
  136SOL    HW2 1308   1.280   5.028   5.468
  137SOL     OW 1309   4.472   1.554   3.226
  137SOL    HW1 1310   4.382   1.598   3.235
  137SOL    HW2 1311   4.532   1.612   3.172
  138SOL     OW 1312   1.235   3.832   2.843
  138SOL    HW1 1313   1.304   3.760   2.843
  138SOL    HW2 1314   1.249   3.893   2.765
  139SOL     OW 1315   2.320   6.101   5.108
  139SOL    HW1 1316   2.418   6.092   5.094
  139SOL    HW2 1317   2.292   6.196   5.092
  140SOL     OW 1318   2.058   6.870   3.777
  140SOL    HW1 1319   2.077   6.772   3.784
  140SOL    HW2 1320   2.008   6.888   3.693
  141SOL     OW 1321   0.217   2.536   5.000
  141SOL    HW1 1322   0.154   2.586   4.940
  141SOL    HW2 1323   0.267   2.602   5.057
  142SOL     OW 1324   2.137   3.650   2.142
  142SOL    HW1 1325   2.100   3.677   2.053
  142SOL    HW2 1326   2.237   3.652   2.139
  143SOL     OW 1327   5.427   4.841   0.809
  143SOL    HW1 1328   5.382   4.756   0.840
  143SOL    HW2 1329   5.357   4.905   0.777
  144SOL     OW 1330   1.935   4.507   5.654
  144SOL    HW1 1331   2.004   4.488   5.584
  144SOL    HW2 1332   1.962   4.463   5.740
  145SOL     OW 1333   1.666   4.955   1.869
  145SOL    HW1 1334   1.696   5.049   1.881
  145SOL    HW2 1335   1.698   4.900   1.947
  146SOL     OW 1336   5.489   0.539   6.538
  146SOL    HW1 1337   5.560   0.542   6.609
  146SOL    HW2 1338   5.417   0.475   6.567
  147SOL     OW 1339   5.617   1.743   6.142
  147SOL    HW1 1340   5.633   1.794   6.057
  147SOL    HW2 1341   5.521   1.755   6.170
  148SOL     OW 1342   0.053   5.586   1.421
  148SOL    HW1 1343   0.087   5.608   1.329
  148SOL    HW2 1344   0.119   5.617   1.489
  149SOL     OW 1345   3.671   2.095   5.144
  149SOL    HW1 1346   3.654   2.175   5.202
  149SOL    HW2 1347   3.766   2.067   5.154
  150SOL     OW 1348   5.650   7.004   6.949
  150SOL    HW1 1349   5.670   0.042   6.869
  150SOL    HW2 1350   5.693   0.027   0.012
  151SOL     OW 1351   3.596   0.510   1.445
  151SOL    HW1 1352   3.558   0.470   1.362
  151SOL    HW2 1353   3.524   0.519   1.513
  152SOL     OW 1354   0.061   1.711   1.081
  152SOL    HW1 1355   0.058   1.619   1.120
  152SOL    HW2 1356   0.061   1.704   0.981
  153SOL     OW 1357   2.779   6.870   3.267
  153SOL    HW1 1358   2.802   6.818   3.185
  153SOL    HW2 1359   2.779   6.809   3.346
  154SOL     OW 1360   0.425   3.278   0.784
  154SOL    HW1 1361   0.423   3.222   0.701
  154SOL    HW2 1362   0.518   3.278   0.821
  155SOL     OW 1363   1.286   1.256   4.004
  155SOL    HW1 1364   1.244   1.304   3.928
  155SOL    HW2 1365   1.327   1.171   3.971
  156SOL     OW 1366   6.824   0.707   0.654
  156SOL    HW1 1367   6.841   0.644   0.578
  156SOL    HW2 1368   6.729   0.700   0.683
  157SOL     OW 1369   5.675   4.225   0.451
  157SOL    HW1 1370   5.628   4.170   0.520
  157SOL    HW2 1371   5.629   4.314   0.443
  158SOL     OW 1372   1.477   2.954   1.702
  158SOL    HW1 1373   1.426   2.973   1.786
  158SOL    HW2 1374   1.421   2.979   1.622
  159SOL     OW 1375   4.438   4.876   1.608
  159SOL    HW1 1376   4.466   4.846   1.517
  159SOL    HW2 1377   4.474   4.812   1.676
  160SOL     OW 1378   5.468   6.930   0.795
  160SOL    HW1 1379   5.497   6.835   0.786
  160SOL    HW2 1380   5.533   6.979   0.853
  161SOL     OW 1381   1.332   0.468   3.077
  161SOL    HW1 1382   1.247   0.521   3.072
  161SOL    HW2 1383   1.349   0.425   2.988
  162SOL     OW 1384   3.922   6.090   0.509
  162SOL    HW1 1385   3.885   6.035   0.435
  162SOL    HW2 1386   4.005   6.136   0.478
  163SOL     OW 1387   6.801   5.855   2.096
  163SOL    HW1 1388   6.753   5.825   2.179
  163SOL    HW2 1389   6.734   5.888   2.030
  164SOL     OW 1390   1.112   3.942   3.411
  164SOL    HW1 1391   1.016   3.961   3.435
  164SOL    HW2 1392   1.115   3.889   3.326
  165SOL     OW 1393   4.840   4.272   6.894
  165SOL    HW1 1394   4.927   4.299   6.935
  165SOL    HW2 1395   4.838   4.298   6.798
  166SOL     OW 1396   0.497   3.213   2.126
  166SOL    HW1 1397   0.434   3.164   2.066
  166SOL    HW2 1398   0.478   3.188   2.221
  167SOL     OW 1399   5.927   2.075   0.029
  167SOL    HW1 1400   5.841   2.049   0.073
  167SOL    HW2 1401   5.927   2.048   6.951
  168SOL     OW 1402   3.707   1.713   0.812
  168SOL    HW1 1403   3.786   1.725   0.751
  168SOL    HW2 1404   3.728   1.642   0.880
  169SOL     OW 1405   6.443   2.696   0.904
  169SOL    HW1 1406   6.382   2.729   0.832
  169SOL    HW2 1407   6.414   2.731   0.992
  170SOL     OW 1408   6.771   6.690   2.637
  170SOL    HW1 1409   6.772   6.679   2.537
  170SOL    HW2 1410   6.834   6.763   2.662
  171SOL     OW 1411   2.374   4.887   0.155
  171SOL    HW1 1412   2.381   4.921   0.062
  171SOL    HW2 1413   2.464   4.893   0.199
  172SOL     OW 1414   6.270   1.605   3.595
  172SOL    HW1 1415   6.312   1.527   3.549
  172SOL    HW2 1416   6.174   1.613   3.566
  173SOL     OW 1417   5.646   1.124   3.809
  173SOL    HW1 1418   5.600   1.203   3.769
  173SOL    HW2 1419   5.742   1.147   3.827
  174SOL     OW 1420   4.310   4.949   4.028
  174SOL    HW1 1421   4.319   5.048   4.036
  174SOL    HW2 1422   4.291   4.925   3.933
  175SOL     OW 1423   3.520   0.523   1.149
  175SOL    HW1 1424   3.446   0.507   1.083
  175SOL    HW2 1425   3.596   0.568   1.103
  176SOL     OW 1426   6.103   4.960   2.064
  176SOL    HW1 1427   6.088   5.014   2.147
  176SOL    HW2 1428   6.199   4.967   2.037
  177SOL     OW 1429   5.299   2.848   4.401
  177SOL    HW1 1430   5.317   2.889   4.491
  177SOL    HW2 1431   5.203   2.865   4.377
  178SOL     OW 1432   3.311   4.245   5.430
  178SOL    HW1 1433   3.294   4.266   5.333
  178SOL    HW2 1434   3.393   4.293   5.461
  179SOL     OW 1435   3.696   1.287   6.507
  179SOL    HW1 1436   3.748   1.327   6.431
  179SOL    HW2 1437   3.731   1.324   6.594
  180SOL     OW 1438   2.003   0.161   0.734
  180SOL    HW1 1439   2.089   0.134   0.691
  180SOL    HW2 1440   1.983   0.099   0.809
  181SOL     OW 1441   2.992   3.269   5.954
  181SOL    HW1 1442   3.015   3.172   5.962
  181SOL    HW2 1443   3.013   3.299   5.861
  182SOL     OW 1444   3.946   1.675   6.107
  182SOL    HW1 1445   3.905   1.754   6.062
  182SOL    HW2 1446   4.014   1.706   6.174
  183SOL     OW 1447   3.136   1.856   3.545
  183SOL    HW1 1448   3.172   1.944   3.515
  183SOL    HW2 1449   3.091   1.810   3.469
  184SOL     OW 1450   0.247   6.473   3.913
  184SOL    HW1 1451   0.295   6.561   3.904
  184SOL    HW2 1452   0.187   6.461   3.834
  185SOL     OW 1453   1.270   1.171   4.870
  185SOL    HW1 1454   1.195   1.185   4.935
  185SOL    HW2 1455   1.234   1.176   4.777
  186SOL     OW 1456   6.396   1.609   4.112
  186SOL    HW1 1457   6.388   1.668   4.192
  186SOL    HW2 1458   6.324   1.541   4.113
  187SOL     OW 1459   5.151   6.924   2.197
  187SOL    HW1 1460   5.219   6.868   2.244
  187SOL    HW2 1461   5.061   6.907   2.236
  188SOL     OW 1462   1.085   3.295   3.711
  188SOL    HW1 1463   1.082   3.223   3.642
  188SOL    HW2 1464   1.088   3.384   3.666
  189SOL     OW 1465   1.427   5.862   0.271
  189SOL    HW1 1466   1.470   5.936   0.219
  189SOL    HW2 1467   1.382   5.799   0.208
  190SOL     OW 1468   6.334   4.220   5.746
  190SOL    HW1 1469   6.363   4.175   5.662
  190SOL    HW2 1470   6.311   4.315   5.726
  191SOL     OW 1471   6.209   0.630   0.182
  191SOL    HW1 1472   6.247   0.721   0.197
  191SOL    HW2 1473   6.141   0.610   0.252
  192SOL     OW 1474   0.792   5.057   1.827
  192SOL    HW1 1475   0.695   5.031   1.829
  192SOL    HW2 1476   0.849   4.977   1.846
  193SOL     OW 1477   4.779   3.633   5.399
  193SOL    HW1 1478   4.694   3.665   5.443
  193SOL    HW2 1479   4.759   3.608   5.304
  194SOL     OW 1480   3.842   6.502   3.371
  194SOL    HW1 1481   3.864   6.549   3.457
  194SOL    HW2 1482   3.756   6.537   3.335
  195SOL     OW 1483   1.414   1.008   4.440
  195SOL    HW1 1484   1.335   1.028   4.383
  195SOL    HW2 1485   1.385   0.955   4.520
  196SOL     OW 1486   2.186   0.192   6.644
  196SOL    HW1 1487   2.192   0.095   6.670
  196SOL    HW2 1488   2.093   0.224   6.658
  197SOL     OW 1489   2.744   0.191   1.353
  197SOL    HW1 1490   2.675   0.122   1.332
  197SOL    HW2 1491   2.721   0.276   1.305
  198SOL     OW 1492   4.654   6.337   2.109
  198SOL    HW1 1493   4.727   6.390   2.066
  198SOL    HW2 1494   4.566   6.377   2.087
  199SOL     OW 1495   6.835   1.115   3.799
  199SOL    HW1 1496   6.764   1.141   3.864
  199SOL    HW2 1497   6.869   1.196   3.752
  200SOL     OW 1498   1.016   4.190   1.563
  200SOL    HW1 1499   0.927   4.147   1.572
  200SOL    HW2 1500   1.084   4.120   1.537
  201SOL     OW 1501   5.830   0.117   6.134
  201SOL    HW1 1502   5.776   0.043   6.175
  201SOL    HW2 1503   5.883   0.163   6.205
  202SOL     OW 1504   5.305   0.582   5.491
  202SOL    HW1 1505   5.230   0.628   5.538
  202SOL    HW2 1506   5.282   0.485   5.478
  203SOL     OW 1507   4.688   2.443   4.588
  203SOL    HW1 1508   4.650   2.455   4.496
  203SOL    HW2 1509   4.622   2.394   4.645
  204SOL     OW 1510   6.200   0.614   6.368
  204SOL    HW1 1511   6.283   0.570   6.404
  204SOL    HW2 1512   6.157   0.553   6.302
  205SOL     OW 1513   0.876   0.790   2.974
  205SOL    HW1 1514   0.785   0.801   3.013
  205SOL    HW2 1515   0.939   0.856   3.017
  206SOL     OW 1516   0.382   5.202   2.074
  206SOL    HW1 1517   0.335   5.286   2.047
  206SOL    HW2 1518   0.474   5.224   2.106
  207SOL     OW 1519   4.228   0.421   4.144
  207SOL    HW1 1520   4.199   0.514   4.167
  207SOL    HW2 1521   4.223   0.408   4.045
  208SOL     OW 1522   5.221   3.814   5.606
  208SOL    HW1 1523   5.246   3.863   5.690
  208SOL    HW2 1524   5.123   3.824   5.589
  209SOL     OW 1525   0.721   4.800   4.603
  209SOL    HW1 1526   0.657   4.786   4.527
  209SOL    HW2 1527   0.680   4.859   4.672
  210SOL     OW 1528   4.049   2.224   1.334
  210SOL    HW1 1529   3.958   2.236   1.374
  210SOL    HW2 1530   4.099   2.311   1.339
  211SOL     OW 1531   1.686   6.368   3.275
  211SOL    HW1 1532   1.736   6.408   3.353
  211SOL    HW2 1533   1.591   6.400   3.277
  212SOL     OW 1534   1.304   4.607   1.257
  212SOL    HW1 1535   1.323   4.689   1.310
  212SOL    HW2 1536   1.389   4.556   1.244
  213SOL     OW 1537   3.470   1.063   5.847
  213SOL    HW1 1538   3.477   1.060   5.946
  213SOL    HW2 1539   3.559   1.047   5.806
  214SOL     OW 1540   4.087   5.563   1.922
  214SOL    HW1 1541   4.032   5.615   1.987
  214SOL    HW2 1542   4.162   5.518   1.970
  215SOL     OW 1543   2.734   4.244   1.197
  215SOL    HW1 1544   2.663   4.183   1.233
  215SOL    HW2 1545   2.821   4.195   1.191
  216SOL     OW 1546   1.781   5.854   4.617
  216SOL    HW1 1547   1.877   5.882   4.622
  216SOL    HW2 1548   1.756   5.842   4.521
  217SOL     OW 1549   2.364   2.760   3.536
  217SOL    HW1 1550   2.293   2.828   3.556
  217SOL    HW2 1551   2.371   2.697   3.613
  218SOL     OW 1552   0.955   2.771   4.276
  218SOL    HW1 1553   0.899   2.776   4.359
  218SOL    HW2 1554   0.994   2.861   4.257
  219SOL     OW 1555   3.387   6.592   5.670
  219SOL    HW1 1556   3.432   6.579   5.758
  219SOL    HW2 1557   3.400   6.510   5.614
  220SOL     OW 1558   3.662   6.484   6.976
  220SOL    HW1 1559   3.733   6.542   7.015
  220SOL    HW2 1560   3.705   6.413   6.920
  221SOL     OW 1561   6.698   3.963   2.820
  221SOL    HW1 1562   6.654   3.939   2.907
  221SOL    HW2 1563   6.754   3.887   2.790
  222SOL     OW 1564   2.637   5.119   5.591
  222SOL    HW1 1565   2.711   5.052   5.596
  222SOL    HW2 1566   2.551   5.071   5.573
  223SOL     OW 1567   5.799   3.613   1.146
  223SOL    HW1 1568   5.713   3.570   1.175
  223SOL    HW2 1569   5.795   3.634   1.049
  224SOL     OW 1570   2.751   1.758   3.887
  224SOL    HW1 1571   2.807   1.676   3.899
  224SOL    HW2 1572   2.733   1.773   3.790
  225SOL     OW 1573   5.659   1.892   5.239
  225SOL    HW1 1574   5.638   1.802   5.199
  225SOL    HW2 1575   5.636   1.891   5.336
  226SOL     OW 1576   1.716   0.458   6.121
  226SOL    HW1 1577   1.802   0.508   6.112
  226SOL    HW2 1578   1.640   0.519   6.104
  227SOL     OW 1579   1.596   4.095   2.636
  227SOL    HW1 1580   1.605   4.106   2.734
  227SOL    HW2 1581   1.652   4.018   2.605
  228SOL     OW 1582   3.489   6.291   3.823
  228SOL    HW1 1583   3.544   6.225   3.873
  228SOL    HW2 1584   3.394   6.285   3.852
  229SOL     OW 1585   5.079   5.996   0.600
  229SOL    HW1 1586   5.029   6.010   0.685
  229SOL    HW2 1587   5.041   6.055   0.529
  230SOL     OW 1588   2.626   4.681   2.339
  230SOL    HW1 1589   2.563   4.635   2.402
  230SOL    HW2 1590   2.698   4.726   2.392
  231SOL     OW 1591   6.452   1.739   6.872
  231SOL    HW1 1592   6.478   1.708   6.964
  231SOL    HW2 1593   6.354   1.726   6.859
  232SOL     OW 1594   1.179   4.142   6.151
  232SOL    HW1 1595   1.098   4.107   6.106
  232SOL    HW2 1596   1.199   4.234   6.117
  233SOL     OW 1597   2.295   1.457   4.325
  233SOL    HW1 1598   2.255   1.472   4.415
  233SOL    HW2 1599   2.233   1.401   4.269
  234SOL     OW 1600   4.199   5.986   5.273
  234SOL    HW1 1601   4.269   6.037   5.223
  234SOL    HW2 1602   4.141   6.051   5.324
  235SOL     OW 1603   3.021   3.016   1.534
  235SOL    HW1 1604   3.052   3.075   1.459
  235SOL    HW2 1605   3.069   2.929   1.529
  236SOL     OW 1606   5.774   2.457   6.310
  236SOL    HW1 1607   5.689   2.506   6.292
  236SOL    HW2 1608   5.834   2.514   6.365
  237SOL     OW 1609   6.251   6.007   1.967
  237SOL    HW1 1610   6.164   6.017   2.015
  237SOL    HW2 1611   6.234   5.972   1.874
  238SOL     OW 1612   6.048   1.955   0.337
  238SOL    HW1 1613   5.961   2.004   0.342
  238SOL    HW2 1614   6.069   1.935   0.242
  239SOL     OW 1615   0.316   5.701   6.178
  239SOL    HW1 1616   0.330   5.603   6.163
  239SOL    HW2 1617   0.399   5.740   6.218
  240SOL     OW 1618   0.318   2.489   5.547
  240SOL    HW1 1619   0.346   2.396   5.569
  240SOL    HW2 1620   0.219   2.499   5.560
  241SOL     OW 1621   1.430   6.648   5.015
  241SOL    HW1 1622   1.360   6.711   5.050
  241SOL    HW2 1623   1.399   6.607   4.929
  242SOL     OW 1624   3.044   3.018   5.772
  242SOL    HW1 1625   3.010   2.985   5.859
  242SOL    HW2 1626   2.973   3.009   5.702
  243SOL     OW 1627   4.651   0.735   5.911
  243SOL    HW1 1628   4.673   0.832   5.903
  243SOL    HW2 1629   4.613   0.717   6.002
  244SOL     OW 1630   4.885   2.649   4.664
  244SOL    HW1 1631   4.838   2.736   4.672
  244SOL    HW2 1632   4.825   2.582   4.621
  245SOL     OW 1633   0.244   3.096   5.279
  245SOL    HW1 1634   0.339   3.112   5.254
  245SOL    HW2 1635   0.186   3.107   5.199
  246SOL     OW 1636   5.171   2.227   2.306
  246SOL    HW1 1637   5.117   2.225   2.389
  246SOL    HW2 1638   5.248   2.290   2.318
  247SOL     OW 1639   3.038   1.210   2.262
  247SOL    HW1 1640   2.981   1.193   2.181
  247SOL    HW2 1641   3.133   1.185   2.242
  248SOL     OW 1642   4.128   1.748   3.784
  248SOL    HW1 1643   4.098   1.665   3.832
  248SOL    HW2 1644   4.055   1.816   3.788
  249SOL     OW 1645   4.549   0.206   6.004
  249SOL    HW1 1646   4.545   0.223   5.906
  249SOL    HW2 1647   4.460   0.171   6.036
  250SOL     OW 1648   5.371   2.200   0.431
  250SOL    HW1 1649   5.289   2.214   0.375
  250SOL    HW2 1650   5.346   2.152   0.515
  251SOL     OW 1651   4.597   4.008   6.467
  251SOL    HW1 1652   4.626   3.915   6.445
  251SOL    HW2 1653   4.497   4.009   6.478
  252SOL     OW 1654   5.773   0.463   6.945
  252SOL    HW1 1655   5.844   0.530   6.924
  252SOL    HW2 1656   5.746   0.471   0.023
  253SOL     OW 1657   2.025   4.590   6.776
  253SOL    HW1 1658   1.935   4.565   6.810
  253SOL    HW2 1659   2.020   4.679   6.731
  254SOL     OW 1660   5.268   3.458   3.384
  254SOL    HW1 1661   5.243   3.438   3.479
  254SOL    HW2 1662   5.338   3.393   3.354
  255SOL     OW 1663   1.422   3.282   4.404
  255SOL    HW1 1664   1.499   3.327   4.449
  255SOL    HW2 1665   1.420   3.186   4.431
  256SOL     OW 1666   5.935   4.687   6.497
  256SOL    HW1 1667   5.909   4.737   6.579
  256SOL    HW2 1668   5.865   4.701   6.426
  257SOL     OW 1669   4.392   6.342   4.446
  257SOL    HW1 1670   4.456   6.315   4.518
  257SOL    HW2 1671   4.434   6.328   4.357
  258SOL     OW 1672   5.852   4.913   4.767
  258SOL    HW1 1673   5.779   4.863   4.720
  258SOL    HW2 1674   5.936   4.909   4.712
  259SOL     OW 1675   1.863   2.814   2.134
  259SOL    HW1 1676   1.903   2.774   2.051
  259SOL    HW2 1677   1.852   2.912   2.120
  260SOL     OW 1678   4.144   1.059   0.913
  260SOL    HW1 1679   4.107   1.081   1.003
  260SOL    HW2 1680   4.084   1.098   0.842
  261SOL     OW 1681   0.024   3.665   1.350
  261SOL    HW1 1682   6.987   3.617   1.282
  261SOL    HW2 1683   6.985   3.732   1.398
  262SOL     OW 1684   0.393   3.921   1.235
  262SOL    HW1 1685   0.343   3.997   1.278
  262SOL    HW2 1686   0.474   3.900   1.289
  263SOL     OW 1687   1.000   1.629   3.540
  263SOL    HW1 1688   0.970   1.665   3.628
  263SOL    HW2 1689   0.953   1.542   3.522
  264SOL     OW 1690   4.788   4.068   5.748
  264SOL    HW1 1691   4.880   4.050   5.714
  264SOL    HW2 1692   4.723   4.067   5.671
  265SOL     OW 1693   4.381   4.505   3.537
  265SOL    HW1 1694   4.426   4.512   3.626
  265SOL    HW2 1695   4.333   4.417   3.531
  266SOL     OW 1696   3.674   3.790   5.713
  266SOL    HW1 1697   3.635   3.738   5.789
  266SOL    HW2 1698   3.739   3.857   5.748
  267SOL     OW 1699   6.067   2.451   5.826
  267SOL    HW1 1700   6.153   2.404   5.811
  267SOL    HW2 1701   6.016   2.405   5.899
  268SOL     OW 1702   4.490   6.704   5.317
  268SOL    HW1 1703   4.568   6.685   5.377
  268SOL    HW2 1704   4.512   6.678   5.224
  269SOL     OW 1705   1.756   3.081   0.773
  269SOL    HW1 1706   1.764   3.178   0.753
  269SOL    HW2 1707   1.750   3.067   0.872
  270SOL     OW 1708   6.534   6.865   1.945
  270SOL    HW1 1709   6.543   6.780   1.891
  270SOL    HW2 1710   6.509   6.940   1.884
  271SOL     OW 1711   2.411   2.617   0.628
  271SOL    HW1 1712   2.362   2.545   0.678
  271SOL    HW2 1713   2.417   2.592   0.531
  272SOL     OW 1714   3.228   5.311   3.982
  272SOL    HW1 1715   3.267   5.266   4.063
  272SOL    HW2 1716   3.228   5.247   3.905
  273SOL     OW 1717   1.997   5.046   5.167
  273SOL    HW1 1718   2.075   5.005   5.216
  273SOL    HW2 1719   1.981   5.138   5.203
  274SOL     OW 1720   4.681   2.413   3.929
  274SOL    HW1 1721   4.585   2.414   3.959
  274SOL    HW2 1722   4.727   2.334   3.969
  275SOL     OW 1723   6.129   5.756   6.522
  275SOL    HW1 1724   6.203   5.742   6.587
  275SOL    HW2 1725   6.094   5.849   6.530
  276SOL     OW 1726   0.474   5.356   3.438
  276SOL    HW1 1727   0.569   5.379   3.460
  276SOL    HW2 1728   0.414   5.386   3.513
  277SOL     OW 1729   2.306   3.125   0.720
  277SOL    HW1 1730   2.397   3.096   0.690
  277SOL    HW2 1731   2.314   3.210   0.772
  278SOL     OW 1732   0.020   4.695   1.678
  278SOL    HW1 1733   0.017   4.673   1.776
  278SOL    HW2 1734   0.112   4.728   1.654
  279SOL     OW 1735   0.049   2.545   4.167
  279SOL    HW1 1736   0.057   2.502   4.077
  279SOL    HW2 1737   0.032   2.475   4.236
  280SOL     OW 1738   2.972   6.989   3.035
  280SOL    HW1 1739   3.004   6.898   3.009
  280SOL    HW2 1740   2.883   7.006   2.993
  281SOL     OW 1741   3.547   5.044   2.184
  281SOL    HW1 1742   3.458   5.026   2.225
  281SOL    HW2 1743   3.542   5.025   2.086
  282SOL     OW 1744   3.929   2.050   5.191
  282SOL    HW1 1745   3.971   1.990   5.260
  282SOL    HW2 1746   3.937   2.145   5.220
  283SOL     OW 1747   6.741   1.051   6.015
  283SOL    HW1 1748   6.736   0.966   5.963
  283SOL    HW2 1749   6.837   1.071   6.038
  284SOL     OW 1750   0.309   4.501   5.176
  284SOL    HW1 1751   0.252   4.497   5.094
  284SOL    HW2 1752   0.343   4.594   5.189
  285SOL     OW 1753   5.531   5.656   6.493
  285SOL    HW1 1754   5.624   5.638   6.526
  285SOL    HW2 1755   5.493   5.573   6.453
  286SOL     OW 1756   3.438   4.969   4.695
  286SOL    HW1 1757   3.535   4.962   4.717
  286SOL    HW2 1758   3.384   4.943   4.775
  287SOL     OW 1759   0.597   4.886   6.532
  287SOL    HW1 1760   0.661   4.958   6.559
  287SOL    HW2 1761   0.646   4.816   6.481
  288SOL     OW 1762   4.071   2.243   0.260
  288SOL    HW1 1763   3.974   2.265   0.254
  288SOL    HW2 1764   4.082   2.147   0.287
  289SOL     OW 1765   0.147   5.471   4.862
  289SOL    HW1 1766   0.134   5.379   4.900
  289SOL    HW2 1767   0.070   5.493   4.802
  290SOL     OW 1768   4.986   1.934   3.906
  290SOL    HW1 1769   4.948   1.988   3.832
  290SOL    HW2 1770   4.912   1.885   3.953
  291SOL     OW 1771   3.494   0.602   4.526
  291SOL    HW1 1772   3.509   0.591   4.625
  291SOL    HW2 1773   3.461   0.516   4.487
  292SOL     OW 1774   4.240   2.105   3.009
  292SOL    HW1 1775   4.175   2.171   3.046
  292SOL    HW2 1776   4.200   2.014   3.012
  293SOL     OW 1777   4.340   5.459   2.044
  293SOL    HW1 1778   4.430   5.458   2.000
  293SOL    HW2 1779   4.352   5.451   2.143
  294SOL     OW 1780   6.841   5.216   6.759
  294SOL    HW1 1781   6.860   5.218   6.661
  294SOL    HW2 1782   6.818   5.123   6.786
  295SOL     OW 1783   3.332   1.335   4.793
  295SOL    HW1 1784   3.315   1.408   4.726
  295SOL    HW2 1785   3.247   1.284   4.808
  296SOL     OW 1786   6.224   1.633   2.042
  296SOL    HW1 1787   6.195   1.695   2.114
  296SOL    HW2 1788   6.289   1.680   1.982
  297SOL     OW 1789   2.991   4.851   2.436
  297SOL    HW1 1790   2.913   4.829   2.494
  297SOL    HW2 1791   2.960   4.861   2.341
  298SOL     OW 1792   3.601   6.595   0.688
  298SOL    HW1 1793   3.619   6.660   0.615
  298SOL    HW2 1794   3.658   6.513   0.675
  299SOL     OW 1795   4.717   2.182   0.077
  299SOL    HW1 1796   4.810   2.158   0.049
  299SOL    HW2 1797   4.711   2.182   0.176
  300SOL     OW 1798   4.920   1.020   1.684
  300SOL    HW1 1799   4.952   1.038   1.591
  300SOL    HW2 1800   4.863   1.096   1.716
  301SOL     OW 1801   5.152   2.660   1.085
  301SOL    HW1 1802   5.207   2.609   1.151
  301SOL    HW2 1803   5.116   2.742   1.129
  302SOL     OW 1804   6.928   0.693   3.676
  302SOL    HW1 1805   0.003   0.689   3.639
  302SOL    HW2 1806   6.899   0.788   3.683
  303SOL     OW 1807   6.615   6.924   2.451
  303SOL    HW1 1808   6.551   6.855   2.420
  303SOL    HW2 1809   6.586   6.961   2.539
  304SOL     OW 1810   2.027   6.247   5.683
  304SOL    HW1 1811   2.034   6.342   5.716
  304SOL    HW2 1812   2.073   6.239   5.594
  305SOL     OW 1813   1.434   2.286   0.544
  305SOL    HW1 1814   1.475   2.196   0.559
  305SOL    HW2 1815   1.364   2.303   0.614
  306SOL     OW 1816   1.492   1.142   3.164
  306SOL    HW1 1817   1.431   1.176   3.093
  306SOL    HW2 1818   1.586   1.140   3.129
  307SOL     OW 1819   4.741   5.037   0.590
  307SOL    HW1 1820   4.757   5.074   0.498
  307SOL    HW2 1821   4.673   5.092   0.637
  308SOL     OW 1822   5.927   3.192   4.655
  308SOL    HW1 1823   5.885   3.117   4.706
  308SOL    HW2 1824   5.950   3.162   4.563
  309SOL     OW 1825   1.948   5.934   0.337
  309SOL    HW1 1826   1.859   5.926   0.382
  309SOL    HW2 1827   2.006   5.998   0.389
  310SOL     OW 1828   5.157   6.214   5.702
  310SOL    HW1 1829   5.099   6.136   5.727
  310SOL    HW2 1830   5.251   6.197   5.734
  311SOL     OW 1831   3.600   5.209   3.140
  311SOL    HW1 1832   3.696   5.196   3.113
  311SOL    HW2 1833   3.546   5.132   3.108
  312SOL     OW 1834   4.570   1.144   4.074
  312SOL    HW1 1835   4.478   1.175   4.052
  312SOL    HW2 1836   4.574   1.119   4.171
  313SOL     OW 1837   3.386   2.976   2.246
  313SOL    HW1 1838   3.382   2.981   2.345
  313SOL    HW2 1839   3.294   2.960   2.210
  314SOL     OW 1840   2.723   4.460   0.256
  314SOL    HW1 1841   2.801   4.512   0.221
  314SOL    HW2 1842   2.665   4.432   0.180
  315SOL     OW 1843   1.276   2.989   3.865
  315SOL    HW1 1844   1.349   2.998   3.934
  315SOL    HW2 1845   1.283   2.899   3.821
  316SOL     OW 1846   2.617   1.178   4.692
  316SOL    HW1 1847   2.529   1.133   4.706
  316SOL    HW2 1848   2.610   1.242   4.615
  317SOL     OW 1849   0.177   1.749   1.340
  317SOL    HW1 1850   0.148   1.845   1.341
  317SOL    HW2 1851   0.135   1.703   1.261
  318SOL     OW 1852   0.215   5.680   6.739
  318SOL    HW1 1853   0.118   5.675   6.714
  318SOL    HW2 1854   0.259   5.592   6.723
  319SOL     OW 1855   6.445   1.411   3.715
  319SOL    HW1 1856   6.514   1.364   3.661
  319SOL    HW2 1857   6.423   1.499   3.673
  320SOL     OW 1858   6.075   2.789   0.845
  320SOL    HW1 1859   6.114   2.727   0.776
  320SOL    HW2 1860   6.087   2.883   0.815
  321SOL     OW 1861   3.214   1.292   6.841
  321SOL    HW1 1862   3.233   1.308   6.744
  321SOL    HW2 1863   3.117   1.270   6.853
  322SOL     OW 1864   2.909   3.554   3.611
  322SOL    HW1 1865   2.835   3.600   3.660
  322SOL    HW2 1866   2.974   3.516   3.677
  323SOL     OW 1867   1.578   3.224   5.945
  323SOL    HW1 1868   1.489   3.229   5.899
  323SOL    HW2 1869   1.608   3.129   5.949
  324SOL     OW 1870   2.980   0.877   3.628
  324SOL    HW1 1871   2.883   0.894   3.610
  324SOL    HW2 1872   3.036   0.941   3.575
  325SOL     OW 1873   0.385   2.565   2.221
  325SOL    HW1 1874   0.328   2.483   2.226
  325SOL    HW2 1875   0.360   2.627   2.294
  326SOL     OW 1876   1.104   5.320   6.850
  326SOL    HW1 1877   1.203   5.309   6.840
  326SOL    HW2 1878   1.061   5.230   6.845
  327SOL     OW 1879   1.414   4.500   1.943
  327SOL    HW1 1880   1.395   4.412   1.899
  327SOL    HW2 1881   1.331   4.556   1.944
  328SOL     OW 1882   1.303   6.001   1.732
  328SOL    HW1 1883   1.245   6.001   1.813
  328SOL    HW2 1884   1.298   6.090   1.687
  329SOL     OW 1885   3.132   3.016   4.274
  329SOL    HW1 1886   3.040   2.978   4.268
  329SOL    HW2 1887   3.182   2.971   4.348
  330SOL     OW 1888   3.558   5.945   1.559
  330SOL    HW1 1889   3.551   5.916   1.654
  330SOL    HW2 1890   3.647   5.919   1.523
  331SOL     OW 1891   3.919   5.637   0.577
  331SOL    HW1 1892   3.924   5.540   0.602
  331SOL    HW2 1893   3.983   5.690   0.633
  332SOL     OW 1894   4.804   2.164   5.347
  332SOL    HW1 1895   4.854   2.159   5.260
  332SOL    HW2 1896   4.863   2.206   5.416
  333SOL     OW 1897   3.873   0.480   6.128
  333SOL    HW1 1898   3.925   0.396   6.148
  333SOL    HW2 1899   3.836   0.517   6.212
  334SOL     OW 1900   3.191   1.241   1.001
  334SOL    HW1 1901   3.135   1.324   1.008
  334SOL    HW2 1902   3.131   1.161   1.001
  335SOL     OW 1903   4.400   6.444   5.874
  335SOL    HW1 1904   4.411   6.446   5.973
  335SOL    HW2 1905   4.395   6.537   5.839
  336SOL     OW 1906   3.012   1.263   3.644
  336SOL    HW1 1907   3.006   1.169   3.677
  336SOL    HW2 1908   3.078   1.267   3.569
  337SOL     OW 1909   0.438   2.940   6.319
  337SOL    HW1 1910   0.347   2.954   6.358
  337SOL    HW2 1911   0.431   2.877   6.241
  338SOL     OW 1912   2.931   2.522   1.457
  338SOL    HW1 1913   2.970   2.606   1.419
  338SOL    HW2 1914   2.992   2.445   1.439
  339SOL     OW 1915   4.396   5.830   4.517
  339SOL    HW1 1916   4.332   5.834   4.440
  339SOL    HW2 1917   4.391   5.916   4.569
  340SOL     OW 1918   4.593   4.399   5.000
  340SOL    HW1 1919   4.497   4.403   5.028
  340SOL    HW2 1920   4.615   4.482   4.948
  341SOL     OW 1921   6.364   6.896   4.595
  341SOL    HW1 1922   6.276   6.863   4.562
  341SOL    HW2 1923   6.424   6.915   4.516
  342SOL     OW 1924   6.461   3.331   0.324
  342SOL    HW1 1925   6.477   3.343   0.422
  342SOL    HW2 1926   6.387   3.391   0.294
  343SOL     OW 1927   1.741   5.906   1.266
  343SOL    HW1 1928   1.658   5.877   1.313
  343SOL    HW2 1929   1.815   5.843   1.287
  344SOL     OW 1930   1.273   3.678   1.962
  344SOL    HW1 1931   1.335   3.600   1.958
  344SOL    HW2 1932   1.216   3.679   1.880
  345SOL     OW 1933   4.463   1.913   3.236
  345SOL    HW1 1934   4.470   1.949   3.143
  345SOL    HW2 1935   4.386   1.850   3.242
  346SOL     OW 1936   2.156   1.142   3.059
  346SOL    HW1 1937   2.135   1.238   3.076
  346SOL    HW2 1938   2.086   1.103   2.999
  347SOL     OW 1939   2.800   5.724   6.431
  347SOL    HW1 1940   2.818   5.822   6.425
  347SOL    HW2 1941   2.875   5.679   6.479
  348SOL     OW 1942   5.026   4.211   2.241
  348SOL    HW1 1943   5.036   4.262   2.326
  348SOL    HW2 1944   4.937   4.230   2.200
  349SOL     OW 1945   6.474   5.529   1.048
  349SOL    HW1 1946   6.571   5.547   1.034
  349SOL    HW2 1947   6.461   5.433   1.075
  350SOL     OW 1948   3.283   3.212   0.566
  350SOL    HW1 1949   3.293   3.165   0.478
  350SOL    HW2 1950   3.247   3.149   0.634
  351SOL     OW 1951   2.013   3.758   1.205
  351SOL    HW1 1952   1.996   3.816   1.285
  351SOL    HW2 1953   1.990   3.663   1.227
  352SOL     OW 1954   3.018   0.123   4.589
  352SOL    HW1 1955   2.941   0.103   4.649
  352SOL    HW2 1956   2.984   0.138   4.496
  353SOL     OW 1957   2.277   0.206   0.979
  353SOL    HW1 1958   2.260   0.235   0.885
  353SOL    HW2 1959   2.238   0.116   0.994
  354SOL     OW 1960   3.824   2.595   0.964
  354SOL    HW1 1961   3.847   2.629   0.873
  354SOL    HW2 1962   3.727   2.609   0.982
  355SOL     OW 1963   1.407   3.502   2.277
  355SOL    HW1 1964   1.382   3.409   2.303
  355SOL    HW2 1965   1.426   3.555   2.359
  356SOL     OW 1966   2.819   6.890   5.944
  356SOL    HW1 1967   2.802   6.853   6.036
  356SOL    HW2 1968   2.735   6.931   5.909
  357SOL     OW 1969   6.781   5.568   5.787
  357SOL    HW1 1970   6.764   5.474   5.759
  357SOL    HW2 1971   6.703   5.625   5.760
  358SOL     OW 1972   4.383   6.435   0.623
  358SOL    HW1 1973   4.449   6.375   0.670
  358SOL    HW2 1974   4.423   6.466   0.537
  359SOL     OW 1975   2.548   2.238   1.780
  359SOL    HW1 1976   2.518   2.215   1.873
  359SOL    HW2 1977   2.643   2.267   1.781
  360SOL     OW 1978   1.166   4.719   6.343
  360SOL    HW1 1979   1.261   4.736   6.370
  360SOL    HW2 1980   1.165   4.659   6.263
  361SOL     OW 1981   6.029   6.702   2.957
  361SOL    HW1 1982   6.058   6.795   2.937
  361SOL    HW2 1983   6.099   6.655   3.009
  362SOL     OW 1984   3.413   3.166   0.949
  362SOL    HW1 1985   3.456   3.138   1.035
  362SOL    HW2 1986   3.382   3.261   0.956
  363SOL     OW 1987   5.085   3.778   3.515
  363SOL    HW1 1988   5.126   3.731   3.593
  363SOL    HW2 1989   5.141   3.762   3.433
  364SOL     OW 1990   6.473   4.974   6.854
  364SOL    HW1 1991   6.438   4.883   6.874
  364SOL    HW2 1992   6.567   4.982   6.887
  365SOL     OW 1993   6.119   5.701   1.586
  365SOL    HW1 1994   6.192   5.752   1.631
  365SOL    HW2 1995   6.033   5.750   1.597
  366SOL     OW 1996   5.579   0.790   6.199
  366SOL    HW1 1997   5.507   0.858   6.182
  366SOL    HW2 1998   5.618   0.761   6.112
  367SOL     OW 1999   5.536   3.395   1.435
  367SOL    HW1 2000   5.442   3.394   1.402
  367SOL    HW2 2001   5.599   3.381   1.358
  368SOL     OW 2002   0.183   2.877   5.058
  368SOL    HW1 2003   0.163   2.807   5.127
  368SOL    HW2 2004   0.108   2.879   4.991
  369SOL     OW 2005   6.248   5.222   2.401
  369SOL    HW1 2006   6.158   5.184   2.381
  369SOL    HW2 2007   6.256   5.312   2.357
  370SOL     OW 2008   2.215   1.141   5.255
  370SOL    HW1 2009   2.151   1.113   5.183
  370SOL    HW2 2010   2.209   1.078   5.332
  371SOL     OW 2011   2.315   3.929   6.033
  371SOL    HW1 2012   2.325   4.028   6.031
  371SOL    HW2 2013   2.309   3.894   5.940
  372SOL     OW 2014   1.208   0.131   6.092
  372SOL    HW1 2015   1.286   0.193   6.099
  372SOL    HW2 2016   1.213   0.082   6.005
  373SOL     OW 2017   6.126   6.465   4.295
  373SOL    HW1 2018   6.055   6.489   4.360
  373SOL    HW2 2019   6.128   6.366   4.282
  374SOL     OW 2020   3.051   1.889   4.020
  374SOL    HW1 2021   3.102   1.967   4.055
  374SOL    HW2 2022   3.105   1.844   3.948
  375SOL     OW 2023   0.966   4.404   4.451
  375SOL    HW1 2024   1.046   4.440   4.404
  375SOL    HW2 2025   0.957   4.449   4.540
  376SOL     OW 2026   2.709   1.336   5.165
  376SOL    HW1 2027   2.693   1.404   5.094
  376SOL    HW2 2028   2.634   1.269   5.165
  377SOL     OW 2029   1.363   2.026   0.935
  377SOL    HW1 2030   1.270   2.050   0.909
  377SOL    HW2 2031   1.365   1.999   1.032
  378SOL     OW 2032   4.860   2.623   6.537
  378SOL    HW1 2033   4.903   2.631   6.627
  378SOL    HW2 2034   4.777   2.678   6.534
  379SOL     OW 2035   6.269   3.208   0.951
  379SOL    HW1 2036   6.317   3.229   1.036
  379SOL    HW2 2037   6.304   3.122   0.913
  380SOL     OW 2038   2.209   1.164   0.506
  380SOL    HW1 2039   2.273   1.142   0.432
  380SOL    HW2 2040   2.116   1.158   0.472
  381SOL     OW 2041   1.320   4.009   2.642
  381SOL    HW1 2042   1.415   4.031   2.620
  381SOL    HW2 2043   1.272   3.983   2.558
  382SOL     OW 2044   5.683   0.246   6.798
  382SOL    HW1 2045   5.590   0.247   6.834
  382SOL    HW2 2046   5.731   0.329   6.826
  383SOL     OW 2047   4.003   3.909   6.211
  383SOL    HW1 2048   3.972   3.923   6.305
  383SOL    HW2 2049   3.929   3.870   6.156
  384SOL     OW 2050   6.699   5.691   3.947
  384SOL    HW1 2051   6.795   5.679   3.922
  384SOL    HW2 2052   6.685   5.662   4.041
  385SOL     OW 2053   3.615   4.861   5.576
  385SOL    HW1 2054   3.635   4.874   5.479
  385SOL    HW2 2055   3.651   4.774   5.607
  386SOL     OW 2056   1.953   6.954   5.268
  386SOL    HW1 2057   1.891   6.995   5.335
  386SOL    HW2 2058   1.916   6.867   5.238
  387SOL     OW 2059   1.185   6.766   2.972
  387SOL    HW1 2060   1.173   6.761   2.873
  387SOL    HW2 2061   1.183   6.862   3.000
  388SOL     OW 2062   1.245   1.538   4.882
  388SOL    HW1 2063   1.251   1.529   4.981
  388SOL    HW2 2064   1.335   1.557   4.844
  389SOL     OW 2065   4.060   4.189   1.295
  389SOL    HW1 2066   4.067   4.266   1.358
  389SOL    HW2 2067   4.148   4.174   1.250
  390SOL     OW 2068   3.349   1.337   0.311
  390SOL    HW1 2069   3.420   1.289   0.261
  390SOL    HW2 2070   3.375   1.434   0.321
  391SOL     OW 2071   2.059   3.039   6.279
  391SOL    HW1 2072   2.123   3.086   6.218
  391SOL    HW2 2073   2.083   2.942   6.285
  392SOL     OW 2074   1.296   4.472   0.813
  392SOL    HW1 2075   1.350   4.524   0.879
  392SOL    HW2 2076   1.235   4.534   0.763
  393SOL     OW 2077   1.654   4.558   6.518
  393SOL    HW1 2078   1.702   4.544   6.432
  393SOL    HW2 2079   1.640   4.470   6.564
  394SOL     OW 2080   6.910   2.303   0.833
  394SOL    HW1 2081   6.840   2.354   0.884
  394SOL    HW2 2082   6.888   2.306   0.736
  395SOL     OW 2083   5.312   4.180   3.285
  395SOL    HW1 2084   5.355   4.210   3.369
  395SOL    HW2 2085   5.376   4.124   3.232
  396SOL     OW 2086   2.854   3.488   2.087
  396SOL    HW1 2087   2.859   3.442   2.176
  396SOL    HW2 2088   2.774   3.547   2.084
  397SOL     OW 2089   5.861   1.830   5.651
  397SOL    HW1 2090   5.937   1.823   5.716
  397SOL    HW2 2091   5.886   1.780   5.567
  398SOL     OW 2092   1.357   0.360   2.821
  398SOL    HW1 2093   1.366   0.416   2.738
  398SOL    HW2 2094   1.275   0.303   2.813
  399SOL     OW 2095   5.263   6.283   2.495
  399SOL    HW1 2096   5.352   6.281   2.448
  399SOL    HW2 2097   5.276   6.312   2.590
  400SOL     OW 2098   6.717   6.400   5.596
  400SOL    HW1 2099   6.686   6.381   5.689
  400SOL    HW2 2100   6.776   6.480   5.595
  401SOL     OW 2101   5.896   0.247   6.391
  401SOL    HW1 2102   5.829   0.319   6.370
  401SOL    HW2 2103   5.956   0.278   6.465
  402SOL     OW 2104   6.282   0.066   3.859
  402SOL    HW1 2105   6.184   0.045   3.871
  402SOL    HW2 2106   6.336   7.009   3.896
  403SOL     OW 2107   4.001   1.235   4.622
  403SOL    HW1 2108   4.041   1.189   4.701
  403SOL    HW2 2109   3.911   1.272   4.647
  404SOL     OW 2110   1.634   5.332   3.945
  404SOL    HW1 2111   1.712   5.384   3.911
  404SOL    HW2 2112   1.664   5.268   4.016
  405SOL     OW 2113   2.152   2.963   2.503
  405SOL    HW1 2114   2.147   3.061   2.521
  405SOL    HW2 2115   2.169   2.947   2.406
  406SOL     OW 2116   0.973   4.887   5.055
  406SOL    HW1 2117   0.944   4.879   5.150
  406SOL    HW2 2118   0.903   4.935   5.002
  407SOL     OW 2119   0.162   1.142   4.854
  407SOL    HW1 2120   0.154   1.236   4.886
  407SOL    HW2 2121   0.195   1.141   4.760
  408SOL     OW 2122   2.084   2.057   3.095
  408SOL    HW1 2123   2.056   2.045   3.000
  408SOL    HW2 2124   2.175   2.097   3.098
  409SOL     OW 2125   6.564   3.384   2.512
  409SOL    HW1 2126   6.580   3.323   2.590
  409SOL    HW2 2127   6.548   3.330   2.430
  410SOL     OW 2128   1.439   1.375   1.152
  410SOL    HW1 2129   1.437   1.308   1.227
  410SOL    HW2 2130   1.349   1.376   1.107
  411SOL     OW 2131   6.591   0.591   1.754
  411SOL    HW1 2132   6.561   0.684   1.733
  411SOL    HW2 2133   6.531   0.525   1.708
  412SOL     OW 2134   3.055   6.002   3.165
  412SOL    HW1 2135   2.994   5.973   3.239
  412SOL    HW2 2136   3.135   6.047   3.205
  413SOL     OW 2137   5.682   3.907   2.078
  413SOL    HW1 2138   5.736   3.957   2.145
  413SOL    HW2 2139   5.672   3.963   1.995
  414SOL     OW 2140   3.277   5.175   3.358
  414SOL    HW1 2141   3.309   5.253   3.305
  414SOL    HW2 2142   3.224   5.207   3.437
  415SOL     OW 2143   0.992   6.380   6.501
  415SOL    HW1 2144   0.953   6.323   6.429
  415SOL    HW2 2145   0.928   6.384   6.578
  416SOL     OW 2146   4.804   6.174   4.695
  416SOL    HW1 2147   4.816   6.274   4.692
  416SOL    HW2 2148   4.717   6.150   4.652
  417SOL     OW 2149   2.091   5.981   5.791
  417SOL    HW1 2150   2.092   6.081   5.793
  417SOL    HW2 2151   2.184   5.946   5.804
  418SOL     OW 2152   4.021   6.639   6.522
  418SOL    HW1 2153   3.938   6.655   6.576
  418SOL    HW2 2154   4.101   6.649   6.581
  419SOL     OW 2155   1.940   6.156   1.559
  419SOL    HW1 2156   1.841   6.150   1.572
  419SOL    HW2 2157   1.960   6.181   1.464
  420SOL     OW 2158   6.162   1.536   0.625
  420SOL    HW1 2159   6.258   1.515   0.604
  420SOL    HW2 2160   6.151   1.635   0.633
  421SOL     OW 2161   0.042   3.813   5.006
  421SOL    HW1 2162   7.013   3.816   5.094
  421SOL    HW2 2163   7.009   3.867   4.939
  422SOL     OW 2164   5.338   3.809   1.414
  422SOL    HW1 2165   5.273   3.873   1.454
  422SOL    HW2 2166   5.431   3.846   1.423
  423SOL     OW 2167   0.721   2.593   6.052
  423SOL    HW1 2168   0.765   2.590   6.142
  423SOL    HW2 2169   0.776   2.648   5.989
  424SOL     OW 2170   1.457   5.384   0.976
  424SOL    HW1 2171   1.409   5.433   1.048
  424SOL    HW2 2172   1.467   5.443   0.896
  425SOL     OW 2173   4.698   1.999   3.386
  425SOL    HW1 2174   4.772   1.937   3.410
  425SOL    HW2 2175   4.621   1.947   3.349
  426SOL     OW 2176   3.062   1.685   4.463
  426SOL    HW1 2177   2.978   1.718   4.506
  426SOL    HW2 2178   3.121   1.762   4.441
  427SOL     OW 2179   5.516   6.597   3.838
  427SOL    HW1 2180   5.595   6.586   3.778
  427SOL    HW2 2181   5.530   6.544   3.921
  428SOL     OW 2182   4.439   6.785   3.440
  428SOL    HW1 2183   4.380   6.705   3.451
  428SOL    HW2 2184   4.386   6.861   3.403
  429SOL     OW 2185   0.870   5.360   2.578
  429SOL    HW1 2186   0.846   5.270   2.615
  429SOL    HW2 2187   0.969   5.374   2.584
  430SOL     OW 2188   1.258   6.910   4.383
  430SOL    HW1 2189   1.289   7.004   4.400
  430SOL    HW2 2190   1.258   6.892   4.285
  431SOL     OW 2191   2.854   0.865   1.217
  431SOL    HW1 2192   2.893   0.939   1.272
  431SOL    HW2 2193   2.927   0.824   1.161
  432SOL     OW 2194   6.394   2.555   1.193
  432SOL    HW1 2195   6.367   2.651   1.199
  432SOL    HW2 2196   6.493   2.548   1.183
  433SOL     OW 2197   1.946   6.619   4.859
  433SOL    HW1 2198   1.992   6.648   4.942
  433SOL    HW2 2199   2.014   6.584   4.794
  434SOL     OW 2200   3.853   5.229   3.658
  434SOL    HW1 2201   3.829   5.326   3.657
  434SOL    HW2 2202   3.896   5.206   3.745
  435SOL     OW 2203   4.724   2.351   6.780
  435SOL    HW1 2204   4.749   2.376   6.687
  435SOL    HW2 2205   4.628   2.324   6.783
  436SOL     OW 2206   3.118   5.113   1.530
  436SOL    HW1 2207   3.057   5.151   1.600
  436SOL    HW2 2208   3.070   5.107   1.443
  437SOL     OW 2209   0.805   1.430   6.437
  437SOL    HW1 2210   0.844   1.463   6.523
  437SOL    HW2 2211   0.857   1.350   6.406
  438SOL     OW 2212   1.842   3.812   3.938
  438SOL    HW1 2213   1.844   3.741   3.867
  438SOL    HW2 2214   1.747   3.831   3.963
  439SOL     OW 2215   6.171   5.854   2.325
  439SOL    HW1 2216   6.223   5.807   2.254
  439SOL    HW2 2217   6.156   5.793   2.402
  440SOL     OW 2218   2.672   2.140   5.242
  440SOL    HW1 2219   2.723   2.135   5.156
  440SOL    HW2 2220   2.609   2.217   5.238
  441SOL     OW 2221   0.345   3.315   3.885
  441SOL    HW1 2222   0.256   3.270   3.885
  441SOL    HW2 2223   0.403   3.275   3.814
  442SOL     OW 2224   3.990   5.796   5.516
  442SOL    HW1 2225   3.955   5.730   5.583
  442SOL    HW2 2226   4.068   5.845   5.555
  443SOL     OW 2227   5.808   4.429   4.153
  443SOL    HW1 2228   5.885   4.388   4.202
  443SOL    HW2 2229   5.722   4.401   4.197
  444SOL     OW 2230   4.935   1.079   6.181
  444SOL    HW1 2231   4.982   1.008   6.128
  444SOL    HW2 2232   4.902   1.039   6.267
  445SOL     OW 2233   1.558   5.825   2.800
  445SOL    HW1 2234   1.535   5.728   2.788
  445SOL    HW2 2235   1.556   5.871   2.711
  446SOL     OW 2236   3.765   4.887   3.067
  446SOL    HW1 2237   3.735   4.854   2.978
  446SOL    HW2 2238   3.847   4.837   3.095
  447SOL     OW 2239   0.082   3.072   5.890
  447SOL    HW1 2240   0.071   3.157   5.839
  447SOL    HW2 2241   0.052   2.995   5.833
  448SOL     OW 2242   2.299   0.422   2.785
  448SOL    HW1 2243   2.384   0.401   2.834
  448SOL    HW2 2244   2.319   0.437   2.689
  449SOL     OW 2245   2.527   1.277   4.012
  449SOL    HW1 2246   2.529   1.213   3.935
  449SOL    HW2 2247   2.490   1.365   3.981
  450SOL     OW 2248   1.464   4.955   3.577
  450SOL    HW1 2249   1.459   4.886   3.505
  450SOL    HW2 2250   1.508   4.916   3.658
  451SOL     OW 2251   1.294   2.150   4.881
  451SOL    HW1 2252   1.211   2.186   4.839
  451SOL    HW2 2253   1.374   2.197   4.845
  452SOL     OW 2254   5.226   6.631   0.506
  452SOL    HW1 2255   5.228   6.661   0.411
  452SOL    HW2 2256   5.319   6.613   0.538
  453SOL     OW 2257   3.719   0.716   6.630
  453SOL    HW1 2258   3.731   0.806   6.588
  453SOL    HW2 2259   3.688   0.727   6.725
  454SOL     OW 2260   6.999   4.291   6.254
  454SOL    HW1 2261   6.993   4.352   6.334
  454SOL    HW2 2262   6.911   4.292   6.206
  455SOL     OW 2263   5.345   2.462   4.509
  455SOL    HW1 2264   5.270   2.522   4.538
  455SOL    HW2 2265   5.318   2.367   4.522
  456SOL     OW 2266   0.336   0.279   3.718
  456SOL    HW1 2267   0.255   0.314   3.765
  456SOL    HW2 2268   0.402   0.244   3.785
  457SOL     OW 2269   1.997   3.762   4.789
  457SOL    HW1 2270   2.011   3.732   4.884
  457SOL    HW2 2271   2.047   3.847   4.773
  458SOL     OW 2272   3.119   6.019   2.690
  458SOL    HW1 2273   3.171   6.097   2.725
  458SOL    HW2 2274   3.030   6.050   2.656
  459SOL     OW 2275   2.380   6.938   6.197
  459SOL    HW1 2276   2.446   6.889   6.139
  459SOL    HW2 2277   2.295   6.886   6.202
  460SOL     OW 2278   1.974   6.803   4.318
  460SOL    HW1 2279   2.016   6.893   4.311
  460SOL    HW2 2280   1.952   6.783   4.414
  461SOL     OW 2281   6.926   5.572   6.020
  461SOL    HW1 2282   6.897   5.500   6.083
  461SOL    HW2 2283   6.865   5.575   5.941
  462SOL     OW 2284   4.003   3.168   6.497
  462SOL    HW1 2285   4.005   3.268   6.508
  462SOL    HW2 2286   3.914   3.133   6.527
  463SOL     OW 2287   6.274   6.128   3.927
  463SOL    HW1 2288   6.256   6.039   3.885
  463SOL    HW2 2289   6.255   6.201   3.862
  464SOL     OW 2290   2.991   1.341   5.246
  464SOL    HW1 2291   2.899   1.345   5.207
  464SOL    HW2 2292   3.005   1.421   5.305
  465SOL     OW 2293   0.840   2.396   0.463
  465SOL    HW1 2294   0.776   2.412   0.388
  465SOL    HW2 2295   0.873   2.302   0.460
  466SOL     OW 2296   2.187   6.462   4.033
  466SOL    HW1 2297   2.276   6.430   4.000
  466SOL    HW2 2298   2.176   6.438   4.130
  467SOL     OW 2299   1.854   1.417   1.675
  467SOL    HW1 2300   1.826   1.322   1.686
  467SOL    HW2 2301   1.791   1.477   1.724
  468SOL     OW 2302   3.331   6.255   5.343
  468SOL    HW1 2303   3.248   6.201   5.358
  468SOL    HW2 2304   3.403   6.195   5.307
  469SOL     OW 2305   2.616   3.792   6.183
  469SOL    HW1 2306   2.546   3.769   6.251
  469SOL    HW2 2307   2.628   3.891   6.179
  470SOL     OW 2308   4.612   6.225   1.010
  470SOL    HW1 2309   4.653   6.252   1.097
  470SOL    HW2 2310   4.654   6.140   0.978
  471SOL     OW 2311   2.413   2.559   3.997
  471SOL    HW1 2312   2.475   2.515   4.063
  471SOL    HW2 2313   2.323   2.572   4.039
  472SOL     OW 2314   5.366   4.407   6.349
  472SOL    HW1 2315   5.332   4.458   6.428
  472SOL    HW2 2316   5.466   4.415   6.344
  473SOL     OW 2317   1.165   2.068   2.581
  473SOL    HW1 2318   1.143   2.088   2.486
  473SOL    HW2 2319   1.103   1.997   2.615
  474SOL     OW 2320   5.312   5.698   4.408
  474SOL    HW1 2321   5.246   5.704   4.482
  474SOL    HW2 2322   5.405   5.700   4.445
  475SOL     OW 2323   6.352   2.570   0.188
  475SOL    HW1 2324   6.252   2.575   0.181
  475SOL    HW2 2325   6.391   2.557   0.097
  476SOL     OW 2326   0.040   3.669   2.172
  476SOL    HW1 2327   6.986   3.721   2.220
  476SOL    HW2 2328   0.060   3.585   2.223
  477SOL     OW 2329   2.597   5.847   3.010
  477SOL    HW1 2330   2.511   5.805   3.038
  477SOL    HW2 2331   2.660   5.776   2.979
  478SOL     OW 2332   3.822   6.285   2.592
  478SOL    HW1 2333   3.846   6.382   2.599
  478SOL    HW2 2334   3.865   6.234   2.667
  479SOL     OW 2335   3.394   3.382   5.135
  479SOL    HW1 2336   3.365   3.355   5.227
  479SOL    HW2 2337   3.317   3.377   5.073
  480SOL     OW 2338   2.341   0.546   0.961
  480SOL    HW1 2339   2.345   0.464   1.018
  480SOL    HW2 2340   2.310   0.624   1.015
  481SOL     OW 2341   0.767   6.541   1.472
  481SOL    HW1 2342   0.751   6.444   1.492
  481SOL    HW2 2343   0.820   6.582   1.546
  482SOL     OW 2344   4.435   4.737   2.271
  482SOL    HW1 2345   4.511   4.758   2.332
  482SOL    HW2 2346   4.349   4.755   2.319
  483SOL     OW 2347   6.423   2.208   2.819
  483SOL    HW1 2348   6.454   2.190   2.912
  483SOL    HW2 2349   6.372   2.295   2.817
  484SOL     OW 2350   1.856   3.685   5.341
  484SOL    HW1 2351   1.767   3.641   5.329
  484SOL    HW2 2352   1.897   3.654   5.427
  485SOL     OW 2353   4.032   4.720   2.717
  485SOL    HW1 2354   4.012   4.655   2.791
  485SOL    HW2 2355   3.947   4.762   2.685
  486SOL     OW 2356   6.745   1.200   0.330
  486SOL    HW1 2357   6.728   1.188   0.428
  486SOL    HW2 2358   6.785   1.290   0.313
  487SOL     OW 2359   0.786   0.195   3.119
  487SOL    HW1 2360   0.808   0.101   3.094
  487SOL    HW2 2361   0.748   0.242   3.039
  488SOL     OW 2362   1.250   0.675   2.826
  488SOL    HW1 2363   1.275   0.744   2.894
  488SOL    HW2 2364   1.304   0.690   2.743
  489SOL     OW 2365   5.430   5.748   5.450
  489SOL    HW1 2366   5.459   5.713   5.361
  489SOL    HW2 2367   5.469   5.839   5.464
  490SOL     OW 2368   1.505   6.194   3.551
  490SOL    HW1 2369   1.566   6.130   3.504
  490SOL    HW2 2370   1.433   6.223   3.488
  491SOL     OW 2371   1.294   3.000   1.892
  491SOL    HW1 2372   1.206   3.009   1.846
  491SOL    HW2 2373   1.280   2.975   1.987
  492SOL     OW 2374   1.120   0.981   5.799
  492SOL    HW1 2375   1.022   0.990   5.814
  492SOL    HW2 2376   1.163   1.071   5.803
  493SOL     OW 2377   3.541   6.462   5.450
  493SOL    HW1 2378   3.470   6.399   5.421
  493SOL    HW2 2379   3.598   6.419   5.520
  494SOL     OW 2380   1.227   6.953   6.330
  494SOL    HW1 2381   1.191   0.008   6.271
  494SOL    HW2 2382   1.165   6.939   6.407
  495SOL     OW 2383   4.036   5.565   3.486
  495SOL    HW1 2384   4.056   5.638   3.420
  495SOL    HW2 2385   4.119   5.539   3.534
  496SOL     OW 2386   5.612   3.063   2.030
  496SOL    HW1 2387   5.569   3.117   1.958
  496SOL    HW2 2388   5.624   2.969   1.998
  497SOL     OW 2389   3.382   1.429   4.382
  497SOL    HW1 2390   3.419   1.517   4.351
  497SOL    HW2 2391   3.454   1.360   4.378
  498SOL     OW 2392   0.581   5.390   2.591
  498SOL    HW1 2393   0.678   5.398   2.567
  498SOL    HW2 2394   0.568   5.309   2.648
  499SOL     OW 2395   1.793   5.236   4.867
  499SOL    HW1 2396   1.775   5.252   4.770
  499SOL    HW2 2397   1.768   5.142   4.891
  500SOL     OW 2398   6.570   2.468   6.303
  500SOL    HW1 2399   6.482   2.508   6.277
  500SOL    HW2 2400   6.575   2.374   6.270
  501SOL     OW 2401   3.992   0.157   0.797
  501SOL    HW1 2402   4.078   0.186   0.839
  501SOL    HW2 2403   3.989   0.189   0.702
  502SOL     OW 2404   0.605   4.628   5.940
  502SOL    HW1 2405   0.648   4.561   5.879
  502SOL    HW2 2406   0.545   4.581   6.004
  503SOL     OW 2407   0.412   4.682   6.792
  503SOL    HW1 2408   0.476   4.757   6.809
  503SOL    HW2 2409   0.360   4.701   6.709
  504SOL     OW 2410   0.795   5.572   2.393
  504SOL    HW1 2411   0.720   5.563   2.328
  504SOL    HW2 2412   0.824   5.481   2.423
  505SOL     OW 2413   3.669   5.902   4.815
  505SOL    HW1 2414   3.757   5.949   4.818
  505SOL    HW2 2415   3.647   5.867   4.906
  506SOL     OW 2416   3.717   5.353   2.808
  506SOL    HW1 2417   3.740   5.281   2.873
  506SOL    HW2 2418   3.698   5.438   2.858
  507SOL     OW 2419   3.769   6.457   2.865
  507SOL    HW1 2420   3.823   6.423   2.941
  507SOL    HW2 2421   3.674   6.426   2.876
  508SOL     OW 2422   6.956   3.431   2.947
  508SOL    HW1 2423   6.871   3.455   2.994
  508SOL    HW2 2424   0.010   3.495   2.975
  509SOL     OW 2425   3.266   1.726   0.942
  509SOL    HW1 2426   3.358   1.764   0.938
  509SOL    HW2 2427   3.240   1.710   1.037
  510SOL     OW 2428   6.205   4.002   0.075
  510SOL    HW1 2429   6.258   3.920   0.050
  510SOL    HW2 2430   6.118   4.001   0.026
  511SOL     OW 2431   0.893   3.028   6.383
  511SOL    HW1 2432   0.900   3.116   6.337
  511SOL    HW2 2433   0.902   2.954   6.315
  512SOL     OW 2434   0.387   2.108   6.750
  512SOL    HW1 2435   0.482   2.126   6.777
  512SOL    HW2 2436   0.328   2.178   6.791
  513SOL     OW 2437   5.457   6.840   3.264
  513SOL    HW1 2438   5.557   6.839   3.251
  513SOL    HW2 2439   5.413   6.809   3.179
  514SOL     OW 2440   6.397   0.286   4.544
  514SOL    HW1 2441   6.352   0.315   4.460
  514SOL    HW2 2442   6.368   0.344   4.620
  515SOL     OW 2443   1.191   0.738   1.246
  515SOL    HW1 2444   1.149   0.657   1.288
  515SOL    HW2 2445   1.120   0.802   1.218
  516SOL     OW 2446   2.627   4.759   2.059
  516SOL    HW1 2447   2.695   4.710   2.005
  516SOL    HW2 2448   2.646   4.746   2.157
  517SOL     OW 2449   3.517   4.982   1.904
  517SOL    HW1 2450   3.547   4.889   1.886
  517SOL    HW2 2451   3.464   5.017   1.827
  518SOL     OW 2452   2.392   2.235   3.717
  518SOL    HW1 2453   2.443   2.217   3.802
  518SOL    HW2 2454   2.389   2.334   3.701
  519SOL     OW 2455   0.829   6.467   3.414
  519SOL    HW1 2456   0.777   6.492   3.333
  519SOL    HW2 2457   0.802   6.525   3.491
  520SOL     OW 2458   6.343   3.440   6.727
  520SOL    HW1 2459   6.352   3.460   6.629
  520SOL    HW2 2460   6.391   3.354   6.748
  521SOL     OW 2461   6.728   6.618   5.355
  521SOL    HW1 2462   6.816   6.590   5.394
  521SOL    HW2 2463   6.665   6.540   5.356
  522SOL     OW 2464   3.598   3.505   4.031
  522SOL    HW1 2465   3.597   3.493   4.130
  522SOL    HW2 2466   3.683   3.549   4.003
  523SOL     OW 2467   0.138   6.140   1.629
  523SOL    HW1 2468   0.144   6.226   1.577
  523SOL    HW2 2469   0.042   6.121   1.650
  524SOL     OW 2470   1.108   2.486   2.689
  524SOL    HW1 2471   1.018   2.519   2.660
  524SOL    HW2 2472   1.101   2.446   2.780
  525SOL     OW 2473   2.162   4.202   6.256
  525SOL    HW1 2474   2.215   4.145   6.320
  525SOL    HW2 2475   2.222   4.236   6.185
  526SOL     OW 2476   3.542   6.544   4.012
  526SOL    HW1 2477   3.519   6.588   4.099
  526SOL    HW2 2478   3.500   6.453   4.009
  527SOL     OW 2479   7.017   2.905   0.686
  527SOL    HW1 2480   6.977   2.997   0.687
  527SOL    HW2 2481   0.079   2.902   0.745
  528SOL     OW 2482   1.741   2.332   3.583
  528SOL    HW1 2483   1.816   2.322   3.648
  528SOL    HW2 2484   1.730   2.247   3.532
  529SOL     OW 2485   1.634   6.045   5.083
  529SOL    HW1 2486   1.635   6.120   5.017
  529SOL    HW2 2487   1.561   5.981   5.059
  530SOL     OW 2488   4.099   3.456   3.598
  530SOL    HW1 2489   4.110   3.533   3.536
  530SOL    HW2 2490   4.012   3.411   3.581
  531SOL     OW 2491   0.536   1.905   2.780
  531SOL    HW1 2492   0.513   1.996   2.746
  531SOL    HW2 2493   0.634   1.888   2.768
  532SOL     OW 2494   0.931   2.653   0.350
  532SOL    HW1 2495   1.029   2.671   0.352
  532SOL    HW2 2496   0.912   2.566   0.395
  533SOL     OW 2497   4.280   6.983   3.296
  533SOL    HW1 2498   4.356   0.030   3.297
  533SOL    HW2 2499   4.238   6.980   3.387
  534SOL     OW 2500   5.237   6.032   2.643
  534SOL    HW1 2501   5.244   6.051   2.741
  534SOL    HW2 2502   5.269   6.111   2.591
  535SOL     OW 2503   6.588   3.544   4.029
  535SOL    HW1 2504   6.569   3.598   4.112
  535SOL    HW2 2505   6.513   3.480   4.013
  536SOL     OW 2506   5.822   4.532   2.783
  536SOL    HW1 2507   5.882   4.468   2.735
  536SOL    HW2 2508   5.777   4.591   2.716
  537SOL     OW 2509   3.009   6.586   4.751
  537SOL    HW1 2510   2.914   6.593   4.781
  537SOL    HW2 2511   3.066   6.556   4.827
  538SOL     OW 2512   1.062   4.357   4.144
  538SOL    HW1 2513   1.130   4.364   4.218
  538SOL    HW2 2514   1.099   4.401   4.062
  539SOL     OW 2515   1.576   4.865   1.227
  539SOL    HW1 2516   1.524   4.805   1.288
  539SOL    HW2 2517   1.649   4.910   1.278
  540SOL     OW 2518   1.649   1.801   2.684
  540SOL    HW1 2519   1.602   1.751   2.611
  540SOL    HW2 2520   1.602   1.784   2.771
  541SOL     OW 2521   5.437   5.400   3.939
  541SOL    HW1 2522   5.426   5.329   3.869
  541SOL    HW2 2523   5.488   5.477   3.900
  542SOL     OW 2524   5.910   6.976   6.625
  542SOL    HW1 2525   5.851   0.019   6.574
  542SOL    HW2 2526   5.901   6.883   6.589
  543SOL     OW 2527   6.768   4.044   4.841
  543SOL    HW1 2528   6.846   3.987   4.814
  543SOL    HW2 2529   6.685   3.989   4.845
  544SOL     OW 2530   1.256   5.057   0.343
  544SOL    HW1 2531   1.246   5.090   0.249
  544SOL    HW2 2532   1.198   4.976   0.356
  545SOL     OW 2533   3.186   1.644   0.705
  545SOL    HW1 2534   3.217   1.680   0.792
  545SOL    HW2 2535   3.180   1.544   0.710
  546SOL     OW 2536   1.667   3.726   0.213
  546SOL    HW1 2537   1.637   3.639   0.173
  546SOL    HW2 2538   1.679   3.794   0.140
  547SOL     OW 2539   2.942   1.907   0.206
  547SOL    HW1 2540   3.036   1.937   0.224
  547SOL    HW2 2541   2.941   1.848   0.125
  548SOL     OW 2542   3.141   3.216   1.842
  548SOL    HW1 2543   3.158   3.191   1.747
  548SOL    HW2 2544   3.047   3.190   1.866
  549SOL     OW 2545   5.685   2.461   1.060
  549SOL    HW1 2546   5.658   2.557   1.056
  549SOL    HW2 2547   5.725   2.441   1.149
  550SOL     OW 2548   1.478   5.501   4.090
  550SOL    HW1 2549   1.552   5.445   4.053
  550SOL    HW2 2550   1.405   5.441   4.124
  551SOL     OW 2551   1.113   0.134   2.298
  551SOL    HW1 2552   1.142   0.158   2.206
  551SOL    HW2 2553   1.034   0.190   2.324
  552SOL     OW 2554   6.268   4.602   6.728
  552SOL    HW1 2555   6.273   4.648   6.817
  552SOL    HW2 2556   6.243   4.669   6.658
  553SOL     OW 2557   2.434   6.408   3.893
  553SOL    HW1 2558   2.485   6.346   3.952
  553SOL    HW2 2559   2.453   6.503   3.920
  554SOL     OW 2560   6.279   0.118   6.919
  554SOL    HW1 2561   6.336   0.036   6.913
  554SOL    HW2 2562   6.188   0.098   6.883
  555SOL     OW 2563   2.908   4.873   4.559
  555SOL    HW1 2564   2.877   4.839   4.649
  555SOL    HW2 2565   3.007   4.881   4.559
  556SOL     OW 2566   4.561   2.093   3.601
  556SOL    HW1 2567   4.586   2.187   3.624
  556SOL    HW2 2568   4.582   2.076   3.505
  557SOL     OW 2569   0.089   5.434   1.135
  557SOL    HW1 2570   0.018   5.409   1.070
  557SOL    HW2 2571   0.109   5.355   1.194
  558SOL     OW 2572   2.893   3.538   3.302
  558SOL    HW1 2573   2.883   3.443   3.331
  558SOL    HW2 2574   2.886   3.598   3.382
  559SOL     OW 2575   0.338   5.438   6.696
  559SOL    HW1 2576   0.419   5.381   6.710
  559SOL    HW2 2577   0.305   5.426   6.602
  560SOL     OW 2578   5.638   4.321   4.599
  560SOL    HW1 2579   5.635   4.287   4.505
  560SOL    HW2 2580   5.589   4.258   4.659
  561SOL     OW 2581   0.529   1.922   1.472
  561SOL    HW1 2582   0.489   2.010   1.496
  561SOL    HW2 2583   0.504   1.899   1.378
  562SOL     OW 2584   4.587   6.769   6.329
  562SOL    HW1 2585   4.497   6.799   6.300
  562SOL    HW2 2586   4.651   6.776   6.253
  563SOL     OW 2587   2.776   0.100   3.383
  563SOL    HW1 2588   2.864   0.138   3.353
  563SOL    HW2 2589   2.765   0.008   3.346
  564SOL     OW 2590   1.128   2.853   6.827
  564SOL    HW1 2591   1.126   2.885   6.922
  564SOL    HW2 2592   1.152   2.756   6.826
  565SOL     OW 2593   3.317   3.005   4.839
  565SOL    HW1 2594   3.297   2.963   4.928
  565SOL    HW2 2595   3.235   3.049   4.803
  566SOL     OW 2596   0.552   4.521   3.891
  566SOL    HW1 2597   0.647   4.511   3.862
  566SOL    HW2 2598   0.501   4.439   3.867
  567SOL     OW 2599   2.757   2.884   1.351
  567SOL    HW1 2600   2.716   2.826   1.421
  567SOL    HW2 2601   2.819   2.949   1.393
  568SOL     OW 2602   5.021   0.506   6.892
  568SOL    HW1 2603   5.103   0.464   6.929
  568SOL    HW2 2604   4.956   0.523   6.966
  569SOL     OW 2605   1.961   2.598   0.330
  569SOL    HW1 2606   1.908   2.650   0.262
  569SOL    HW2 2607   2.049   2.643   0.343
  570SOL     OW 2608   4.293   5.922   6.805
  570SOL    HW1 2609   4.309   6.017   6.832
  570SOL    HW2 2610   4.342   5.902   6.720
  571SOL     OW 2611   3.166   5.960   2.415
  571SOL    HW1 2612   3.248   5.906   2.398
  571SOL    HW2 2613   3.165   5.991   2.510
  572SOL     OW 2614   2.472   4.923   5.489
  572SOL    HW1 2615   2.380   4.958   5.506
  572SOL    HW2 2616   2.478   4.829   5.522
  573SOL     OW 2617   4.771   1.303   6.218
  573SOL    HW1 2618   4.727   1.283   6.306
  573SOL    HW2 2619   4.814   1.220   6.183
  574SOL     OW 2620   3.422   1.284   4.122
  574SOL    HW1 2621   3.390   1.222   4.194
  574SOL    HW2 2622   3.343   1.332   4.083
  575SOL     OW 2623   5.189   3.762   0.659
  575SOL    HW1 2624   5.101   3.745   0.703
  575SOL    HW2 2625   5.233   3.674   0.639
  576SOL     OW 2626   1.442   2.203   3.167
  576SOL    HW1 2627   1.528   2.254   3.153
  576SOL    HW2 2628   1.372   2.266   3.199
  577SOL     OW 2629   1.313   1.617   2.946
  577SOL    HW1 2630   1.331   1.568   2.861
  577SOL    HW2 2631   1.399   1.648   2.986
  578SOL     OW 2632   6.096   5.246   4.050
  578SOL    HW1 2633   6.051   5.223   3.963
  578SOL    HW2 2634   6.120   5.343   4.050
  579SOL     OW 2635   1.773   3.117   3.725
  579SOL    HW1 2636   1.714   3.194   3.702
  579SOL    HW2 2637   1.826   3.139   3.807
  580SOL     OW 2638   5.007   6.050   6.131
  580SOL    HW1 2639   4.919   6.022   6.092
  580SOL    HW2 2640   5.023   6.146   6.113
  581SOL     OW 2641   1.976   3.280   1.531
  581SOL    HW1 2642   1.989   3.188   1.569
  581SOL    HW2 2643   2.047   3.299   1.464
  582SOL     OW 2644   4.253   5.896   1.806
  582SOL    HW1 2645   4.276   5.874   1.901
  582SOL    HW2 2646   4.166   5.945   1.804
  583SOL     OW 2647   2.745   6.704   5.376
  583SOL    HW1 2648   2.675   6.731   5.310
  583SOL    HW2 2649   2.724   6.743   5.466
  584SOL     OW 2650   3.054   5.356   6.691
  584SOL    HW1 2651   3.047   5.453   6.667
  584SOL    HW2 2652   3.107   5.308   6.622
  585SOL     OW 2653   4.830   1.851   6.420
  585SOL    HW1 2654   4.804   1.797   6.500
  585SOL    HW2 2655   4.903   1.914   6.445
  586SOL     OW 2656   3.698   0.661   5.997
  586SOL    HW1 2657   3.672   0.721   6.073
  586SOL    HW2 2658   3.763   0.593   6.029
  587SOL     OW 2659   4.762   1.747   4.747
  587SOL    HW1 2660   4.780   1.650   4.763
  587SOL    HW2 2661   4.675   1.773   4.790
  588SOL     OW 2662   1.740   4.874   2.138
  588SOL    HW1 2663   1.675   4.881   2.214
  588SOL    HW2 2664   1.818   4.934   2.156
  589SOL     OW 2665   3.423   4.363   1.689
  589SOL    HW1 2666   3.326   4.380   1.706
  589SOL    HW2 2667   3.478   4.439   1.724
  590SOL     OW 2668   5.492   2.998   2.479
  590SOL    HW1 2669   5.457   3.001   2.386
  590SOL    HW2 2670   5.449   2.923   2.529
  591SOL     OW 2671   2.836   5.400   3.840
  591SOL    HW1 2672   2.746   5.401   3.796
  591SOL    HW2 2673   2.871   5.493   3.848
  592SOL     OW 2674   3.976   1.424   1.206
  592SOL    HW1 2675   3.949   1.446   1.300
  592SOL    HW2 2676   3.918   1.474   1.142
  593SOL     OW 2677   4.406   2.414   4.736
  593SOL    HW1 2678   4.368   2.435   4.646
  593SOL    HW2 2679   4.363   2.332   4.773
  594SOL     OW 2680   6.911   1.791   0.396
  594SOL    HW1 2681   6.927   1.872   0.340
  594SOL    HW2 2682   6.814   1.765   0.391
  595SOL     OW 2683   5.445   0.332   3.743
  595SOL    HW1 2684   5.398   0.389   3.675
  595SOL    HW2 2685   5.434   0.236   3.719
  596SOL     OW 2686   1.247   5.294   3.520
  596SOL    HW1 2687   1.250   5.385   3.479
  596SOL    HW2 2688   1.340   5.257   3.526
  597SOL     OW 2689   3.146   0.374   6.973
  597SOL    HW1 2690   3.086   0.447   7.006
  597SOL    HW2 2691   3.091   0.304   6.928
  598SOL     OW 2692   4.111   4.213   5.520
  598SOL    HW1 2693   4.021   4.173   5.536
  598SOL    HW2 2694   4.147   4.248   5.606
  599SOL     OW 2695   2.455   6.008   1.623
  599SOL    HW1 2696   2.542   6.005   1.575
  599SOL    HW2 2697   2.442   6.097   1.666
  600SOL     OW 2698   6.872   1.385   6.528
  600SOL    HW1 2699   6.962   1.365   6.566
  600SOL    HW2 2700   6.839   1.306   6.476
  601SOL     OW 2701   1.257   0.171   4.624
  601SOL    HW1 2702   1.174   0.214   4.590
  601SOL    HW2 2703   1.336   0.228   4.602
  602SOL     OW 2704   1.754   1.909   6.577
  602SOL    HW1 2705   1.808   1.829   6.605
  602SOL    HW2 2706   1.762   1.921   6.478
  603SOL     OW 2707   2.757   2.473   5.236
  603SOL    HW1 2708   2.823   2.464   5.310
  603SOL    HW2 2709   2.776   2.405   5.166
  604SOL     OW 2710   1.260   2.438   1.990
  604SOL    HW1 2711   1.308   2.364   2.037
  604SOL    HW2 2712   1.185   2.399   1.936
  605SOL     OW 2713   6.592   6.206   0.541
  605SOL    HW1 2714   6.555   6.237   0.453
  605SOL    HW2 2715   6.566   6.111   0.556
  606SOL     OW 2716   4.893   6.622   6.816
  606SOL    HW1 2717   4.903   6.626   6.717
  606SOL    HW2 2718   4.983   6.611   6.859
  607SOL     OW 2719   6.518   5.906   5.999
  607SOL    HW1 2720   6.464   5.822   5.994
  607SOL    HW2 2721   6.586   5.897   6.072
  608SOL     OW 2722   3.952   6.165   6.964
  608SOL    HW1 2723   3.941   6.065   6.965
  608SOL    HW2 2724   3.948   6.199   0.040
  609SOL     OW 2725   3.878   3.158   2.810
  609SOL    HW1 2726   3.826   3.073   2.819
  609SOL    HW2 2727   3.931   3.174   2.893
  610SOL     OW 2728   5.451   3.888   2.237
  610SOL    HW1 2729   5.536   3.940   2.234
  610SOL    HW2 2730   5.463   3.805   2.291
  611SOL     OW 2731   4.211   0.197   0.962
  611SOL    HW1 2732   4.296   0.249   0.971
  611SOL    HW2 2733   4.213   0.119   1.024
  612SOL     OW 2734   4.033   6.620   5.188
  612SOL    HW1 2735   4.112   6.617   5.250
  612SOL    HW2 2736   4.005   6.715   5.174
  613SOL     OW 2737   4.175   5.983   5.589
  613SOL    HW1 2738   4.160   5.974   5.687
  613SOL    HW2 2739   4.265   6.024   5.573
  614SOL     OW 2740   5.520   5.283   0.852
  614SOL    HW1 2741   5.604   5.233   0.832
  614SOL    HW2 2742   5.533   5.380   0.829
  615SOL     OW 2743   6.485   2.473   1.557
  615SOL    HW1 2744   6.432   2.428   1.485
  615SOL    HW2 2745   6.582   2.475   1.530
  616SOL     OW 2746   0.131   2.977   3.706
  616SOL    HW1 2747   0.113   3.068   3.741
  616SOL    HW2 2748   0.191   2.982   3.626
  617SOL     OW 2749   6.090   4.656   5.780
  617SOL    HW1 2750   6.042   4.582   5.732
  617SOL    HW2 2751   6.176   4.620   5.818
  618SOL     OW 2752   6.961   2.282   6.812
  618SOL    HW1 2753   6.931   2.194   6.776
  618SOL    HW2 2754   0.023   2.314   6.761
  619SOL     OW 2755   4.315   1.317   0.158
  619SOL    HW1 2756   4.316   1.330   0.257
  619SOL    HW2 2757   4.383   1.249   0.132
  620SOL     OW 2758   4.520   2.865   1.457
  620SOL    HW1 2759   4.524   2.853   1.556
  620SOL    HW2 2760   4.609   2.845   1.417
  621SOL     OW 2761   2.967   0.150   6.883
  621SOL    HW1 2762   2.970   0.055   6.853
  621SOL    HW2 2763   2.878   0.169   6.924
  622SOL     OW 2764   1.593   0.357   5.506
  622SOL    HW1 2765   1.533   0.421   5.459
  622SOL    HW2 2766   1.541   0.278   5.537
  623SOL     OW 2767   0.762   5.670   4.940
  623SOL    HW1 2768   0.816   5.624   5.010
  623SOL    HW2 2769   0.733   5.760   4.973
  624SOL     OW 2770   6.872   2.718   1.022
  624SOL    HW1 2771   6.837   2.800   0.977
  624SOL    HW2 2772   6.967   2.703   0.994
  625SOL     OW 2773   2.001   1.610   2.233
  625SOL    HW1 2774   2.011   1.524   2.283
  625SOL    HW2 2775   2.015   1.593   2.135
  626SOL     OW 2776   2.029   5.892   3.510
  626SOL    HW1 2777   2.073   5.981   3.497
  626SOL    HW2 2778   1.991   5.887   3.603
  627SOL     OW 2779   5.797   6.000   0.724
  627SOL    HW1 2780   5.742   6.076   0.690
  627SOL    HW2 2781   5.857   5.967   0.651
  628SOL     OW 2782   6.083   6.012   6.157
  628SOL    HW1 2783   6.048   5.921   6.134
  628SOL    HW2 2784   6.122   6.054   6.075
  629SOL     OW 2785   6.908   6.831   6.811
  629SOL    HW1 2786   6.943   6.809   6.720
  629SOL    HW2 2787   6.980   6.815   6.878
  630SOL     OW 2788   0.324   1.518   1.408
  630SOL    HW1 2789   0.243   1.577   1.405
  630SOL    HW2 2790   0.320   1.452   1.333
  631SOL     OW 2791   3.788   6.774   4.977
  631SOL    HW1 2792   3.744   6.715   5.044
  631SOL    HW2 2793   3.760   6.869   4.993
  632SOL     OW 2794   2.887   1.142   0.721
  632SOL    HW1 2795   2.886   1.115   0.625
  632SOL    HW2 2796   2.961   1.093   0.768
  633SOL     OW 2797   3.240   3.845   6.909
  633SOL    HW1 2798   3.265   3.914   6.841
  633SOL    HW2 2799   3.319   3.785   6.925
  634SOL     OW 2800   4.218   3.842   1.267
  634SOL    HW1 2801   4.200   3.936   1.241
  634SOL    HW2 2802   4.317   3.827   1.275
  635SOL     OW 2803   4.366   5.451   1.680
  635SOL    HW1 2804   4.316   5.537   1.677
  635SOL    HW2 2805   4.318   5.386   1.738
  636SOL     OW 2806   3.495   5.482   0.217
  636SOL    HW1 2807   3.413   5.425   0.226
  636SOL    HW2 2808   3.468   5.578   0.208
  637SOL     OW 2809   6.614   3.439   3.413
  637SOL    HW1 2810   6.616   3.379   3.333
  637SOL    HW2 2811   6.705   3.476   3.430
  638SOL     OW 2812   5.337   2.140   3.883
  638SOL    HW1 2813   5.399   2.073   3.843
  638SOL    HW2 2814   5.260   2.157   3.821
  639SOL     OW 2815   5.178   3.598   2.894
  639SOL    HW1 2816   5.218   3.517   2.936
  639SOL    HW2 2817   5.080   3.600   2.911
  640SOL     OW 2818   0.347   5.118   3.815
  640SOL    HW1 2819   0.368   5.082   3.905
  640SOL    HW2 2820   0.417   5.088   3.749
  641SOL     OW 2821   6.399   5.484   4.962
  641SOL    HW1 2822   6.411   5.583   4.966
  641SOL    HW2 2823   6.391   5.455   4.867
  642SOL     OW 2824   6.660   3.228   5.008
  642SOL    HW1 2825   6.687   3.174   5.088
  642SOL    HW2 2826   6.594   3.298   5.034
  643SOL     OW 2827   5.960   5.938   5.358
  643SOL    HW1 2828   6.046   5.905   5.397
  643SOL    HW2 2829   5.904   5.860   5.329
  644SOL     OW 2830   1.166   6.029   4.489
  644SOL    HW1 2831   1.110   5.960   4.444
  644SOL    HW2 2832   1.261   5.995   4.495
  645SOL     OW 2833   4.481   0.845   3.710
  645SOL    HW1 2834   4.484   0.749   3.680
  645SOL    HW2 2835   4.570   0.887   3.695
  646SOL     OW 2836   2.877   1.129   4.745
  646SOL    HW1 2837   2.777   1.126   4.747
  646SOL    HW2 2838   2.908   1.120   4.650
  647SOL     OW 2839   5.115   1.747   4.658
  647SOL    HW1 2840   5.045   1.793   4.712
  647SOL    HW2 2841   5.179   1.815   4.622
  648SOL     OW 2842   0.402   3.380   4.144
  648SOL    HW1 2843   0.393   3.355   4.048
  648SOL    HW2 2844   0.407   3.480   4.152
  649SOL     OW 2845   2.724   4.029   0.853
  649SOL    HW1 2846   2.773   4.115   0.839
  649SOL    HW2 2847   2.779   3.968   0.911
  650SOL     OW 2848   5.960   4.893   0.828
  650SOL    HW1 2849   5.864   4.890   0.855
  650SOL    HW2 2850   5.985   4.808   0.781
  651SOL     OW 2851   6.518   5.808   6.352
  651SOL    HW1 2852   6.584   5.833   6.281
  651SOL    HW2 2853   6.447   5.877   6.358
  652SOL     OW 2854   5.107   6.429   4.065
  652SOL    HW1 2855   5.182   6.372   4.097
  652SOL    HW2 2856   5.126   6.460   3.972
  653SOL     OW 2857   1.853   5.811   5.362
  653SOL    HW1 2858   1.894   5.804   5.453
  653SOL    HW2 2859   1.800   5.896   5.357
  654SOL     OW 2860   0.332   4.206   5.855
  654SOL    HW1 2861   0.269   4.247   5.922
  654SOL    HW2 2862   0.279   4.175   5.776
  655SOL     OW 2863   0.474   5.887   2.216
  655SOL    HW1 2864   0.569   5.859   2.229
  655SOL    HW2 2865   0.428   5.824   2.154
  656SOL     OW 2866   1.590   5.166   1.330
  656SOL    HW1 2867   1.535   5.140   1.250
  656SOL    HW2 2868   1.591   5.266   1.338
  657SOL     OW 2869   1.753   2.674   1.436
  657SOL    HW1 2870   1.690   2.596   1.433
  657SOL    HW2 2871   1.737   2.726   1.520
  658SOL     OW 2872   2.995   4.223   6.646
  658SOL    HW1 2873   3.093   4.225   6.626
  658SOL    HW2 2874   2.961   4.316   6.656
  659SOL     OW 2875   2.356   6.075   5.516
  659SOL    HW1 2876   2.349   6.009   5.441
  659SOL    HW2 2877   2.325   6.165   5.486
  660SOL     OW 2878   5.743   4.746   2.604
  660SOL    HW1 2879   5.783   4.833   2.574
  660SOL    HW2 2880   5.720   4.690   2.525
  661SOL     OW 2881   4.426   5.476   2.998
  661SOL    HW1 2882   4.421   5.484   2.898
  661SOL    HW2 2883   4.337   5.498   3.038
  662SOL     OW 2884   4.091   0.623   5.339
  662SOL    HW1 2885   4.010   0.579   5.377
  662SOL    HW2 2886   4.139   0.559   5.279
  663SOL     OW 2887   2.454   3.731   6.610
  663SOL    HW1 2888   2.540   3.734   6.661
  663SOL    HW2 2889   2.389   3.796   6.651
  664SOL     OW 2890   0.187   5.072   6.787
  664SOL    HW1 2891   0.137   5.159   6.797
  664SOL    HW2 2892   0.122   4.996   6.789
  665SOL     OW 2893   5.162   4.698   1.094
  665SOL    HW1 2894   5.252   4.655   1.086
  665SOL    HW2 2895   5.173   4.793   1.125
  666SOL     OW 2896   4.697   2.118   2.197
  666SOL    HW1 2897   4.728   2.043   2.255
  666SOL    HW2 2898   4.660   2.081   2.112
  667SOL     OW 2899   0.460   4.620   3.619
  667SOL    HW1 2900   0.558   4.631   3.598
  667SOL    HW2 2901   0.450   4.602   3.716
  668SOL     OW 2902   5.839   6.695   6.542
  668SOL    HW1 2903   5.744   6.727   6.548
  668SOL    HW2 2904   5.858   6.664   6.449
  669SOL     OW 2905   4.047   0.098   3.804
  669SOL    HW1 2906   3.976   0.109   3.734
  669SOL    HW2 2907   4.083   0.005   3.800
  670SOL     OW 2908   3.198   3.047   0.811
  670SOL    HW1 2909   3.101   3.067   0.821
  670SOL    HW2 2910   3.251   3.105   0.873
  671SOL     OW 2911   1.884   6.360   0.454
  671SOL    HW1 2912   1.958   6.354   0.387
  671SOL    HW2 2913   1.839   6.270   0.461
  672SOL     OW 2914   1.141   5.095   2.045
  672SOL    HW1 2915   1.231   5.132   2.068
  672SOL    HW2 2916   1.096   5.154   1.978
  673SOL     OW 2917   0.100   0.158   2.052
  673SOL    HW1 2918   0.043   0.214   2.112
  673SOL    HW2 2919   0.065   0.162   1.958
  674SOL     OW 2920   7.015   2.233   5.356
  674SOL    HW1 2921   0.081   2.276   5.390
  674SOL    HW2 2922   6.948   2.228   5.430
  675SOL     OW 2923   0.799   1.489   3.158
  675SOL    HW1 2924   0.758   1.580   3.162
  675SOL    HW2 2925   0.868   1.487   3.085
  676SOL     OW 2926   3.372   5.916   2.993
  676SOL    HW1 2927   3.308   5.863   2.937
  676SOL    HW2 2928   3.359   5.893   3.090
  677SOL     OW 2929   6.550   1.915   0.653
  677SOL    HW1 2930   6.457   1.890   0.678
  677SOL    HW2 2931   6.610   1.903   0.732
  678SOL     OW 2932   1.970   1.330   5.739
  678SOL    HW1 2933   1.902   1.300   5.806
  678SOL    HW2 2934   2.031   1.253   5.717
  679SOL     OW 2935   4.580   1.832   3.740
  679SOL    HW1 2936   4.594   1.919   3.693
  679SOL    HW2 2937   4.610   1.757   3.681
  680SOL     OW 2938   5.640   5.909   5.398
  680SOL    HW1 2939   5.630   6.003   5.364
  680SOL    HW2 2940   5.706   5.860   5.341
  681SOL     OW 2941   5.275   5.242   1.610
  681SOL    HW1 2942   5.255   5.252   1.512
  681SOL    HW2 2943   5.211   5.175   1.649
  682SOL     OW 2944   0.764   1.538   0.328
  682SOL    HW1 2945   0.823   1.609   0.368
  682SOL    HW2 2946   0.815   1.452   0.320
  683SOL     OW 2947   4.416   3.399   0.621
  683SOL    HW1 2948   4.350   3.324   0.627
  683SOL    HW2 2949   4.446   3.410   0.526
  684SOL     OW 2950   0.224   1.093   6.858
  684SOL    HW1 2951   0.154   1.040   6.810
  684SOL    HW2 2952   0.180   1.147   6.930
  685SOL     OW 2953   4.459   1.135   3.344
  685SOL    HW1 2954   4.499   1.221   3.315
  685SOL    HW2 2955   4.439   1.139   3.442
  686SOL     OW 2956   5.058   2.794   3.667
  686SOL    HW1 2957   5.113   2.869   3.703
  686SOL    HW2 2958   4.990   2.766   3.735
  687SOL     OW 2959   0.456   2.252   4.631
  687SOL    HW1 2960   0.553   2.231   4.617
  687SOL    HW2 2961   0.417   2.290   4.548
  688SOL     OW 2962   1.059   1.921   0.353
  688SOL    HW1 2963   1.139   1.972   0.386
  688SOL    HW2 2964   0.976   1.959   0.395
  689SOL     OW 2965   6.678   4.052   6.848
  689SOL    HW1 2966   6.738   3.973   6.842
  689SOL    HW2 2967   6.730   4.136   6.830
  690SOL     OW 2968   0.090   4.452   2.787
  690SOL    HW1 2969   0.163   4.428   2.722
  690SOL    HW2 2970   0.002   4.450   2.740
  691SOL     OW 2971   2.106   6.573   0.303
  691SOL    HW1 2972   2.136   6.667   0.322
  691SOL    HW2 2973   2.007   6.573   0.287
  692SOL     OW 2974   3.238   6.641   3.554
  692SOL    HW1 2975   3.218   6.707   3.482
  692SOL    HW2 2976   3.180   6.560   3.542
  693SOL     OW 2977   6.105   0.967   3.709
  693SOL    HW1 2978   6.079   0.882   3.663
  693SOL    HW2 2979   6.068   1.045   3.658
  694SOL     OW 2980   4.004   5.867   3.102
  694SOL    HW1 2981   3.953   5.813   3.036
  694SOL    HW2 2982   4.002   5.964   3.075
  695SOL     OW 2983   3.842   6.199   4.011
  695SOL    HW1 2984   3.918   6.202   4.076
  695SOL    HW2 2985   3.871   6.238   3.923
  696SOL     OW 2986   4.198   4.816   2.380
  696SOL    HW1 2987   4.114   4.777   2.419
  696SOL    HW2 2988   4.181   4.842   2.285
  697SOL     OW 2989   1.941   3.540   3.848
  697SOL    HW1 2990   1.967   3.471   3.915
  697SOL    HW2 2991   1.881   3.500   3.779
  698SOL     OW 2992   5.206   6.676   0.233
  698SOL    HW1 2993   5.269   6.737   0.185
  698SOL    HW2 2994   5.126   6.659   0.175
  699SOL     OW 2995   1.795   3.006   6.292
  699SOL    HW1 2996   1.891   3.035   6.295
  699SOL    HW2 2997   1.782   2.926   6.350
  700SOL     OW 2998   2.802   0.505   2.401
  700SOL    HW1 2999   2.780   0.576   2.333
  700SOL    HW2 3000   2.891   0.526   2.442
  701SOL     OW 3001   6.782   3.368   5.776
  701SOL    HW1 3002   6.765   3.457   5.817
  701SOL    HW2 3003   6.718   3.300   5.814
  702SOL     OW 3004   1.213   5.754   4.943
  702SOL    HW1 3005   1.138   5.690   4.928
  702SOL    HW2 3006   1.215   5.781   5.039
  703SOL     OW 3007   3.588   4.254   6.077
  703SOL    HW1 3008   3.526   4.326   6.047
  703SOL    HW2 3009   3.569   4.170   6.025
  704SOL     OW 3010   1.308   2.011   0.444
  704SOL    HW1 3011   1.305   2.102   0.485
  704SOL    HW2 3012   1.368   2.012   0.364
  705SOL     OW 3013   5.704   6.131   2.557
  705SOL    HW1 3014   5.697   6.131   2.657
  705SOL    HW2 3015   5.728   6.040   2.525
  706SOL     OW 3016   4.554   2.539   4.942
  706SOL    HW1 3017   4.515   2.526   5.033
  706SOL    HW2 3018   4.491   2.503   4.873
  707SOL     OW 3019   4.705   5.307   2.752
  707SOL    HW1 3020   4.719   5.272   2.845
  707SOL    HW2 3021   4.691   5.406   2.756
  708SOL     OW 3022   4.448   6.726   1.632
  708SOL    HW1 3023   4.460   6.636   1.674
  708SOL    HW2 3024   4.497   6.794   1.686
  709SOL     OW 3025   0.477   6.038   1.599
  709SOL    HW1 3026   0.543   5.988   1.544
  709SOL    HW2 3027   0.464   5.992   1.686
  710SOL     OW 3028   3.686   2.878   1.939
  710SOL    HW1 3029   3.741   2.836   2.010
  710SOL    HW2 3030   3.661   2.808   1.871
  711SOL     OW 3031   0.081   3.533   5.567
  711SOL    HW1 3032   0.121   3.481   5.491
  711SOL    HW2 3033   0.039   3.616   5.531
  712SOL     OW 3034   4.881   2.964   1.588
  712SOL    HW1 3035   4.837   2.924   1.508
  712SOL    HW2 3036   4.960   3.018   1.560
  713SOL     OW 3037   4.512   2.440   5.760
  713SOL    HW1 3038   4.419   2.461   5.730
  713SOL    HW2 3039   4.566   2.410   5.681
  714SOL     OW 3040   6.797   4.158   3.640
  714SOL    HW1 3041   6.847   4.101   3.575
  714SOL    HW2 3042   6.847   4.163   3.726
  715SOL     OW 3043   5.196   5.693   0.144
  715SOL    HW1 3044   5.215   5.642   0.228
  715SOL    HW2 3045   5.169   5.629   0.072
  716SOL     OW 3046   0.450   0.711   1.893
  716SOL    HW1 3047   0.370   0.652   1.883
  716SOL    HW2 3048   0.524   0.659   1.935
  717SOL     OW 3049   6.288   4.428   5.567
  717SOL    HW1 3050   6.364   4.463   5.513
  717SOL    HW2 3051   6.232   4.368   5.511
  718SOL     OW 3052   4.972   2.343   5.984
  718SOL    HW1 3053   4.959   2.437   6.017
  718SOL    HW2 3054   5.064   2.333   5.947
  719SOL     OW 3055   5.807   0.627   2.309
  719SOL    HW1 3056   5.830   0.707   2.254
  719SOL    HW2 3057   5.709   0.623   2.323
  720SOL     OW 3058   2.878   0.300   6.062
  720SOL    HW1 3059   2.938   0.373   6.094
  720SOL    HW2 3060   2.797   0.294   6.120
  721SOL     OW 3061   2.560   2.157   3.313
  721SOL    HW1 3062   2.584   2.104   3.231
  721SOL    HW2 3063   2.601   2.248   3.307
  722SOL     OW 3064   3.337   0.227   5.647
  722SOL    HW1 3065   3.252   0.218   5.595
  722SOL    HW2 3066   3.340   0.317   5.691
  723SOL     OW 3067   1.894   5.098   3.435
  723SOL    HW1 3068   1.952   5.178   3.416
  723SOL    HW2 3069   1.829   5.086   3.361
  724SOL     OW 3070   0.944   3.043   4.662
  724SOL    HW1 3071   1.028   3.051   4.715
  724SOL    HW2 3072   0.937   2.950   4.625
  725SOL     OW 3073   2.431   5.623   1.125
  725SOL    HW1 3074   2.389   5.650   1.212
  725SOL    HW2 3075   2.407   5.528   1.105
  726SOL     OW 3076   3.762   4.874   1.400
  726SOL    HW1 3077   3.673   4.917   1.388
  726SOL    HW2 3078   3.775   4.849   1.496
  727SOL     OW 3079   5.895   5.274   5.343
  727SOL    HW1 3080   5.913   5.183   5.381
  727SOL    HW2 3081   5.874   5.266   5.246
  728SOL     OW 3082   6.853   2.676   4.659
  728SOL    HW1 3083   6.910   2.600   4.629
  728SOL    HW2 3084   6.878   2.759   4.609
  729SOL     OW 3085   1.153   2.208   1.366
  729SOL    HW1 3086   1.145   2.273   1.290
  729SOL    HW2 3087   1.204   2.128   1.336
  730SOL     OW 3088   5.493   0.553   5.051
  730SOL    HW1 3089   5.452   0.619   5.114
  730SOL    HW2 3090   5.566   0.503   5.097
  731SOL     OW 3091   5.269   4.138   6.340
  731SOL    HW1 3092   5.354   4.097   6.306
  731SOL    HW2 3093   5.283   4.237   6.351
  732SOL     OW 3094   0.015   3.008   1.552
  732SOL    HW1 3095   6.969   2.933   1.534
  732SOL    HW2 3096   7.016   3.082   1.487
  733SOL     OW 3097   5.420   6.579   5.473
  733SOL    HW1 3098   5.365   6.635   5.535
  733SOL    HW2 3099   5.393   6.483   5.482
  734SOL     OW 3100   6.582   5.166   2.822
  734SOL    HW1 3101   6.664   5.201   2.777
  734SOL    HW2 3102   6.549   5.085   2.772
  735SOL     OW 3103   4.550   1.530   0.164
  735SOL    HW1 3104   4.465   1.478   0.157
  735SOL    HW2 3105   4.530   1.628   0.162
  736SOL     OW 3106   6.814   1.729   3.585
  736SOL    HW1 3107   6.823   1.771   3.494
  736SOL    HW2 3108   6.731   1.763   3.629
  737SOL     OW 3109   4.874   1.458   4.507
  737SOL    HW1 3110   4.942   1.443   4.578
  737SOL    HW2 3111   4.877   1.384   4.440
  738SOL     OW 3112   2.326   3.903   1.531
  738SOL    HW1 3113   2.323   4.002   1.539
  738SOL    HW2 3114   2.405   3.867   1.582
  739SOL     OW 3115   4.874   0.628   4.171
  739SOL    HW1 3116   4.867   0.662   4.265
  739SOL    HW2 3117   4.908   0.534   4.172
  740SOL     OW 3118   6.426   0.953   1.495
  740SOL    HW1 3119   6.434   0.934   1.593
  740SOL    HW2 3120   6.507   0.916   1.448
  741SOL     OW 3121   2.185   6.423   3.629
  741SOL    HW1 3122   2.205   6.489   3.701
  741SOL    HW2 3123   2.259   6.424   3.561
  742SOL     OW 3124   2.699   6.439   2.327
  742SOL    HW1 3125   2.698   6.539   2.329
  742SOL    HW2 3126   2.782   6.407   2.282
  743SOL     OW 3127   6.984   4.869   2.897
  743SOL    HW1 3128   0.027   4.795   2.926
  743SOL    HW2 3129   0.004   4.957   2.925
  744SOL     OW 3130   5.756   0.750   0.358
  744SOL    HW1 3131   5.677   0.746   0.418
  744SOL    HW2 3132   5.824   0.682   0.386
  745SOL     OW 3133   1.739   5.016   4.698
  745SOL    HW1 3134   1.721   4.962   4.780
  745SOL    HW2 3135   1.838   5.030   4.689
  746SOL     OW 3136   7.010   3.670   6.717
  746SOL    HW1 3137   7.013   3.580   6.673
  746SOL    HW2 3138   0.082   3.714   6.708
  747SOL     OW 3139   3.650   6.847   4.375
  747SOL    HW1 3140   3.706   6.919   4.416
  747SOL    HW2 3141   3.628   6.778   4.444
  748SOL     OW 3142   4.208   4.954   2.150
  748SOL    HW1 3143   4.268   4.930   2.073
  748SOL    HW2 3144   4.167   5.044   2.133
  749SOL     OW 3145   6.050   3.564   4.915
  749SOL    HW1 3146   6.022   3.576   5.011
  749SOL    HW2 3147   5.974   3.590   4.855
  750SOL     OW 3148   2.016   2.526   1.503
  750SOL    HW1 3149   2.040   2.548   1.598
  750SOL    HW2 3150   1.954   2.595   1.468
  751SOL     OW 3151   3.815   2.109   0.125
  751SOL    HW1 3152   3.779   2.194   0.164
  751SOL    HW2 3153   3.867   2.059   0.194
  752SOL     OW 3154   3.715   0.923   1.810
  752SOL    HW1 3155   3.682   0.871   1.731
  752SOL    HW2 3156   3.723   1.019   1.785
  753SOL     OW 3157   2.014   3.118   5.928
  753SOL    HW1 3158   1.982   3.192   5.869
  753SOL    HW2 3159   2.048   3.156   6.014
  754SOL     OW 3160   4.843   2.532   5.385
  754SOL    HW1 3161   4.781   2.609   5.374
  754SOL    HW2 3162   4.931   2.553   5.344
  755SOL     OW 3163   1.657   4.689   6.091
  755SOL    HW1 3164   1.604   4.747   6.030
  755SOL    HW2 3165   1.642   4.593   6.067
  756SOL     OW 3166   3.053   6.525   6.467
  756SOL    HW1 3167   3.069   6.615   6.509
  756SOL    HW2 3168   3.045   6.456   6.539
  757SOL     OW 3169   0.003   0.440   4.319
  757SOL    HW1 3170   6.974   0.470   4.236
  757SOL    HW2 3171   7.010   0.342   4.330
  758SOL     OW 3172   3.800   0.183   2.713
  758SOL    HW1 3173   3.732   0.110   2.705
  758SOL    HW2 3174   3.889   0.143   2.735
  759SOL     OW 3175   6.834   1.427   1.937
  759SOL    HW1 3176   6.919   1.417   1.885
  759SOL    HW2 3177   6.822   1.523   1.961
  760SOL     OW 3178   5.887   0.083   4.594
  760SOL    HW1 3179   5.899   0.151   4.522
  760SOL    HW2 3180   5.977   0.052   4.627
  761SOL     OW 3181   5.252   3.750   6.244
  761SOL    HW1 3182   5.287   3.706   6.161
  761SOL    HW2 3183   5.185   3.821   6.219
  762SOL     OW 3184   1.834   0.168   4.138
  762SOL    HW1 3185   1.882   0.092   4.094
  762SOL    HW2 3186   1.883   0.253   4.120
  763SOL     OW 3187   4.211   5.254   6.209
  763SOL    HW1 3188   4.305   5.265   6.240
  763SOL    HW2 3189   4.156   5.330   6.243
  764SOL     OW 3190   5.336   0.880   5.186
  764SOL    HW1 3191   5.294   0.900   5.275
  764SOL    HW2 3192   5.265   0.854   5.121
  765SOL     OW 3193   1.938   5.719   1.311
  765SOL    HW1 3194   1.930   5.703   1.409
  765SOL    HW2 3195   2.016   5.668   1.275
  766SOL     OW 3196   2.587   2.788   5.868
  766SOL    HW1 3197   2.572   2.842   5.785
  766SOL    HW2 3198   2.566   2.844   5.948
  767SOL     OW 3199   6.454   5.619   1.933
  767SOL    HW1 3200   6.486   5.714   1.937
  767SOL    HW2 3201   6.443   5.591   1.838
  768SOL     OW 3202   2.350   6.081   2.719
  768SOL    HW1 3203   2.420   6.076   2.790
  768SOL    HW2 3204   2.395   6.098   2.630
  769SOL     OW 3205   2.343   0.596   5.103
  769SOL    HW1 3206   2.252   0.597   5.145
  769SOL    HW2 3207   2.361   0.685   5.062
  770SOL     OW 3208   1.875   4.719   3.229
  770SOL    HW1 3209   1.869   4.718   3.329
  770SOL    HW2 3210   1.791   4.756   3.190
  771SOL     OW 3211   1.138   5.421   2.508
  771SOL    HW1 3212   1.194   5.501   2.487
  771SOL    HW2 3213   1.097   5.386   2.424
  772SOL     OW 3214   5.451   5.962   6.953
  772SOL    HW1 3215   5.551   5.963   6.958
  772SOL    HW2 3216   5.422   5.915   6.870
  773SOL     OW 3217   0.128   4.044   4.021
  773SOL    HW1 3218   0.130   4.011   4.116
  773SOL    HW2 3219   0.198   3.996   3.968
  774SOL     OW 3220   2.128   1.405   1.741
  774SOL    HW1 3221   2.126   1.340   1.817
  774SOL    HW2 3222   2.039   1.406   1.696
  775SOL     OW 3223   1.663   2.589   3.537
  775SOL    HW1 3224   1.696   2.503   3.577
  775SOL    HW2 3225   1.645   2.655   3.609
  776SOL     OW 3226   1.780   0.240   6.298
  776SOL    HW1 3227   1.817   0.149   6.280
  776SOL    HW2 3228   1.757   0.284   6.211
  777SOL     OW 3229   1.993   4.394   1.834
  777SOL    HW1 3230   1.948   4.360   1.916
  777SOL    HW2 3231   2.092   4.400   1.851
  778SOL     OW 3232   2.447   1.362   1.863
  778SOL    HW1 3233   2.547   1.368   1.866
  778SOL    HW2 3234   2.408   1.430   1.925
  779SOL     OW 3235   6.247   2.563   1.969
  779SOL    HW1 3236   6.246   2.576   2.068
  779SOL    HW2 3237   6.204   2.642   1.924
  780SOL     OW 3238   0.316   3.618   3.859
  780SOL    HW1 3239   0.341   3.524   3.882
  780SOL    HW2 3240   0.223   3.620   3.821
  781SOL     OW 3241   6.443   6.900   6.924
  781SOL    HW1 3242   6.428   6.851   6.839
  781SOL    HW2 3243   6.517   6.857   6.975
  782SOL     OW 3244   1.465   3.675   6.373
  782SOL    HW1 3245   1.515   3.713   6.295
  782SOL    HW2 3246   1.507   3.706   6.458
  783SOL     OW 3247   4.670   4.962   2.027
  783SOL    HW1 3248   4.623   5.050   2.026
  783SOL    HW2 3249   4.766   4.975   2.001
  784SOL     OW 3250   4.690   4.750   0.659
  784SOL    HW1 3251   4.702   4.692   0.578
  784SOL    HW2 3252   4.677   4.845   0.630
  785SOL     OW 3253   0.173   2.792   3.421
  785SOL    HW1 3254   0.214   2.703   3.442
  785SOL    HW2 3255   0.076   2.790   3.448
  786SOL     OW 3256   1.486   1.074   2.755
  786SOL    HW1 3257   1.434   1.135   2.815
  786SOL    HW2 3258   1.522   1.126   2.678
  787SOL     OW 3259   1.948   0.327   6.681
  787SOL    HW1 3260   1.859   0.301   6.717
  787SOL    HW2 3261   1.993   0.391   6.743
  788SOL     OW 3262   3.512   1.871   6.766
  788SOL    HW1 3263   3.565   1.894   6.848
  788SOL    HW2 3264   3.524   1.942   6.697
  789SOL     OW 3265   5.085   3.852   1.032
  789SOL    HW1 3266   5.027   3.786   0.984
  789SOL    HW2 3267   5.158   3.804   1.080
  790SOL     OW 3268   2.214   1.148   3.534
  790SOL    HW1 3269   2.222   1.106   3.443
  790SOL    HW2 3270   2.252   1.241   3.531
  791SOL     OW 3271   1.723   5.648   3.972
  791SOL    HW1 3272   1.790   5.716   4.001
  791SOL    HW2 3273   1.763   5.557   3.978
  792SOL     OW 3274   0.628   0.780   1.179
  792SOL    HW1 3275   0.569   0.858   1.200
  792SOL    HW2 3276   0.648   0.730   1.263
  793SOL     OW 3277   4.786   5.130   3.477
  793SOL    HW1 3278   4.823   5.057   3.535
  793SOL    HW2 3279   4.844   5.143   3.397
  794SOL     OW 3280   3.064   4.224   5.565
  794SOL    HW1 3281   3.147   4.238   5.511
  794SOL    HW2 3282   3.062   4.129   5.598
  795SOL     OW 3283   2.811   6.772   4.268
  795SOL    HW1 3284   2.896   6.823   4.256
  795SOL    HW2 3285   2.821   6.709   4.345
  796SOL     OW 3286   0.177   2.008   6.594
  796SOL    HW1 3287   0.212   2.001   6.500
  796SOL    HW2 3288   0.254   2.014   6.658
  797SOL     OW 3289   5.882   2.300   0.953
  797SOL    HW1 3290   5.815   2.367   0.985
  797SOL    HW2 3291   5.921   2.252   1.032
  798SOL     OW 3292   3.368   5.939   2.091
  798SOL    HW1 3293   3.385   5.908   2.185
  798SOL    HW2 3294   3.340   5.862   2.035
  799SOL     OW 3295   0.161   6.819   5.671
  799SOL    HW1 3296   0.117   6.740   5.713
  799SOL    HW2 3297   0.259   6.818   5.694
  800SOL     OW 3298   5.591   1.595   2.949
  800SOL    HW1 3299   5.667   1.629   2.894
  800SOL    HW2 3300   5.543   1.673   2.990
  801SOL     OW 3301   1.852   4.208   4.976
  801SOL    HW1 3302   1.933   4.261   4.951
  801SOL    HW2 3303   1.804   4.179   4.893
  802SOL     OW 3304   3.036   2.056   0.788
  802SOL    HW1 3305   2.990   2.095   0.708
  802SOL    HW2 3306   3.001   2.100   0.871
  803SOL     OW 3307   0.730   0.205   5.305
  803SOL    HW1 3308   0.651   0.255   5.272
  803SOL    HW2 3309   0.813   0.241   5.262
  804SOL     OW 3310   5.727   5.935   7.000
  804SOL    HW1 3311   5.796   6.003   6.974
  804SOL    HW2 3312   5.763   5.843   6.983
  805SOL     OW 3313   3.009   0.378   3.979
  805SOL    HW1 3314   3.044   0.460   4.023
  805SOL    HW2 3315   3.076   0.304   3.989
  806SOL     OW 3316   4.846   1.313   4.270
  806SOL    HW1 3317   4.777   1.334   4.201
  806SOL    HW2 3318   4.937   1.315   4.228
  807SOL     OW 3319   1.458   1.248   5.383
  807SOL    HW1 3320   1.390   1.178   5.361
  807SOL    HW2 3321   1.487   1.238   5.478
  808SOL     OW 3322   3.944   3.485   6.463
  808SOL    HW1 3323   3.889   3.476   6.380
  808SOL    HW2 3324   3.942   3.579   6.495
  809SOL     OW 3325   0.284   4.665   1.598
  809SOL    HW1 3326   0.323   4.700   1.682
  809SOL    HW2 3327   0.336   4.700   1.520
  810SOL     OW 3328   3.784   3.674   1.019
  810SOL    HW1 3329   3.762   3.596   0.962
  810SOL    HW2 3330   3.704   3.699   1.074
  811SOL     OW 3331   4.637   5.587   5.718
  811SOL    HW1 3332   4.623   5.538   5.804
  811SOL    HW2 3333   4.552   5.586   5.665
  812SOL     OW 3334   0.373   1.022   2.233
  812SOL    HW1 3335   0.390   1.047   2.329
  812SOL    HW2 3336   0.294   1.071   2.199
  813SOL     OW 3337   3.957   0.014   4.104
  813SOL    HW1 3338   4.031   7.000   4.045
  813SOL    HW2 3339   3.994   0.073   4.176
  814SOL     OW 3340   5.968   6.321   2.524
  814SOL    HW1 3341   5.891   6.319   2.460
  814SOL    HW2 3342   6.021   6.236   2.514
  815SOL     OW 3343   0.561   3.978   3.708
  815SOL    HW1 3344   0.559   4.040   3.629
  815SOL    HW2 3345   0.650   3.983   3.752
  816SOL     OW 3346   6.193   6.260   0.269
  816SOL    HW1 3347   6.253   6.322   0.320
  816SOL    HW2 3348   6.176   6.178   0.324
  817SOL     OW 3349   1.642   5.201   0.905
  817SOL    HW1 3350   1.729   5.238   0.938
  817SOL    HW2 3351   1.567   5.259   0.936
  818SOL     OW 3352   6.316   2.730   2.921
  818SOL    HW1 3353   6.379   2.654   2.902
  818SOL    HW2 3354   6.237   2.723   2.861
  819SOL     OW 3355   5.895   2.816   2.459
  819SOL    HW1 3356   5.866   2.785   2.368
  819SOL    HW2 3357   5.984   2.775   2.481
  820SOL     OW 3358   3.580   2.014   4.866
  820SOL    HW1 3359   3.601   2.032   4.962
  820SOL    HW2 3360   3.651   2.055   4.809
  821SOL     OW 3361   0.411   4.230   0.956
  821SOL    HW1 3362   0.470   4.159   0.918
  821SOL    HW2 3363   0.330   4.240   0.898
  822SOL     OW 3364   1.049   3.801   3.831
  822SOL    HW1 3365   1.065   3.898   3.848
  822SOL    HW2 3366   1.127   3.748   3.863
  823SOL     OW 3367   4.839   4.114   6.173
  823SOL    HW1 3368   4.781   4.163   6.239
  823SOL    HW2 3369   4.801   4.126   6.081
  824SOL     OW 3370   4.633   1.533   6.819
  824SOL    HW1 3371   4.653   1.596   6.893
  824SOL    HW2 3372   4.622   1.440   6.856
  825SOL     OW 3373   6.390   4.604   1.317
  825SOL    HW1 3374   6.436   4.519   1.342
  825SOL    HW2 3375   6.454   4.681   1.324
  826SOL     OW 3376   3.815   2.800   5.861
  826SOL    HW1 3377   3.818   2.883   5.805
  826SOL    HW2 3378   3.866   2.815   5.945
  827SOL     OW 3379   2.784   4.489   5.658
  827SOL    HW1 3380   2.872   4.468   5.700
  827SOL    HW2 3381   2.786   4.464   5.561
  828SOL     OW 3382   5.971   6.425   0.183
  828SOL    HW1 3383   5.968   6.507   0.240
  828SOL    HW2 3384   6.053   6.373   0.205
  829SOL     OW 3385   4.075   3.817   2.579
  829SOL    HW1 3386   4.149   3.865   2.627
  829SOL    HW2 3387   3.990   3.869   2.588
  830SOL     OW 3388   5.175   4.843   6.255
  830SOL    HW1 3389   5.118   4.774   6.300
  830SOL    HW2 3390   5.271   4.826   6.276
  831SOL     OW 3391   6.438   0.531   0.028
  831SOL    HW1 3392   6.465   0.609   6.989
  831SOL    HW2 3393   6.343   0.544   0.059
  832SOL     OW 3394   3.882   0.995   2.310
  832SOL    HW1 3395   3.917   1.023   2.399
  832SOL    HW2 3396   3.813   1.060   2.280
  833SOL     OW 3397   1.307   3.892   6.065
  833SOL    HW1 3398   1.268   3.891   5.973
  833SOL    HW2 3399   1.283   3.978   6.110
  834SOL     OW 3400   4.199   3.834   0.882
  834SOL    HW1 3401   4.160   3.776   0.953
  834SOL    HW2 3402   4.236   3.777   0.809
  835SOL     OW 3403   3.634   0.008   5.614
  835SOL    HW1 3404   3.631   6.926   5.608
  835SOL    HW2 3405   3.669   0.035   5.703
  836SOL     OW 3406   4.205   5.841   5.874
  836SOL    HW1 3407   4.258   5.867   5.955
  836SOL    HW2 3408   4.112   5.877   5.882
  837SOL     OW 3409   5.669   0.662   1.111
  837SOL    HW1 3410   5.618   0.747   1.096
  837SOL    HW2 3411   5.617   0.585   1.074
  838SOL     OW 3412   2.283   0.715   4.261
  838SOL    HW1 3413   2.342   0.635   4.271
  838SOL    HW2 3414   2.298   0.757   4.172
  839SOL     OW 3415   1.359   1.942   2.318
  839SOL    HW1 3416   1.396   2.032   2.340
  839SOL    HW2 3417   1.387   1.915   2.226
  840SOL     OW 3418   6.829   5.572   0.227
  840SOL    HW1 3419   6.876   5.498   0.275
  840SOL    HW2 3420   6.805   5.644   0.292
  841SOL     OW 3421   3.914   4.961   0.193
  841SOL    HW1 3422   3.820   4.995   0.184
  841SOL    HW2 3423   3.913   4.868   0.230
  842SOL     OW 3424   3.765   0.623   3.991
  842SOL    HW1 3425   3.789   0.529   4.012
  842SOL    HW2 3426   3.686   0.625   3.930
  843SOL     OW 3427   0.557   1.230   1.290
  843SOL    HW1 3428   0.656   1.242   1.290
  843SOL    HW2 3429   0.532   1.165   1.362
  844SOL     OW 3430   5.293   0.740   0.704
  844SOL    HW1 3431   5.331   0.715   0.793
  844SOL    HW2 3432   5.268   0.837   0.704
  845SOL     OW 3433   4.708   4.577   4.768
  845SOL    HW1 3434   4.635   4.608   4.708
  845SOL    HW2 3435   4.741   4.654   4.823
  846SOL     OW 3436   2.127   1.841   6.287
  846SOL    HW1 3437   2.151   1.916   6.348
  846SOL    HW2 3438   2.102   1.877   6.197
  847SOL     OW 3439   1.064   3.079   1.770
  847SOL    HW1 3440   0.996   3.017   1.730
  847SOL    HW2 3441   1.122   3.115   1.697
  848SOL     OW 3442   6.716   0.509   6.417
  848SOL    HW1 3443   6.634   0.520   6.473
  848SOL    HW2 3444   6.691   0.476   6.326
  849SOL     OW 3445   7.005   3.575   6.013
  849SOL    HW1 3446   6.917   3.568   5.967
  849SOL    HW2 3447   6.996   3.544   6.108
  850SOL     OW 3448   5.066   0.838   3.547
  850SOL    HW1 3449   5.057   0.881   3.637
  850SOL    HW2 3450   5.149   0.870   3.503
  851SOL     OW 3451   6.945   1.928   2.473
  851SOL    HW1 3452   6.994   1.855   2.425
  851SOL    HW2 3453   6.987   1.943   2.562
  852SOL     OW 3454   0.764   3.620   0.241
  852SOL    HW1 3455   0.859   3.634   0.213
  852SOL    HW2 3456   0.761   3.564   0.324
  853SOL     OW 3457   1.047   4.437   0.962
  853SOL    HW1 3458   1.134   4.403   0.926
  853SOL    HW2 3459   1.061   4.528   1.000
  854SOL     OW 3460   5.256   4.766   0.506
  854SOL    HW1 3461   5.266   4.832   0.580
  854SOL    HW2 3462   5.302   4.801   0.424
  855SOL     OW 3463   0.005   0.027   1.698
  855SOL    HW1 3464   6.951   0.054   1.635
  855SOL    HW2 3465   0.091   0.018   1.648
  856SOL     OW 3466   1.345   2.642   5.690
  856SOL    HW1 3467   1.374   2.735   5.710
  856SOL    HW2 3468   1.397   2.606   5.613
  857SOL     OW 3469   5.663   4.645   2.115
  857SOL    HW1 3470   5.625   4.720   2.063
  857SOL    HW2 3471   5.619   4.640   2.205
  858SOL     OW 3472   2.407   3.451   1.029
  858SOL    HW1 3473   2.482   3.518   1.026
  858SOL    HW2 3474   2.377   3.439   1.124
  859SOL     OW 3475   6.025   6.241   5.316
  859SOL    HW1 3476   5.996   6.147   5.336
  859SOL    HW2 3477   6.010   6.297   5.397
  860SOL     OW 3478   6.095   3.234   0.528
  860SOL    HW1 3479   6.125   3.230   0.433
  860SOL    HW2 3480   6.093   3.141   0.566
  861SOL     OW 3481   2.757   6.137   3.184
  861SOL    HW1 3482   2.729   6.068   3.118
  861SOL    HW2 3483   2.682   6.156   3.247
  862SOL     OW 3484   1.806   3.827   4.600
  862SOL    HW1 3485   1.862   3.776   4.665
  862SOL    HW2 3486   1.715   3.843   4.639
  863SOL     OW 3487   6.358   1.801   0.823
  863SOL    HW1 3488   6.413   1.781   0.903
  863SOL    HW2 3489   6.282   1.860   0.849
  864SOL     OW 3490   4.281   5.221   4.043
  864SOL    HW1 3491   4.321   5.269   3.966
  864SOL    HW2 3492   4.317   5.259   4.129
  865SOL     OW 3493   1.345   6.446   5.595
  865SOL    HW1 3494   1.362   6.392   5.678
  865SOL    HW2 3495   1.389   6.536   5.604
  866SOL     OW 3496   2.458   1.821   2.154
  866SOL    HW1 3497   2.515   1.799   2.075
  866SOL    HW2 3498   2.484   1.910   2.190
  867SOL     OW 3499   4.695   3.279   0.513
  867SOL    HW1 3500   4.743   3.194   0.492
  867SOL    HW2 3501   4.699   3.295   0.612
  868SOL     OW 3502   5.388   1.263   0.672
  868SOL    HW1 3503   5.370   1.270   0.573
  868SOL    HW2 3504   5.454   1.190   0.688
  869SOL     OW 3505   0.153   4.288   2.986
  869SOL    HW1 3506   0.141   4.348   2.906
  869SOL    HW2 3507   0.076   4.224   2.991
  870SOL     OW 3508   4.861   3.074   0.443
  870SOL    HW1 3509   4.861   3.006   0.516
  870SOL    HW2 3510   4.837   3.029   0.356
  871SOL     OW 3511   4.407   2.431   2.505
  871SOL    HW1 3512   4.489   2.413   2.452
  871SOL    HW2 3513   4.329   2.382   2.465
  872SOL     OW 3514   5.705   3.130   3.795
  872SOL    HW1 3515   5.803   3.109   3.799
  872SOL    HW2 3516   5.664   3.082   3.718
  873SOL     OW 3517   5.820   6.766   4.494
  873SOL    HW1 3518   5.821   6.807   4.402
  873SOL    HW2 3519   5.750   6.811   4.549
  874SOL     OW 3520   0.773   4.049   5.819
  874SOL    HW1 3521   0.762   3.982   5.746
  874SOL    HW2 3522   0.791   4.139   5.780
  875SOL     OW 3523   4.576   3.798   0.377
  875SOL    HW1 3524   4.616   3.789   0.286
  875SOL    HW2 3525   4.496   3.738   0.384
  876SOL     OW 3526   0.559   4.397   2.263
  876SOL    HW1 3527   0.523   4.475   2.314
  876SOL    HW2 3528   0.631   4.427   2.201
  877SOL     OW 3529   4.021   4.522   6.111
  877SOL    HW1 3530   4.058   4.614   6.122
  877SOL    HW2 3531   4.094   4.460   6.083
  878SOL     OW 3532   3.817   6.223   5.288
  878SOL    HW1 3533   3.904   6.218   5.338
  878SOL    HW2 3534   3.834   6.261   5.197
  879SOL     OW 3535   3.568   2.426   0.843
  879SOL    HW1 3536   3.641   2.411   0.777
  879SOL    HW2 3537   3.541   2.523   0.842
  880SOL     OW 3538   2.957   3.835   4.439
  880SOL    HW1 3539   2.943   3.736   4.435
  880SOL    HW2 3540   2.902   3.874   4.513
  881SOL     OW 3541   4.973   3.987   5.507
  881SOL    HW1 3542   5.040   4.058   5.530
  881SOL    HW2 3543   4.925   4.011   5.423
  882SOL     OW 3544   1.044   2.438   4.465
  882SOL    HW1 3545   1.011   2.434   4.371
  882SOL    HW2 3546   0.976   2.482   4.523
  883SOL     OW 3547   4.362   0.072   6.858
  883SOL    HW1 3548   4.417   0.079   6.941
  883SOL    HW2 3549   4.371   0.157   6.806
  884SOL     OW 3550   0.117   4.123   0.150
  884SOL    HW1 3551   0.080   4.202   0.101
  884SOL    HW2 3552   0.047   4.084   0.209
  885SOL     OW 3553   4.806   6.456   5.992
  885SOL    HW1 3554   4.833   6.552   5.994
  885SOL    HW2 3555   4.863   6.403   6.055
  886SOL     OW 3556   4.124   0.925   1.249
  886SOL    HW1 3557   4.097   0.941   1.344
  886SOL    HW2 3558   4.220   0.950   1.237
  887SOL     OW 3559   3.979   5.439   3.890
  887SOL    HW1 3560   4.052   5.455   3.825
  887SOL    HW2 3561   3.902   5.500   3.871
  888SOL     OW 3562   6.712   6.183   2.904
  888SOL    HW1 3563   6.788   6.119   2.919
  888SOL    HW2 3564   6.745   6.262   2.853
  889SOL     OW 3565   0.555   0.514   6.044
  889SOL    HW1 3566   0.596   0.581   6.106
  889SOL    HW2 3567   0.457   0.529   6.040
  890SOL     OW 3568   1.735   5.276   2.223
  890SOL    HW1 3569   1.777   5.232   2.144
  890SOL    HW2 3570   1.786   5.253   2.306
  891SOL     OW 3571   6.404   4.093   0.606
  891SOL    HW1 3572   6.411   4.062   0.511
  891SOL    HW2 3573   6.422   4.191   0.610
  892SOL     OW 3574   3.786   4.308   5.457
  892SOL    HW1 3575   3.855   4.380   5.457
  892SOL    HW2 3576   3.713   4.332   5.392
  893SOL     OW 3577   1.728   0.310   2.679
  893SOL    HW1 3578   1.757   0.392   2.631
  893SOL    HW2 3579   1.642   0.278   2.640
  894SOL     OW 3580   0.739   2.810   3.402
  894SOL    HW1 3581   0.761   2.812   3.305
  894SOL    HW2 3582   0.655   2.862   3.417
  895SOL     OW 3583   1.301   5.681   3.618
  895SOL    HW1 3584   1.270   5.776   3.616
  895SOL    HW2 3585   1.373   5.670   3.686
  896SOL     OW 3586   5.722   6.197   1.668
  896SOL    HW1 3587   5.748   6.186   1.764
  896SOL    HW2 3588   5.668   6.118   1.639
  897SOL     OW 3589   4.634   0.555   6.812
  897SOL    HW1 3590   4.692   0.636   6.812
  897SOL    HW2 3591   4.599   0.538   6.720
  898SOL     OW 3592   3.523   6.332   2.892
  898SOL    HW1 3593   3.449   6.345   2.958
  898SOL    HW2 3594   3.550   6.236   2.892
  899SOL     OW 3595   0.552   5.994   0.892
  899SOL    HW1 3596   0.520   6.027   0.980
  899SOL    HW2 3597   0.519   6.055   0.819
  900SOL     OW 3598   4.601   5.877   6.839
  900SOL    HW1 3599   4.667   5.952   6.843
  900SOL    HW2 3600   4.549   5.883   6.754
  901SOL     OW 3601   1.219   0.841   5.153
  901SOL    HW1 3602   1.197   0.801   5.242
  901SOL    HW2 3603   1.134   0.857   5.102
  902SOL     OW 3604   0.875   2.609   0.983
  902SOL    HW1 3605   0.821   2.537   0.941
  902SOL    HW2 3606   0.972   2.596   0.960
  903SOL     OW 3607   0.533   2.936   6.582
  903SOL    HW1 3608   0.619   2.972   6.617
  903SOL    HW2 3609   0.512   2.978   6.494
  904SOL     OW 3610   2.510   2.525   2.681
  904SOL    HW1 3611   2.576   2.529   2.606
  904SOL    HW2 3612   2.448   2.604   2.676
  905SOL     OW 3613   5.273   3.989   5.984
  905SOL    HW1 3614   5.194   4.001   6.044
  905SOL    HW2 3615   5.299   4.078   5.946
  906SOL     OW 3616   0.802   3.020   6.655
  906SOL    HW1 3617   0.850   2.988   6.574
  906SOL    HW2 3618   0.819   3.118   6.667
  907SOL     OW 3619   5.040   2.576   2.167
  907SOL    HW1 3620   4.973   2.503   2.178
  907SOL    HW2 3621   5.051   2.624   2.253
  908SOL     OW 3622   2.465   4.895   2.711
  908SOL    HW1 3623   2.386   4.834   2.715
  908SOL    HW2 3624   2.433   4.989   2.701
  909SOL     OW 3625   2.963   6.069   1.963
  909SOL    HW1 3626   2.885   6.124   1.994
  909SOL    HW2 3627   2.942   5.972   1.974
  910SOL     OW 3628   2.978   0.864   0.296
  910SOL    HW1 3629   2.993   0.934   0.226
  910SOL    HW2 3630   3.067   0.835   0.333
  911SOL     OW 3631   0.503   5.669   0.178
  911SOL    HW1 3632   0.583   5.630   0.132
  911SOL    HW2 3633   0.521   5.765   0.200
  912SOL     OW 3634   5.018   0.609   3.821
  912SOL    HW1 3635   5.037   0.531   3.881
  912SOL    HW2 3636   5.078   0.605   3.741
  913SOL     OW 3637   2.706   0.946   3.583
  913SOL    HW1 3638   2.706   0.987   3.492
  913SOL    HW2 3639   2.664   0.855   3.579
  914SOL     OW 3640   2.278   5.859   4.884
  914SOL    HW1 3641   2.203   5.872   4.949
  914SOL    HW2 3642   2.307   5.763   4.885
  915SOL     OW 3643   1.056   3.340   0.779
  915SOL    HW1 3644   1.097   3.321   0.690
  915SOL    HW2 3645   0.992   3.267   0.803
  916SOL     OW 3646   2.006   3.111   2.282
  916SOL    HW1 3647   1.978   3.207   2.288
  916SOL    HW2 3648   2.066   3.099   2.202
  917SOL     OW 3649   5.794   1.208   2.473
  917SOL    HW1 3650   5.881   1.257   2.486
  917SOL    HW2 3651   5.786   1.179   2.378
  918SOL     OW 3652   3.180   6.975   0.967
  918SOL    HW1 3653   3.262   6.994   1.021
  918SOL    HW2 3654   3.102   0.004   1.009
  919SOL     OW 3655   6.250   6.104   3.341
  919SOL    HW1 3656   6.297   6.129   3.256
  919SOL    HW2 3657   6.305   6.037   3.391
  920SOL     OW 3658   2.028   4.856   3.032
  920SOL    HW1 3659   2.122   4.835   3.056
  920SOL    HW2 3660   1.966   4.802   3.088
  921SOL     OW 3661   4.697   4.342   3.231
  921SOL    HW1 3662   4.636   4.411   3.270
  921SOL    HW2 3663   4.748   4.382   3.155
  922SOL     OW 3664   3.571   3.804   5.463
  922SOL    HW1 3665   3.616   3.791   5.552
  922SOL    HW2 3666   3.512   3.725   5.444
  923SOL     OW 3667   2.993   4.619   6.030
  923SOL    HW1 3668   3.021   4.574   5.945
  923SOL    HW2 3669   2.897   4.597   6.049
  924SOL     OW 3670   5.892   2.576   2.868
  924SOL    HW1 3671   5.826   2.528   2.926
  924SOL    HW2 3672   5.863   2.671   2.855
  925SOL     OW 3673   0.557   1.401   6.589
  925SOL    HW1 3674   0.566   1.327   6.655
  925SOL    HW2 3675   0.640   1.406   6.532
  926SOL     OW 3676   6.192   1.210   0.901
  926SOL    HW1 3677   6.173   1.147   0.976
  926SOL    HW2 3678   6.246   1.164   0.831
  927SOL     OW 3679   5.761   3.764   3.303
  927SOL    HW1 3680   5.798   3.762   3.211
  927SOL    HW2 3681   5.830   3.732   3.368
  928SOL     OW 3682   0.926   6.159   0.507
  928SOL    HW1 3683   0.927   6.114   0.418
  928SOL    HW2 3684   0.853   6.121   0.563
  929SOL     OW 3685   0.381   0.947   1.138
  929SOL    HW1 3686   0.301   1.002   1.115
  929SOL    HW2 3687   0.423   0.913   1.054
  930SOL     OW 3688   5.415   6.294   3.886
  930SOL    HW1 3689   5.406   6.199   3.915
  930SOL    HW2 3690   5.451   6.349   3.961
  931SOL     OW 3691   5.988   2.190   3.603
  931SOL    HW1 3692   5.975   2.289   3.606
  931SOL    HW2 3693   5.901   2.144   3.622
  932SOL     OW 3694   2.794   6.481   3.386
  932SOL    HW1 3695   2.863   6.550   3.367
  932SOL    HW2 3696   2.721   6.520   3.442
  933SOL     OW 3697   1.646   6.008   3.444
  933SOL    HW1 3698   1.705   6.035   3.368
  933SOL    HW2 3699   1.702   5.968   3.517
  934SOL     OW 3700   1.991   0.030   6.134
  934SOL    HW1 3701   2.044   0.094   6.190
  934SOL    HW2 3702   2.043   0.007   6.052
  935SOL     OW 3703   4.366   5.001   4.725
  935SOL    HW1 3704   4.337   5.090   4.689
  935SOL    HW2 3705   4.342   4.929   4.659
  936SOL     OW 3706   1.075   0.518   5.996
  936SOL    HW1 3707   1.103   0.508   6.091
  936SOL    HW2 3708   1.065   0.615   5.974
  937SOL     OW 3709   5.031   1.254   5.069
  937SOL    HW1 3710   5.011   1.347   5.041
  937SOL    HW2 3711   4.959   1.193   5.037
  938SOL     OW 3712   6.627   5.311   5.874
  938SOL    HW1 3713   6.661   5.373   5.944
  938SOL    HW2 3714   6.557   5.356   5.820
  939SOL     OW 3715   6.543   7.006   5.525
  939SOL    HW1 3716   6.445   6.985   5.531
  939SOL    HW2 3717   6.578   6.974   5.437
  940SOL     OW 3718   0.294   3.092   1.979
  940SOL    HW1 3719   0.212   3.145   2.000
  940SOL    HW2 3720   0.276   3.035   1.898
  941SOL     OW 3721   5.146   1.247   5.854
  941SOL    HW1 3722   5.229   1.298   5.877
  941SOL    HW2 3723   5.128   1.179   5.926
  942SOL     OW 3724   4.887   6.908   3.309
  942SOL    HW1 3725   4.966   6.846   3.306
  942SOL    HW2 3726   4.916   7.001   3.287
  943SOL     OW 3727   2.078   3.387   4.023
  943SOL    HW1 3728   2.109   3.296   4.049
  943SOL    HW2 3729   2.100   3.452   4.096
  944SOL     OW 3730   0.575   4.891   6.022
  944SOL    HW1 3731   0.601   4.799   5.992
  944SOL    HW2 3732   0.599   4.903   6.118
  945SOL     OW 3733   6.224   4.901   5.109
  945SOL    HW1 3734   6.149   4.954   5.069
  945SOL    HW2 3735   6.260   4.838   5.042
  946SOL     OW 3736   5.450   2.429   6.197
  946SOL    HW1 3737   5.468   2.519   6.237
  946SOL    HW2 3738   5.453   2.359   6.268
  947SOL     OW 3739   3.714   3.028   3.990
  947SOL    HW1 3740   3.675   2.968   3.919
  947SOL    HW2 3741   3.641   3.080   4.033
  948SOL     OW 3742   3.346   0.068   1.506
  948SOL    HW1 3743   3.444   0.067   1.487
  948SOL    HW2 3744   3.322   0.152   1.555
  949SOL     OW 3745   1.249   6.553   6.495
  949SOL    HW1 3746   1.288   6.535   6.405
  949SOL    HW2 3747   1.240   6.466   6.545
  950SOL     OW 3748   4.565   5.299   1.743
  950SOL    HW1 3749   4.595   5.239   1.669
  950SOL    HW2 3750   4.511   5.374   1.705
  951SOL     OW 3751   2.084   1.403   3.974
  951SOL    HW1 3752   2.151   1.392   3.900
  951SOL    HW2 3753   2.082   1.319   4.029
  952SOL     OW 3754   4.999   1.391   3.072
  952SOL    HW1 3755   5.054   1.314   3.038
  952SOL    HW2 3756   4.931   1.357   3.137
  953SOL     OW 3757   5.524   4.691   3.991
  953SOL    HW1 3758   5.623   4.696   3.979
  953SOL    HW2 3759   5.492   4.775   4.035
  954SOL     OW 3760   3.990   4.815   1.124
  954SOL    HW1 3761   4.001   4.913   1.142
  954SOL    HW2 3762   3.923   4.777   1.188
  955SOL     OW 3763   6.802   3.617   3.277
  955SOL    HW1 3764   6.884   3.596   3.330
  955SOL    HW2 3765   6.829   3.654   3.188
  956SOL     OW 3766   6.589   1.480   2.687
  956SOL    HW1 3767   6.616   1.452   2.595
  956SOL    HW2 3768   6.491   1.500   2.688
  957SOL     OW 3769   6.222   3.782   5.029
  957SOL    HW1 3770   6.182   3.839   4.957
  957SOL    HW2 3771   6.149   3.752   5.091
  958SOL     OW 3772   4.385   2.020   1.567
  958SOL    HW1 3773   4.448   2.069   1.507
  958SOL    HW2 3774   4.294   2.017   1.525
  959SOL     OW 3775   4.011   5.829   2.343
  959SOL    HW1 3776   3.992   5.892   2.418
  959SOL    HW2 3777   3.925   5.805   2.298
  960SOL     OW 3778   1.368   6.347   1.354
  960SOL    HW1 3779   1.340   6.350   1.450
  960SOL    HW2 3780   1.463   6.376   1.347
  961SOL     OW 3781   4.716   6.846   3.770
  961SOL    HW1 3782   4.765   6.909   3.711
  961SOL    HW2 3783   4.781   6.798   3.829
  962SOL     OW 3784   0.291   1.339   5.640
  962SOL    HW1 3785   0.191   1.332   5.630
  962SOL    HW2 3786   0.335   1.316   5.554
  963SOL     OW 3787   6.829   2.033   6.703
  963SOL    HW1 3788   6.882   1.975   6.641
  963SOL    HW2 3789   6.750   1.983   6.737
  964SOL     OW 3790   5.600   4.154   0.193
  964SOL    HW1 3791   5.582   4.056   0.182
  964SOL    HW2 3792   5.642   4.170   0.282
  965SOL     OW 3793   4.962   2.351   1.206
  965SOL    HW1 3794   4.910   2.387   1.129
  965SOL    HW2 3795   5.005   2.426   1.255
  966SOL     OW 3796   4.902   2.141   1.831
  966SOL    HW1 3797   4.978   2.105   1.886
  966SOL    HW2 3798   4.839   2.066   1.809
  967SOL     OW 3799   2.448   4.121   1.291
  967SOL    HW1 3800   2.402   4.149   1.376
  967SOL    HW2 3801   2.390   4.145   1.213
  968SOL     OW 3802   3.584   0.826   1.548
  968SOL    HW1 3803   3.530   0.783   1.475
  968SOL    HW2 3804   3.671   0.777   1.558
  969SOL     OW 3805   3.337   5.942   6.278
  969SOL    HW1 3806   3.410   5.895   6.328
  969SOL    HW2 3807   3.371   5.968   6.188
  970SOL     OW 3808   5.135   0.897   6.013
  970SOL    HW1 3809   5.136   0.879   5.915
  970SOL    HW2 3810   5.074   0.831   6.058
  971SOL     OW 3811   6.675   1.981   3.074
  971SOL    HW1 3812   6.646   1.887   3.054
  971SOL    HW2 3813   6.752   1.979   3.138
  972SOL     OW 3814   5.348   3.274   2.501
  972SOL    HW1 3815   5.410   3.195   2.490
  972SOL    HW2 3816   5.304   3.269   2.591
  973SOL     OW 3817   0.261   4.641   0.027
  973SOL    HW1 3818   0.300   4.657   6.955
  973SOL    HW2 3819   0.256   4.543   0.044
  974SOL     OW 3820   4.952   6.435   2.025
  974SOL    HW1 3821   4.974   6.503   2.095
  974SOL    HW2 3822   4.977   6.344   2.059
  975SOL     OW 3823   1.048   7.016   6.569
  975SOL    HW1 3824   0.965   7.010   6.514
  975SOL    HW2 3825   1.078   6.924   6.593
  976SOL     OW 3826   6.560   3.998   3.343
  976SOL    HW1 3827   6.632   3.951   3.395
  976SOL    HW2 3828   6.563   4.096   3.364
  977SOL     OW 3829   1.234   0.697   2.516
  977SOL    HW1 3830   1.266   0.791   2.510
  977SOL    HW2 3831   1.159   0.682   2.452
  978SOL     OW 3832   4.871   3.401   5.923
  978SOL    HW1 3833   4.872   3.498   5.897
  978SOL    HW2 3834   4.934   3.350   5.865
  979SOL     OW 3835   6.983   1.959   1.149
  979SOL    HW1 3836   0.001   1.872   1.118
  979SOL    HW2 3837   0.001   2.033   1.091
  980SOL     OW 3838   4.397   2.405   3.939
  980SOL    HW1 3839   4.359   2.402   3.847
  980SOL    HW2 3840   4.401   2.313   3.977
  981SOL     OW 3841   0.247   1.562   5.064
  981SOL    HW1 3842   0.337   1.573   5.021
  981SOL    HW2 3843   0.199   1.649   5.064
  982SOL     OW 3844   2.649   2.305   4.533
  982SOL    HW1 3845   2.696   2.287   4.620
  982SOL    HW2 3846   2.661   2.227   4.473
  983SOL     OW 3847   6.215   2.726   5.212
  983SOL    HW1 3848   6.139   2.679   5.257
  983SOL    HW2 3849   6.277   2.659   5.171
  984SOL     OW 3850   2.514   1.975   4.851
  984SOL    HW1 3851   2.433   1.948   4.800
  984SOL    HW2 3852   2.578   1.898   4.857
  985SOL     OW 3853   5.679   4.244   5.180
  985SOL    HW1 3854   5.735   4.276   5.104
  985SOL    HW2 3855   5.632   4.159   5.153
  986SOL     OW 3856   6.039   4.858   1.263
  986SOL    HW1 3857   5.946   4.885   1.289
  986SOL    HW2 3858   6.057   4.765   1.296
  987SOL     OW 3859   4.824   6.926   1.966
  987SOL    HW1 3860   4.917   6.896   1.987
  987SOL    HW2 3861   4.809   6.922   1.867
  988SOL     OW 3862   3.515   3.198   2.515
  988SOL    HW1 3863   3.569   3.243   2.587
  988SOL    HW2 3864   3.436   3.154   2.557
  989SOL     OW 3865   6.110   1.217   6.189
  989SOL    HW1 3866   6.105   1.197   6.091
  989SOL    HW2 3867   6.017   1.226   6.226
  990SOL     OW 3868   4.285   1.110   1.925
  990SOL    HW1 3869   4.250   1.204   1.931
  990SOL    HW2 3870   4.213   1.046   1.949
  991SOL     OW 3871   0.817   3.285   5.420
  991SOL    HW1 3872   0.847   3.193   5.444
  991SOL    HW2 3873   0.723   3.299   5.452
  992SOL     OW 3874   7.002   2.910   2.559
  992SOL    HW1 3875   6.988   2.856   2.642
  992SOL    HW2 3876   0.029   2.996   2.583
  993SOL     OW 3877   0.831   4.456   0.821
  993SOL    HW1 3878   0.912   4.410   0.857
  993SOL    HW2 3879   0.848   4.555   0.818
  994SOL     OW 3880   4.284   4.149   1.170
  994SOL    HW1 3881   4.329   4.236   1.193
  994SOL    HW2 3882   4.332   4.106   1.094
  995SOL     OW 3883   3.964   3.249   4.929
  995SOL    HW1 3884   3.881   3.298   4.955
  995SOL    HW2 3885   4.042   3.283   4.980
  996SOL     OW 3886   3.138   5.164   4.881
  996SOL    HW1 3887   3.045   5.127   4.876
  996SOL    HW2 3888   3.138   5.247   4.936
  997SOL     OW 3889   1.202   0.175   3.262
  997SOL    HW1 3890   1.250   0.237   3.201
  997SOL    HW2 3891   1.210   0.209   3.356
  998SOL     OW 3892   4.870   0.497   4.699
  998SOL    HW1 3893   4.901   0.536   4.612
  998SOL    HW2 3894   4.857   0.398   4.688
  999SOL     OW 3895   4.803   4.236   2.648
  999SOL    HW1 3896   4.797   4.153   2.703
  999SOL    HW2 3897   4.731   4.237   2.579
 1000SOL     OW 3898   2.462   1.411   1.577
 1000SOL    HW1 3899   2.435   1.410   1.673
 1000SOL    HW2 3900   2.542   1.470   1.565
 1001SOL     OW 3901   4.657   5.798   0.781
 1001SOL    HW1 3902   4.707   5.757   0.705
 1001SOL    HW2 3903   4.703   5.881   0.811
 1002SOL     OW 3904   6.080   1.433   1.342
 1002SOL    HW1 3905   6.035   1.360   1.394
 1002SOL    HW2 3906   6.174   1.405   1.322
 1003SOL     OW 3907   2.136   6.596   2.464
 1003SOL    HW1 3908   2.224   6.552   2.446
 1003SOL    HW2 3909   2.110   6.583   2.559
 1004SOL     OW 3910   0.553   6.832   2.671
 1004SOL    HW1 3911   0.628   6.768   2.659
 1004SOL    HW2 3912   0.518   6.860   2.581
 1005SOL     OW 3913   2.300   2.911   4.206
 1005SOL    HW1 3914   2.223   2.854   4.236
 1005SOL    HW2 3915   2.309   2.904   4.107
 1006SOL     OW 3916   0.552   4.803   1.414
 1006SOL    HW1 3917   0.491   4.755   1.351
 1006SOL    HW2 3918   0.588   4.738   1.481
 1007SOL     OW 3919   4.425   0.239   5.291
 1007SOL    HW1 3920   4.451   0.331   5.260
 1007SOL    HW2 3921   4.371   0.194   5.220
 1008SOL     OW 3922   1.619   3.354   5.567
 1008SOL    HW1 3923   1.719   3.350   5.574
 1008SOL    HW2 3924   1.588   3.287   5.500
 1009SOL     OW 3925   0.386   5.573   4.858
 1009SOL    HW1 3926   0.299   5.528   4.875
 1009SOL    HW2 3927   0.382   5.667   4.893
 1010SOL     OW 3928   3.636   2.563   6.317
 1010SOL    HW1 3929   3.729   2.528   6.320
 1010SOL    HW2 3930   3.638   2.663   6.321
 1011SOL     OW 3931   2.110   4.450   2.543
 1011SOL    HW1 3932   2.179   4.408   2.602
 1011SOL    HW2 3933   2.019   4.434   2.582
 1012SOL     OW 3934   6.654   0.389   2.674
 1012SOL    HW1 3935   6.753   0.387   2.661
 1012SOL    HW2 3936   6.608   0.371   2.587
 1013SOL     OW 3937   0.898   1.078   6.016
 1013SOL    HW1 3938   0.967   1.096   6.086
 1013SOL    HW2 3939   0.879   1.162   5.966
 1014SOL     OW 3940   6.390   5.212   6.089
 1014SOL    HW1 3941   6.351   5.270   6.017
 1014SOL    HW2 3942   6.350   5.121   6.083
 1015SOL     OW 3943   2.463   6.732   6.008
 1015SOL    HW1 3944   2.420   6.648   6.043
 1015SOL    HW2 3945   2.557   6.713   5.982
 1016SOL     OW 3946   3.786   3.175   6.909
 1016SOL    HW1 3947   3.869   3.119   6.905
 1016SOL    HW2 3948   3.721   3.133   6.972
 1017SOL     OW 3949   4.044   2.817   1.335
 1017SOL    HW1 3950   4.117   2.752   1.355
 1017SOL    HW2 3951   4.044   2.839   1.238
 1018SOL     OW 3952   0.344   4.425   4.372
 1018SOL    HW1 3953   0.315   4.329   4.375
 1018SOL    HW2 3954   0.379   4.446   4.281
 1019SOL     OW 3955   6.765   6.630   0.808
 1019SOL    HW1 3956   6.846   6.666   0.855
 1019SOL    HW2 3957   6.689   6.626   0.872
 1020SOL     OW 3958   6.786   1.026   1.176
 1020SOL    HW1 3959   6.811   1.056   1.084
 1020SOL    HW2 3960   6.863   0.979   1.219
 1021SOL     OW 3961   5.525   0.162   1.558
 1021SOL    HW1 3962   5.453   0.108   1.514
 1021SOL    HW2 3963   5.510   0.259   1.539
 1022SOL     OW 3964   3.487   4.616   5.328
 1022SOL    HW1 3965   3.446   4.591   5.415
 1022SOL    HW2 3966   3.519   4.710   5.332
 1023SOL     OW 3967   0.840   6.844   2.790
 1023SOL    HW1 3968   0.939   6.835   2.779
 1023SOL    HW2 3969   0.807   6.923   2.739
 1024SOL     OW 3970   0.804   2.400   4.035
 1024SOL    HW1 3971   0.784   2.493   4.004
 1024SOL    HW2 3972   0.765   2.335   3.970
 1025SOL     OW 3973   3.625   3.581   1.385
 1025SOL    HW1 3974   3.559   3.626   1.446
 1025SOL    HW2 3975   3.598   3.485   1.372
 1026SOL     OW 3976   2.082   2.970   0.920
 1026SOL    HW1 3977   2.128   2.882   0.913
 1026SOL    HW2 3978   2.132   3.029   0.983
 1027SOL     OW 3979   3.144   6.280   1.584
 1027SOL    HW1 3980   3.220   6.297   1.646
 1027SOL    HW2 3981   3.076   6.222   1.630
 1028SOL     OW 3982   2.785   6.425   1.042
 1028SOL    HW1 3983   2.726   6.391   1.114
 1028SOL    HW2 3984   2.774   6.368   0.960
 1029SOL     OW 3985   1.869   0.016   6.922
 1029SOL    HW1 3986   1.855   0.021   6.824
 1029SOL    HW2 3987   1.794   6.983   6.965
 1030SOL     OW 3988   3.066   2.585   1.743
 1030SOL    HW1 3989   3.041   2.506   1.799
 1030SOL    HW2 3990   3.033   2.572   1.650
 1031SOL     OW 3991   5.484   4.144   1.343
 1031SOL    HW1 3992   5.500   4.183   1.433
 1031SOL    HW2 3993   5.522   4.052   1.339
 1032SOL     OW 3994   1.897   2.369   5.170
 1032SOL    HW1 3995   1.820   2.427   5.144
 1032SOL    HW2 3996   1.891   2.281   5.122
 1033SOL     OW 3997   1.211   6.753   1.497
 1033SOL    HW1 3998   1.252   6.703   1.421
 1033SOL    HW2 3999   1.251   6.722   1.584
 1034SOL     OW 4000   0.438   4.700   4.925
 1034SOL    HW1 4001   0.526   4.746   4.935
 1034SOL    HW2 4002   0.375   4.732   4.996
 1035SOL     OW 4003   6.940   0.816   4.837
 1035SOL    HW1 4004   6.923   0.720   4.860
 1035SOL    HW2 4005   6.999   0.857   4.907
 1036SOL     OW 4006   3.416   1.027   1.603
 1036SOL    HW1 4007   3.378   0.982   1.684
 1036SOL    HW2 4008   3.486   0.969   1.562
 1037SOL     OW 4009   1.920   1.138   1.745
 1037SOL    HW1 4010   1.826   1.105   1.743
 1037SOL    HW2 4011   1.973   1.091   1.675
 1038SOL     OW 4012   1.493   0.809   5.075
 1038SOL    HW1 4013   1.565   0.853   5.128
 1038SOL    HW2 4014   1.404   0.844   5.105
 1039SOL     OW 4015   3.456   3.891   5.170
 1039SOL    HW1 4016   3.527   3.844   5.223
 1039SOL    HW2 4017   3.478   3.989   5.165
 1040SOL     OW 4018   4.725   1.373   2.631
 1040SOL    HW1 4019   4.660   1.379   2.707
 1040SOL    HW2 4020   4.675   1.367   2.544
 1041SOL     OW 4021   6.965   6.699   3.939
 1041SOL    HW1 4022   0.043   6.678   3.958
 1041SOL    HW2 4023   6.952   6.711   3.841
 1042SOL     OW 4024   4.497   5.170   1.968
 1042SOL    HW1 4025   4.410   5.208   1.999
 1042SOL    HW2 4026   4.522   5.211   1.880
 1043SOL     OW 4027   3.604   1.740   4.762
 1043SOL    HW1 4028   3.667   1.743   4.839
 1043SOL    HW2 4029   3.530   1.806   4.776
 1044SOL     OW 4030   5.605   5.311   2.809
 1044SOL    HW1 4031   5.697   5.346   2.825
 1044SOL    HW2 4032   5.603   5.260   2.723
 1045SOL     OW 4033   4.307   6.745   2.183
 1045SOL    HW1 4034   4.308   6.721   2.086
 1045SOL    HW2 4035   4.377   6.691   2.231
 1046SOL     OW 4036   2.055   0.503   0.448
 1046SOL    HW1 4037   2.018   0.567   0.516
 1046SOL    HW2 4038   2.148   0.477   0.475
 1047SOL     OW 4039   1.907   0.745   3.517
 1047SOL    HW1 4040   1.929   0.753   3.419
 1047SOL    HW2 4041   1.957   0.815   3.568
 1048SOL     OW 4042   4.207   6.406   3.788
 1048SOL    HW1 4043   4.216   6.342   3.864
 1048SOL    HW2 4044   4.240   6.496   3.816
 1049SOL     OW 4045   6.586   6.045   3.723
 1049SOL    HW1 4046   6.681   6.017   3.706
 1049SOL    HW2 4047   6.576   6.068   3.820
 1050SOL     OW 4048   4.086   4.766   1.465
 1050SOL    HW1 4049   4.004   4.710   1.455
 1050SOL    HW2 4050   4.065   4.860   1.441
 1051SOL     OW 4051   2.074   6.111   0.526
 1051SOL    HW1 4052   2.069   6.131   0.624
 1051SOL    HW2 4053   2.159   6.149   0.489
 1052SOL     OW 4054   3.822   0.574   4.441
 1052SOL    HW1 4055   3.867   0.610   4.359
 1052SOL    HW2 4056   3.729   0.611   4.446
 1053SOL     OW 4057   5.879   4.979   3.126
 1053SOL    HW1 4058   5.839   4.924   3.053
 1053SOL    HW2 4059   5.949   5.039   3.088
 1054SOL     OW 4060   3.204   3.913   6.466
 1054SOL    HW1 4061   3.148   3.981   6.419
 1054SOL    HW2 4062   3.148   3.832   6.486
 1055SOL     OW 4063   3.481   6.568   4.488
 1055SOL    HW1 4064   3.554   6.551   4.553
 1055SOL    HW2 4065   3.406   6.617   4.534
 1056SOL     OW 4066   2.006   4.904   6.418
 1056SOL    HW1 4067   1.923   4.872   6.373
 1056SOL    HW2 4068   2.012   5.004   6.410
 1057SOL     OW 4069   2.858   2.960   1.740
 1057SOL    HW1 4070   2.867   3.030   1.811
 1057SOL    HW2 4071   2.912   2.988   1.660
 1058SOL     OW 4072   5.155   1.535   3.284
 1058SOL    HW1 4073   5.104   1.564   3.203
 1058SOL    HW2 4074   5.149   1.435   3.292
 1059SOL     OW 4075   3.264   0.693   1.562
 1059SOL    HW1 4076   3.324   0.699   1.483
 1059SOL    HW2 4077   3.193   0.625   1.545
 1060SOL     OW 4078   0.494   4.298   5.036
 1060SOL    HW1 4079   0.421   4.335   5.094
 1060SOL    HW2 4080   0.477   4.322   4.941
 1061SOL     OW 4081   6.088   2.961   0.441
 1061SOL    HW1 4082   6.140   2.911   0.510
 1061SOL    HW2 4083   6.042   2.895   0.380
 1062SOL     OW 4084   5.485   4.049   6.202
 1062SOL    HW1 4085   5.439   3.993   6.134
 1062SOL    HW2 4086   5.531   4.126   6.157
 1063SOL     OW 4087   1.235   5.080   1.676
 1063SOL    HW1 4088   1.259   5.004   1.736
 1063SOL    HW2 4089   1.317   5.132   1.653
 1064SOL     OW 4090   1.638   4.215   2.264
 1064SOL    HW1 4091   1.714   4.151   2.273
 1064SOL    HW2 4092   1.604   4.214   2.171
 1065SOL     OW 4093   3.428   0.219   3.596
 1065SOL    HW1 4094   3.448   0.295   3.658
 1065SOL    HW2 4095   3.485   0.141   3.621
 1066SOL     OW 4096   4.840   6.298   3.163
 1066SOL    HW1 4097   4.884   6.376   3.206
 1066SOL    HW2 4098   4.831   6.314   3.064
 1067SOL     OW 4099   0.529   3.609   0.914
 1067SOL    HW1 4100   0.492   3.669   0.844
 1067SOL    HW2 4101   0.454   3.557   0.956
 1068SOL     OW 4102   5.625   5.413   3.105
 1068SOL    HW1 4103   5.553   5.392   3.039
 1068SOL    HW2 4104   5.594   5.387   3.196
 1069SOL     OW 4105   4.291   4.957   1.252
 1069SOL    HW1 4106   4.316   4.865   1.283
 1069SOL    HW2 4107   4.192   4.960   1.237
 1070SOL     OW 4108   6.945   7.007   2.448
 1070SOL    HW1 4109   7.003   6.967   2.377
 1070SOL    HW2 4110   6.965   0.086   2.456
 1071SOL     OW 4111   1.239   0.131   3.802
 1071SOL    HW1 4112   1.156   0.076   3.806
 1071SOL    HW2 4113   1.284   0.119   3.713
 1072SOL     OW 4114   1.901   0.862   1.075
 1072SOL    HW1 4115   1.961   0.786   1.051
 1072SOL    HW2 4116   1.869   0.851   1.169
 1073SOL     OW 4117   5.154   0.174   2.272
 1073SOL    HW1 4118   5.153   0.194   2.370
 1073SOL    HW2 4119   5.191   0.082   2.257
 1074SOL     OW 4120   2.321   5.371   1.107
 1074SOL    HW1 4121   2.401   5.313   1.094
 1074SOL    HW2 4122   2.260   5.361   1.029
 1075SOL     OW 4123   4.988   6.971   4.065
 1075SOL    HW1 4124   4.955   6.976   4.159
 1075SOL    HW2 4125   5.008   6.876   4.042
 1076SOL     OW 4126   6.880   2.599   5.350
 1076SOL    HW1 4127   6.875   2.535   5.273
 1076SOL    HW2 4128   6.803   2.662   5.347
 1077SOL     OW 4129   5.567   0.687   1.483
 1077SOL    HW1 4130   5.628   0.629   1.429
 1077SOL    HW2 4131   5.580   0.783   1.457
 1078SOL     OW 4132   1.151   1.432   2.301
 1078SOL    HW1 4133   1.164   1.335   2.320
 1078SOL    HW2 4134   1.178   1.485   2.381
 1079SOL     OW 4135   2.236   6.258   2.053
 1079SOL    HW1 4136   2.267   6.351   2.030
 1079SOL    HW2 4137   2.155   6.236   1.999
 1080SOL     OW 4138   1.557   4.326   3.815
 1080SOL    HW1 4139   1.496   4.254   3.783
 1080SOL    HW2 4140   1.649   4.289   3.826
 1081SOL     OW 4141   0.601   5.674   5.593
 1081SOL    HW1 4142   0.692   5.667   5.552
 1081SOL    HW2 4143   0.543   5.600   5.560
 1082SOL     OW 4144   4.241   2.109   5.211
 1082SOL    HW1 4145   4.197   2.061   5.288
 1082SOL    HW2 4146   4.336   2.077   5.202
 1083SOL     OW 4147   4.101   3.660   0.263
 1083SOL    HW1 4148   4.098   3.578   0.206
 1083SOL    HW2 4149   4.196   3.693   0.271
 1084SOL     OW 4150   5.822   6.278   6.966
 1084SOL    HW1 4151   5.767   6.358   6.991
 1084SOL    HW2 4152   5.791   6.242   6.878
 1085SOL     OW 4153   1.472   3.436   4.005
 1085SOL    HW1 4154   1.533   3.379   4.060
 1085SOL    HW2 4155   1.410   3.378   3.953
 1086SOL     OW 4156   6.952   5.927   0.678
 1086SOL    HW1 4157   6.879   5.963   0.736
 1086SOL    HW2 4158   6.937   5.957   0.583
 1087SOL     OW 4159   5.580   1.738   4.284
 1087SOL    HW1 4160   5.608   1.827   4.249
 1087SOL    HW2 4161   5.547   1.681   4.208
 1088SOL     OW 4162   0.061   4.633   2.992
 1088SOL    HW1 4163   0.022   4.582   3.069
 1088SOL    HW2 4164   0.064   4.574   2.911
 1089SOL     OW 4165   1.459   6.465   4.341
 1089SOL    HW1 4166   1.524   6.531   4.305
 1089SOL    HW2 4167   1.380   6.513   4.380
 1090SOL     OW 4168   2.679   2.290   3.530
 1090SOL    HW1 4169   2.614   2.215   3.513
 1090SOL    HW2 4170   2.641   2.376   3.497
 1091SOL     OW 4171   3.321   1.842   4.794
 1091SOL    HW1 4172   3.312   1.928   4.844
 1091SOL    HW2 4173   3.252   1.777   4.826
 1092SOL     OW 4174   1.652   3.548   1.369
 1092SOL    HW1 4175   1.632   3.619   1.303
 1092SOL    HW2 4176   1.652   3.587   1.461
 1093SOL     OW 4177   2.066   1.240   1.955
 1093SOL    HW1 4178   2.029   1.226   2.047
 1093SOL    HW2 4179   2.011   1.190   1.888
 1094SOL     OW 4180   0.274   6.910   3.345
 1094SOL    HW1 4181   0.290   6.949   3.436
 1094SOL    HW2 4182   0.359   6.874   3.308
 1095SOL     OW 4183   0.689   2.748   6.365
 1095SOL    HW1 4184   0.619   2.784   6.427
 1095SOL    HW2 4185   0.673   2.783   6.273
 1096SOL     OW 4186   3.600   4.166   1.890
 1096SOL    HW1 4187   3.637   4.256   1.912
 1096SOL    HW2 4188   3.620   4.103   1.965
 1097SOL     OW 4189   2.244   4.569   4.134
 1097SOL    HW1 4190   2.246   4.498   4.064
 1097SOL    HW2 4191   2.297   4.540   4.213
 1098SOL     OW 4192   3.909   3.436   6.934
 1098SOL    HW1 4193   3.874   3.508   6.875
 1098SOL    HW2 4194   3.862   3.350   6.914
 1099SOL     OW 4195   4.132   1.391   5.460
 1099SOL    HW1 4196   4.099   1.450   5.386
 1099SOL    HW2 4197   4.171   1.448   5.532
 1100SOL     OW 4198   3.423   1.977   5.183
 1100SOL    HW1 4199   3.515   2.016   5.187
 1100SOL    HW2 4200   3.376   2.013   5.102
 1101SOL     OW 4201   6.144   2.265   6.765
 1101SOL    HW1 4202   6.162   2.266   6.667
 1101SOL    HW2 4203   6.228   2.241   6.814
 1102SOL     OW 4204   0.502   6.652   5.094
 1102SOL    HW1 4205   0.586   6.636   5.042
 1102SOL    HW2 4206   0.524   6.667   5.190
 1103SOL     OW 4207   3.768   1.449   0.113
 1103SOL    HW1 4208   3.792   1.383   0.183
 1103SOL    HW2 4209   3.751   1.539   0.155
 1104SOL     OW 4210   1.943   2.926   5.539
 1104SOL    HW1 4211   1.891   2.960   5.461
 1104SOL    HW2 4212   2.024   2.982   5.553
 1105SOL     OW 4213   6.505   3.703   5.202
 1105SOL    HW1 4214   6.421   3.679   5.251
 1105SOL    HW2 4215   6.513   3.803   5.198
 1106SOL     OW 4216   0.087   2.441   1.816
 1106SOL    HW1 4217   0.013   2.508   1.814
 1106SOL    HW2 4218   0.077   2.378   1.739
 1107SOL     OW 4219   0.576   0.771   6.807
 1107SOL    HW1 4220   0.525   0.854   6.783
 1107SOL    HW2 4221   0.515   0.692   6.804
 1108SOL     OW 4222   3.290   0.047   5.905
 1108SOL    HW1 4223   3.339   0.018   5.823
 1108SOL    HW2 4224   3.203   0.090   5.879
 1109SOL     OW 4225   5.084   1.315   4.169
 1109SOL    HW1 4226   5.142   1.352   4.096
 1109SOL    HW2 4227   5.142   1.275   4.240
 1110SOL     OW 4228   3.082   1.321   3.011
 1110SOL    HW1 4229   3.051   1.301   2.918
 1110SOL    HW2 4230   3.074   1.239   3.067
 1111SOL     OW 4231   4.618   5.149   6.222
 1111SOL    HW1 4232   4.580   5.099   6.144
 1111SOL    HW2 4233   4.716   5.129   6.229
 1112SOL     OW 4234   4.894   1.513   2.140
 1112SOL    HW1 4235   4.989   1.499   2.111
 1112SOL    HW2 4236   4.888   1.501   2.239
 1113SOL     OW 4237   6.101   4.058   2.145
 1113SOL    HW1 4238   6.099   4.131   2.076
 1113SOL    HW2 4239   6.194   4.023   2.152
 1114SOL     OW 4240   3.825   1.468   6.215
 1114SOL    HW1 4241   3.746   1.527   6.227
 1114SOL    HW2 4242   3.892   1.513   6.156
 1115SOL     OW 4243   4.181   3.339   6.237
 1115SOL    HW1 4244   4.225   3.418   6.279
 1115SOL    HW2 4245   4.213   3.255   6.281
 1116SOL     OW 4246   5.152   0.055   5.836
 1116SOL    HW1 4247   5.131   0.002   5.755
 1116SOL    HW2 4248   5.211   0.132   5.812
 1117SOL     OW 4249   2.408   2.162   2.730
 1117SOL    HW1 4250   2.446   2.221   2.802
 1117SOL    HW2 4251   2.313   2.186   2.715
 1118SOL     OW 4252   2.647   4.518   0.511
 1118SOL    HW1 4253   2.593   4.602   0.511
 1118SOL    HW2 4254   2.689   4.506   0.422
 1119SOL     OW 4255   4.416   4.393   1.269
 1119SOL    HW1 4256   4.476   4.430   1.198
 1119SOL    HW2 4257   4.469   4.330   1.327
 1120SOL     OW 4258   6.221   6.494   6.574
 1120SOL    HW1 4259   6.285   6.545   6.518
 1120SOL    HW2 4260   6.164   6.558   6.626
 1121SOL     OW 4261   5.151   5.024   3.611
 1121SOL    HW1 4262   5.139   5.008   3.513
 1121SOL    HW2 4263   5.247   5.013   3.635
 1122SOL     OW 4264   5.491   2.874   0.398
 1122SOL    HW1 4265   5.485   2.798   0.463
 1122SOL    HW2 4266   5.586   2.885   0.368
 1123SOL     OW 4267   4.900   1.164   2.678
 1123SOL    HW1 4268   4.989   1.207   2.664
 1123SOL    HW2 4269   4.827   1.228   2.653
 1124SOL     OW 4270   0.726   3.413   5.198
 1124SOL    HW1 4271   0.756   3.360   5.277
 1124SOL    HW2 4272   0.792   3.404   5.124
 1125SOL     OW 4273   3.196   2.092   4.141
 1125SOL    HW1 4274   3.105   2.121   4.170
 1125SOL    HW2 4275   3.243   2.045   4.216
 1126SOL     OW 4276   6.041   5.038   6.903
 1126SOL    HW1 4277   6.025   4.974   6.977
 1126SOL    HW2 4278   6.010   5.129   6.930
 1127SOL     OW 4279   5.242   5.345   4.832
 1127SOL    HW1 4280   5.153   5.326   4.790
 1127SOL    HW2 4281   5.232   5.345   4.932
 1128SOL     OW 4282   5.587   1.643   5.144
 1128SOL    HW1 4283   5.549   1.675   5.058
 1128SOL    HW2 4284   5.597   1.544   5.142
 1129SOL     OW 4285   1.577   6.922   7.011
 1129SOL    HW1 4286   1.565   6.981   0.073
 1129SOL    HW2 4287   1.494   6.923   6.955
 1130SOL     OW 4288   2.935   4.749   1.129
 1130SOL    HW1 4289   2.916   4.654   1.156
 1130SOL    HW2 4290   2.850   4.792   1.100
 1131SOL     OW 4291   0.884   5.341   5.632
 1131SOL    HW1 4292   0.840   5.429   5.644
 1131SOL    HW2 4293   0.851   5.299   5.547
 1132SOL     OW 4294   5.471   0.265   2.209
 1132SOL    HW1 4295   5.442   0.324   2.284
 1132SOL    HW2 4296   5.406   0.271   2.134
 1133SOL     OW 4297   1.066   0.476   1.373
 1133SOL    HW1 4298   0.975   0.503   1.404
 1133SOL    HW2 4299   1.058   0.426   1.287
 1134SOL     OW 4300   5.178   0.772   1.664
 1134SOL    HW1 4301   5.219   0.725   1.743
 1134SOL    HW2 4302   5.116   0.709   1.617
 1135SOL     OW 4303   2.678   0.104   2.528
 1135SOL    HW1 4304   2.757   0.085   2.587
 1135SOL    HW2 4305   2.665   0.203   2.520
 1136SOL     OW 4306   4.003   4.782   3.145
 1136SOL    HW1 4307   4.045   4.692   3.156
 1136SOL    HW2 4308   4.054   4.850   3.198
 1137SOL     OW 4309   0.984   0.683   6.908
 1137SOL    HW1 4310   0.933   0.608   6.865
 1137SOL    HW2 4311   1.082   0.668   6.898
 1138SOL     OW 4312   6.912   0.565   5.891
 1138SOL    HW1 4313   6.841   0.636   5.888
 1138SOL    HW2 4314   6.979   0.582   5.819
 1139SOL     OW 4315   3.152   4.815   2.079
 1139SOL    HW1 4316   3.130   4.839   1.985
 1139SOL    HW2 4317   3.236   4.760   2.081
 1140SOL     OW 4318   3.874   1.565   1.439
 1140SOL    HW1 4319   3.858   1.474   1.479
 1140SOL    HW2 4320   3.794   1.622   1.455
 1141SOL     OW 4321   0.082   6.214   6.580
 1141SOL    HW1 4322   0.061   6.310   6.558
 1141SOL    HW2 4323   0.046   6.193   6.670
 1142SOL     OW 4324   2.657   7.010   4.533
 1142SOL    HW1 4325   2.685   6.980   4.441
 1142SOL    HW2 4326   2.733   6.996   4.596
 1143SOL     OW 4327   1.928   3.122   3.342
 1143SOL    HW1 4328   2.002   3.166   3.291
 1143SOL    HW2 4329   1.966   3.059   3.409
 1144SOL     OW 4330   6.442   4.834   4.560
 1144SOL    HW1 4331   6.527   4.797   4.525
 1144SOL    HW2 4332   6.392   4.879   4.486
 1145SOL     OW 4333   6.422   3.738   2.715
 1145SOL    HW1 4334   6.382   3.670   2.653
 1145SOL    HW2 4335   6.426   3.701   2.807
 1146SOL     OW 4336   0.022   0.244   2.460
 1146SOL    HW1 4337   0.119   0.230   2.479
 1146SOL    HW2 4338   0.011   0.300   2.378
 1147SOL     OW 4339   2.575   5.032   1.615
 1147SOL    HW1 4340   2.622   5.106   1.663
 1147SOL    HW2 4341   2.479   5.030   1.642
 1148SOL     OW 4342   4.802   5.626   0.575
 1148SOL    HW1 4343   4.847   5.651   0.489
 1148SOL    HW2 4344   4.762   5.534   0.566
 1149SOL     OW 4345   6.777   3.851   3.433
 1149SOL    HW1 4346   6.831   3.917   3.381
 1149SOL    HW2 4347   6.774   3.764   3.383
 1150SOL     OW 4348   2.377   3.905   0.146
 1150SOL    HW1 4349   2.353   3.809   0.161
 1150SOL    HW2 4350   2.449   3.911   0.076
 1151SOL     OW 4351   5.036   4.663   6.851
 1151SOL    HW1 4352   5.013   4.658   6.948
 1151SOL    HW2 4353   5.059   4.572   6.817
 1152SOL     OW 4354   5.356   4.533   6.096
 1152SOL    HW1 4355   5.257   4.537   6.082
 1152SOL    HW2 4356   5.376   4.474   6.174
 1153SOL     OW 4357   1.608   0.472   1.570
 1153SOL    HW1 4358   1.544   0.545   1.596
 1153SOL    HW2 4359   1.623   0.412   1.649
 1154SOL     OW 4360   6.783   4.287   1.003
 1154SOL    HW1 4361   6.729   4.203   0.997
 1154SOL    HW2 4362   6.764   4.333   1.089
 1155SOL     OW 4363   2.743   5.429   6.083
 1155SOL    HW1 4364   2.721   5.498   6.152
 1155SOL    HW2 4365   2.773   5.474   5.999
 1156SOL     OW 4366   4.194   1.434   4.591
 1156SOL    HW1 4367   4.118   1.370   4.601
 1156SOL    HW2 4368   4.267   1.390   4.538
 1157SOL     OW 4369   5.640   1.798   5.818
 1157SOL    HW1 4370   5.733   1.801   5.781
 1157SOL    HW2 4371   5.609   1.892   5.836
 1158SOL     OW 4372   0.218   4.937   5.469
 1158SOL    HW1 4373   0.196   4.903   5.560
 1158SOL    HW2 4374   0.186   5.031   5.460
 1159SOL     OW 4375   6.424   6.834   4.033
 1159SOL    HW1 4376   6.485   6.909   4.059
 1159SOL    HW2 4377   6.467   6.779   3.962
 1160SOL     OW 4378   5.251   3.975   0.800
 1160SOL    HW1 4379   5.232   3.894   0.744
 1160SOL    HW2 4380   5.167   4.008   0.841
 1161SOL     OW 4381   5.983   6.833   6.147
 1161SOL    HW1 4382   6.038   6.751   6.164
 1161SOL    HW2 4383   6.042   6.913   6.150
 1162SOL     OW 4384   3.192   2.280   6.941
 1162SOL    HW1 4385   3.220   2.246   6.851
 1162SOL    HW2 4386   3.271   2.282   7.002
 1163SOL     OW 4387   6.708   3.645   2.116
 1163SOL    HW1 4388   6.749   3.555   2.132
 1163SOL    HW2 4389   6.610   3.640   2.136
 1164SOL     OW 4390   6.480   2.982   4.751
 1164SOL    HW1 4391   6.431   3.055   4.798
 1164SOL    HW2 4392   6.575   3.009   4.735
 1165SOL     OW 4393   3.127   4.879   3.681
 1165SOL    HW1 4394   3.136   4.849   3.776
 1165SOL    HW2 4395   3.183   4.960   3.666
 1166SOL     OW 4396   3.983   6.946   0.108
 1166SOL    HW1 4397   3.886   6.952   0.084
 1166SOL    HW2 4398   4.039   6.961   0.026
 1167SOL     OW 4399   4.385   6.461   6.885
 1167SOL    HW1 4400   4.292   6.426   6.892
 1167SOL    HW2 4401   4.449   6.389   6.913
 1168SOL     OW 4402   5.105   1.898   3.111
 1168SOL    HW1 4403   5.168   1.827   3.080
 1168SOL    HW2 4404   5.040   1.919   3.038
 1169SOL     OW 4405   5.065   2.177   6.303
 1169SOL    HW1 4406   5.068   2.210   6.209
 1169SOL    HW2 4407   5.024   2.246   6.362
 1170SOL     OW 4408   5.132   0.571   3.598
 1170SOL    HW1 4409   5.216   0.527   3.566
 1170SOL    HW2 4410   5.125   0.662   3.557
 1171SOL     OW 4411   2.842   5.990   6.987
 1171SOL    HW1 4412   2.778   5.931   0.020
 1171SOL    HW2 4413   2.806   6.007   6.896
 1172SOL     OW 4414   2.903   4.180   1.730
 1172SOL    HW1 4415   2.830   4.155   1.666
 1172SOL    HW2 4416   2.891   4.275   1.759
 1173SOL     OW 4417   2.402   0.641   6.650
 1173SOL    HW1 4418   2.305   0.653   6.675
 1173SOL    HW2 4419   2.435   0.724   6.606
 1174SOL     OW 4420   3.079   4.496   1.315
 1174SOL    HW1 4421   3.118   4.406   1.334
 1174SOL    HW2 4422   2.987   4.486   1.279
 1175SOL     OW 4423   3.773   3.572   6.721
 1175SOL    HW1 4424   3.789   3.641   6.651
 1175SOL    HW2 4425   3.709   3.503   6.687
 1176SOL     OW 4426   5.606   4.792   6.694
 1176SOL    HW1 4427   5.705   4.798   6.713
 1176SOL    HW2 4428   5.565   4.727   6.758
 1177SOL     OW 4429   6.913   2.196   4.754
 1177SOL    HW1 4430   6.840   2.258   4.781
 1177SOL    HW2 4431   6.879   2.132   4.685
 1178SOL     OW 4432   3.251   3.875   0.947
 1178SOL    HW1 4433   3.231   3.822   0.864
 1178SOL    HW2 4434   3.183   3.855   1.017
 1179SOL     OW 4435   3.029   5.701   0.842
 1179SOL    HW1 4436   3.080   5.783   0.818
 1179SOL    HW2 4437   2.935   5.727   0.867
 1180SOL     OW 4438   2.133   6.058   4.109
 1180SOL    HW1 4439   2.222   6.067   4.063
 1180SOL    HW2 4440   2.063   6.102   4.053
 1181SOL     OW 4441   0.197   3.564   5.821
 1181SOL    HW1 4442   0.176   3.571   5.723
 1181SOL    HW2 4443   0.131   3.619   5.873
 1182SOL     OW 4444   3.207   4.936   2.893
 1182SOL    HW1 4445   3.185   5.011   2.831
 1182SOL    HW2 4446   3.148   4.857   2.872
 1183SOL     OW 4447   3.079   5.361   1.827
 1183SOL    HW1 4448   3.125   5.288   1.877
 1183SOL    HW2 4449   3.133   5.445   1.833
 1184SOL     OW 4450   6.143   0.075   5.987
 1184SOL    HW1 4451   6.159   0.019   5.905
 1184SOL    HW2 4452   6.103   0.162   5.961
 1185SOL     OW 4453   0.689   0.740   0.429
 1185SOL    HW1 4454   0.779   0.708   0.458
 1185SOL    HW2 4455   0.691   0.761   0.331
 1186SOL     OW 4456   5.426   5.977   5.138
 1186SOL    HW1 4457   5.439   5.897   5.197
 1186SOL    HW2 4458   5.494   5.977   5.065
 1187SOL     OW 4459   5.257   6.763   5.625
 1187SOL    HW1 4460   5.269   6.799   5.717
 1187SOL    HW2 4461   5.264   6.837   5.558
 1188SOL     OW 4462   2.820   5.560   5.843
 1188SOL    HW1 4463   2.805   5.474   5.793
 1188SOL    HW2 4464   2.915   5.566   5.871
 1189SOL     OW 4465   6.235   0.542   1.170
 1189SOL    HW1 4466   6.196   0.619   1.221
 1189SOL    HW2 4467   6.211   0.457   1.216
 1190SOL     OW 4468   2.854   5.386   2.898
 1190SOL    HW1 4469   2.930   5.416   2.840
 1190SOL    HW2 4470   2.888   5.324   2.968
 1191SOL     OW 4471   2.799   6.328   4.079
 1191SOL    HW1 4472   2.888   6.327   4.124
 1191SOL    HW2 4473   2.803   6.272   3.996
 1192SOL     OW 4474   5.888   6.256   3.372
 1192SOL    HW1 4475   5.930   6.170   3.342
 1192SOL    HW2 4476   5.908   6.328   3.306
 1193SOL     OW 4477   6.942   0.814   5.279
 1193SOL    HW1 4478   6.977   0.853   5.194
 1193SOL    HW2 4479   7.009   0.827   5.352
 1194SOL     OW 4480   6.605   1.488   1.689
 1194SOL    HW1 4481   6.698   1.459   1.668
 1194SOL    HW2 4482   6.607   1.568   1.749
 1195SOL     OW 4483   0.115   3.622   0.496
 1195SOL    HW1 4484   0.113   3.540   0.439
 1195SOL    HW2 4485   0.171   3.604   0.577
 1196SOL     OW 4486   6.926   4.342   3.453
 1196SOL    HW1 4487   6.884   4.378   3.537
 1196SOL    HW2 4488   6.856   4.293   3.400
 1197SOL     OW 4489   4.525   6.020   4.319
 1197SOL    HW1 4490   4.491   5.933   4.285
 1197SOL    HW2 4491   4.536   6.084   4.243
 1198SOL     OW 4492   0.997   3.754   1.708
 1198SOL    HW1 4493   1.035   3.789   1.623
 1198SOL    HW2 4494   1.002   3.825   1.778
 1199SOL     OW 4495   3.172   4.054   3.180
 1199SOL    HW1 4496   3.096   4.006   3.136
 1199SOL    HW2 4497   3.228   3.989   3.231
 1200SOL     OW 4498   3.876   4.001   4.307
 1200SOL    HW1 4499   3.873   3.989   4.208
 1200SOL    HW2 4500   3.793   4.048   4.338
 1201SOL     OW 4501   6.506   1.095   4.912
 1201SOL    HW1 4502   6.499   1.182   4.961
 1201SOL    HW2 4503   6.466   1.105   4.821
 1202SOL     OW 4504   0.394   5.975   5.451
 1202SOL    HW1 4505   0.404   6.062   5.404
 1202SOL    HW2 4506   0.472   5.960   5.511
 1203SOL     OW 4507   0.577   6.348   0.058
 1203SOL    HW1 4508   0.658   6.404   0.044
 1203SOL    HW2 4509   0.589   6.292   0.140
 1204SOL     OW 4510   4.747   1.493   1.478
 1204SOL    HW1 4511   4.724   1.582   1.438
 1204SOL    HW2 4512   4.723   1.494   1.575
 1205SOL     OW 4513   3.692   3.495   0.535
 1205SOL    HW1 4514   3.640   3.570   0.495
 1205SOL    HW2 4515   3.775   3.479   0.480
 1206SOL     OW 4516   1.309   3.291   4.940
 1206SOL    HW1 4517   1.348   3.366   4.886
 1206SOL    HW2 4518   1.357   3.286   5.028
 1207SOL     OW 4519   0.414   0.126   0.992
 1207SOL    HW1 4520   0.350   0.052   0.971
 1207SOL    HW2 4521   0.453   0.160   0.906
 1208SOL     OW 4522   2.758   3.232   1.205
 1208SOL    HW1 4523   2.670   3.229   1.158
 1208SOL    HW2 4524   2.827   3.272   1.144
 1209SOL     OW 4525   5.239   0.466   4.219
 1209SOL    HW1 4526   5.287   0.494   4.302
 1209SOL    HW2 4527   5.306   0.447   4.147
 1210SOL     OW 4528   3.954   6.274   3.776
 1210SOL    HW1 4529   4.025   6.344   3.772
 1210SOL    HW2 4530   3.902   6.274   3.690
 1211SOL     OW 4531   0.567   3.035   3.300
 1211SOL    HW1 4532   0.545   2.966   3.232
 1211SOL    HW2 4533   0.654   3.079   3.277
 1212SOL     OW 4534   6.504   6.966   5.879
 1212SOL    HW1 4535   6.514   7.004   5.787
 1212SOL    HW2 4536   6.594   6.950   5.918
 1213SOL     OW 4537   6.083   2.735   1.839
 1213SOL    HW1 4538   6.090   2.828   1.875
 1213SOL    HW2 4539   6.006   2.688   1.883
 1214SOL     OW 4540   1.296   2.553   0.098
 1214SOL    HW1 4541   1.387   2.545   0.139
 1214SOL    HW2 4542   1.232   2.494   0.147
 1215SOL     OW 4543   1.048   4.893   3.122
 1215SOL    HW1 4544   1.136   4.893   3.169
 1215SOL    HW2 4545   1.059   4.855   3.030
 1216SOL     OW 4546   5.500   1.561   0.406
 1216SOL    HW1 4547   5.528   1.506   0.327
 1216SOL    HW2 4548   5.462   1.501   0.476
 1217SOL     OW 4549   2.582   4.789   0.548
 1217SOL    HW1 4550   2.608   4.847   0.626
 1217SOL    HW2 4551   2.501   4.827   0.504
 1218SOL     OW 4552   2.060   2.829   5.078
 1218SOL    HW1 4553   2.087   2.854   4.985
 1218SOL    HW2 4554   1.974   2.874   5.101
 1219SOL     OW 4555   5.763   5.639   1.732
 1219SOL    HW1 4556   5.849   5.672   1.771
 1219SOL    HW2 4557   5.749   5.543   1.758
 1220SOL     OW 4558   0.214   4.331   2.319
 1220SOL    HW1 4559   0.276   4.337   2.241
 1220SOL    HW2 4560   0.121   4.351   2.290
 1221SOL     OW 4561   4.835   3.160   6.451
 1221SOL    HW1 4562   4.862   3.227   6.382
 1221SOL    HW2 4563   4.753   3.193   6.498
 1222SOL     OW 4564   6.529   1.129   6.182
 1222SOL    HW1 4565   6.456   1.061   6.187
 1222SOL    HW2 4566   6.599   1.098   6.118
 1223SOL     OW 4567   4.030   1.106   0.085
 1223SOL    HW1 4568   4.029   1.059   7.015
 1223SOL    HW2 4569   4.084   1.053   0.150
 1224SOL     OW 4570   2.922   6.285   0.104
 1224SOL    HW1 4571   2.952   6.190   0.090
 1224SOL    HW2 4572   2.886   6.321   0.018
 1225SOL     OW 4573   3.358   2.501   6.697
 1225SOL    HW1 4574   3.279   2.557   6.676
 1225SOL    HW2 4575   3.442   2.551   6.673
 1226SOL     OW 4576   3.535   6.642   0.957
 1226SOL    HW1 4577   3.454   6.591   0.985
 1226SOL    HW2 4578   3.566   6.609   0.868
 1227SOL     OW 4579   5.225   4.921   5.887
 1227SOL    HW1 4580   5.319   4.956   5.883
 1227SOL    HW2 4581   5.172   4.975   5.952
 1228SOL     OW 4582   2.744   2.264   6.165
 1228SOL    HW1 4583   2.737   2.241   6.262
 1228SOL    HW2 4584   2.657   2.300   6.133
 1229SOL     OW 4585   2.825   5.209   6.744
 1229SOL    HW1 4586   2.756   5.278   6.724
 1229SOL    HW2 4587   2.913   5.254   6.761
 1230SOL     OW 4588   5.476   6.198   1.891
 1230SOL    HW1 4589   5.440   6.233   1.804
 1230SOL    HW2 4590   5.560   6.147   1.873
 1231SOL     OW 4591   1.957   2.074   5.729
 1231SOL    HW1 4592   1.895   2.146   5.761
 1231SOL    HW2 4593   1.936   2.052   5.633
 1232SOL     OW 4594   6.584   1.703   4.784
 1232SOL    HW1 4595   6.677   1.708   4.820
 1232SOL    HW2 4596   6.519   1.697   4.859
 1233SOL     OW 4597   0.618   5.435   4.901
 1233SOL    HW1 4598   0.672   5.519   4.914
 1233SOL    HW2 4599   0.530   5.458   4.860
 1234SOL     OW 4600   5.834   3.127   5.751
 1234SOL    HW1 4601   5.893   3.062   5.703
 1234SOL    HW2 4602   5.774   3.078   5.814
 1235SOL     OW 4603   6.077   5.510   2.320
 1235SOL    HW1 4604   6.115   5.561   2.243
 1235SOL    HW2 4605   6.083   5.565   2.403
 1236SOL     OW 4606   4.333   0.855   0.833
 1236SOL    HW1 4607   4.269   0.932   0.831
 1236SOL    HW2 4608   4.427   0.890   0.829
 1237SOL     OW 4609   1.919   4.286   6.104
 1237SOL    HW1 4610   1.854   4.218   6.069
 1237SOL    HW2 4611   2.003   4.241   6.132
 1238SOL     OW 4612   1.399   0.798   6.393
 1238SOL    HW1 4613   1.454   0.809   6.477
 1238SOL    HW2 4614   1.374   0.889   6.359
 1239SOL     OW 4615   6.993   6.563   6.989
 1239SOL    HW1 4616   7.005   6.656   0.005
 1239SOL    HW2 4617   6.939   6.565   6.905
 1240SOL     OW 4618   5.441   6.216   0.603
 1240SOL    HW1 4619   5.468   6.165   0.522
 1240SOL    HW2 4620   5.471   6.168   0.685
 1241SOL     OW 4621   5.336   4.555   4.945
 1241SOL    HW1 4622   5.359   4.649   4.920
 1241SOL    HW2 4623   5.383   4.530   5.029
 1242SOL     OW 4624   1.349   3.645   1.029
 1242SOL    HW1 4625   1.311   3.675   0.942
 1242SOL    HW2 4626   1.307   3.558   1.055
 1243SOL     OW 4627   0.825   0.666   5.089
 1243SOL    HW1 4628   0.890   0.589   5.087
 1243SOL    HW2 4629   0.872   0.749   5.059
 1244SOL     OW 4630   5.838   6.231   4.058
 1244SOL    HW1 4631   5.760   6.171   4.040
 1244SOL    HW2 4632   5.891   6.196   4.135
 1245SOL     OW 4633   5.892   4.264   0.123
 1245SOL    HW1 4634   5.943   4.217   0.195
 1245SOL    HW2 4635   5.795   4.238   0.127
 1246SOL     OW 4636   3.020   1.119   1.191
 1246SOL    HW1 4637   3.100   1.108   1.250
 1246SOL    HW2 4638   2.977   1.207   1.209
 1247SOL     OW 4639   0.091   6.473   6.023
 1247SOL    HW1 4640   0.171   6.417   6.046
 1247SOL    HW2 4641   0.047   6.504   6.107
 1248SOL     OW 4642   1.999   0.083   4.779
 1248SOL    HW1 4643   1.921   0.103   4.719
 1248SOL    HW2 4644   1.996   0.142   4.859
 1249SOL     OW 4645   6.785   1.905   2.218
 1249SOL    HW1 4646   6.836   1.911   2.304
 1249SOL    HW2 4647   6.806   1.984   2.161
 1250SOL     OW 4648   5.480   5.066   3.389
 1250SOL    HW1 4649   5.455   5.004   3.463
 1250SOL    HW2 4650   5.454   5.025   3.301
 1251SOL     OW 4651   2.803   0.897   3.275
 1251SOL    HW1 4652   2.726   0.850   3.231
 1251SOL    HW2 4653   2.858   0.832   3.325
 1252SOL     OW 4654   4.669   3.940   6.719
 1252SOL    HW1 4655   4.598   3.952   6.788
 1252SOL    HW2 4656   4.646   3.994   6.638
 1253SOL     OW 4657   3.219   6.455   2.071
 1253SOL    HW1 4658   3.228   6.365   2.030
 1253SOL    HW2 4659   3.188   6.520   2.001
 1254SOL     OW 4660   0.818   3.166   3.218
 1254SOL    HW1 4661   0.910   3.146   3.250
 1254SOL    HW2 4662   0.817   3.169   3.118
 1255SOL     OW 4663   6.066   1.378   6.606
 1255SOL    HW1 4664   6.084   1.391   6.704
 1255SOL    HW2 4665   5.973   1.410   6.585
 1256SOL     OW 4666   6.283   6.775   3.173
 1256SOL    HW1 4667   6.368   6.795   3.222
 1256SOL    HW2 4668   6.207   6.820   3.219
 1257SOL     OW 4669   6.610   5.493   4.661
 1257SOL    HW1 4670   6.682   5.429   4.634
 1257SOL    HW2 4671   6.597   5.561   4.589
 1258SOL     OW 4672   1.182   5.180   2.749
 1258SOL    HW1 4673   1.142   5.259   2.702
 1258SOL    HW2 4674   1.161   5.187   2.847
 1259SOL     OW 4675   3.219   0.397   4.224
 1259SOL    HW1 4676   3.279   0.400   4.144
 1259SOL    HW2 4677   3.202   0.302   4.250
 1260SOL     OW 4678   2.762   2.775   6.992
 1260SOL    HW1 4679   2.740   2.712   0.049
 1260SOL    HW2 4680   2.704   2.754   6.913
 1261SOL     OW 4681   0.084   5.598   6.990
 1261SOL    HW1 4682   0.006   5.660   7.007
 1261SOL    HW2 4683   0.114   5.608   6.896
 1262SOL     OW 4684   6.060   4.020   1.609
 1262SOL    HW1 4685   6.085   3.967   1.528
 1262SOL    HW2 4686   6.122   4.098   1.619
 1263SOL     OW 4687   0.055   2.215   1.620
 1263SOL    HW1 4688   0.134   2.162   1.651
 1263SOL    HW2 4689   0.027   2.184   1.530
 1264SOL     OW 4690   6.714   4.082   1.895
 1264SOL    HW1 4691   6.773   4.140   1.839
 1264SOL    HW2 4692   6.757   3.993   1.907
 1265SOL     OW 4693   4.599   5.640   3.824
 1265SOL    HW1 4694   4.695   5.654   3.801
 1265SOL    HW2 4695   4.542   5.686   3.755
 1266SOL     OW 4696   0.366   1.618   4.631
 1266SOL    HW1 4697   0.379   1.614   4.730
 1266SOL    HW2 4698   0.278   1.659   4.610
 1267SOL     OW 4699   4.691   0.015   1.091
 1267SOL    HW1 4700   4.611   6.979   1.064
 1267SOL    HW2 4701   4.717   0.076   1.016
 1268SOL     OW 4702   2.747   2.927   0.221
 1268SOL    HW1 4703   2.756   2.830   0.200
 1268SOL    HW2 4704   2.754   2.941   0.319
 1269SOL     OW 4705   6.070   5.587   5.170
 1269SOL    HW1 4706   6.027   5.498   5.177
 1269SOL    HW2 4707   6.170   5.577   5.176
 1270SOL     OW 4708   1.479   3.202   3.456
 1270SOL    HW1 4709   1.428   3.171   3.376
 1270SOL    HW2 4710   1.509   3.123   3.509
 1271SOL     OW 4711   2.701   2.272   3.852
 1271SOL    HW1 4712   2.773   2.216   3.810
 1271SOL    HW2 4713   2.696   2.360   3.806
 1272SOL     OW 4714   5.768   5.204   0.315
 1272SOL    HW1 4715   5.819   5.128   0.357
 1272SOL    HW2 4716   5.670   5.188   0.327
 1273SOL     OW 4717   0.595   3.336   0.413
 1273SOL    HW1 4718   0.590   3.361   0.316
 1273SOL    HW2 4719   0.683   3.294   0.433
 1274SOL     OW 4720   6.103   4.613   1.376
 1274SOL    HW1 4721   6.200   4.621   1.397
 1274SOL    HW2 4722   6.052   4.592   1.459
 1275SOL     OW 4723   3.970   1.684   4.880
 1275SOL    HW1 4724   4.063   1.650   4.888
 1275SOL    HW2 4725   3.967   1.781   4.904
 1276SOL     OW 4726   6.920   6.170   4.812
 1276SOL    HW1 4727   6.979   6.110   4.866
 1276SOL    HW2 4728   6.889   6.121   4.731
 1277SOL     OW 4729   1.612   5.686   6.176
 1277SOL    HW1 4730   1.539   5.723   6.119
 1277SOL    HW2 4731   1.582   5.684   6.271
 1278SOL     OW 4732   0.822   0.408   4.267
 1278SOL    HW1 4733   0.814   0.468   4.347
 1278SOL    HW2 4734   0.758   0.332   4.276
 1279SOL     OW 4735   2.364   5.628   0.618
 1279SOL    HW1 4736   2.461   5.651   0.611
 1279SOL    HW2 4737   2.326   5.667   0.702
 1280SOL     OW 4738   3.221   6.693   4.603
 1280SOL    HW1 4739   3.176   6.744   4.530
 1280SOL    HW2 4740   3.153   6.648   4.661
 1281SOL     OW 4741   2.292   6.167   3.199
 1281SOL    HW1 4742   2.367   6.212   3.151
 1281SOL    HW2 4743   2.223   6.137   3.133
 1282SOL     OW 4744   0.446   2.163   0.090
 1282SOL    HW1 4745   0.480   2.231   0.026
 1282SOL    HW2 4746   0.347   2.168   0.096
 1283SOL     OW 4747   0.558   3.660   5.860
 1283SOL    HW1 4748   0.539   3.651   5.762
 1283SOL    HW2 4749   0.526   3.579   5.908
 1284SOL     OW 4750   4.892   2.104   1.272
 1284SOL    HW1 4751   4.793   2.090   1.273
 1284SOL    HW2 4752   4.912   2.197   1.241
 1285SOL     OW 4753   4.193   2.606   6.347
 1285SOL    HW1 4754   4.132   2.528   6.361
 1285SOL    HW2 4755   4.278   2.592   6.398
 1286SOL     OW 4756   4.643   3.347   1.280
 1286SOL    HW1 4757   4.631   3.249   1.294
 1286SOL    HW2 4758   4.562   3.385   1.236
 1287SOL     OW 4759   5.814   5.734   5.245
 1287SOL    HW1 4760   5.730   5.698   5.204
 1287SOL    HW2 4761   5.891   5.674   5.222
 1288SOL     OW 4762   3.912   2.952   6.076
 1288SOL    HW1 4763   3.930   3.050   6.064
 1288SOL    HW2 4764   3.958   2.920   6.159
 1289SOL     OW 4765   6.919   6.863   1.380
 1289SOL    HW1 4766   6.954   6.955   1.397
 1289SOL    HW2 4767   6.967   6.824   1.301
 1290SOL     OW 4768   0.750   6.329   6.352
 1290SOL    HW1 4769   0.731   6.427   6.352
 1290SOL    HW2 4770   0.750   6.295   6.258
 1291SOL     OW 4771   6.995   3.960   4.738
 1291SOL    HW1 4772   6.955   4.010   4.662
 1291SOL    HW2 4773   0.073   3.938   4.717
 1292SOL     OW 4774   0.642   5.976   2.536
 1292SOL    HW1 4775   0.597   5.959   2.449
 1292SOL    HW2 4776   0.739   5.957   2.529
 1293SOL     OW 4777   0.617   1.616   6.735
 1293SOL    HW1 4778   0.578   1.541   6.681
 1293SOL    HW2 4779   0.617   1.700   6.680
 1294SOL     OW 4780   1.050   3.186   6.570
 1294SOL    HW1 4781   1.000   3.177   6.483
 1294SOL    HW2 4782   1.081   3.096   6.600
 1295SOL     OW 4783   0.452   3.638   1.757
 1295SOL    HW1 4784   0.413   3.557   1.802
 1295SOL    HW2 4785   0.551   3.638   1.769
 1296SOL     OW 4786   3.943   6.412   5.786
 1296SOL    HW1 4787   3.881   6.333   5.787
 1296SOL    HW2 4788   4.037   6.379   5.775
 1297SOL     OW 4789   6.980   0.924   1.321
 1297SOL    HW1 4790   0.062   0.920   1.329
 1297SOL    HW2 4791   6.940   0.940   1.411
 1298SOL     OW 4792   5.380   5.252   2.947
 1298SOL    HW1 4793   5.472   5.253   2.906
 1298SOL    HW2 4794   5.312   5.241   2.875
 1299SOL     OW 4795   1.786   3.579   3.401
 1299SOL    HW1 4796   1.756   3.486   3.383
 1299SOL    HW2 4797   1.715   3.644   3.373
 1300SOL     OW 4798   2.374   2.975   1.162
 1300SOL    HW1 4799   2.421   3.002   1.246
 1300SOL    HW2 4800   2.275   2.987   1.174
 1301SOL     OW 4801   0.505   0.075   1.220
 1301SOL    HW1 4802   0.521   6.994   1.209
 1301SOL    HW2 4803   0.460   0.111   1.139
 1302SOL     OW 4804   4.446   0.477   6.021
 1302SOL    HW1 4805   4.402   0.485   5.932
 1302SOL    HW2 4806   4.454   0.381   6.046
 1303SOL     OW 4807   3.863   2.159   1.129
 1303SOL    HW1 4808   3.885   2.204   1.043
 1303SOL    HW2 4809   3.935   2.177   1.196
 1304SOL     OW 4810   2.367   0.874   6.894
 1304SOL    HW1 4811   2.307   0.848   6.818
 1304SOL    HW2 4812   2.315   0.927   6.961
 1305SOL     OW 4813   5.763   3.849   0.614
 1305SOL    HW1 4814   5.681   3.826   0.562
 1305SOL    HW2 4815   5.807   3.765   0.646
 1306SOL     OW 4816   0.896   4.593   4.128
 1306SOL    HW1 4817   0.945   4.513   4.162
 1306SOL    HW2 4818   0.907   4.669   4.191
 1307SOL     OW 4819   1.337   4.182   3.743
 1307SOL    HW1 4820   1.277   4.257   3.715
 1307SOL    HW2 4821   1.353   4.121   3.666
 1308SOL     OW 4822   6.270   6.791   5.220
 1308SOL    HW1 4823   6.223   6.803   5.307
 1308SOL    HW2 4824   6.229   6.715   5.170
 1309SOL     OW 4825   5.461   4.462   5.165
 1309SOL    HW1 4826   5.553   4.440   5.195
 1309SOL    HW2 4827   5.395   4.402   5.212
 1310SOL     OW 4828   6.641   3.941   3.972
 1310SOL    HW1 4829   6.737   3.919   3.994
 1310SOL    HW2 4830   6.623   3.916   3.877
 1311SOL     OW 4831   0.589   6.252   5.111
 1311SOL    HW1 4832   0.507   6.302   5.085
 1311SOL    HW2 4833   0.670   6.299   5.075
 1312SOL     OW 4834   1.073   6.763   6.784
 1312SOL    HW1 4835   1.081   6.823   6.864
 1312SOL    HW2 4836   1.143   6.786   6.717
 1313SOL     OW 4837   0.503   4.547   2.615
 1313SOL    HW1 4838   0.478   4.625   2.671
 1313SOL    HW2 4839   0.586   4.504   2.652
 1314SOL     OW 4840   4.317   1.187   5.589
 1314SOL    HW1 4841   4.303   1.176   5.687
 1314SOL    HW2 4842   4.295   1.281   5.562
 1315SOL     OW 4843   0.719   1.283   2.268
 1315SOL    HW1 4844   0.802   1.309   2.219
 1315SOL    HW2 4845   0.647   1.350   2.250
 1316SOL     OW 4846   1.891   5.900   4.957
 1316SOL    HW1 4847   1.802   5.934   4.987
 1316SOL    HW2 4848   1.927   5.836   5.025
 1317SOL     OW 4849   2.571   4.486   6.400
 1317SOL    HW1 4850   2.549   4.552   6.329
 1317SOL    HW2 4851   2.494   4.479   6.464
 1318SOL     OW 4852   0.462   1.731   1.239
 1318SOL    HW1 4853   0.386   1.695   1.294
 1318SOL    HW2 4854   0.544   1.678   1.258
 1319SOL     OW 4855   6.796   6.422   0.078
 1319SOL    HW1 4856   6.761   6.343   0.027
 1319SOL    HW2 4857   6.873   6.462   0.028
 1320SOL     OW 4858   4.375   4.306   0.466
 1320SOL    HW1 4859   4.451   4.302   0.401
 1320SOL    HW2 4860   4.357   4.214   0.502
 1321SOL     OW 4861   5.486   1.638   6.870
 1321SOL    HW1 4862   5.548   1.668   6.798
 1321SOL    HW2 4863   5.394   1.676   6.853
 1322SOL     OW 4864   4.281   0.747   3.087
 1322SOL    HW1 4865   4.266   0.815   3.014
 1322SOL    HW2 4866   4.337   0.787   3.159
 1323SOL     OW 4867   4.195   0.369   5.865
 1323SOL    HW1 4868   4.197   0.326   5.774
 1323SOL    HW2 4869   4.136   0.450   5.862
 1324SOL     OW 4870   0.898   3.980   0.011
 1324SOL    HW1 4871   0.935   3.912   0.074
 1324SOL    HW2 4872   0.911   3.949   6.934
 1325SOL     OW 4873   2.548   0.091   3.252
 1325SOL    HW1 4874   2.597   0.036   3.185
 1325SOL    HW2 4875   2.603   0.101   3.335
 1326SOL     OW 4876   4.920   3.809   5.245
 1326SOL    HW1 4877   4.890   3.767   5.331
 1326SOL    HW2 4878   4.866   3.772   5.170
 1327SOL     OW 4879   0.948   6.123   1.312
 1327SOL    HW1 4880   0.882   6.088   1.245
 1327SOL    HW2 4881   0.967   6.219   1.294
 1328SOL     OW 4882   1.525   3.229   0.874
 1328SOL    HW1 4883   1.569   3.154   0.824
 1328SOL    HW2 4884   1.593   3.276   0.930
 1329SOL     OW 4885   0.196   2.104   1.826
 1329SOL    HW1 4886   0.270   2.056   1.779
 1329SOL    HW2 4887   0.220   2.116   1.922
 1330SOL     OW 4888   0.670   1.281   1.657
 1330SOL    HW1 4889   0.608   1.358   1.673
 1330SOL    HW2 4890   0.690   1.236   1.744
 1331SOL     OW 4891   4.828   3.062   2.789
 1331SOL    HW1 4892   4.816   3.142   2.730
 1331SOL    HW2 4893   4.789   2.981   2.744
 1332SOL     OW 4894   2.731   6.941   6.595
 1332SOL    HW1 4895   2.793   6.893   6.533
 1332SOL    HW2 4896   2.729   0.020   6.571
 1333SOL     OW 4897   3.233   3.655   4.383
 1333SOL    HW1 4898   3.239   3.619   4.290
 1333SOL    HW2 4899   3.159   3.609   4.432
 1334SOL     OW 4900   6.029   1.694   4.410
 1334SOL    HW1 4901   5.937   1.735   4.411
 1334SOL    HW2 4902   6.063   1.694   4.316
 1335SOL     OW 4903   2.436   1.943   3.082
 1335SOL    HW1 4904   2.400   2.031   3.114
 1335SOL    HW2 4905   2.408   1.928   2.987
 1336SOL     OW 4906   1.794   2.856   5.193
 1336SOL    HW1 4907   1.755   2.906   5.271
 1336SOL    HW2 4908   1.782   2.758   5.207
 1337SOL     OW 4909   1.974   2.278   4.263
 1337SOL    HW1 4910   1.892   2.275   4.321
 1337SOL    HW2 4911   2.056   2.272   4.320
 1338SOL     OW 4912   5.264   2.317   5.071
 1338SOL    HW1 4913   5.251   2.234   5.125
 1338SOL    HW2 4914   5.357   2.319   5.034
 1339SOL     OW 4915   6.967   1.898   6.506
 1339SOL    HW1 4916   0.037   1.928   6.544
 1339SOL    HW2 4917   6.940   1.812   6.551
 1340SOL     OW 4918   6.533   1.798   2.294
 1340SOL    HW1 4919   6.618   1.838   2.261
 1340SOL    HW2 4920   6.541   1.698   2.295
 1341SOL     OW 4921   5.262   6.870   6.034
 1341SOL    HW1 4922   5.319   6.946   6.063
 1341SOL    HW2 4923   5.172   6.904   6.006
 1342SOL     OW 4924   2.582   5.570   5.635
 1342SOL    HW1 4925   2.660   5.534   5.687
 1342SOL    HW2 4926   2.609   5.584   5.539
 1343SOL     OW 4927   4.753   5.696   2.509
 1343SOL    HW1 4928   4.810   5.690   2.591
 1343SOL    HW2 4929   4.668   5.744   2.530
 1344SOL     OW 4930   6.461   5.619   4.478
 1344SOL    HW1 4931   6.491   5.526   4.458
 1344SOL    HW2 4932   6.371   5.635   4.438
 1345SOL     OW 4933   1.620   0.409   2.939
 1345SOL    HW1 4934   1.686   0.365   2.878
 1345SOL    HW2 4935   1.528   0.384   2.912
 1346SOL     OW 4936   1.029   6.042   4.740
 1346SOL    HW1 4937   0.966   6.112   4.706
 1346SOL    HW2 4938   1.092   6.016   4.666
 1347SOL     OW 4939   6.964   6.729   4.930
 1347SOL    HW1 4940   6.864   6.718   4.925
 1347SOL    HW2 4941   6.989   6.821   4.900
 1348SOL     OW 4942   5.530   5.630   2.617
 1348SOL    HW1 4943   5.470   5.658   2.691
 1348SOL    HW2 4944   5.503   5.676   2.532
 1349SOL     OW 4945   4.511   2.475   6.042
 1349SOL    HW1 4946   4.487   2.572   6.053
 1349SOL    HW2 4947   4.517   2.453   5.944
 1350SOL     OW 4948   5.283   5.134   5.202
 1350SOL    HW1 4949   5.321   5.155   5.292
 1350SOL    HW2 4950   5.272   5.035   5.192
 1351SOL     OW 4951   6.094   1.785   3.402
 1351SOL    HW1 4952   6.066   1.716   3.336
 1351SOL    HW2 4953   6.184   1.820   3.378
 1352SOL     OW 4954   6.843   6.178   2.158
 1352SOL    HW1 4955   6.831   6.272   2.128
 1352SOL    HW2 4956   6.754   6.139   2.182
 1353SOL     OW 4957   0.845   2.945   0.333
 1353SOL    HW1 4958   0.864   2.855   0.372
 1353SOL    HW2 4959   0.802   2.934   0.243
 1354SOL     OW 4960   0.739   3.650   1.767
 1354SOL    HW1 4961   0.818   3.660   1.707
 1354SOL    HW2 4962   0.766   3.597   1.848
 1355SOL     OW 4963   6.899   2.922   4.585
 1355SOL    HW1 4964   6.841   2.985   4.636
 1355SOL    HW2 4965   6.993   2.928   4.619
 1356SOL     OW 4966   3.353   2.861   3.023
 1356SOL    HW1 4967   3.291   2.812   3.084
 1356SOL    HW2 4968   3.305   2.939   2.983
 1357SOL     OW 4969   1.022   3.180   5.672
 1357SOL    HW1 4970   0.982   3.122   5.602
 1357SOL    HW2 4971   1.117   3.199   5.651
 1358SOL     OW 4972   4.023   0.016   5.722
 1358SOL    HW1 4973   4.073   7.007   5.803
 1358SOL    HW2 4974   4.051   0.108   5.693
 1359SOL     OW 4975   5.512   4.694   2.382
 1359SOL    HW1 4976   5.431   4.722   2.331
 1359SOL    HW2 4977   5.533   4.598   2.362
 1360SOL     OW 4978   3.252   2.757   0.144
 1360SOL    HW1 4979   3.171   2.805   0.111
 1360SOL    HW2 4980   3.227   2.697   0.221
 1361SOL     OW 4981   6.995   5.584   5.230
 1361SOL    HW1 4982   0.045   5.513   5.249
 1361SOL    HW2 4983   6.917   5.572   5.291
 1362SOL     OW 4984   3.395   4.141   4.046
 1362SOL    HW1 4985   3.342   4.187   3.975
 1362SOL    HW2 4986   3.339   4.071   4.090
 1363SOL     OW 4987   0.026   5.574   2.855
 1363SOL    HW1 4988   0.018   5.522   2.940
 1363SOL    HW2 4989   0.122   5.599   2.841
 1364SOL     OW 4990   6.931   3.209   1.390
 1364SOL    HW1 4991   6.931   3.196   1.290
 1364SOL    HW2 4992   6.902   3.302   1.411
 1365SOL     OW 4993   0.806   3.332   6.720
 1365SOL    HW1 4994   0.786   3.359   6.813
 1365SOL    HW2 4995   0.905   3.327   6.706
 1366SOL     OW 4996   1.041   4.521   0.192
 1366SOL    HW1 4997   1.091   4.598   0.151
 1366SOL    HW2 4998   1.087   4.435   0.169
 1367SOL     OW 4999   2.153   0.206   2.916
 1367SOL    HW1 5000   2.216   0.196   2.993
 1367SOL    HW2 5001   2.191   0.271   2.850
 1368SOL     OW 5002   6.084   0.295   3.577
 1368SOL    HW1 5003   6.183   0.287   3.590
 1368SOL    HW2 5004   6.055   0.389   3.598
 1369SOL     OW 5005   2.478   6.788   1.779
 1369SOL    HW1 5006   2.542   6.840   1.721
 1369SOL    HW2 5007   2.390   6.837   1.783
 1370SOL     OW 5008   4.432   1.666   0.940
 1370SOL    HW1 5009   4.361   1.734   0.958
 1370SOL    HW2 5010   4.391   1.583   0.903
 1371SOL     OW 5011   5.975   1.371   4.542
 1371SOL    HW1 5012   6.057   1.315   4.532
 1371SOL    HW2 5013   6.000   1.468   4.536
 1372SOL     OW 5014   0.820   3.180   0.442
 1372SOL    HW1 5015   0.913   3.216   0.446
 1372SOL    HW2 5016   0.823   3.086   0.408
 1373SOL     OW 5017   5.017   2.886   0.185
 1373SOL    HW1 5018   5.103   2.835   0.180
 1373SOL    HW2 5019   5.021   2.965   0.124
 1374SOL     OW 5020   5.014   2.069   0.190
 1374SOL    HW1 5021   5.050   2.150   0.143
 1374SOL    HW2 5022   5.063   2.057   0.277
 1375SOL     OW 5023   0.544   4.170   6.003
 1375SOL    HW1 5024   0.628   4.167   5.948
 1375SOL    HW2 5025   0.465   4.171   5.942
 1376SOL     OW 5026   4.096   4.874   4.858
 1376SOL    HW1 5027   4.119   4.795   4.801
 1376SOL    HW2 5028   4.043   4.939   4.804
 1377SOL     OW 5029   0.731   3.574   5.610
 1377SOL    HW1 5030   0.758   3.578   5.514
 1377SOL    HW2 5031   0.790   3.510   5.659
 1378SOL     OW 5032   5.925   0.728   4.918
 1378SOL    HW1 5033   5.988   0.655   4.944
 1378SOL    HW2 5034   5.926   0.739   4.819
 1379SOL     OW 5035   3.997   6.890   2.834
 1379SOL    HW1 5036   3.913   6.870   2.784
 1379SOL    HW2 5037   4.033   6.978   2.803
 1380SOL     OW 5038   0.095   6.626   2.624
 1380SOL    HW1 5039   0.168   6.579   2.674
 1380SOL    HW2 5040   0.125   6.645   2.531
 1381SOL     OW 5041   6.081   2.494   0.156
 1381SOL    HW1 5042   6.071   2.395   0.172
 1381SOL    HW2 5043   6.079   2.512   0.057
 1382SOL     OW 5044   4.900   4.230   0.609
 1382SOL    HW1 5045   4.869   4.181   0.528
 1382SOL    HW2 5046   4.999   4.228   0.614
 1383SOL     OW 5047   1.128   0.402   1.638
 1383SOL    HW1 5048   1.185   0.321   1.623
 1383SOL    HW2 5049   1.121   0.454   1.552
 1384SOL     OW 5050   4.292   6.991   1.445
 1384SOL    HW1 5051   4.262   7.017   1.353
 1384SOL    HW2 5052   4.389   7.013   1.456
 1385SOL     OW 5053   1.592   3.632   3.846
 1385SOL    HW1 5054   1.654   3.595   3.778
 1385SOL    HW2 5055   1.562   3.559   3.908
 1386SOL     OW 5056   3.111   0.594   4.401
 1386SOL    HW1 5057   3.164   0.637   4.474
 1386SOL    HW2 5058   3.168   0.525   4.356
 1387SOL     OW 5059   3.703   5.671   2.634
 1387SOL    HW1 5060   3.617   5.625   2.654
 1387SOL    HW2 5061   3.731   5.724   2.714
 1388SOL     OW 5062   0.478   6.789   3.210
 1388SOL    HW1 5063   0.507   6.835   3.126
 1388SOL    HW2 5064   0.431   6.704   3.186
 1389SOL     OW 5065   0.128   0.873   3.417
 1389SOL    HW1 5066   0.108   0.954   3.473
 1389SOL    HW2 5067   0.131   0.792   3.475
 1390SOL     OW 5068   5.755   2.671   5.838
 1390SOL    HW1 5069   5.827   2.646   5.903
 1390SOL    HW2 5070   5.671   2.621   5.860
 1391SOL     OW 5071   6.268   0.212   5.409
 1391SOL    HW1 5072   6.335   0.198   5.481
 1391SOL    HW2 5073   6.313   0.246   5.327
 1392SOL     OW 5074   5.566   6.601   6.641
 1392SOL    HW1 5075   5.519   6.627   6.725
 1392SOL    HW2 5076   5.614   6.515   6.654
 1393SOL     OW 5077   6.134   3.633   5.936
 1393SOL    HW1 5078   6.186   3.680   5.865
 1393SOL    HW2 5079   6.197   3.586   5.998
 1394SOL     OW 5080   3.956   6.004   4.238
 1394SOL    HW1 5081   3.966   5.977   4.143
 1394SOL    HW2 5082   3.966   6.103   4.246
 1395SOL     OW 5083   1.466   4.600   4.271
 1395SOL    HW1 5084   1.546   4.651   4.302
 1395SOL    HW2 5085   1.455   4.612   4.173
 1396SOL     OW 5086   0.928   0.437   3.770
 1396SOL    HW1 5087   0.894   0.518   3.721
 1396SOL    HW2 5088   0.879   0.428   3.857
 1397SOL     OW 5089   0.541   6.199   4.664
 1397SOL    HW1 5090   0.578   6.114   4.702
 1397SOL    HW2 5091   0.593   6.226   4.583
 1398SOL     OW 5092   1.684   2.084   6.983
 1398SOL    HW1 5093   1.680   2.127   0.055
 1398SOL    HW2 5094   1.633   1.998   6.986
 1399SOL     OW 5095   3.972   0.259   6.986
 1399SOL    HW1 5096   4.033   0.196   6.938
 1399SOL    HW2 5097   3.888   0.212   7.012
 1400SOL     OW 5098   0.274   2.117   4.289
 1400SOL    HW1 5099   0.370   2.112   4.261
 1400SOL    HW2 5100   0.238   2.025   4.299
 1401SOL     OW 5101   6.173   6.802   4.155
 1401SOL    HW1 5102   6.116   6.741   4.099
 1401SOL    HW2 5103   6.258   6.822   4.107
 1402SOL     OW 5104   5.842   4.459   6.905
 1402SOL    HW1 5105   5.885   4.420   6.986
 1402SOL    HW2 5106   5.759   4.407   6.883
 1403SOL     OW 5107   1.868   2.265   1.605
 1403SOL    HW1 5108   1.889   2.362   1.590
 1403SOL    HW2 5109   1.842   2.223   1.518
 1404SOL     OW 5110   6.538   0.039   0.232
 1404SOL    HW1 5111   6.569   0.043   0.327
 1404SOL    HW2 5112   6.481   0.119   0.213
 1405SOL     OW 5113   2.528   4.084   0.564
 1405SOL    HW1 5114   2.518   3.991   0.601
 1405SOL    HW2 5115   2.526   4.080   0.464
 1406SOL     OW 5116   2.350   5.071   1.292
 1406SOL    HW1 5117   2.331   5.069   1.194
 1406SOL    HW2 5118   2.401   5.154   1.315
 1407SOL     OW 5119   1.638   4.395   3.537
 1407SOL    HW1 5120   1.610   4.399   3.633
 1407SOL    HW2 5121   1.640   4.300   3.507
 1408SOL     OW 5122   5.506   6.727   6.348
 1408SOL    HW1 5123   5.478   6.816   6.383
 1408SOL    HW2 5124   5.565   6.681   6.414
 1409SOL     OW 5125   6.924   0.325   5.034
 1409SOL    HW1 5126   6.931   0.365   4.943
 1409SOL    HW2 5127   6.964   0.387   5.101
 1410SOL     OW 5128   3.023   3.826   0.466
 1410SOL    HW1 5129   2.993   3.780   0.382
 1410SOL    HW2 5130   2.983   3.917   0.470
 1411SOL     OW 5131   3.447   5.772   6.822
 1411SOL    HW1 5132   3.461   5.709   6.746
 1411SOL    HW2 5133   3.445   5.866   6.788
 1412SOL     OW 5134   0.588   3.903   1.407
 1412SOL    HW1 5135   0.685   3.908   1.380
 1412SOL    HW2 5136   0.581   3.912   1.506
 1413SOL     OW 5137   1.972   1.354   4.414
 1413SOL    HW1 5138   1.954   1.345   4.512
 1413SOL    HW2 5139   1.984   1.450   4.391
 1414SOL     OW 5140   2.244   2.067   2.022
 1414SOL    HW1 5141   2.313   2.138   2.003
 1414SOL    HW2 5142   2.289   1.978   2.025
 1415SOL     OW 5143   3.163   1.443   4.540
 1415SOL    HW1 5144   3.132   1.536   4.521
 1415SOL    HW2 5145   3.250   1.427   4.493
 1416SOL     OW 5146   3.626   0.241   4.469
 1416SOL    HW1 5147   3.627   0.193   4.557
 1416SOL    HW2 5148   3.536   0.283   4.455
 1417SOL     OW 5149   3.198   2.880   6.531
 1417SOL    HW1 5150   3.137   2.893   6.453
 1417SOL    HW2 5151   3.214   2.782   6.545
 1418SOL     OW 5152   2.880   3.649   0.638
 1418SOL    HW1 5153   2.922   3.719   0.580
 1418SOL    HW2 5154   2.835   3.692   0.716
 1419SOL     OW 5155   2.694   5.771   3.555
 1419SOL    HW1 5156   2.649   5.852   3.518
 1419SOL    HW2 5157   2.781   5.798   3.597
 1420SOL     OW 5158   3.558   5.666   3.197
 1420SOL    HW1 5159   3.583   5.579   3.239
 1420SOL    HW2 5160   3.464   5.690   3.224
 1421SOL     OW 5161   0.877   4.178   4.056
 1421SOL    HW1 5162   0.795   4.232   4.037
 1421SOL    HW2 5163   0.947   4.238   4.095
 1422SOL     OW 5164   3.502   4.629   6.552
 1422SOL    HW1 5165   3.545   4.697   6.611
 1422SOL    HW2 5166   3.535   4.640   6.458
 1423SOL     OW 5167   3.103   0.738   4.639
 1423SOL    HW1 5168   3.125   0.833   4.616
 1423SOL    HW2 5169   3.183   0.695   4.682
 1424SOL     OW 5170   6.666   3.441   6.670
 1424SOL    HW1 5171   6.594   3.412   6.606
 1424SOL    HW2 5172   6.626   3.499   6.741
 1425SOL     OW 5173   2.236   5.666   5.254
 1425SOL    HW1 5174   2.265   5.592   5.193
 1425SOL    HW2 5175   2.154   5.709   5.217
 1426SOL     OW 5176   2.315   2.407   5.635
 1426SOL    HW1 5177   2.278   2.334   5.693
 1426SOL    HW2 5178   2.273   2.402   5.544
 1427SOL     OW 5179   0.224   0.009   4.288
 1427SOL    HW1 5180   0.198   6.973   4.208
 1427SOL    HW2 5181   0.293   0.077   4.261
 1428SOL     OW 5182   6.983   1.925   1.928
 1428SOL    HW1 5183   6.942   1.981   2.000
 1428SOL    HW2 5184   0.036   1.978   1.882
 1429SOL     OW 5185   6.372   1.696   0.361
 1429SOL    HW1 5186   6.320   1.618   0.326
 1429SOL    HW2 5187   6.341   1.779   0.315
 1430SOL     OW 5188   2.043   4.679   3.985
 1430SOL    HW1 5189   2.079   4.731   3.907
 1430SOL    HW2 5190   2.119   4.656   4.047
 1431SOL     OW 5191   2.633   2.529   5.988
 1431SOL    HW1 5192   2.601   2.618   5.954
 1431SOL    HW2 5193   2.673   2.541   6.079
 1432SOL     OW 5194   2.394   0.711   1.261
 1432SOL    HW1 5195   2.416   0.808   1.253
 1432SOL    HW2 5196   2.478   0.657   1.255
 1433SOL     OW 5197   4.362   0.021   4.610
 1433SOL    HW1 5198   4.427   6.967   4.587
 1433SOL    HW2 5199   4.336   0.071   4.527
 1434SOL     OW 5200   0.228   0.378   6.186
 1434SOL    HW1 5201   0.162   0.365   6.112
 1434SOL    HW2 5202   0.181   0.404   6.270
 1435SOL     OW 5203   6.698   0.016   3.365
 1435SOL    HW1 5204   6.783   6.992   3.334
 1435SOL    HW2 5205   6.641   6.966   3.410
 1436SOL     OW 5206   5.925   3.536   0.029
 1436SOL    HW1 5207   5.841   3.591   0.022
 1436SOL    HW2 5208   5.900   3.439   0.035
 1437SOL     OW 5209   3.090   0.466   6.172
 1437SOL    HW1 5210   3.062   0.535   6.105
 1437SOL    HW2 5211   3.186   0.443   6.158
 1438SOL     OW 5212   2.851   0.129   1.619
 1438SOL    HW1 5213   2.936   0.159   1.662
 1438SOL    HW2 5214   2.852   0.152   1.522
 1439SOL     OW 5215   0.765   5.059   1.052
 1439SOL    HW1 5216   0.714   4.973   1.063
 1439SOL    HW2 5217   0.726   5.111   0.976
 1440SOL     OW 5218   3.514   3.493   5.736
 1440SOL    HW1 5219   3.479   3.529   5.650
 1440SOL    HW2 5220   3.445   3.503   5.807
 1441SOL     OW 5221   6.339   3.655   4.794
 1441SOL    HW1 5222   6.288   3.641   4.708
 1441SOL    HW2 5223   6.277   3.643   4.871
 1442SOL     OW 5224   6.772   4.959   6.956
 1442SOL    HW1 5225   6.817   5.037   7.000
 1442SOL    HW2 5226   6.827   4.929   6.878
 1443SOL     OW 5227   0.971   2.346   5.010
 1443SOL    HW1 5228   1.010   2.354   4.919
 1443SOL    HW2 5229   0.945   2.437   5.044
 1444SOL     OW 5230   4.275   5.695   1.616
 1444SOL    HW1 5231   4.223   5.760   1.562
 1444SOL    HW2 5232   4.267   5.719   1.713
 1445SOL     OW 5233   0.351   2.717   2.455
 1445SOL    HW1 5234   0.430   2.767   2.491
 1445SOL    HW2 5235   0.267   2.763   2.482
 1446SOL     OW 5236   5.079   1.981   6.842
 1446SOL    HW1 5237   5.048   2.059   6.787
 1446SOL    HW2 5238   5.127   2.014   6.923
 1447SOL     OW 5239   6.287   6.914   5.513
 1447SOL    HW1 5240   6.300   6.817   5.534
 1447SOL    HW2 5241   6.195   6.928   5.476
 1448SOL     OW 5242   6.755   2.510   6.963
 1448SOL    HW1 5243   6.803   2.507   6.875
 1448SOL    HW2 5244   6.764   2.601   7.002
 1449SOL     OW 5245   5.926   1.103   0.175
 1449SOL    HW1 5246   5.866   1.152   0.238
 1449SOL    HW2 5247   5.919   1.143   0.084
 1450SOL     OW 5248   0.441   2.188   2.339
 1450SOL    HW1 5249   0.465   2.255   2.408
 1450SOL    HW2 5250   0.490   2.102   2.357
 1451SOL     OW 5251   3.133   0.918   2.090
 1451SOL    HW1 5252   3.063   0.951   2.026
 1451SOL    HW2 5253   3.205   0.987   2.098
 1452SOL     OW 5254   4.014   1.402   4.287
 1452SOL    HW1 5255   3.921   1.368   4.301
 1452SOL    HW2 5256   4.076   1.325   4.275
 1453SOL     OW 5257   0.460   3.607   5.569
 1453SOL    HW1 5258   0.421   3.688   5.525
 1453SOL    HW2 5259   0.558   3.620   5.583
 1454SOL     OW 5260   6.242   2.319   3.133
 1454SOL    HW1 5261   6.274   2.228   3.158
 1454SOL    HW2 5262   6.265   2.336   3.037
 1455SOL     OW 5263   1.818   0.250   1.810
 1455SOL    HW1 5264   1.891   0.318   1.821
 1455SOL    HW2 5265   1.734   0.284   1.853
 1456SOL     OW 5266   6.486   0.270   5.619
 1456SOL    HW1 5267   6.570   0.220   5.601
 1456SOL    HW2 5268   6.449   0.243   5.707
 1457SOL     OW 5269   1.270   6.948   0.655
 1457SOL    HW1 5270   1.193   6.952   0.718
 1457SOL    HW2 5271   1.240   6.915   0.566
 1458SOL     OW 5272   5.652   6.356   3.152
 1458SOL    HW1 5273   5.593   6.283   3.187
 1458SOL    HW2 5274   5.654   6.352   3.052
 1459SOL     OW 5275   2.637   4.961   5.284
 1459SOL    HW1 5276   2.574   4.962   5.361
 1459SOL    HW2 5277   2.603   4.898   5.214
 1460SOL     OW 5278   0.265   5.198   5.797
 1460SOL    HW1 5279   0.348   5.197   5.741
 1460SOL    HW2 5280   0.270   5.271   5.865
 1461SOL     OW 5281   0.883   4.955   3.304
 1461SOL    HW1 5282   0.946   4.951   3.227
 1461SOL    HW2 5283   0.897   5.039   3.356
 1462SOL     OW 5284   0.644   0.931   5.933
 1462SOL    HW1 5285   0.728   0.965   5.976
 1462SOL    HW2 5286   0.655   0.931   5.834
 1463SOL     OW 5287   0.268   5.461   6.444
 1463SOL    HW1 5288   0.202   5.532   6.418
 1463SOL    HW2 5289   0.308   5.420   6.362
 1464SOL     OW 5290   6.412   6.944   0.996
 1464SOL    HW1 5291   6.437   6.858   0.953
 1464SOL    HW2 5292   6.315   6.963   0.981
 1465SOL     OW 5293   1.828   1.723   3.650
 1465SOL    HW1 5294   1.881   1.664   3.712
 1465SOL    HW2 5295   1.735   1.687   3.642
 1466SOL     OW 5296   1.325   0.966   2.524
 1466SOL    HW1 5297   1.405   0.955   2.466
 1466SOL    HW2 5298   1.301   1.063   2.530
 1467SOL     OW 5299   2.270   1.431   2.477
 1467SOL    HW1 5300   2.340   1.498   2.454
 1467SOL    HW2 5301   2.232   1.452   2.568
 1468SOL     OW 5302   5.156   5.238   3.139
 1468SOL    HW1 5303   5.236   5.179   3.126
 1468SOL    HW2 5304   5.139   5.291   3.057
 1469SOL     OW 5305   1.428   0.667   2.265
 1469SOL    HW1 5306   1.373   0.644   2.185
 1469SOL    HW2 5307   1.442   0.766   2.268
 1470SOL     OW 5308   1.900   1.183   2.892
 1470SOL    HW1 5309   1.867   1.116   2.826
 1470SOL    HW2 5310   1.948   1.257   2.845
 1471SOL     OW 5311   0.472   0.490   0.770
 1471SOL    HW1 5312   0.452   0.511   0.866
 1471SOL    HW2 5313   0.527   0.564   0.731
 1472SOL     OW 5314   3.892   5.641   5.042
 1472SOL    HW1 5315   3.829   5.579   4.994
 1472SOL    HW2 5316   3.851   5.667   5.130
 1473SOL     OW 5317   5.717   5.957   3.490
 1473SOL    HW1 5318   5.791   5.901   3.453
 1473SOL    HW2 5319   5.755   6.031   3.545
 1474SOL     OW 5320   5.997   6.030   3.246
 1474SOL    HW1 5321   6.084   6.072   3.273
 1474SOL    HW2 5322   6.012   5.935   3.221
 1475SOL     OW 5323   6.662   0.578   1.400
 1475SOL    HW1 5324   6.583   0.552   1.455
 1475SOL    HW2 5325   6.645   0.552   1.304
 1476SOL     OW 5326   1.744   1.716   1.392
 1476SOL    HW1 5327   1.816   1.647   1.384
 1476SOL    HW2 5328   1.665   1.689   1.336
 1477SOL     OW 5329   3.066   0.639   6.825
 1477SOL    HW1 5330   3.076   0.648   6.924
 1477SOL    HW2 5331   2.969   0.633   6.802
 1478SOL     OW 5332   5.274   4.532   0.086
 1478SOL    HW1 5333   5.342   4.471   0.046
 1478SOL    HW2 5334   5.198   4.544   0.022
 1479SOL     OW 5335   1.385   3.659   6.957
 1479SOL    HW1 5336   1.386   3.745   6.905
 1479SOL    HW2 5337   1.477   3.620   6.957
 1480SOL     OW 5338   2.638   0.294   6.215
 1480SOL    HW1 5339   2.599   0.354   6.285
 1480SOL    HW2 5340   2.627   0.198   6.243
 1481SOL     OW 5341   6.780   1.985   5.236
 1481SOL    HW1 5342   6.870   2.005   5.197
 1481SOL    HW2 5343   6.724   2.068   5.236
 1482SOL     OW 5344   4.860   2.490   1.009
 1482SOL    HW1 5345   4.885   2.433   0.930
 1482SOL    HW2 5346   4.915   2.573   1.009
 1483SOL     OW 5347   6.162   2.238   6.504
 1483SOL    HW1 5348   6.227   2.169   6.472
 1483SOL    HW2 5349   6.170   2.320   6.449
 1484SOL     OW 5350   5.751   4.896   4.023
 1484SOL    HW1 5351   5.847   4.902   4.052
 1484SOL    HW2 5352   5.716   4.987   4.003
 1485SOL     OW 5353   4.078   2.150   2.747
 1485SOL    HW1 5354   4.171   2.187   2.748
 1485SOL    HW2 5355   4.080   2.055   2.776
 1486SOL     OW 5356   5.229   2.006   2.766
 1486SOL    HW1 5357   5.252   1.988   2.671
 1486SOL    HW2 5358   5.143   1.962   2.790
 1487SOL     OW 5359   6.839   2.715   6.601
 1487SOL    HW1 5360   6.759   2.774   6.615
 1487SOL    HW2 5361   6.821   2.625   6.640
 1488SOL     OW 5362   5.381   2.161   3.130
 1488SOL    HW1 5363   5.423   2.252   3.130
 1488SOL    HW2 5364   5.341   2.143   3.220
 1489SOL     OW 5365   4.297   4.937   3.626
 1489SOL    HW1 5366   4.388   4.894   3.633
 1489SOL    HW2 5367   4.235   4.893   3.691
 1490SOL     OW 5368   1.381   3.139   1.481
 1490SOL    HW1 5369   1.419   3.228   1.458
 1490SOL    HW2 5370   1.282   3.147   1.495
 1491SOL     OW 5371   5.991   3.685   4.238
 1491SOL    HW1 5372   5.996   3.756   4.308
 1491SOL    HW2 5373   5.896   3.653   4.230
 1492SOL     OW 5374   5.730   1.614   2.432
 1492SOL    HW1 5375   5.797   1.569   2.491
 1492SOL    HW2 5376   5.660   1.658   2.489
 1493SOL     OW 5377   4.968   6.722   3.794
 1493SOL    HW1 5378   4.956   6.637   3.741
 1493SOL    HW2 5379   5.065   6.737   3.812
 1494SOL     OW 5380   5.264   1.958   5.962
 1494SOL    HW1 5381   5.166   1.964   5.943
 1494SOL    HW2 5382   5.278   1.912   6.050
 1495SOL     OW 5383   6.795   2.870   4.336
 1495SOL    HW1 5384   6.819   2.886   4.432
 1495SOL    HW2 5385   6.754   2.953   4.298
 1496SOL     OW 5386   0.812   1.633   2.244
 1496SOL    HW1 5387   0.847   1.560   2.185
 1496SOL    HW2 5388   0.824   1.608   2.340
 1497SOL     OW 5389   6.902   2.860   3.723
 1497SOL    HW1 5390   6.903   2.763   3.699
 1497SOL    HW2 5391   6.996   2.894   3.725
 1498SOL     OW 5392   2.074   4.551   6.474
 1498SOL    HW1 5393   2.072   4.649   6.457
 1498SOL    HW2 5394   2.017   4.504   6.406
 1499SOL     OW 5395   1.230   3.993   5.799
 1499SOL    HW1 5396   1.162   3.949   5.741
 1499SOL    HW2 5397   1.221   4.092   5.791
 1500SOL     OW 5398   6.517   6.546   0.056
 1500SOL    HW1 5399   6.577   6.624   0.037
 1500SOL    HW2 5400   6.428   6.561   0.013
 1501SOL     OW 5401   5.046   1.396   6.470
 1501SOL    HW1 5402   4.986   1.323   6.504
 1501SOL    HW2 5403   5.132   1.395   6.521
 1502SOL     OW 5404   5.897   6.619   1.487
 1502SOL    HW1 5405   5.947   6.639   1.571
 1502SOL    HW2 5406   5.829   6.549   1.505
 1503SOL     OW 5407   2.520   1.638   2.334
 1503SOL    HW1 5408   2.479   1.716   2.286
 1503SOL    HW2 5409   2.595   1.601   2.279
 1504SOL     OW 5410   0.712   0.948   4.584
 1504SOL    HW1 5411   0.700   0.928   4.681
 1504SOL    HW2 5412   0.777   0.884   4.544
 1505SOL     OW 5413   6.340   0.370   6.216
 1505SOL    HW1 5414   6.379   0.434   6.150
 1505SOL    HW2 5415   6.243   0.393   6.230
 1506SOL     OW 5416   1.879   5.196   1.589
 1506SOL    HW1 5417   1.813   5.122   1.575
 1506SOL    HW2 5418   1.939   5.174   1.666
 1507SOL     OW 5419   0.731   2.256   5.483
 1507SOL    HW1 5420   0.758   2.170   5.525
 1507SOL    HW2 5421   0.750   2.252   5.384
 1508SOL     OW 5422   6.900   0.266   1.886
 1508SOL    HW1 5423   6.806   0.244   1.861
 1508SOL    HW2 5424   6.935   0.336   1.823
 1509SOL     OW 5425   4.606   2.486   6.308
 1509SOL    HW1 5426   4.559   2.524   6.227
 1509SOL    HW2 5427   4.547   2.498   6.388
 1510SOL     OW 5428   6.165   2.680   4.761
 1510SOL    HW1 5429   6.240   2.717   4.815
 1510SOL    HW2 5430   6.190   2.589   4.728
 1511SOL     OW 5431   3.146   2.447   1.067
 1511SOL    HW1 5432   3.191   2.445   1.156
 1511SOL    HW2 5433   3.178   2.525   1.015
 1512SOL     OW 5434   0.306   6.143   1.858
 1512SOL    HW1 5435   0.223   6.184   1.897
 1512SOL    HW2 5436   0.284   6.101   1.770
 1513SOL     OW 5437   3.816   0.358   4.045
 1513SOL    HW1 5438   3.731   0.338   4.092
 1513SOL    HW2 5439   3.889   0.376   4.112
 1514SOL     OW 5440   5.025   2.489   5.609
 1514SOL    HW1 5441   4.947   2.494   5.671
 1514SOL    HW2 5442   5.044   2.393   5.587
 1515SOL     OW 5443   6.529   3.279   5.331
 1515SOL    HW1 5444   6.610   3.313   5.380
 1515SOL    HW2 5445   6.497   3.349   5.267
 1516SOL     OW 5446   0.470   0.134   0.699
 1516SOL    HW1 5447   0.522   0.189   0.634
 1516SOL    HW2 5448   0.381   0.111   0.659
 1517SOL     OW 5449   3.903   5.511   3.203
 1517SOL    HW1 5450   3.953   5.552   3.128
 1517SOL    HW2 5451   3.964   5.452   3.256
 1518SOL     OW 5452   0.524   2.932   0.508
 1518SOL    HW1 5453   0.595   2.964   0.570
 1518SOL    HW2 5454   0.564   2.908   0.420
 1519SOL     OW 5455   6.361   5.009   2.056
 1519SOL    HW1 5456   6.429   5.001   1.983
 1519SOL    HW2 5457   6.407   5.007   2.145
 1520SOL     OW 5458   0.808   3.759   2.372
 1520SOL    HW1 5459   0.737   3.698   2.337
 1520SOL    HW2 5460   0.766   3.841   2.411
 1521SOL     OW 5461   2.822   3.971   0.101
 1521SOL    HW1 5462   2.856   4.001   0.012
 1521SOL    HW2 5463   2.871   4.018   0.174
 1522SOL     OW 5464   6.451   0.298   5.218
 1522SOL    HW1 5465   6.510   0.367   5.177
 1522SOL    HW2 5466   6.494   0.208   5.209
 1523SOL     OW 5467   4.941   3.805   0.295
 1523SOL    HW1 5468   4.855   3.819   0.247
 1523SOL    HW2 5469   4.953   3.707   0.314
 1524SOL     OW 5470   1.388   2.210   2.143
 1524SOL    HW1 5471   1.418   2.216   2.238
 1524SOL    HW2 5472   1.333   2.127   2.131
 1525SOL     OW 5473   6.618   2.319   0.057
 1525SOL    HW1 5474   6.685   2.391   0.037
 1525SOL    HW2 5475   6.595   2.321   0.154
 1526SOL     OW 5476   1.241   0.323   6.339
 1526SOL    HW1 5477   1.250   0.422   6.348
 1526SOL    HW2 5478   1.302   0.290   6.268
 1527SOL     OW 5479   3.723   1.252   5.508
 1527SOL    HW1 5480   3.714   1.347   5.538
 1527SOL    HW2 5481   3.818   1.233   5.484
 1528SOL     OW 5482   5.072   5.765   1.664
 1528SOL    HW1 5483   5.149   5.799   1.611
 1528SOL    HW2 5484   5.078   5.665   1.671
 1529SOL     OW 5485   3.726   0.006   0.034
 1529SOL    HW1 5486   3.651   6.979   0.082
 1529SOL    HW2 5487   3.692   0.089   7.008
 1530SOL     OW 5488   3.380   0.735   2.456
 1530SOL    HW1 5489   3.434   0.819   2.462
 1530SOL    HW2 5490   3.294   0.754   2.410
 1531SOL     OW 5491   5.743   0.838   4.451
 1531SOL    HW1 5492   5.649   0.811   4.471
 1531SOL    HW2 5493   5.745   0.932   4.416
 1532SOL     OW 5494   2.787   3.607   5.867
 1532SOL    HW1 5495   2.760   3.511   5.874
 1532SOL    HW2 5496   2.714   3.659   5.822
 1533SOL     OW 5497   0.446   2.924   0.173
 1533SOL    HW1 5498   0.533   2.906   0.127
 1533SOL    HW2 5499   0.439   3.022   0.194
 1534SOL     OW 5500   1.412   5.034   6.713
 1534SOL    HW1 5501   1.510   5.038   6.696
 1534SOL    HW2 5502   1.362   5.064   6.632
 1535SOL     OW 5503   5.129   6.038   4.252
 1535SOL    HW1 5504   5.141   6.136   4.237
 1535SOL    HW2 5505   5.046   6.022   4.306
 1536SOL     OW 5506   4.159   4.449   5.343
 1536SOL    HW1 5507   4.159   4.364   5.395
 1536SOL    HW2 5508   4.222   4.440   5.265
 1537SOL     OW 5509   3.740   6.155   3.076
 1537SOL    HW1 5510   3.714   6.115   2.988
 1537SOL    HW2 5511   3.836   6.182   3.072
 1538SOL     OW 5512   3.578   5.512   6.289
 1538SOL    HW1 5513   3.488   5.516   6.332
 1538SOL    HW2 5514   3.570   5.526   6.191
 1539SOL     OW 5515   4.490   4.055   1.471
 1539SOL    HW1 5516   4.417   4.090   1.530
 1539SOL    HW2 5517   4.548   4.131   1.442
 1540SOL     OW 5518   1.093   0.142   5.395
 1540SOL    HW1 5519   1.141   0.151   5.308
 1540SOL    HW2 5520   1.103   0.049   5.429
 1541SOL     OW 5521   3.356   2.900   1.947
 1541SOL    HW1 5522   3.381   2.918   2.042
 1541SOL    HW2 5523   3.256   2.897   1.939
 1542SOL     OW 5524   6.454   6.036   1.576
 1542SOL    HW1 5525   6.460   6.131   1.543
 1542SOL    HW2 5526   6.546   5.999   1.589
 1543SOL     OW 5527   3.018   3.770   4.150
 1543SOL    HW1 5528   3.090   3.701   4.160
 1543SOL    HW2 5529   2.964   3.773   4.234
 1544SOL     OW 5530   3.021   3.507   1.881
 1544SOL    HW1 5531   3.044   3.427   1.826
 1544SOL    HW2 5532   2.968   3.478   1.961
 1545SOL     OW 5533   5.336   0.978   4.644
 1545SOL    HW1 5534   5.262   1.045   4.651
 1545SOL    HW2 5535   5.397   0.987   4.723
 1546SOL     OW 5536   5.174   0.259   6.271
 1546SOL    HW1 5537   5.179   0.186   6.340
 1546SOL    HW2 5538   5.263   0.302   6.261
 1547SOL     OW 5539   1.959   4.084   2.753
 1547SOL    HW1 5540   2.026   4.057   2.822
 1547SOL    HW2 5541   1.955   4.184   2.747
 1548SOL     OW 5542   4.810   3.681   5.877
 1548SOL    HW1 5543   4.777   3.727   5.959
 1548SOL    HW2 5544   4.740   3.684   5.806
 1549SOL     OW 5545   4.787   1.854   2.220
 1549SOL    HW1 5546   4.797   1.801   2.304
 1549SOL    HW2 5547   4.726   1.806   2.157
 1550SOL     OW 5548   3.250   5.386   6.106
 1550SOL    HW1 5549   3.263   5.477   6.066
 1550SOL    HW2 5550   3.163   5.382   6.153
 1551SOL     OW 5551   2.313   3.646   0.200
 1551SOL    HW1 5552   2.239   3.613   0.259
 1551SOL    HW2 5553   2.361   3.567   0.160
 1552SOL     OW 5554   0.033   0.613   1.247
 1552SOL    HW1 5555   0.095   0.535   1.259
 1552SOL    HW2 5556   0.039   0.647   1.154
 1553SOL     OW 5557   6.337   0.943   5.633
 1553SOL    HW1 5558   6.239   0.958   5.620
 1553SOL    HW2 5559   6.389   1.012   5.583
 1554SOL     OW 5560   4.007   2.200   3.084
 1554SOL    HW1 5561   3.953   2.240   3.158
 1554SOL    HW2 5562   3.946   2.157   3.017
 1555SOL     OW 5563   4.697   1.737   6.031
 1555SOL    HW1 5564   4.742   1.820   6.063
 1555SOL    HW2 5565   4.598   1.749   6.034
 1556SOL     OW 5566   4.173   1.122   0.525
 1556SOL    HW1 5567   4.238   1.127   0.602
 1556SOL    HW2 5568   4.200   1.048   0.464
 1557SOL     OW 5569   1.904   1.656   6.671
 1557SOL    HW1 5570   1.850   1.589   6.720
 1557SOL    HW2 5571   1.887   1.648   6.573
 1558SOL     OW 5572   5.678   1.384   4.112
 1558SOL    HW1 5573   5.628   1.301   4.140
 1558SOL    HW2 5574   5.614   1.461   4.106
 1559SOL     OW 5575   0.492   2.534   0.457
 1559SOL    HW1 5576   0.405   2.485   0.450
 1559SOL    HW2 5577   0.489   2.595   0.536
 1560SOL     OW 5578   2.821   0.971   6.412
 1560SOL    HW1 5579   2.755   0.996   6.341
 1560SOL    HW2 5580   2.866   1.053   6.446
 1561SOL     OW 5581   5.858   6.520   2.898
 1561SOL    HW1 5582   5.773   6.560   2.932
 1561SOL    HW2 5583   5.932   6.586   2.908
 1562SOL     OW 5584   3.895   6.714   0.649
 1562SOL    HW1 5585   3.920   6.629   0.696
 1562SOL    HW2 5586   3.880   6.786   0.716
 1563SOL     OW 5587   2.366   1.499   6.150
 1563SOL    HW1 5588   2.398   1.593   6.138
 1563SOL    HW2 5589   2.267   1.499   6.164
 1564SOL     OW 5590   1.704   2.420   2.338
 1564SOL    HW1 5591   1.619   2.419   2.390
 1564SOL    HW2 5592   1.693   2.476   2.256
 1565SOL     OW 5593   4.109   5.496   4.132
 1565SOL    HW1 5594   4.037   5.556   4.165
 1565SOL    HW2 5595   4.084   5.459   4.043
 1566SOL     OW 5596   6.193   5.148   4.702
 1566SOL    HW1 5597   6.236   5.058   4.712
 1566SOL    HW2 5598   6.263   5.219   4.701
 1567SOL     OW 5599   6.443   5.920   0.051
 1567SOL    HW1 5600   6.428   6.017   0.032
 1567SOL    HW2 5601   6.365   5.883   0.101
 1568SOL     OW 5602   1.921   6.452   1.905
 1568SOL    HW1 5603   1.879   6.515   1.840
 1568SOL    HW2 5604   1.954   6.502   1.985
 1569SOL     OW 5605   3.441   6.748   3.695
 1569SOL    HW1 5606   3.511   6.677   3.708
 1569SOL    HW2 5607   3.360   6.708   3.651
 1570SOL     OW 5608   2.626   6.419   0.609
 1570SOL    HW1 5609   2.537   6.426   0.653
 1570SOL    HW2 5610   2.650   6.507   0.568
 1571SOL     OW 5611   6.251   2.033   3.225
 1571SOL    HW1 5612   6.155   2.056   3.241
 1571SOL    HW2 5613   6.264   2.008   3.129
 1572SOL     OW 5614   2.100   6.128   0.791
 1572SOL    HW1 5615   2.124   6.204   0.852
 1572SOL    HW2 5616   2.170   6.057   0.798
 1573SOL     OW 5617   6.643   4.165   1.370
 1573SOL    HW1 5618   6.611   4.215   1.451
 1573SOL    HW2 5619   6.577   4.093   1.347
 1574SOL     OW 5620   6.098   2.133   4.258
 1574SOL    HW1 5621   6.147   2.092   4.181
 1574SOL    HW2 5622   6.105   2.073   4.338
 1575SOL     OW 5623   2.311   1.784   1.404
 1575SOL    HW1 5624   2.406   1.754   1.405
 1575SOL    HW2 5625   2.257   1.726   1.465
 1576SOL     OW 5626   1.091   0.017   3.039
 1576SOL    HW1 5627   1.103   0.076   3.120
 1576SOL    HW2 5628   0.994   0.019   3.012
 1577SOL     OW 5629   2.409   0.620   5.807
 1577SOL    HW1 5630   2.437   0.561   5.731
 1577SOL    HW2 5631   2.466   0.600   5.886
 1578SOL     OW 5632   4.766   1.900   5.472
 1578SOL    HW1 5633   4.753   1.997   5.452
 1578SOL    HW2 5634   4.856   1.886   5.513
 1579SOL     OW 5635   0.016   1.535   2.196
 1579SOL    HW1 5636   0.070   1.535   2.112
 1579SOL    HW2 5637   0.035   1.451   2.248
 1580SOL     OW 5638   3.601   4.153   3.774
 1580SOL    HW1 5639   3.607   4.233   3.714
 1580SOL    HW2 5640   3.554   4.079   3.727
 1581SOL     OW 5641   6.391   5.234   5.121
 1581SOL    HW1 5642   6.305   5.225   5.170
 1581SOL    HW2 5643   6.388   5.315   5.062
 1582SOL     OW 5644   1.941   6.734   4.566
 1582SOL    HW1 5645   1.927   6.635   4.558
 1582SOL    HW2 5646   2.005   6.753   4.641
 1583SOL     OW 5647   0.506   5.987   3.364
 1583SOL    HW1 5648   0.535   5.991   3.268
 1583SOL    HW2 5649   0.567   5.925   3.414
 1584SOL     OW 5650   0.610   5.495   5.207
 1584SOL    HW1 5651   0.631   5.398   5.196
 1584SOL    HW2 5652   0.690   5.543   5.244
 1585SOL     OW 5653   4.708   2.267   3.309
 1585SOL    HW1 5654   4.701   2.171   3.335
 1585SOL    HW2 5655   4.617   2.307   3.301
 1586SOL     OW 5656   3.124   5.203   2.214
 1586SOL    HW1 5657   3.166   5.159   2.135
 1586SOL    HW2 5658   3.165   5.168   2.298
 1587SOL     OW 5659   2.367   5.746   5.635
 1587SOL    HW1 5660   2.383   5.817   5.566
 1587SOL    HW2 5661   2.445   5.684   5.637
 1588SOL     OW 5662   4.564   1.205   2.099
 1588SOL    HW1 5663   4.585   1.303   2.093
 1588SOL    HW2 5664   4.487   1.184   2.039
 1589SOL     OW 5665   6.907   3.221   2.548
 1589SOL    HW1 5666   6.915   3.253   2.453
 1589SOL    HW2 5667   6.959   3.281   2.608
 1590SOL     OW 5668   4.337   0.096   4.348
 1590SOL    HW1 5669   4.253   0.143   4.321
 1590SOL    HW2 5670   4.387   0.067   4.266
 1591SOL     OW 5671   6.782   5.497   1.498
 1591SOL    HW1 5672   6.877   5.488   1.466
 1591SOL    HW2 5673   6.732   5.559   1.437
 1592SOL     OW 5674   2.126   3.855   6.230
 1592SOL    HW1 5675   2.082   3.770   6.198
 1592SOL    HW2 5676   2.216   3.863   6.189
 1593SOL     OW 5677   1.241   6.830   5.061
 1593SOL    HW1 5678   1.229   6.908   5.122
 1593SOL    HW2 5679   1.154   6.811   5.014
 1594SOL     OW 5680   0.873   6.394   1.911
 1594SOL    HW1 5681   0.820   6.476   1.889
 1594SOL    HW2 5682   0.817   6.312   1.896
 1595SOL     OW 5683   1.061   5.377   0.679
 1595SOL    HW1 5684   1.036   5.472   0.660
 1595SOL    HW2 5685   1.038   5.356   0.774
 1596SOL     OW 5686   0.085   3.238   3.881
 1596SOL    HW1 5687   0.064   3.152   3.928
 1596SOL    HW2 5688   0.038   3.313   3.927
 1597SOL     OW 5689   1.119   5.996   0.682
 1597SOL    HW1 5690   1.067   6.077   0.656
 1597SOL    HW2 5691   1.108   5.981   0.781
 1598SOL     OW 5692   6.809   4.505   5.793
 1598SOL    HW1 5693   6.830   4.601   5.811
 1598SOL    HW2 5694   6.887   4.460   5.751
 1599SOL     OW 5695   4.987   5.341   4.697
 1599SOL    HW1 5696   4.978   5.439   4.681
 1599SOL    HW2 5697   4.962   5.291   4.614
 1600SOL     OW 5698   3.423   1.326   3.625
 1600SOL    HW1 5699   3.424   1.226   3.628
 1600SOL    HW2 5700   3.394   1.362   3.714
 1601SOL     OW 5701   6.568   6.169   3.974
 1601SOL    HW1 5702   6.631   6.111   4.024
 1601SOL    HW2 5703   6.510   6.219   4.038
 1602SOL     OW 5704   4.028   5.071   4.164
 1602SOL    HW1 5705   4.034   5.119   4.252
 1602SOL    HW2 5706   4.105   5.097   4.106
 1603SOL     OW 5707   1.741   6.471   3.000
 1603SOL    HW1 5708   1.704   6.560   2.972
 1603SOL    HW2 5709   1.770   6.476   3.095
 1604SOL     OW 5710   5.424   4.388   1.531
 1604SOL    HW1 5711   5.498   4.332   1.567
 1604SOL    HW2 5712   5.368   4.422   1.606
 1605SOL     OW 5713   6.794   5.632   1.760
 1605SOL    HW1 5714   6.702   5.597   1.776
 1605SOL    HW2 5715   6.827   5.602   1.670
 1606SOL     OW 5716   4.201   6.239   6.013
 1606SOL    HW1 5717   4.189   6.234   6.112
 1606SOL    HW2 5718   4.189   6.334   5.983
 1607SOL     OW 5719   3.792   0.192   0.987
 1607SOL    HW1 5720   3.844   0.138   0.921
 1607SOL    HW2 5721   3.842   0.275   1.009
 1608SOL     OW 5722   0.590   1.368   3.392
 1608SOL    HW1 5723   0.625   1.346   3.483
 1608SOL    HW2 5724   0.625   1.457   3.364
 1609SOL     OW 5725   4.198   0.164   0.440
 1609SOL    HW1 5726   4.252   0.081   0.449
 1609SOL    HW2 5727   4.187   0.186   0.343
 1610SOL     OW 5728   6.209   5.030   0.293
 1610SOL    HW1 5729   6.306   5.051   0.310
 1610SOL    HW2 5730   6.181   4.955   0.352
 1611SOL     OW 5731   2.498   3.723   0.540
 1611SOL    HW1 5732   2.489   3.696   0.444
 1611SOL    HW2 5733   2.571   3.791   0.549
 1612SOL     OW 5734   2.805   0.052   0.273
 1612SOL    HW1 5735   2.778   0.140   0.313
 1612SOL    HW2 5736   2.891   0.062   0.224
 1613SOL     OW 5737   1.444   5.750   1.778
 1613SOL    HW1 5738   1.516   5.797   1.829
 1613SOL    HW2 5739   1.364   5.809   1.772
 1614SOL     OW 5740   5.215   2.262   5.811
 1614SOL    HW1 5741   5.149   2.192   5.783
 1614SOL    HW2 5742   5.236   2.321   5.733
 1615SOL     OW 5743   6.265   5.701   0.703
 1615SOL    HW1 5744   6.353   5.657   0.720
 1615SOL    HW2 5745   6.229   5.738   0.788
 1616SOL     OW 5746   3.462   0.877   4.940
 1616SOL    HW1 5747   3.436   0.954   4.881
 1616SOL    HW2 5748   3.559   0.857   4.929
 1617SOL     OW 5749   5.591   6.621   2.989
 1617SOL    HW1 5750   5.659   6.675   2.940
 1617SOL    HW2 5751   5.575   6.536   2.940
 1618SOL     OW 5752   1.795   6.422   2.702
 1618SOL    HW1 5753   1.751   6.436   2.791
 1618SOL    HW2 5754   1.878   6.368   2.713
 1619SOL     OW 5755   0.463   4.409   1.397
 1619SOL    HW1 5756   0.430   4.379   1.486
 1619SOL    HW2 5757   0.428   4.347   1.326
 1620SOL     OW 5758   2.851   4.527   1.570
 1620SOL    HW1 5759   2.806   4.460   1.511
 1620SOL    HW2 5760   2.853   4.494   1.664
 1621SOL     OW 5761   6.552   0.928   0.364
 1621SOL    HW1 5762   6.649   0.934   0.386
 1621SOL    HW2 5763   6.505   1.011   0.395
 1622SOL     OW 5764   0.545   3.279   5.461
 1622SOL    HW1 5765   0.516   3.304   5.369
 1622SOL    HW2 5766   0.471   3.295   5.526
 1623SOL     OW 5767   1.444   2.948   5.236
 1623SOL    HW1 5768   1.347   2.956   5.211
 1623SOL    HW2 5769   1.495   2.912   5.158
 1624SOL     OW 5770   3.754   1.377   4.642
 1624SOL    HW1 5771   3.817   1.452   4.623
 1624SOL    HW2 5772   3.700   1.399   4.723
 1625SOL     OW 5773   1.313   4.658   0.299
 1625SOL    HW1 5774   1.384   4.670   0.368
 1625SOL    HW2 5775   1.355   4.621   0.215
 1626SOL     OW 5776   3.649   1.213   0.657
 1626SOL    HW1 5777   3.561   1.257   0.643
 1626SOL    HW2 5778   3.669   1.153   0.579
 1627SOL     OW 5779   6.204   3.301   3.974
 1627SOL    HW1 5780   6.156   3.331   4.056
 1627SOL    HW2 5781   6.174   3.356   3.896
 1628SOL     OW 5782   4.524   4.919   0.418
 1628SOL    HW1 5783   4.616   4.897   0.385
 1628SOL    HW2 5784   4.505   5.016   0.399
 1629SOL     OW 5785   2.583   1.099   3.792
 1629SOL    HW1 5786   2.541   1.179   3.749
 1629SOL    HW2 5787   2.605   1.031   3.722
 1630SOL     OW 5788   0.754   5.018   6.210
 1630SOL    HW1 5789   0.745   5.117   6.197
 1630SOL    HW2 5790   0.850   4.992   6.211
 1631SOL     OW 5791   1.172   2.594   0.983
 1631SOL    HW1 5792   1.265   2.563   0.964
 1631SOL    HW2 5793   1.175   2.685   1.025
 1632SOL     OW 5794   5.720   3.031   1.686
 1632SOL    HW1 5795   5.657   3.105   1.711
 1632SOL    HW2 5796   5.722   2.963   1.760
 1633SOL     OW 5797   4.840   4.043   4.425
 1633SOL    HW1 5798   4.784   4.125   4.440
 1633SOL    HW2 5799   4.826   3.979   4.500
 1634SOL     OW 5800   4.794   5.870   4.545
 1634SOL    HW1 5801   4.748   5.956   4.564
 1634SOL    HW2 5802   4.782   5.846   4.448
 1635SOL     OW 5803   0.467   5.056   6.825
 1635SOL    HW1 5804   0.523   5.135   6.802
 1635SOL    HW2 5805   0.372   5.074   6.799
 1636SOL     OW 5806   2.984   4.080   1.172
 1636SOL    HW1 5807   3.066   4.034   1.207
 1636SOL    HW2 5808   3.010   4.142   1.098
 1637SOL     OW 5809   6.623   0.678   3.038
 1637SOL    HW1 5810   6.656   0.753   2.981
 1637SOL    HW2 5811   6.604   0.712   3.130
 1638SOL     OW 5812   6.882   3.976   3.183
 1638SOL    HW1 5813   6.980   3.957   3.192
 1638SOL    HW2 5814   6.866   4.073   3.200
 1639SOL     OW 5815   5.641   5.735   1.507
 1639SOL    HW1 5816   5.729   5.782   1.510
 1639SOL    HW2 5817   5.644   5.657   1.571
 1640SOL     OW 5818   6.176   0.392   6.864
 1640SOL    HW1 5819   6.221   0.324   6.922
 1640SOL    HW2 5820   6.082   0.404   6.893
 1641SOL     OW 5821   4.452   2.131   2.497
 1641SOL    HW1 5822   4.504   2.195   2.441
 1641SOL    HW2 5823   4.515   2.071   2.546
 1642SOL     OW 5824   0.437   3.534   0.172
 1642SOL    HW1 5825   0.433   3.623   0.127
 1642SOL    HW2 5826   0.439   3.547   0.271
 1643SOL     OW 5827   2.450   5.110   4.244
 1643SOL    HW1 5828   2.520   5.038   4.244
 1643SOL    HW2 5829   2.475   5.181   4.178
 1644SOL     OW 5830   5.814   3.872   6.849
 1644SOL    HW1 5831   5.871   3.792   6.832
 1644SOL    HW2 5832   5.873   3.952   6.864
 1645SOL     OW 5833   2.971   5.328   6.180
 1645SOL    HW1 5834   2.970   5.232   6.208
 1645SOL    HW2 5835   2.882   5.353   6.141
 1646SOL     OW 5836   2.559   0.112   0.567
 1646SOL    HW1 5837   2.512   0.080   0.649
 1646SOL    HW2 5838   2.646   0.064   0.557
 1647SOL     OW 5839   6.137   3.311   4.777
 1647SOL    HW1 5840   6.112   3.390   4.832
 1647SOL    HW2 5841   6.054   3.261   4.751
 1648SOL     OW 5842   5.342   5.569   0.382
 1648SOL    HW1 5843   5.362   5.480   0.341
 1648SOL    HW2 5844   5.244   5.575   0.402
 1649SOL     OW 5845   3.860   1.350   3.832
 1649SOL    HW1 5846   3.817   1.328   3.919
 1649SOL    HW2 5847   3.852   1.272   3.770
 1650SOL     OW 5848   0.849   5.756   4.700
 1650SOL    HW1 5849   0.820   5.704   4.780
 1650SOL    HW2 5850   0.932   5.809   4.723
 1651SOL     OW 5851   6.804   2.259   1.740
 1651SOL    HW1 5852   6.897   2.251   1.704
 1651SOL    HW2 5853   6.748   2.184   1.703
 1652SOL     OW 5854   1.094   3.282   2.898
 1652SOL    HW1 5855   1.090   3.360   2.960
 1652SOL    HW2 5856   1.102   3.314   2.804
 1653SOL     OW 5857   1.344   6.883   6.853
 1653SOL    HW1 5858   1.319   6.810   6.916
 1653SOL    HW2 5859   1.354   6.846   6.761
 1654SOL     OW 5860   0.279   3.894   1.598
 1654SOL    HW1 5861   0.280   3.954   1.518
 1654SOL    HW2 5862   0.333   3.812   1.580
 1655SOL     OW 5863   0.112   2.254   4.920
 1655SOL    HW1 5864   0.028   2.247   4.867
 1655SOL    HW2 5865   0.188   2.215   4.868
 1656SOL     OW 5866   2.457   4.447   2.833
 1656SOL    HW1 5867   2.472   4.432   2.930
 1656SOL    HW2 5868   2.523   4.513   2.799
 1657SOL     OW 5869   6.359   0.865   4.467
 1657SOL    HW1 5870   6.428   0.801   4.502
 1657SOL    HW2 5871   6.348   0.940   4.532
 1658SOL     OW 5872   6.413   0.494   1.521
 1658SOL    HW1 5873   6.348   0.442   1.575
 1658SOL    HW2 5874   6.365   0.547   1.451
 1659SOL     OW 5875   3.680   0.210   6.842
 1659SOL    HW1 5876   3.640   0.291   6.885
 1659SOL    HW2 5877   3.731   0.237   6.761
 1660SOL     OW 5878   1.921   6.041   2.758
 1660SOL    HW1 5879   1.956   5.961   2.806
 1660SOL    HW2 5880   1.998   6.099   2.730
 1661SOL     OW 5881   2.469   6.564   1.140
 1661SOL    HW1 5882   2.498   6.473   1.169
 1661SOL    HW2 5883   2.389   6.592   1.194
 1662SOL     OW 5884   0.399   1.248   4.219
 1662SOL    HW1 5885   0.462   1.217   4.290
 1662SOL    HW2 5886   0.367   1.340   4.242
 1663SOL     OW 5887   4.205   6.158   3.283
 1663SOL    HW1 5888   4.191   6.192   3.376
 1663SOL    HW2 5889   4.283   6.095   3.281
 1664SOL     OW 5890   2.015   6.324   5.006
 1664SOL    HW1 5891   2.025   6.256   5.078
 1664SOL    HW2 5892   1.957   6.400   5.038
 1665SOL     OW 5893   6.826   2.577   2.470
 1665SOL    HW1 5894   6.735   2.614   2.450
 1665SOL    HW2 5895   6.820   2.477   2.475
 1666SOL     OW 5896   5.014   1.605   6.315
 1666SOL    HW1 5897   5.016   1.699   6.348
 1666SOL    HW2 5898   5.005   1.542   6.392
 1667SOL     OW 5899   0.280   6.616   1.210
 1667SOL    HW1 5900   0.335   6.679   1.154
 1667SOL    HW2 5901   0.340   6.568   1.274
 1668SOL     OW 5902   4.906   6.132   3.577
 1668SOL    HW1 5903   4.865   6.115   3.487
 1668SOL    HW2 5904   5.002   6.155   3.567
 1669SOL     OW 5905   6.226   4.766   6.509
 1669SOL    HW1 5906   6.143   4.723   6.474
 1669SOL    HW2 5907   6.261   4.831   6.442
 1670SOL     OW 5908   0.382   3.894   5.541
 1670SOL    HW1 5909   0.466   3.939   5.511
 1670SOL    HW2 5910   0.354   3.933   5.628
 1671SOL     OW 5911   5.479   2.073   2.867
 1671SOL    HW1 5912   5.448   2.118   2.951
 1671SOL    HW2 5913   5.401   2.054   2.808
 1672SOL     OW 5914   1.181   2.872   1.087
 1672SOL    HW1 5915   1.255   2.932   1.119
 1672SOL    HW2 5916   1.100   2.888   1.143
 1673SOL     OW 5917   0.088   1.376   4.934
 1673SOL    HW1 5918   7.009   1.394   4.953
 1673SOL    HW2 5919   0.144   1.450   4.970
 1674SOL     OW 5920   1.018   3.161   2.564
 1674SOL    HW1 5921   1.066   3.074   2.567
 1674SOL    HW2 5922   1.085   3.235   2.558
 1675SOL     OW 5923   5.443   0.080   0.270
 1675SOL    HW1 5924   5.405   0.171   0.255
 1675SOL    HW2 5925   5.494   0.079   0.357
 1676SOL     OW 5926   2.432   2.646   1.279
 1676SOL    HW1 5927   2.431   2.700   1.363
 1676SOL    HW2 5928   2.348   2.661   1.228
 1677SOL     OW 5929   3.056   3.195   3.846
 1677SOL    HW1 5930   3.048   3.224   3.750
 1677SOL    HW2 5931   3.129   3.127   3.854
 1678SOL     OW 5932   6.354   4.457   3.692
 1678SOL    HW1 5933   6.338   4.358   3.699
 1678SOL    HW2 5934   6.272   4.507   3.719
 1679SOL     OW 5935   2.512   2.534   4.565
 1679SOL    HW1 5936   2.552   2.447   4.535
 1679SOL    HW2 5937   2.510   2.598   4.489
 1680SOL     OW 5938   0.665   2.967   5.221
 1680SOL    HW1 5939   0.754   2.995   5.186
 1680SOL    HW2 5940   0.594   2.991   5.155
 1681SOL     OW 5941   0.331   5.255   0.299
 1681SOL    HW1 5942   0.234   5.279   0.294
 1681SOL    HW2 5943   0.364   5.229   0.208
 1682SOL     OW 5944   1.837   0.697   5.383
 1682SOL    HW1 5945   1.841   0.638   5.463
 1682SOL    HW2 5946   1.775   0.656   5.315
 1683SOL     OW 5947   5.207   5.158   2.371
 1683SOL    HW1 5948   5.182   5.172   2.275
 1683SOL    HW2 5949   5.187   5.241   2.423
 1684SOL     OW 5950   1.004   6.328   2.176
 1684SOL    HW1 5951   1.095   6.367   2.160
 1684SOL    HW2 5952   0.953   6.328   2.090
 1685SOL     OW 5953   2.004   0.914   5.159
 1685SOL    HW1 5954   1.965   0.954   5.076
 1685SOL    HW2 5955   2.022   0.817   5.143
 1686SOL     OW 5956   2.264   5.735   3.961
 1686SOL    HW1 5957   2.286   5.832   3.970
 1686SOL    HW2 5958   2.234   5.700   4.050
 1687SOL     OW 5959   2.130   3.075   2.045
 1687SOL    HW1 5960   2.164   3.052   1.953
 1687SOL    HW2 5961   2.115   3.173   2.050
 1688SOL     OW 5962   2.491   1.550   3.809
 1688SOL    HW1 5963   2.448   1.553   3.899
 1688SOL    HW2 5964   2.546   1.633   3.796
 1689SOL     OW 5965   6.280   0.885   2.902
 1689SOL    HW1 5966   6.318   0.915   2.815
 1689SOL    HW2 5967   6.267   0.964   2.962
 1690SOL     OW 5968   1.707   2.662   4.443
 1690SOL    HW1 5969   1.637   2.638   4.509
 1690SOL    HW2 5970   1.706   2.597   4.367
 1691SOL     OW 5971   5.145   3.112   3.363
 1691SOL    HW1 5972   5.120   3.134   3.457
 1691SOL    HW2 5973   5.235   3.151   3.343
 1692SOL     OW 5974   4.984   6.279   1.142
 1692SOL    HW1 5975   5.008   6.334   1.062
 1692SOL    HW2 5976   5.063   6.272   1.203
 1693SOL     OW 5977   5.967   1.856   2.395
 1693SOL    HW1 5978   5.904   1.805   2.336
 1693SOL    HW2 5979   6.056   1.812   2.395
 1694SOL     OW 5980   5.420   1.150   2.956
 1694SOL    HW1 5981   5.403   1.239   2.915
 1694SOL    HW2 5982   5.417   1.157   3.056
 1695SOL     OW 5983   4.092   0.808   6.084
 1695SOL    HW1 5984   4.183   0.823   6.045
 1695SOL    HW2 5985   4.099   0.747   6.163
 1696SOL     OW 5986   4.345   6.228   0.941
 1696SOL    HW1 5987   4.441   6.250   0.954
 1696SOL    HW2 5988   4.327   6.135   0.972
 1697SOL     OW 5989   6.401   1.148   0.451
 1697SOL    HW1 5990   6.365   1.139   0.544
 1697SOL    HW2 5991   6.444   1.238   0.441
 1698SOL     OW 5992   3.049   0.152   0.203
 1698SOL    HW1 5993   3.085   0.135   0.295
 1698SOL    HW2 5994   3.048   0.066   0.151
 1699SOL     OW 5995   2.177   1.477   7.002
 1699SOL    HW1 5996   2.237   1.511   6.929
 1699SOL    HW2 5997   2.226   1.409   0.038
 1700SOL     OW 5998   6.269   4.197   3.597
 1700SOL    HW1 5999   6.210   4.223   3.674
 1700SOL    HW2 6000   6.218   4.137   3.535
 1701SOL     OW 6001   5.448   4.715   5.512
 1701SOL    HW1 6002   5.354   4.740   5.534
 1701SOL    HW2 6003   5.487   4.660   5.585
 1702SOL     OW 6004   6.509   1.322   0.927
 1702SOL    HW1 6005   6.506   1.412   0.883
 1702SOL    HW2 6006   6.438   1.264   0.888
 1703SOL     OW 6007   3.505   1.987   0.715
 1703SOL    HW1 6008   3.497   1.929   0.797
 1703SOL    HW2 6009   3.416   1.995   0.671
 1704SOL     OW 6010   0.908   1.747   1.201
 1704SOL    HW1 6011   0.915   1.809   1.278
 1704SOL    HW2 6012   0.946   1.790   1.119
 1705SOL     OW 6013   3.390   1.874   2.789
 1705SOL    HW1 6014   3.401   1.776   2.807
 1705SOL    HW2 6015   3.452   1.900   2.715
 1706SOL     OW 6016   5.076   1.217   2.067
 1706SOL    HW1 6017   4.979   1.195   2.063
 1706SOL    HW2 6018   5.128   1.150   2.014
 1707SOL     OW 6019   4.504   2.241   1.759
 1707SOL    HW1 6020   4.591   2.241   1.710
 1707SOL    HW2 6021   4.495   2.326   1.811
 1708SOL     OW 6022   5.051   5.314   1.842
 1708SOL    HW1 6023   5.026   5.328   1.938
 1708SOL    HW2 6024   5.037   5.399   1.791
 1709SOL     OW 6025   2.923   6.183   2.579
 1709SOL    HW1 6026   2.839   6.183   2.525
 1709SOL    HW2 6027   2.960   6.276   2.583
 1710SOL     OW 6028   4.844   4.849   3.544
 1710SOL    HW1 6029   4.942   4.847   3.560
 1710SOL    HW2 6030   4.812   4.759   3.517
 1711SOL     OW 6031   1.560   4.846   4.574
 1711SOL    HW1 6032   1.469   4.886   4.562
 1711SOL    HW2 6033   1.628   4.918   4.580
 1712SOL     OW 6034   0.046   2.500   4.623
 1712SOL    HW1 6035   0.037   2.405   4.593
 1712SOL    HW2 6036   0.143   2.521   4.638
 1713SOL     OW 6037   4.652   2.606   1.892
 1713SOL    HW1 6038   4.619   2.534   1.954
 1713SOL    HW2 6039   4.678   2.686   1.946
 1714SOL     OW 6040   3.192   1.280   6.221
 1714SOL    HW1 6041   3.284   1.293   6.258
 1714SOL    HW2 6042   3.142   1.366   6.224
 1715SOL     OW 6043   1.819   5.249   2.737
 1715SOL    HW1 6044   1.914   5.280   2.737
 1715SOL    HW2 6045   1.783   5.251   2.831
 1716SOL     OW 6046   4.547   0.024   3.040
 1716SOL    HW1 6047   4.514   0.065   3.125
 1716SOL    HW2 6048   4.475   6.986   3.000
 1717SOL     OW 6049   3.043   6.083   5.384
 1717SOL    HW1 6050   3.036   6.109   5.480
 1717SOL    HW2 6051   3.016   6.160   5.326
 1718SOL     OW 6052   3.129   1.461   1.726
 1718SOL    HW1 6053   3.054   1.401   1.699
 1718SOL    HW2 6054   3.215   1.411   1.718
 1719SOL     OW 6055   2.155   3.226   1.287
 1719SOL    HW1 6056   2.141   3.282   1.205
 1719SOL    HW2 6057   2.120   3.134   1.271
 1720SOL     OW 6058   0.113   3.357   0.420
 1720SOL    HW1 6059   0.108   3.258   0.427
 1720SOL    HW2 6060   0.208   3.385   0.404
 1721SOL     OW 6061   2.159   6.644   1.744
 1721SOL    HW1 6062   2.082   6.688   1.699
 1721SOL    HW2 6063   2.240   6.651   1.686
 1722SOL     OW 6064   2.947   1.223   4.092
 1722SOL    HW1 6065   2.924   1.165   4.014
 1722SOL    HW2 6066   3.003   1.170   4.156
 1723SOL     OW 6067   6.025   2.540   0.579
 1723SOL    HW1 6068   6.030   2.471   0.651
 1723SOL    HW2 6069   6.117   2.570   0.554
 1724SOL     OW 6070   0.123   3.106   2.657
 1724SOL    HW1 6071   0.213   3.146   2.639
 1724SOL    HW2 6072   0.092   3.132   2.748
 1725SOL     OW 6073   2.009   4.479   5.920
 1725SOL    HW1 6074   1.949   4.409   5.958
 1725SOL    HW2 6075   1.971   4.569   5.941
 1726SOL     OW 6076   6.090   4.824   5.488
 1726SOL    HW1 6077   6.015   4.761   5.467
 1726SOL    HW2 6078   6.145   4.787   5.562
 1727SOL     OW 6079   3.387   2.898   3.635
 1727SOL    HW1 6080   3.460   2.899   3.567
 1727SOL    HW2 6081   3.301   2.926   3.592
 1728SOL     OW 6082   5.521   5.675   5.207
 1728SOL    HW1 6083   5.516   5.577   5.227
 1728SOL    HW2 6084   5.514   5.689   5.108
 1729SOL     OW 6085   2.248   4.132   3.362
 1729SOL    HW1 6086   2.258   4.113   3.459
 1729SOL    HW2 6087   2.150   4.140   3.340
 1730SOL     OW 6088   1.594   6.889   4.915
 1730SOL    HW1 6089   1.542   6.805   4.932
 1730SOL    HW2 6090   1.622   6.892   4.819
 1731SOL     OW 6091   0.707   4.402   4.355
 1731SOL    HW1 6092   0.702   4.378   4.258
 1731SOL    HW2 6093   0.802   4.399   4.386
 1732SOL     OW 6094   2.162   4.678   5.547
 1732SOL    HW1 6095   2.181   4.671   5.645
 1732SOL    HW2 6096   2.065   4.700   5.534
 1733SOL     OW 6097   1.613   4.508   1.757
 1733SOL    HW1 6098   1.554   4.531   1.680
 1733SOL    HW2 6099   1.557   4.498   1.840
 1734SOL     OW 6100   4.649   2.849   0.967
 1734SOL    HW1 6101   4.739   2.888   0.987
 1734SOL    HW2 6102   4.580   2.920   0.975
 1735SOL     OW 6103   4.628   5.108   6.880
 1735SOL    HW1 6104   4.591   5.140   6.793
 1735SOL    HW2 6105   4.707   5.164   6.906
 1736SOL     OW 6106   3.650   3.816   1.268
 1736SOL    HW1 6107   3.570   3.820   1.209
 1736SOL    HW2 6108   3.653   3.727   1.314
 1737SOL     OW 6109   4.169   0.971   4.486
 1737SOL    HW1 6110   4.072   0.989   4.471
 1737SOL    HW2 6111   4.187   0.962   4.584
 1738SOL     OW 6112   2.074   2.754   4.265
 1738SOL    HW1 6113   1.990   2.803   4.287
 1738SOL    HW2 6114   2.104   2.702   4.345
 1739SOL     OW 6115   6.922   1.565   5.172
 1739SOL    HW1 6116   6.839   1.620   5.181
 1739SOL    HW2 6117   7.001   1.619   5.202
 1740SOL     OW 6118   6.924   2.445   5.119
 1740SOL    HW1 6119   6.908   2.520   5.055
 1740SOL    HW2 6120   6.980   2.375   5.075
 1741SOL     OW 6121   2.451   0.739   3.838
 1741SOL    HW1 6122   2.500   0.653   3.854
 1741SOL    HW2 6123   2.468   0.770   3.745
 1742SOL     OW 6124   5.605   0.923   5.928
 1742SOL    HW1 6125   5.511   0.945   5.955
 1742SOL    HW2 6126   5.645   1.001   5.881
 1743SOL     OW 6127   0.851   2.490   2.500
 1743SOL    HW1 6128   0.781   2.523   2.436
 1743SOL    HW2 6129   0.809   2.431   2.568
 1744SOL     OW 6130   5.998   2.744   3.102
 1744SOL    HW1 6131   5.991   2.776   3.008
 1744SOL    HW2 6132   5.998   2.644   3.104
 1745SOL     OW 6133   5.419   5.852   2.408
 1745SOL    HW1 6134   5.354   5.906   2.461
 1745SOL    HW2 6135   5.380   5.832   2.318
 1746SOL     OW 6136   1.609   4.128   4.704
 1746SOL    HW1 6137   1.649   4.152   4.616
 1746SOL    HW2 6138   1.611   4.028   4.714
 1747SOL     OW 6139   4.898   1.564   2.885
 1747SOL    HW1 6140   4.798   1.564   2.883
 1747SOL    HW2 6141   4.930   1.510   2.963
 1748SOL     OW 6142   0.110   1.800   5.121
 1748SOL    HW1 6143   0.138   1.819   5.215
 1748SOL    HW2 6144   0.043   1.868   5.091
 1749SOL     OW 6145   2.062   6.792   5.059
 1749SOL    HW1 6146   2.100   6.801   4.967
 1749SOL    HW2 6147   2.041   6.883   5.095
 1750SOL     OW 6148   5.176   6.131   3.552
 1750SOL    HW1 6149   5.175   6.094   3.459
 1750SOL    HW2 6150   5.266   6.169   3.572
 1751SOL     OW 6151   3.994   0.456   3.640
 1751SOL    HW1 6152   4.009   0.361   3.611
 1751SOL    HW2 6153   4.063   0.480   3.708
 1752SOL     OW 6154   6.119   1.216   2.308
 1752SOL    HW1 6155   6.218   1.224   2.325
 1752SOL    HW2 6156   6.101   1.233   2.211
 1753SOL     OW 6157   6.650   0.872   1.364
 1753SOL    HW1 6158   6.675   0.777   1.383
 1753SOL    HW2 6159   6.693   0.901   1.278
 1754SOL     OW 6160   1.632   5.009   6.976
 1754SOL    HW1 6161   1.604   5.078   0.025
 1754SOL    HW2 6162   1.554   4.985   6.919
 1755SOL     OW 6163   0.212   6.351   1.459
 1755SOL    HW1 6164   0.308   6.377   1.472
 1755SOL    HW2 6165   0.207   6.261   1.415
 1756SOL     OW 6166   4.335   5.443   5.593
 1756SOL    HW1 6167   4.260   5.439   5.526
 1756SOL    HW2 6168   4.350   5.538   5.621
 1757SOL     OW 6169   2.430   5.380   4.745
 1757SOL    HW1 6170   2.381   5.328   4.675
 1757SOL    HW2 6171   2.525   5.349   4.750
 1758SOL     OW 6172   2.187   0.937   4.391
 1758SOL    HW1 6173   2.231   0.859   4.346
 1758SOL    HW2 6174   2.256   0.989   4.442
 1759SOL     OW 6175   2.166   6.278   5.447
 1759SOL    HW1 6176   2.213   6.366   5.440
 1759SOL    HW2 6177   2.072   6.287   5.414
 1760SOL     OW 6178   5.821   0.640   3.600
 1760SOL    HW1 6179   5.890   0.638   3.528
 1760SOL    HW2 6180   5.838   0.716   3.662
 1761SOL     OW 6181   6.955   0.476   1.728
 1761SOL    HW1 6182   6.918   0.531   1.653
 1761SOL    HW2 6183   0.036   0.490   1.734
 1762SOL     OW 6184   0.740   1.233   3.838
 1762SOL    HW1 6185   0.834   1.265   3.828
 1762SOL    HW2 6186   0.735   1.170   3.915
 1763SOL     OW 6187   0.599   4.308   4.643
 1763SOL    HW1 6188   0.601   4.327   4.545
 1763SOL    HW2 6189   0.507   4.325   4.679
 1764SOL     OW 6190   2.033   3.442   2.333
 1764SOL    HW1 6191   2.089   3.441   2.416
 1764SOL    HW2 6192   1.957   3.506   2.345
 1765SOL     OW 6193   3.877   0.960   1.470
 1765SOL    HW1 6194   3.866   0.883   1.532
 1765SOL    HW2 6195   3.965   1.004   1.485
 1766SOL     OW 6196   5.521   4.510   3.669
 1766SOL    HW1 6197   5.506   4.447   3.745
 1766SOL    HW2 6198   5.618   4.534   3.663
 1767SOL     OW 6199   0.896   4.119   2.684
 1767SOL    HW1 6200   0.941   4.196   2.639
 1767SOL    HW2 6201   0.860   4.149   2.772
 1768SOL     OW 6202   3.466   0.830   6.873
 1768SOL    HW1 6203   3.557   0.861   6.900
 1768SOL    HW2 6204   3.399   0.867   6.937
 1769SOL     OW 6205   4.783   1.613   0.034
 1769SOL    HW1 6206   4.797   1.705   0.073
 1769SOL    HW2 6207   4.720   1.562   0.092
 1770SOL     OW 6208   6.748   4.266   4.659
 1770SOL    HW1 6209   6.750   4.198   4.733
 1770SOL    HW2 6210   6.654   4.298   4.646
 1771SOL     OW 6211   1.857   5.350   0.988
 1771SOL    HW1 6212   1.868   5.379   0.893
 1771SOL    HW2 6213   1.825   5.427   1.043
 1772SOL     OW 6214   3.831   5.986   3.591
 1772SOL    HW1 6215   3.835   6.085   3.577
 1772SOL    HW2 6216   3.839   5.940   3.503
 1773SOL     OW 6217   2.968   2.982   6.032
 1773SOL    HW1 6218   2.885   2.926   6.026
 1773SOL    HW2 6219   3.016   2.963   6.118
 1774SOL     OW 6220   4.878   5.972   1.632
 1774SOL    HW1 6221   4.818   5.946   1.557
 1774SOL    HW2 6222   4.931   5.893   1.661
 1775SOL     OW 6223   2.226   5.034   5.532
 1775SOL    HW1 6224   2.228   5.133   5.520
 1775SOL    HW2 6225   2.217   4.990   5.442
 1776SOL     OW 6226   4.839   0.963   6.411
 1776SOL    HW1 6227   4.889   0.887   6.452
 1776SOL    HW2 6228   4.742   0.958   6.436
 1777SOL     OW 6229   3.309   6.359   6.194
 1777SOL    HW1 6230   3.357   6.307   6.264
 1777SOL    HW2 6231   3.301   6.455   6.223
 1778SOL     OW 6232   5.008   2.154   4.297
 1778SOL    HW1 6233   4.995   2.072   4.352
 1778SOL    HW2 6234   5.030   2.128   4.203
 1779SOL     OW 6235   4.479   1.001   5.467
 1779SOL    HW1 6236   4.415   1.067   5.507
 1779SOL    HW2 6237   4.428   0.929   5.420
 1780SOL     OW 6238   2.168   3.670   5.913
 1780SOL    HW1 6239   2.218   3.588   5.885
 1780SOL    HW2 6240   2.197   3.747   5.857
 1781SOL     OW 6241   5.851   5.479   3.976
 1781SOL    HW1 6242   5.831   5.531   3.893
 1781SOL    HW2 6243   5.774   5.485   4.039
 1782SOL     OW 6244   3.460   1.208   2.931
 1782SOL    HW1 6245   3.461   1.169   3.023
 1782SOL    HW2 6246   3.398   1.286   2.929
 1783SOL     OW 6247   2.458   3.016   6.014
 1783SOL    HW1 6248   2.540   3.051   6.058
 1783SOL    HW2 6249   2.417   2.944   6.071
 1784SOL     OW 6250   2.203   1.146   1.634
 1784SOL    HW1 6251   2.244   1.095   1.710
 1784SOL    HW2 6252   2.225   1.243   1.643
 1785SOL     OW 6253   5.986   6.241   3.639
 1785SOL    HW1 6254   5.913   6.258   3.573
 1785SOL    HW2 6255   6.034   6.156   3.615
 1786SOL     OW 6256   1.935   3.982   0.362
 1786SOL    HW1 6257   1.947   4.029   0.449
 1786SOL    HW2 6258   2.016   3.994   0.306
 1787SOL     OW 6259   2.531   1.679   5.480
 1787SOL    HW1 6260   2.475   1.746   5.529
 1787SOL    HW2 6261   2.526   1.591   5.527
 1788SOL     OW 6262   3.800   3.945   0.383
 1788SOL    HW1 6263   3.708   3.923   0.351
 1788SOL    HW2 6264   3.823   4.039   0.356
 1789SOL     OW 6265   5.820   2.848   2.192
 1789SOL    HW1 6266   5.880   2.928   2.199
 1789SOL    HW2 6267   5.737   2.863   2.246
 1790SOL     OW 6268   2.974   0.945   4.359
 1790SOL    HW1 6269   2.985   0.867   4.421
 1790SOL    HW2 6270   2.888   0.936   4.309
 1791SOL     OW 6271   6.661   1.544   4.139
 1791SOL    HW1 6272   6.564   1.562   4.125
 1791SOL    HW2 6273   6.686   1.568   4.233
 1792SOL     OW 6274   0.105   1.305   4.465
 1792SOL    HW1 6275   0.152   1.221   4.492
 1792SOL    HW2 6276   0.042   1.286   4.390
 1793SOL     OW 6277   6.682   1.250   4.289
 1793SOL    HW1 6278   6.750   1.224   4.357
 1793SOL    HW2 6279   6.625   1.171   4.266
 1794SOL     OW 6280   4.821   6.451   5.646
 1794SOL    HW1 6281   4.742   6.405   5.687
 1794SOL    HW2 6282   4.897   6.450   5.712
 1795SOL     OW 6283   6.551   5.439   2.079
 1795SOL    HW1 6284   6.573   5.357   2.027
 1795SOL    HW2 6285   6.498   5.502   2.022
 1796SOL     OW 6286   2.198   1.184   4.618
 1796SOL    HW1 6287   2.142   1.103   4.638
 1796SOL    HW2 6288   2.284   1.155   4.575
 1797SOL     OW 6289   1.891   6.770   5.561
 1797SOL    HW1 6290   1.889   6.863   5.525
 1797SOL    HW2 6291   1.809   6.721   5.531
 1798SOL     OW 6292   3.990   3.276   5.295
 1798SOL    HW1 6293   3.993   3.327   5.209
 1798SOL    HW2 6294   3.986   3.340   5.371
 1799SOL     OW 6295   5.915   2.895   6.432
 1799SOL    HW1 6296   6.005   2.940   6.433
 1799SOL    HW2 6297   5.853   2.945   6.371
 1800SOL     OW 6298   4.623   4.837   3.300
 1800SOL    HW1 6299   4.693   4.890   3.347
 1800SOL    HW2 6300   4.636   4.740   3.319
 1801SOL     OW 6301   1.291   1.614   2.478
 1801SOL    HW1 6302   1.220   1.667   2.430
 1801SOL    HW2 6303   1.380   1.657   2.464
 1802SOL     OW 6304   6.526   6.374   2.987
 1802SOL    HW1 6305   6.564   6.449   2.932
 1802SOL    HW2 6306   6.592   6.299   2.991
 1803SOL     OW 6307   6.819   6.858   2.156
 1803SOL    HW1 6308   6.786   6.941   2.202
 1803SOL    HW2 6309   6.840   6.878   2.061
 1804SOL     OW 6310   3.966   3.737   5.363
 1804SOL    HW1 6311   3.984   3.701   5.454
 1804SOL    HW2 6312   3.979   3.664   5.295
 1805SOL     OW 6313   0.971   4.919   5.734
 1805SOL    HW1 6314   1.071   4.917   5.737
 1805SOL    HW2 6315   0.935   4.879   5.819
 1806SOL     OW 6316   0.679   2.062   1.927
 1806SOL    HW1 6317   0.595   2.109   1.952
 1806SOL    HW2 6318   0.731   2.117   1.862
 1807SOL     OW 6319   6.569   2.133   6.429
 1807SOL    HW1 6320   6.580   2.034   6.422
 1807SOL    HW2 6321   6.541   2.170   6.341
 1808SOL     OW 6322   5.681   4.574   4.531
 1808SOL    HW1 6323   5.661   4.477   4.545
 1808SOL    HW2 6324   5.654   4.601   4.439
 1809SOL     OW 6325   2.875   2.224   4.986
 1809SOL    HW1 6326   2.873   2.217   4.886
 1809SOL    HW2 6327   2.969   2.229   5.017
 1810SOL     OW 6328   0.979   0.902   5.028
 1810SOL    HW1 6329   0.996   0.901   4.929
 1810SOL    HW2 6330   0.921   0.981   5.050
 1811SOL     OW 6331   5.069   4.721   2.804
 1811SOL    HW1 6332   5.060   4.663   2.724
 1811SOL    HW2 6333   5.153   4.698   2.853
 1812SOL     OW 6334   4.899   6.984   6.561
 1812SOL    HW1 6335   4.816   7.005   6.509
 1812SOL    HW2 6336   4.874   6.932   6.643
 1813SOL     OW 6337   5.174   4.743   1.758
 1813SOL    HW1 6338   5.114   4.749   1.838
 1813SOL    HW2 6339   5.232   4.662   1.766
 1814SOL     OW 6340   6.154   0.923   0.794
 1814SOL    HW1 6341   6.056   0.941   0.803
 1814SOL    HW2 6342   6.187   0.878   0.877
 1815SOL     OW 6343   5.881   0.386   2.929
 1815SOL    HW1 6344   5.889   0.337   3.016
 1815SOL    HW2 6345   5.973   0.407   2.894
 1816SOL     OW 6346   2.864   5.074   0.176
 1816SOL    HW1 6347   2.830   5.156   0.130
 1816SOL    HW2 6348   2.790   5.031   0.227
 1817SOL     OW 6349   4.489   0.349   2.479
 1817SOL    HW1 6350   4.469   0.328   2.574
 1817SOL    HW2 6351   4.468   0.445   2.461
 1818SOL     OW 6352   1.895   6.655   0.893
 1818SOL    HW1 6353   1.855   6.746   0.896
 1818SOL    HW2 6354   1.911   6.629   0.798
 1819SOL     OW 6355   1.287   6.269   1.637
 1819SOL    HW1 6356   1.383   6.262   1.664
 1819SOL    HW2 6357   1.235   6.309   1.712
 1820SOL     OW 6358   3.814   6.936   2.318
 1820SOL    HW1 6359   3.783   0.012   2.334
 1820SOL    HW2 6360   3.874   6.934   2.238
 1821SOL     OW 6361   2.949   1.274   1.642
 1821SOL    HW1 6362   2.923   1.321   1.557
 1821SOL    HW2 6363   3.003   1.193   1.619
 1822SOL     OW 6364   0.570   2.584   1.741
 1822SOL    HW1 6365   0.611   2.673   1.722
 1822SOL    HW2 6366   0.525   2.586   1.831
 1823SOL     OW 6367   3.264   6.236   3.017
 1823SOL    HW1 6368   3.295   6.145   2.990
 1823SOL    HW2 6369   3.230   6.233   3.111
 1824SOL     OW 6370   3.603   4.322   1.125
 1824SOL    HW1 6371   3.617   4.303   1.028
 1824SOL    HW2 6372   3.648   4.251   1.179
 1825SOL     OW 6373   0.830   2.505   4.624
 1825SOL    HW1 6374   0.779   2.423   4.597
 1825SOL    HW2 6375   0.788   2.545   4.705
 1826SOL     OW 6376   2.779   1.331   1.355
 1826SOL    HW1 6377   2.716   1.275   1.409
 1826SOL    HW2 6378   2.730   1.368   1.276
 1827SOL     OW 6379   5.999   5.402   1.157
 1827SOL    HW1 6380   5.902   5.418   1.141
 1827SOL    HW2 6381   6.028   5.451   1.238
 1828SOL     OW 6382   1.480   2.936   6.565
 1828SOL    HW1 6383   1.385   2.950   6.540
 1828SOL    HW2 6384   1.507   3.002   6.635
 1829SOL     OW 6385   4.158   0.613   2.794
 1829SOL    HW1 6386   4.125   0.560   2.872
 1829SOL    HW2 6387   4.087   0.677   2.765
 1830SOL     OW 6388   5.725   6.209   4.896
 1830SOL    HW1 6389   5.821   6.184   4.907
 1830SOL    HW2 6390   5.667   6.131   4.918
 1831SOL     OW 6391   5.917   6.714   2.544
 1831SOL    HW1 6392   5.900   6.617   2.564
 1831SOL    HW2 6393   5.887   6.735   2.451
 1832SOL     OW 6394   4.026   1.628   0.968
 1832SOL    HW1 6395   3.931   1.598   0.976
 1832SOL    HW2 6396   4.039   1.714   1.018
 1833SOL     OW 6397   5.849   0.725   2.040
 1833SOL    HW1 6398   5.768   0.670   2.059
 1833SOL    HW2 6399   5.869   0.722   1.942
 1834SOL     OW 6400   1.894   4.226   1.189
 1834SOL    HW1 6401   1.954   4.293   1.233
 1834SOL    HW2 6402   1.800   4.260   1.190
 1835SOL     OW 6403   0.293   4.831   1.874
 1835SOL    HW1 6404   0.386   4.866   1.889
 1835SOL    HW2 6405   0.274   4.758   1.940
 1836SOL     OW 6406   5.487   2.680   1.766
 1836SOL    HW1 6407   5.456   2.605   1.826
 1836SOL    HW2 6408   5.507   2.644   1.675
 1837SOL     OW 6409   1.372   6.851   5.655
 1837SOL    HW1 6410   1.385   6.949   5.670
 1837SOL    HW2 6411   1.301   6.818   5.718
 1838SOL     OW 6412   5.802   1.147   5.859
 1838SOL    HW1 6413   5.781   1.205   5.938
 1838SOL    HW2 6414   5.775   1.195   5.775
 1839SOL     OW 6415   6.905   1.195   5.562
 1839SOL    HW1 6416   6.830   1.143   5.603
 1839SOL    HW2 6417   6.893   1.292   5.583
 1840SOL     OW 6418   4.411   0.064   1.931
 1840SOL    HW1 6419   4.373   0.106   1.848
 1840SOL    HW2 6420   4.452   0.135   1.988
 1841SOL     OW 6421   2.401   0.477   3.127
 1841SOL    HW1 6422   2.406   0.521   3.216
 1841SOL    HW2 6423   2.325   0.516   3.075
 1842SOL     OW 6424   1.158   5.981   1.200
 1842SOL    HW1 6425   1.100   6.029   1.265
 1842SOL    HW2 6426   1.239   6.037   1.180
 1843SOL     OW 6427   5.469   0.728   4.737
 1843SOL    HW1 6428   5.548   0.737   4.797
 1843SOL    HW2 6429   5.474   0.798   4.665
 1844SOL     OW 6430   4.033   0.328   5.048
 1844SOL    HW1 6431   4.068   0.314   4.955
 1844SOL    HW2 6432   3.984   0.415   5.052
 1845SOL     OW 6433   2.842   6.609   4.046
 1845SOL    HW1 6434   2.826   6.677   4.117
 1845SOL    HW2 6435   2.800   6.522   4.073
 1846SOL     OW 6436   4.337   1.016   2.445
 1846SOL    HW1 6437   4.424   0.990   2.404
 1846SOL    HW2 6438   4.341   1.002   2.544
 1847SOL     OW 6439   1.610   0.002   5.913
 1847SOL    HW1 6440   1.573   0.001   6.006
 1847SOL    HW2 6441   1.632   6.927   5.884
 1848SOL     OW 6442   1.954   6.282   3.048
 1848SOL    HW1 6443   1.958   6.247   3.142
 1848SOL    HW2 6444   1.873   6.339   3.037
 1849SOL     OW 6445   4.156   2.487   1.245
 1849SOL    HW1 6446   4.242   2.512   1.290
 1849SOL    HW2 6447   4.175   2.449   1.155
 1850SOL     OW 6448   6.710   2.127   2.562
 1850SOL    HW1 6449   6.612   2.112   2.577
 1850SOL    HW2 6450   6.761   2.047   2.592
 1851SOL     OW 6451   1.008   3.428   0.444
 1851SOL    HW1 6452   1.031   3.390   0.355
 1851SOL    HW2 6453   1.029   3.526   0.445
 1852SOL     OW 6454   0.180   4.633   2.366
 1852SOL    HW1 6455   0.163   4.536   2.347
 1852SOL    HW2 6456   0.120   4.663   2.440
 1853SOL     OW 6457   6.747   2.467   3.349
 1853SOL    HW1 6458   6.682   2.541   3.331
 1853SOL    HW2 6459   6.699   2.389   3.388
 1854SOL     OW 6460   1.902   5.257   2.442
 1854SOL    HW1 6461   1.978   5.298   2.492
 1854SOL    HW2 6462   1.821   5.256   2.501
 1855SOL     OW 6463   5.514   3.754   5.292
 1855SOL    HW1 6464   5.446   3.703   5.345
 1855SOL    HW2 6465   5.548   3.696   5.218
 1856SOL     OW 6466   4.603   2.867   6.274
 1856SOL    HW1 6467   4.612   2.966   6.265
 1856SOL    HW2 6468   4.694   2.826   6.279
 1857SOL     OW 6469   4.189   1.631   0.246
 1857SOL    HW1 6470   4.233   1.550   0.286
 1857SOL    HW2 6471   4.114   1.661   0.305
 1858SOL     OW 6472   5.283   2.610   2.973
 1858SOL    HW1 6473   5.209   2.671   2.945
 1858SOL    HW2 6474   5.281   2.600   3.073
 1859SOL     OW 6475   4.278   1.649   3.585
 1859SOL    HW1 6476   4.229   1.676   3.668
 1859SOL    HW2 6477   4.333   1.725   3.552
 1860SOL     OW 6478   6.820   1.461   5.602
 1860SOL    HW1 6479   6.856   1.529   5.666
 1860SOL    HW2 6480   6.723   1.447   5.618
 1861SOL     OW 6481   5.044   0.426   2.979
 1861SOL    HW1 6482   4.997   0.398   2.896
 1861SOL    HW2 6483   5.113   0.356   3.003
 1862SOL     OW 6484   2.318   6.640   6.823
 1862SOL    HW1 6485   2.279   6.577   6.756
 1862SOL    HW2 6486   2.271   6.628   6.911
 1863SOL     OW 6487   6.874   2.833   3.383
 1863SOL    HW1 6488   6.798   2.838   3.449
 1863SOL    HW2 6489   6.885   2.738   3.354
 1864SOL     OW 6490   3.357   5.872   4.772
 1864SOL    HW1 6491   3.451   5.861   4.803
 1864SOL    HW2 6492   3.334   5.969   4.767
 1865SOL     OW 6493   3.413   0.524   0.698
 1865SOL    HW1 6494   3.499   0.575   0.688
 1865SOL    HW2 6495   3.380   0.532   0.792
 1866SOL     OW 6496   0.227   4.854   3.835
 1866SOL    HW1 6497   0.201   4.938   3.882
 1866SOL    HW2 6498   0.324   4.836   3.850
 1867SOL     OW 6499   2.028   4.314   1.544
 1867SOL    HW1 6500   2.098   4.385   1.539
 1867SOL    HW2 6501   1.993   4.308   1.638
 1868SOL     OW 6502   5.374   3.503   6.682
 1868SOL    HW1 6503   5.317   3.574   6.723
 1868SOL    HW2 6504   5.468   3.538   6.673
 1869SOL     OW 6505   6.353   3.167   4.889
 1869SOL    HW1 6506   6.441   3.213   4.900
 1869SOL    HW2 6507   6.291   3.226   4.837
 1870SOL     OW 6508   1.168   3.066   4.839
 1870SOL    HW1 6509   1.215   3.140   4.886
 1870SOL    HW2 6510   1.145   2.994   4.905
 1871SOL     OW 6511   6.945   0.040   0.850
 1871SOL    HW1 6512   6.923   0.044   0.948
 1871SOL    HW2 6513   6.920   6.968   0.814
 1872SOL     OW 6514   4.316   2.254   0.127
 1872SOL    HW1 6515   4.249   2.215   0.190
 1872SOL    HW2 6516   4.273   2.328   0.074
 1873SOL     OW 6517   6.435   0.571   6.022
 1873SOL    HW1 6518   6.435   0.539   5.927
 1873SOL    HW2 6519   6.374   0.650   6.031
 1874SOL     OW 6520   1.366   1.331   6.394
 1874SOL    HW1 6521   1.446   1.376   6.433
 1874SOL    HW2 6522   1.284   1.358   6.445
 1875SOL     OW 6523   6.621   0.104   0.914
 1875SOL    HW1 6524   6.543   0.048   0.939
 1875SOL    HW2 6525   6.701   0.076   0.968
 1876SOL     OW 6526   3.821   5.894   6.388
 1876SOL    HW1 6527   3.838   5.956   6.312
 1876SOL    HW2 6528   3.853   5.936   6.473
 1877SOL     OW 6529   1.179   2.107   3.499
 1877SOL    HW1 6530   1.243   2.177   3.530
 1877SOL    HW2 6531   1.210   2.070   3.411
 1878SOL     OW 6532   6.843   3.725   4.066
 1878SOL    HW1 6533   6.815   3.670   3.986
 1878SOL    HW2 6534   6.783   3.704   4.143
 1879SOL     OW 6535   2.543   6.221   4.082
 1879SOL    HW1 6536   2.500   6.220   4.172
 1879SOL    HW2 6537   2.630   6.272   4.087
 1880SOL     OW 6538   0.240   1.921   2.860
 1880SOL    HW1 6539   0.227   1.834   2.812
 1880SOL    HW2 6540   0.320   1.967   2.823
 1881SOL     OW 6541   1.796   1.952   3.767
 1881SOL    HW1 6542   1.856   1.944   3.847
 1881SOL    HW2 6543   1.811   1.875   3.706
 1882SOL     OW 6544   0.607   4.839   6.926
 1882SOL    HW1 6545   0.559   4.926   6.913
 1882SOL    HW2 6546   0.694   4.841   6.878
 1883SOL     OW 6547   1.120   3.186   4.070
 1883SOL    HW1 6548   1.192   3.144   4.015
 1883SOL    HW2 6549   1.044   3.211   4.010
 1884SOL     OW 6550   5.970   2.745   1.101
 1884SOL    HW1 6551   6.032   2.697   1.164
 1884SOL    HW2 6552   6.001   2.732   1.007
 1885SOL     OW 6553   0.061   2.124   0.971
 1885SOL    HW1 6554   0.020   2.188   0.907
 1885SOL    HW2 6555   0.142   2.082   0.929
 1886SOL     OW 6556   2.726   2.624   0.195
 1886SOL    HW1 6557   2.778   2.634   0.279
 1886SOL    HW2 6558   2.725   2.528   0.167
 1887SOL     OW 6559   0.554   4.434   5.389
 1887SOL    HW1 6560   0.510   4.344   5.394
 1887SOL    HW2 6561   0.604   4.451   5.473
 1888SOL     OW 6562   2.867   1.875   5.901
 1888SOL    HW1 6563   2.794   1.925   5.946
 1888SOL    HW2 6564   2.861   1.890   5.802
 1889SOL     OW 6565   5.559   2.573   6.641
 1889SOL    HW1 6566   5.566   2.603   6.736
 1889SOL    HW2 6567   5.574   2.475   6.636
 1890SOL     OW 6568   1.300   5.765   5.335
 1890SOL    HW1 6569   1.400   5.758   5.332
 1890SOL    HW2 6570   1.269   5.822   5.259
 1891SOL     OW 6571   5.422   3.002   4.170
 1891SOL    HW1 6572   5.365   3.082   4.150
 1891SOL    HW2 6573   5.395   2.963   4.258
 1892SOL     OW 6574   3.536   0.215   0.921
 1892SOL    HW1 6575   3.507   0.200   0.827
 1892SOL    HW2 6576   3.635   0.202   0.928
 1893SOL     OW 6577   2.951   1.712   5.544
 1893SOL    HW1 6578   2.934   1.712   5.446
 1893SOL    HW2 6579   2.933   1.803   5.581
 1894SOL     OW 6580   4.126   3.589   1.954
 1894SOL    HW1 6581   4.069   3.613   1.876
 1894SOL    HW2 6582   4.223   3.596   1.928
 1895SOL     OW 6583   5.565   0.731   2.639
 1895SOL    HW1 6584   5.651   0.703   2.681
 1895SOL    HW2 6585   5.566   0.830   2.621
 1896SOL     OW 6586   0.488   0.604   2.981
 1896SOL    HW1 6587   0.503   0.553   3.066
 1896SOL    HW2 6588   0.483   0.540   2.904
 1897SOL     OW 6589   0.314   5.253   2.811
 1897SOL    HW1 6590   0.303   5.187   2.736
 1897SOL    HW2 6591   0.365   5.209   2.885
 1898SOL     OW 6592   3.299   5.150   1.957
 1898SOL    HW1 6593   3.398   5.144   1.952
 1898SOL    HW2 6594   3.258   5.087   1.891
 1899SOL     OW 6595   0.999   2.803   2.801
 1899SOL    HW1 6596   0.951   2.825   2.716
 1899SOL    HW2 6597   0.932   2.784   2.873
 1900SOL     OW 6598   0.699   0.664   5.338
 1900SOL    HW1 6599   0.713   0.667   5.239
 1900SOL    HW2 6600   0.782   0.629   5.382
 1901SOL     OW 6601   2.341   1.427   1.333
 1901SOL    HW1 6602   2.380   1.418   1.425
 1901SOL    HW2 6603   2.412   1.407   1.266
 1902SOL     OW 6604   2.528   2.549   5.118
 1902SOL    HW1 6605   2.619   2.528   5.153
 1902SOL    HW2 6606   2.527   2.538   5.019
 1903SOL     OW 6607   6.994   4.061   3.481
 1903SOL    HW1 6608   0.008   4.148   3.445
 1903SOL    HW2 6609   0.040   4.027   3.550
 1904SOL     OW 6610   5.804   6.921   4.256
 1904SOL    HW1 6611   5.852   6.872   4.182
 1904SOL    HW2 6612   5.777   7.011   4.223
 1905SOL     OW 6613   1.304   1.697   4.520
 1905SOL    HW1 6614   1.356   1.618   4.489
 1905SOL    HW2 6615   1.349   1.737   4.600
 1906SOL     OW 6616   3.020   6.760   5.056
 1906SOL    HW1 6617   2.966   6.821   5.114
 1906SOL    HW2 6618   3.117   6.769   5.080
 1907SOL     OW 6619   3.449   6.861   3.187
 1907SOL    HW1 6620   3.463   6.960   3.194
 1907SOL    HW2 6621   3.448   6.834   3.091
 1908SOL     OW 6622   4.169   0.724   4.989
 1908SOL    HW1 6623   4.219   0.659   5.046
 1908SOL    HW2 6624   4.188   0.817   5.019
 1909SOL     OW 6625   1.802   3.783   2.912
 1909SOL    HW1 6626   1.706   3.802   2.893
 1909SOL    HW2 6627   1.835   3.714   2.847
 1910SOL     OW 6628   0.033   2.433   6.458
 1910SOL    HW1 6629   6.974   2.378   6.489
 1910SOL    HW2 6630   0.002   2.498   6.389
 1911SOL     OW 6631   5.919   1.912   5.325
 1911SOL    HW1 6632   5.925   1.979   5.399
 1911SOL    HW2 6633   5.830   1.921   5.280
 1912SOL     OW 6634   3.366   6.491   1.517
 1912SOL    HW1 6635   3.430   6.449   1.581
 1912SOL    HW2 6636   3.416   6.545   1.450
 1913SOL     OW 6637   1.642   5.918   5.600
 1913SOL    HW1 6638   1.734   5.885   5.622
 1913SOL    HW2 6639   1.643   5.961   5.509
 1914SOL     OW 6640   3.403   2.537   6.959
 1914SOL    HW1 6641   3.316   2.579   6.984
 1914SOL    HW2 6642   3.407   2.525   6.860
 1915SOL     OW 6643   4.218   1.564   5.061
 1915SOL    HW1 6644   4.302   1.512   5.078
 1915SOL    HW2 6645   4.219   1.599   4.967
 1916SOL     OW 6646   3.432   6.084   1.045
 1916SOL    HW1 6647   3.418   6.091   1.144
 1916SOL    HW2 6648   3.530   6.079   1.025
 1917SOL     OW 6649   3.503   3.214   4.555
 1917SOL    HW1 6650   3.559   3.296   4.545
 1917SOL    HW2 6651   3.515   3.155   4.475
 1918SOL     OW 6652   6.923   0.133   6.110
 1918SOL    HW1 6653   7.017   0.129   6.075
 1918SOL    HW2 6654   6.917   0.080   6.194
 1919SOL     OW 6655   2.223   6.581   1.270
 1919SOL    HW1 6656   2.226   6.660   1.332
 1919SOL    HW2 6657   2.198   6.499   1.321
 1920SOL     OW 6658   0.761   5.127   2.687
 1920SOL    HW1 6659   0.674   5.079   2.674
 1920SOL    HW2 6660   0.789   5.120   2.783
 1921SOL     OW 6661   1.516   4.614   6.894
 1921SOL    HW1 6662   1.469   4.701   6.907
 1921SOL    HW2 6663   1.516   4.562   6.979
 1922SOL     OW 6664   3.259   4.105   0.792
 1922SOL    HW1 6665   3.245   4.029   0.855
 1922SOL    HW2 6666   3.307   4.179   0.838
 1923SOL     OW 6667   3.132   1.183   5.968
 1923SOL    HW1 6668   3.147   1.218   6.061
 1923SOL    HW2 6669   3.201   1.221   5.907
 1924SOL     OW 6670   5.571   4.852   1.926
 1924SOL    HW1 6671   5.656   4.888   1.965
 1924SOL    HW2 6672   5.588   4.821   1.832
 1925SOL     OW 6673   2.853   3.210   1.885
 1925SOL    HW1 6674   2.851   3.230   1.983
 1925SOL    HW2 6675   2.789   3.270   1.838
 1926SOL     OW 6676   1.322   0.265   3.540
 1926SOL    HW1 6677   1.227   0.293   3.532
 1926SOL    HW2 6678   1.380   0.346   3.554
 1927SOL     OW 6679   3.262   5.138   6.034
 1927SOL    HW1 6680   3.354   5.116   6.003
 1927SOL    HW2 6681   3.263   5.225   6.084
 1928SOL     OW 6682   6.746   4.270   6.142
 1928SOL    HW1 6683   6.673   4.338   6.154
 1928SOL    HW2 6684   6.709   4.188   6.099
 1929SOL     OW 6685   0.521   6.282   1.487
 1929SOL    HW1 6686   0.483   6.198   1.524
 1929SOL    HW2 6687   0.608   6.302   1.534
 1930SOL     OW 6688   3.528   4.305   6.769
 1930SOL    HW1 6689   3.483   4.254   6.695
 1930SOL    HW2 6690   3.461   4.322   6.842
 1931SOL     OW 6691   0.220   2.419   2.874
 1931SOL    HW1 6692   0.179   2.396   2.786
 1931SOL    HW2 6693   0.152   2.466   2.931
 1932SOL     OW 6694   4.919   3.378   3.168
 1932SOL    HW1 6695   4.894   3.397   3.073
 1932SOL    HW2 6696   4.902   3.281   3.188
 1933SOL     OW 6697   2.729   4.613   0.807
 1933SOL    HW1 6698   2.654   4.630   0.871
 1933SOL    HW2 6699   2.698   4.631   0.713
 1934SOL     OW 6700   0.655   0.714   4.306
 1934SOL    HW1 6701   0.593   0.790   4.327
 1934SOL    HW2 6702   0.743   0.730   4.349
 1935SOL     OW 6703   3.853   0.222   4.755
 1935SOL    HW1 6704   3.943   0.187   4.727
 1935SOL    HW2 6705   3.782   0.174   4.704
 1936SOL     OW 6706   6.138   4.189   3.977
 1936SOL    HW1 6707   6.171   4.261   4.038
 1936SOL    HW2 6708   6.216   4.134   3.946
 1937SOL     OW 6709   5.494   0.464   1.081
 1937SOL    HW1 6710   5.446   0.380   1.109
 1937SOL    HW2 6711   5.429   0.526   1.037
 1938SOL     OW 6712   3.519   0.962   2.018
 1938SOL    HW1 6713   3.575   0.966   1.935
 1938SOL    HW2 6714   3.490   0.868   2.033
 1939SOL     OW 6715   0.791   0.110   4.108
 1939SOL    HW1 6716   0.866   0.056   4.070
 1939SOL    HW2 6717   0.808   0.126   4.205
 1940SOL     OW 6718   4.022   4.820   6.654
 1940SOL    HW1 6719   4.055   4.906   6.693
 1940SOL    HW2 6720   4.036   4.746   6.719
 1941SOL     OW 6721   0.152   3.955   3.250
 1941SOL    HW1 6722   0.177   3.981   3.343
 1941SOL    HW2 6723   0.230   3.970   3.189
 1942SOL     OW 6724   5.734   0.216   2.116
 1942SOL    HW1 6725   5.645   0.255   2.139
 1942SOL    HW2 6726   5.721   0.140   2.052
 1943SOL     OW 6727   2.447   6.065   2.462
 1943SOL    HW1 6728   2.421   6.107   2.375
 1943SOL    HW2 6729   2.451   5.966   2.451
 1944SOL     OW 6730   5.808   2.139   0.721
 1944SOL    HW1 6731   5.811   2.047   0.759
 1944SOL    HW2 6732   5.816   2.206   0.795
 1945SOL     OW 6733   3.627   5.719   2.106
 1945SOL    HW1 6734   3.628   5.790   2.176
 1945SOL    HW2 6735   3.625   5.629   2.149
 1946SOL     OW 6736   6.526   0.576   1.162
 1946SOL    HW1 6737   6.560   0.538   1.076
 1946SOL    HW2 6738   6.430   0.553   1.173
 1947SOL     OW 6739   4.767   6.406   4.341
 1947SOL    HW1 6740   4.813   6.381   4.256
 1947SOL    HW2 6741   4.785   6.502   4.362
 1948SOL     OW 6742   5.569   5.632   3.867
 1948SOL    HW1 6743   5.652   5.623   3.811
 1948SOL    HW2 6744   5.525   5.719   3.846
 1949SOL     OW 6745   3.814   4.536   6.583
 1949SOL    HW1 6746   3.754   4.548   6.504
 1949SOL    HW2 6747   3.763   4.557   6.667
 1950SOL     OW 6748   3.524   4.614   0.850
 1950SOL    HW1 6749   3.493   4.646   0.939
 1950SOL    HW2 6750   3.623   4.619   0.845
 1951SOL     OW 6751   5.642   3.889   0.135
 1951SOL    HW1 6752   5.593   3.863   0.052
 1951SOL    HW2 6753   5.740   3.897   0.115
 1952SOL     OW 6754   4.179   2.524   7.012
 1952SOL    HW1 6755   4.163   2.622   7.001
 1952SOL    HW2 6756   4.098   2.474   6.982
 1953SOL     OW 6757   5.718   2.442   0.184
 1953SOL    HW1 6758   5.707   2.368   0.250
 1953SOL    HW2 6759   5.814   2.472   0.183
 1954SOL     OW 6760   5.582   1.424   3.833
 1954SOL    HW1 6761   5.577   1.522   3.815
 1954SOL    HW2 6762   5.650   1.407   3.905
 1955SOL     OW 6763   1.536   1.379   2.400
 1955SOL    HW1 6764   1.558   1.384   2.302
 1955SOL    HW2 6765   1.468   1.450   2.421
 1956SOL     OW 6766   4.992   6.596   2.229
 1956SOL    HW1 6767   4.906   6.646   2.236
 1956SOL    HW2 6768   5.001   6.533   2.307
 1957SOL     OW 6769   6.331   5.373   4.720
 1957SOL    HW1 6770   6.424   5.361   4.686
 1957SOL    HW2 6771   6.299   5.465   4.697
 1958SOL     OW 6772   5.417   2.067   2.298
 1958SOL    HW1 6773   5.355   2.100   2.227
 1958SOL    HW2 6774   5.364   2.024   2.371
 1959SOL     OW 6775   0.063   0.957   5.015
 1959SOL    HW1 6776   0.116   1.013   4.951
 1959SOL    HW2 6777   0.116   0.942   5.099
 1960SOL     OW 6778   6.709   4.644   1.822
 1960SOL    HW1 6779   6.690   4.546   1.828
 1960SOL    HW2 6780   6.638   4.695   1.871
 1961SOL     OW 6781   5.572   4.781   4.359
 1961SOL    HW1 6782   5.656   4.835   4.347
 1961SOL    HW2 6783   5.493   4.841   4.355
 1962SOL     OW 6784   2.400   6.800   3.200
 1962SOL    HW1 6785   2.487   6.849   3.203
 1962SOL    HW2 6786   2.343   6.829   3.277
 1963SOL     OW 6787   1.008   1.186   1.911
 1963SOL    HW1 6788   1.042   1.255   1.974
 1963SOL    HW2 6789   0.909   1.174   1.924
 1964SOL     OW 6790   4.645   3.940   1.025
 1964SOL    HW1 6791   4.628   3.995   0.943
 1964SOL    HW2 6792   4.736   3.960   1.061
 1965SOL     OW 6793   0.955   3.423   4.456
 1965SOL    HW1 6794   1.050   3.432   4.483
 1965SOL    HW2 6795   0.933   3.326   4.445
 1966SOL     OW 6796   6.690   6.149   0.252
 1966SOL    HW1 6797   6.648   6.075   0.305
 1966SOL    HW2 6798   6.639   6.234   0.267
 1967SOL     OW 6799   4.938   2.329   4.652
 1967SOL    HW1 6800   4.953   2.366   4.744
 1967SOL    HW2 6801   4.860   2.375   4.609
 1968SOL     OW 6802   3.305   6.925   0.184
 1968SOL    HW1 6803   3.274   6.936   0.278
 1968SOL    HW2 6804   3.227   6.924   0.122
 1969SOL     OW 6805   0.869   1.792   1.685
 1969SOL    HW1 6806   0.918   1.710   1.655
 1969SOL    HW2 6807   0.771   1.776   1.678
 1970SOL     OW 6808   2.181   6.753   5.962
 1970SOL    HW1 6809   2.156   6.753   6.059
 1970SOL    HW2 6810   2.278   6.731   5.953
 1971SOL     OW 6811   0.420   6.790   5.716
 1971SOL    HW1 6812   0.477   6.727   5.663
 1971SOL    HW2 6813   0.392   6.746   5.801
 1972SOL     OW 6814   5.660   2.188   2.362
 1972SOL    HW1 6815   5.649   2.275   2.411
 1972SOL    HW2 6816   5.570   2.151   2.339
 1973SOL     OW 6817   2.439   2.983   0.254
 1973SOL    HW1 6818   2.374   3.037   0.307
 1973SOL    HW2 6819   2.531   2.995   0.291
 1974SOL     OW 6820   5.632   6.065   4.062
 1974SOL    HW1 6821   5.592   6.125   4.132
 1974SOL    HW2 6822   5.608   5.970   4.082
 1975SOL     OW 6823   2.177   1.649   3.664
 1975SOL    HW1 6824   2.247   1.611   3.604
 1975SOL    HW2 6825   2.095   1.591   3.661
 1976SOL     OW 6826   1.140   6.679   6.145
 1976SOL    HW1 6827   1.213   6.674   6.077
 1976SOL    HW2 6828   1.168   6.739   6.220
 1977SOL     OW 6829   0.650   3.593   4.186
 1977SOL    HW1 6830   0.728   3.623   4.132
 1977SOL    HW2 6831   0.658   3.495   4.206
 1978SOL     OW 6832   1.032   0.566   3.120
 1978SOL    HW1 6833   0.986   0.610   3.042
 1978SOL    HW2 6834   0.979   0.487   3.150
 1979SOL     OW 6835   5.917   4.457   5.631
 1979SOL    HW1 6836   5.830   4.416   5.657
 1979SOL    HW2 6837   5.985   4.386   5.617
 1980SOL     OW 6838   2.633   0.493   5.143
 1980SOL    HW1 6839   2.540   0.530   5.144
 1980SOL    HW2 6840   2.654   0.452   5.231
 1981SOL     OW 6841   6.447   2.053   2.601
 1981SOL    HW1 6842   6.435   2.117   2.678
 1981SOL    HW2 6843   6.361   2.045   2.551
 1982SOL     OW 6844   0.713   4.503   5.196
 1982SOL    HW1 6845   0.641   4.476   5.260
 1982SOL    HW2 6846   0.690   4.470   5.105
 1983SOL     OW 6847   0.717   1.512   2.551
 1983SOL    HW1 6848   0.797   1.455   2.572
 1983SOL    HW2 6849   0.634   1.456   2.556
 1984SOL     OW 6850   6.246   1.890   4.838
 1984SOL    HW1 6851   6.305   1.824   4.885
 1984SOL    HW2 6852   6.246   1.977   4.888
 1985SOL     OW 6853   1.457   6.224   2.351
 1985SOL    HW1 6854   1.487   6.207   2.445
 1985SOL    HW2 6855   1.524   6.282   2.305
 1986SOL     OW 6856   1.387   0.383   0.323
 1986SOL    HW1 6857   1.387   0.431   0.410
 1986SOL    HW2 6858   1.480   0.351   0.303
 1987SOL     OW 6859   2.215   2.494   2.117
 1987SOL    HW1 6860   2.154   2.427   2.073
 1987SOL    HW2 6861   2.215   2.479   2.216
 1988SOL     OW 6862   5.767   4.418   0.841
 1988SOL    HW1 6863   5.750   4.319   0.843
 1988SOL    HW2 6864   5.864   4.435   0.855
 1989SOL     OW 6865   2.347   6.489   4.386
 1989SOL    HW1 6866   2.378   6.553   4.456
 1989SOL    HW2 6867   2.266   6.526   4.341
 1990SOL     OW 6868   3.062   6.526   0.123
 1990SOL    HW1 6869   3.023   6.435   0.108
 1990SOL    HW2 6870   3.153   6.517   0.164
 1991SOL     OW 6871   4.432   4.284   6.237
 1991SOL    HW1 6872   4.477   4.256   6.153
 1991SOL    HW2 6873   4.467   4.373   6.267
 1992SOL     OW 6874   0.586   0.362   6.825
 1992SOL    HW1 6875   0.686   0.366   6.824
 1992SOL    HW2 6876   0.557   0.271   6.855
 1993SOL     OW 6877   4.056   3.172   4.663
 1993SOL    HW1 6878   4.013   3.231   4.731
 1993SOL    HW2 6879   4.075   3.082   4.704
 1994SOL     OW 6880   0.986   1.094   0.390
 1994SOL    HW1 6881   0.983   1.000   0.425
 1994SOL    HW2 6882   1.082   1.120   0.375
 1995SOL     OW 6883   5.661   2.373   2.997
 1995SOL    HW1 6884   5.741   2.326   3.033
 1995SOL    HW2 6885   5.654   2.357   2.898
 1996SOL     OW 6886   2.160   3.565   0.896
 1996SOL    HW1 6887   2.255   3.533   0.892
 1996SOL    HW2 6888   2.159   3.665   0.895
 1997SOL     OW 6889   4.000   1.014   4.803
 1997SOL    HW1 6890   4.078   1.050   4.854
 1997SOL    HW2 6891   4.013   0.916   4.785
 1998SOL     OW 6892   2.584   4.110   6.130
 1998SOL    HW1 6893   2.601   4.085   6.226
 1998SOL    HW2 6894   2.503   4.168   6.125
 1999SOL     OW 6895   2.860   6.605   1.297
 1999SOL    HW1 6896   2.796   6.551   1.243
 1999SOL    HW2 6897   2.945   6.553   1.309
 2000SOL     OW 6898   4.471   2.393   5.193
 2000SOL    HW1 6899   4.518   2.479   5.215
 2000SOL    HW2 6900   4.527   2.316   5.225
 2001SOL     OW 6901   2.932   1.684   1.655
 2001SOL    HW1 6902   2.981   1.602   1.683
 2001SOL    HW2 6903   2.961   1.761   1.711
 2002SOL     OW 6904   0.865   4.506   6.862
 2002SOL    HW1 6905   0.769   4.485   6.840
 2002SOL    HW2 6906   0.906   4.429   6.910
 2003SOL     OW 6907   6.121   6.067   2.549
 2003SOL    HW1 6908   6.175   6.028   2.475
 2003SOL    HW2 6909   6.181   6.086   2.627
 2004SOL     OW 6910   4.757   1.212   5.718
 2004SOL    HW1 6911   4.784   1.307   5.735
 2004SOL    HW2 6912   4.722   1.203   5.625
 2005SOL     OW 6913   1.102   5.226   0.107
 2005SOL    HW1 6914   1.049   5.262   0.184
 2005SOL    HW2 6915   1.104   5.295   0.034
 2006SOL     OW 6916   5.012   6.004   3.831
 2006SOL    HW1 6917   4.970   5.931   3.777
 2006SOL    HW2 6918   5.035   6.080   3.771
 2007SOL     OW 6919   4.302   4.725   0.713
 2007SOL    HW1 6920   4.304   4.753   0.617
 2007SOL    HW2 6921   4.238   4.785   0.763
 2008SOL     OW 6922   2.248   4.999   3.419
 2008SOL    HW1 6923   2.178   4.929   3.409
 2008SOL    HW2 6924   2.245   5.061   3.341
 2009SOL     OW 6925   5.870   0.352   2.312
 2009SOL    HW1 6926   5.848   0.449   2.315
 2009SOL    HW2 6927   5.818   0.309   2.238
 2010SOL     OW 6928   1.704   1.719   1.029
 2010SOL    HW1 6929   1.705   1.630   1.076
 2010SOL    HW2 6930   1.637   1.717   0.955
 2011SOL     OW 6931   6.639   0.855   4.830
 2011SOL    HW1 6932   6.738   0.845   4.816
 2011SOL    HW2 6933   6.616   0.952   4.835
 2012SOL     OW 6934   1.807   3.348   2.096
 2012SOL    HW1 6935   1.776   3.415   2.029
 2012SOL    HW2 6936   1.907   3.354   2.106
 2013SOL     OW 6937   6.399   2.050   3.502
 2013SOL    HW1 6938   6.435   1.972   3.553
 2013SOL    HW2 6939   6.397   2.029   3.404
 2014SOL     OW 6940   2.200   5.179   3.209
 2014SOL    HW1 6941   2.120   5.142   3.163
 2014SOL    HW2 6942   2.171   5.233   3.288
 2015SOL     OW 6943   1.620   1.045   0.592
 2015SOL    HW1 6944   1.595   1.102   0.514
 2015SOL    HW2 6945   1.704   1.080   0.634
 2016SOL     OW 6946   0.575   6.414   4.811
 2016SOL    HW1 6947   0.499   6.412   4.876
 2016SOL    HW2 6948   0.562   6.344   4.741
 2017SOL     OW 6949   2.776   0.434   4.185
 2017SOL    HW1 6950   2.780   0.486   4.270
 2017SOL    HW2 6951   2.857   0.452   4.130
 2018SOL     OW 6952   5.671   6.507   5.361
 2018SOL    HW1 6953   5.642   6.427   5.308
 2018SOL    HW2 6954   5.590   6.554   5.397
 2019SOL     OW 6955   5.517   2.725   0.814
 2019SOL    HW1 6956   5.616   2.717   0.798
 2019SOL    HW2 6957   5.500   2.786   0.891
 2020SOL     OW 6958   1.322   6.206   5.125
 2020SOL    HW1 6959   1.252   6.213   5.054
 2020SOL    HW2 6960   1.378   6.289   5.124
 2021SOL     OW 6961   1.674   5.704   3.531
 2021SOL    HW1 6962   1.628   5.774   3.585
 2021SOL    HW2 6963   1.686   5.622   3.587
 2022SOL     OW 6964   1.586   3.748   3.323
 2022SOL    HW1 6965   1.499   3.707   3.295
 2022SOL    HW2 6966   1.594   3.840   3.285
 2023SOL     OW 6967   6.195   0.864   6.482
 2023SOL    HW1 6968   6.194   0.765   6.472
 2023SOL    HW2 6969   6.217   0.888   6.577
 2024SOL     OW 6970   0.410   6.646   3.750
 2024SOL    HW1 6971   0.447   6.722   3.698
 2024SOL    HW2 6972   0.431   6.560   3.704
 2025SOL     OW 6973   2.339   2.202   3.142
 2025SOL    HW1 6974   2.372   2.194   3.236
 2025SOL    HW2 6975   2.320   2.298   3.122
 2026SOL     OW 6976   0.309   3.025   5.587
 2026SOL    HW1 6977   0.392   3.017   5.533
 2026SOL    HW2 6978   0.269   2.935   5.601
 2027SOL     OW 6979   0.621   0.773   0.693
 2027SOL    HW1 6980   0.701   0.814   0.738
 2027SOL    HW2 6981   0.641   0.760   0.596
 2028SOL     OW 6982   3.097   0.393   4.897
 2028SOL    HW1 6983   3.182   0.445   4.889
 2028SOL    HW2 6984   3.020   0.452   4.871
 2029SOL     OW 6985   6.547   0.861   0.845
 2029SOL    HW1 6986   6.541   0.860   0.945
 2029SOL    HW2 6987   6.574   0.770   0.812
 2030SOL     OW 6988   2.653   0.627   2.864
 2030SOL    HW1 6989   2.614   0.536   2.852
 2030SOL    HW2 6990   2.586   0.687   2.906
 2031SOL     OW 6991   6.305   5.840   1.717
 2031SOL    HW1 6992   6.369   5.763   1.719
 2031SOL    HW2 6993   6.339   5.910   1.654
 2032SOL     OW 6994   4.911   6.450   1.372
 2032SOL    HW1 6995   4.864   6.536   1.391
 2032SOL    HW2 6996   4.915   6.395   1.455
 2033SOL     OW 6997   3.530   3.700   6.907
 2033SOL    HW1 6998   3.607   3.738   6.855
 2033SOL    HW2 6999   3.565   3.660   6.992
 2034SOL     OW 7000   3.173   6.455   5.245
 2034SOL    HW1 7001   3.125   6.529   5.294
 2034SOL    HW2 7002   3.246   6.420   5.302
 2035SOL     OW 7003   0.225   0.556   2.449
 2035SOL    HW1 7004   0.217   0.591   2.356
 2035SOL    HW2 7005   0.231   0.456   2.447
 2036SOL     OW 7006   1.441   5.058   2.776
 2036SOL    HW1 7007   1.432   5.030   2.872
 2036SOL    HW2 7008   1.352   5.090   2.742
 2037SOL     OW 7009   6.744   3.380   5.500
 2037SOL    HW1 7010   6.737   3.373   5.600
 2037SOL    HW2 7011   6.785   3.468   5.475
 2038SOL     OW 7012   0.874   2.129   6.706
 2038SOL    HW1 7013   0.839   2.084   6.789
 2038SOL    HW2 7014   0.971   2.150   6.718
 2039SOL     OW 7015   0.933   5.616   3.457
 2039SOL    HW1 7016   1.000   5.679   3.419
 2039SOL    HW2 7017   0.976   5.562   3.529
 2040SOL     OW 7018   3.301   2.930   4.471
 2040SOL    HW1 7019   3.278   2.833   4.473
 2040SOL    HW2 7020   3.401   2.941   4.475
 2041SOL     OW 7021   0.423   6.234   5.338
 2041SOL    HW1 7022   0.431   6.333   5.351
 2041SOL    HW2 7023   0.491   6.204   5.272
 2042SOL     OW 7024   4.964   5.339   6.583
 2042SOL    HW1 7025   5.043   5.400   6.589
 2042SOL    HW2 7026   4.994   5.244   6.596
 2043SOL     OW 7027   6.606   3.638   3.771
 2043SOL    HW1 7028   6.563   3.563   3.721
 2043SOL    HW2 7029   6.630   3.607   3.863
 2044SOL     OW 7030   5.816   6.703   1.250
 2044SOL    HW1 7031   5.813   6.631   1.180
 2044SOL    HW2 7032   5.852   6.666   1.335
 2045SOL     OW 7033   2.951   4.899   3.924
 2045SOL    HW1 7034   3.047   4.886   3.946
 2045SOL    HW2 7035   2.933   4.996   3.907
 2046SOL     OW 7036   6.695   1.815   3.840
 2046SOL    HW1 7037   6.715   1.717   3.838
 2046SOL    HW2 7038   6.641   1.836   3.921
 2047SOL     OW 7039   6.491   2.005   6.955
 2047SOL    HW1 7040   6.463   2.001   0.033
 2047SOL    HW2 7041   6.499   1.913   6.919
 2048SOL     OW 7042   1.688   6.350   6.551
 2048SOL    HW1 7043   1.681   6.405   6.468
 2048SOL    HW2 7044   1.610   6.288   6.558
 2049SOL     OW 7045   5.839   1.540   5.814
 2049SOL    HW1 7046   5.800   1.561   5.724
 2049SOL    HW2 7047   5.848   1.624   5.867
 2050SOL     OW 7048   0.414   2.877   3.830
 2050SOL    HW1 7049   0.497   2.931   3.848
 2050SOL    HW2 7050   0.340   2.938   3.802
 2051SOL     OW 7051   1.139   5.902   0.205
 2051SOL    HW1 7052   1.051   5.903   0.254
 2051SOL    HW2 7053   1.195   5.827   0.240
 2052SOL     OW 7054   1.289   3.754   0.780
 2052SOL    HW1 7055   1.210   3.701   0.813
 2052SOL    HW2 7056   1.357   3.692   0.742
 2053SOL     OW 7057   5.724   6.794   4.997
 2053SOL    HW1 7058   5.808   6.803   4.943
 2053SOL    HW2 7059   5.744   6.744   5.082
 2054SOL     OW 7060   3.608   3.913   2.792
 2054SOL    HW1 7061   3.565   4.001   2.814
 2054SOL    HW2 7062   3.659   3.879   2.871
 2055SOL     OW 7063   6.060   3.514   3.381
 2055SOL    HW1 7064   6.106   3.512   3.470
 2055SOL    HW2 7065   6.113   3.571   3.318
 2056SOL     OW 7066   3.081   6.448   2.698
 2056SOL    HW1 7067   3.109   6.525   2.640
 2056SOL    HW2 7068   3.004   6.475   2.755
 2057SOL     OW 7069   5.617   3.951   5.105
 2057SOL    HW1 7070   5.592   3.935   5.009
 2057SOL    HW2 7071   5.559   3.897   5.164
 2058SOL     OW 7072   0.606   1.665   3.396
 2058SOL    HW1 7073   0.673   1.736   3.417
 2058SOL    HW2 7074   0.515   1.706   3.394
 2059SOL     OW 7075   1.843   6.008   6.245
 2059SOL    HW1 7076   1.870   5.912   6.234
 2059SOL    HW2 7077   1.905   6.066   6.192
 2060SOL     OW 7078   0.316   4.277   1.215
 2060SOL    HW1 7079   0.363   4.249   1.131
 2060SOL    HW2 7080   0.230   4.321   1.192
 2061SOL     OW 7081   0.039   1.963   3.490
 2061SOL    HW1 7082   7.016   2.053   3.479
 2061SOL    HW2 7083   0.027   1.932   3.585
 2062SOL     OW 7084   5.981   0.015   3.898
 2062SOL    HW1 7085   5.959   6.954   3.840
 2062SOL    HW2 7086   5.935   0.096   3.862
 2063SOL     OW 7087   2.122   6.813   6.231
 2063SOL    HW1 7088   2.144   6.750   6.306
 2063SOL    HW2 7089   2.061   6.884   6.265
 2064SOL     OW 7090   0.841   2.444   5.690
 2064SOL    HW1 7091   0.786   2.376   5.640
 2064SOL    HW2 7092   0.791   2.531   5.694
 2065SOL     OW 7093   6.604   2.764   5.044
 2065SOL    HW1 7094   6.605   2.699   5.120
 2065SOL    HW2 7095   6.614   2.857   5.079
 2066SOL     OW 7096   0.768   4.851   3.820
 2066SOL    HW1 7097   0.863   4.834   3.797
 2066SOL    HW2 7098   0.727   4.912   3.753
 2067SOL     OW 7099   6.241   5.261   1.183
 2067SOL    HW1 7100   6.239   5.163   1.164
 2067SOL    HW2 7101   6.148   5.297   1.181
 2068SOL     OW 7102   2.027   1.530   4.864
 2068SOL    HW1 7103   2.041   1.619   4.822
 2068SOL    HW2 7104   1.977   1.541   4.950
 2069SOL     OW 7105   0.491   2.352   3.715
 2069SOL    HW1 7106   0.464   2.448   3.727
 2069SOL    HW2 7107   0.588   2.347   3.690
 2070SOL     OW 7108   1.529   0.906   1.989
 2070SOL    HW1 7109   1.525   0.808   2.008
 2070SOL    HW2 7110   1.448   0.934   1.939
 2071SOL     OW 7111   6.727   5.913   6.192
 2071SOL    HW1 7112   6.731   5.999   6.243
 2071SOL    HW2 7113   6.815   5.899   6.145
 2072SOL     OW 7114   4.042   6.252   4.193
 2072SOL    HW1 7115   4.109   6.277   4.123
 2072SOL    HW2 7116   4.065   6.299   4.278
 2073SOL     OW 7117   3.887   7.006   4.434
 2073SOL    HW1 7118   3.924   0.048   4.505
 2073SOL    HW2 7119   3.955   6.937   4.409
 2074SOL     OW 7120   1.755   2.622   0.525
 2074SOL    HW1 7121   1.756   2.717   0.557
 2074SOL    HW2 7122   1.842   2.600   0.482
 2075SOL     OW 7123   5.962   3.620   2.294
 2075SOL    HW1 7124   5.865   3.634   2.272
 2075SOL    HW2 7125   5.973   3.615   2.393
 2076SOL     OW 7126   5.888   0.244   0.353
 2076SOL    HW1 7127   5.803   0.294   0.375
 2076SOL    HW2 7128   5.965   0.288   0.399
 2077SOL     OW 7129   5.406   2.464   2.791
 2077SOL    HW1 7130   5.432   2.378   2.834
 2077SOL    HW2 7131   5.364   2.524   2.859
 2078SOL     OW 7132   1.168   5.776   5.899
 2078SOL    HW1 7133   1.168   5.841   5.822
 2078SOL    HW2 7134   1.091   5.713   5.890
 2079SOL     OW 7135   5.320   2.228   3.437
 2079SOL    HW1 7136   5.225   2.256   3.447
 2079SOL    HW2 7137   5.379   2.291   3.487
 2080SOL     OW 7138   1.704   6.889   4.613
 2080SOL    HW1 7139   1.790   6.838   4.613
 2080SOL    HW2 7140   1.720   6.983   4.585
 2081SOL     OW 7141   1.385   5.254   4.509
 2081SOL    HW1 7142   1.483   5.237   4.518
 2081SOL    HW2 7143   1.340   5.232   4.596
 2082SOL     OW 7144   0.575   0.301   2.459
 2082SOL    HW1 7145   0.664   0.321   2.500
 2082SOL    HW2 7146   0.503   0.312   2.527
 2083SOL     OW 7147   6.286   4.984   6.335
 2083SOL    HW1 7148   6.337   5.047   6.393
 2083SOL    HW2 7149   6.188   5.001   6.344
 2084SOL     OW 7150   1.316   3.715   3.283
 2084SOL    HW1 7151   1.219   3.729   3.263
 2084SOL    HW2 7152   1.324   3.663   3.368
 2085SOL     OW 7153   4.374   0.307   6.697
 2085SOL    HW1 7154   4.354   0.237   6.629
 2085SOL    HW2 7155   4.402   0.391   6.650
 2086SOL     OW 7156   4.392   6.151   5.582
 2086SOL    HW1 7157   4.434   6.238   5.556
 2086SOL    HW2 7158   4.454   6.100   5.642
 2087SOL     OW 7159   5.393   0.215   1.147
 2087SOL    HW1 7160   5.309   0.209   1.201
 2087SOL    HW2 7161   5.383   0.160   1.064
 2088SOL     OW 7162   1.060   6.383   0.274
 2088SOL    HW1 7163   1.043   6.431   0.360
 2088SOL    HW2 7164   1.143   6.327   0.282
 2089SOL     OW 7165   5.347   1.716   6.581
 2089SOL    HW1 7166   5.346   1.651   6.506
 2089SOL    HW2 7167   5.253   1.732   6.612
 2090SOL     OW 7168   3.662   2.707   5.634
 2090SOL    HW1 7169   3.708   2.705   5.723
 2090SOL    HW2 7170   3.699   2.781   5.579
 2091SOL     OW 7171   0.320   5.556   0.596
 2091SOL    HW1 7172   0.313   5.566   0.496
 2091SOL    HW2 7173   0.388   5.620   0.632
 2092SOL     OW 7174   5.507   3.466   0.391
 2092SOL    HW1 7175   5.507   3.487   0.294
 2092SOL    HW2 7176   5.532   3.370   0.405
 2093SOL     OW 7177   2.579   2.228   1.403
 2093SOL    HW1 7178   2.607   2.319   1.432
 2093SOL    HW2 7179   2.480   2.221   1.405
 2094SOL     OW 7180   5.902   1.759   2.124
 2094SOL    HW1 7181   5.976   1.824   2.144
 2094SOL    HW2 7182   5.814   1.804   2.136
 2095SOL     OW 7183   5.994   0.084   5.351
 2095SOL    HW1 7184   5.980   0.088   5.252
 2095SOL    HW2 7185   6.072   0.141   5.376
 2096SOL     OW 7186   4.942   3.723   3.022
 2096SOL    HW1 7187   4.964   3.819   3.006
 2096SOL    HW2 7188   4.930   3.708   3.120
 2097SOL     OW 7189   2.828   3.642   6.392
 2097SOL    HW1 7190   2.736   3.606   6.376
 2097SOL    HW2 7191   2.875   3.653   6.304
 2098SOL     OW 7192   3.395   5.649   1.971
 2098SOL    HW1 7193   3.483   5.683   2.005
 2098SOL    HW2 7194   3.376   5.559   2.011
 2099SOL     OW 7195   3.021   2.738   6.257
 2099SOL    HW1 7196   3.110   2.728   6.212
 2099SOL    HW2 7197   2.985   2.647   6.278
 2100SOL     OW 7198   5.084   2.206   6.639
 2100SOL    HW1 7199   5.026   2.254   6.573
 2100SOL    HW2 7200   5.176   2.245   6.636
 2101SOL     OW 7201   0.920   6.684   1.643
 2101SOL    HW1 7202   1.006   6.677   1.591
 2101SOL    HW2 7203   0.929   6.757   1.711
 2102SOL     OW 7204   5.471   4.494   3.200
 2102SOL    HW1 7205   5.540   4.429   3.233
 2102SOL    HW2 7206   5.495   4.586   3.228
 2103SOL     OW 7207   3.813   4.320   6.209
 2103SOL    HW1 7208   3.890   4.373   6.174
 2103SOL    HW2 7209   3.749   4.299   6.135
 2104SOL     OW 7210   1.422   4.766   1.449
 2104SOL    HW1 7211   1.498   4.795   1.506
 2104SOL    HW2 7212   1.388   4.678   1.481
 2105SOL     OW 7213   5.388   5.731   4.924
 2105SOL    HW1 7214   5.295   5.700   4.946
 2105SOL    HW2 7215   5.384   5.825   4.889
 2106SOL     OW 7216   4.874   4.012   1.136
 2106SOL    HW1 7217   4.846   3.994   1.230
 2106SOL    HW2 7218   4.936   3.940   1.106
 2107SOL     OW 7219   5.164   2.947   5.474
 2107SOL    HW1 7220   5.257   2.928   5.442
 2107SOL    HW2 7221   5.099   2.917   5.404
 2108SOL     OW 7222   6.139   5.573   4.692
 2108SOL    HW1 7223   6.123   5.648   4.756
 2108SOL    HW2 7224   6.108   5.601   4.601
 2109SOL     OW 7225   4.137   5.920   2.081
 2109SOL    HW1 7226   4.102   5.877   2.164
 2109SOL    HW2 7227   4.061   5.933   2.017
 2110SOL     OW 7228   1.762   1.392   0.470
 2110SOL    HW1 7229   1.737   1.461   0.538
 2110SOL    HW2 7230   1.824   1.433   0.402
 2111SOL     OW 7231   1.774   3.039   6.647
 2111SOL    HW1 7232   1.719   3.116   6.615
 2111SOL    HW2 7233   1.763   2.961   6.586
 2112SOL     OW 7234   5.786   3.045   0.487
 2112SOL    HW1 7235   5.882   3.069   0.470
 2112SOL    HW2 7236   5.775   3.018   0.583
 2113SOL     OW 7237   2.571   2.255   4.890
 2113SOL    HW1 7238   2.663   2.293   4.877
 2113SOL    HW2 7239   2.572   2.158   4.868
 2114SOL     OW 7240   1.926   2.118   6.161
 2114SOL    HW1 7241   1.982   2.047   6.118
 2114SOL    HW2 7242   1.980   2.203   6.167
 2115SOL     OW 7243   1.805   4.057   3.229
 2115SOL    HW1 7244   1.726   4.069   3.168
 2115SOL    HW2 7245   1.844   3.966   3.217
 2116SOL     OW 7246   1.001   5.215   3.371
 2116SOL    HW1 7247   0.942   5.295   3.384
 2116SOL    HW2 7248   1.093   5.237   3.404
 2117SOL     OW 7249   6.848   4.660   1.494
 2117SOL    HW1 7250   6.901   4.689   1.415
 2117SOL    HW2 7251   6.907   4.653   1.574
 2118SOL     OW 7252   6.411   3.011   2.497
 2118SOL    HW1 7253   6.380   3.105   2.509
 2118SOL    HW2 7254   6.511   3.009   2.489
 2119SOL     OW 7255   0.996   0.031   1.239
 2119SOL    HW1 7256   0.904   0.065   1.219
 2119SOL    HW2 7257   1.006   0.017   1.337
 2120SOL     OW 7258   0.576   4.978   3.656
 2120SOL    HW1 7259   0.503   4.947   3.596
 2120SOL    HW2 7260   0.640   5.035   3.604
 2121SOL     OW 7261   1.509   4.306   6.279
 2121SOL    HW1 7262   1.540   4.218   6.244
 2121SOL    HW2 7263   1.489   4.298   6.377
 2122SOL     OW 7264   5.591   4.592   5.706
 2122SOL    HW1 7265   5.596   4.501   5.665
 2122SOL    HW2 7266   5.677   4.612   5.754
 2123SOL     OW 7267   0.157   5.670   2.548
 2123SOL    HW1 7268   0.120   5.591   2.597
 2123SOL    HW2 7269   0.167   5.746   2.612
 2124SOL     OW 7270   3.224   2.215   0.935
 2124SOL    HW1 7271   3.193   2.297   0.984
 2124SOL    HW2 7272   3.233   2.236   0.838
 2125SOL     OW 7273   1.884   0.784   2.563
 2125SOL    HW1 7274   1.789   0.788   2.595
 2125SOL    HW2 7275   1.888   0.804   2.466
 2126SOL     OW 7276   3.443   2.092   6.447
 2126SOL    HW1 7277   3.452   2.181   6.403
 2126SOL    HW2 7278   3.435   2.021   6.378
 2127SOL     OW 7279   1.039   2.791   5.367
 2127SOL    HW1 7280   1.057   2.740   5.452
 2127SOL    HW2 7281   0.946   2.770   5.336
 2128SOL     OW 7282   6.198   3.745   4.053
 2128SOL    HW1 7283   6.247   3.807   4.114
 2128SOL    HW2 7284   6.127   3.697   4.105
 2129SOL     OW 7285   4.262   3.326   5.293
 2129SOL    HW1 7286   4.168   3.294   5.283
 2129SOL    HW2 7287   4.262   3.425   5.310
 2130SOL     OW 7288   3.926   0.392   3.002
 2130SOL    HW1 7289   3.930   0.293   2.983
 2130SOL    HW2 7290   4.016   0.423   3.033
 2131SOL     OW 7291   4.619   1.247   0.248
 2131SOL    HW1 7292   4.560   1.202   0.314
 2131SOL    HW2 7293   4.613   1.346   0.259
 2132SOL     OW 7294   3.442   7.014   1.074
 2132SOL    HW1 7295   3.465   0.075   1.017
 2132SOL    HW2 7296   3.490   0.003   1.161
 2133SOL     OW 7297   3.198   2.882   0.593
 2133SOL    HW1 7298   3.197   2.955   0.663
 2133SOL    HW2 7299   3.268   2.815   0.616
 2134SOL     OW 7300   0.487   1.133   5.937
 2134SOL    HW1 7301   0.549   1.056   5.929
 2134SOL    HW2 7302   0.422   1.117   6.011
 2135SOL     OW 7303   1.599   3.474   5.113
 2135SOL    HW1 7304   1.608   3.466   5.213
 2135SOL    HW2 7305   1.556   3.561   5.091
 2136SOL     OW 7306   0.856   3.696   4.000
 2136SOL    HW1 7307   0.904   3.657   4.078
 2136SOL    HW2 7308   0.920   3.713   3.926
 2137SOL     OW 7309   2.132   5.520   4.527
 2137SOL    HW1 7310   2.059   5.530   4.459
 2137SOL    HW2 7311   2.206   5.583   4.505
 2138SOL     OW 7312   6.271   0.626   2.826
 2138SOL    HW1 7313   6.358   0.584   2.854
 2138SOL    HW2 7314   6.267   0.720   2.860
 2139SOL     OW 7315   3.388   0.307   2.945
 2139SOL    HW1 7316   3.313   0.342   2.890
 2139SOL    HW2 7317   3.475   0.333   2.903
 2140SOL     OW 7318   3.748   6.463   4.303
 2140SOL    HW1 7319   3.694   6.451   4.220
 2140SOL    HW2 7320   3.714   6.401   4.374
 2141SOL     OW 7321   6.377   4.012   2.714
 2141SOL    HW1 7322   6.464   4.053   2.742
 2141SOL    HW2 7323   6.376   3.915   2.739
 2142SOL     OW 7324   1.639   2.412   2.992
 2142SOL    HW1 7325   1.560   2.472   3.001
 2142SOL    HW2 7326   1.713   2.460   2.945
 2143SOL     OW 7327   2.814   4.509   1.229
 2143SOL    HW1 7328   2.739   4.544   1.285
 2143SOL    HW2 7329   2.797   4.413   1.205
 2144SOL     OW 7330   1.034   5.290   4.304
 2144SOL    HW1 7331   0.987   5.375   4.279
 2144SOL    HW2 7332   1.000   5.258   4.392
 2145SOL     OW 7333   4.121   6.346   4.430
 2145SOL    HW1 7334   4.220   6.353   4.443
 2145SOL    HW2 7335   4.074   6.394   4.504
 2146SOL     OW 7336   2.723   3.617   1.726
 2146SOL    HW1 7337   2.819   3.625   1.697
 2146SOL    HW2 7338   2.709   3.528   1.770
 2147SOL     OW 7339   6.542   1.472   5.681
 2147SOL    HW1 7340   6.451   1.508   5.661
 2147SOL    HW2 7341   6.559   1.478   5.779
 2148SOL     OW 7342   5.382   2.021   5.616
 2148SOL    HW1 7343   5.320   2.011   5.694
 2148SOL    HW2 7344   5.363   2.107   5.569
 2149SOL     OW 7345   3.530   2.505   1.181
 2149SOL    HW1 7346   3.605   2.440   1.174
 2149SOL    HW2 7347   3.445   2.457   1.201
 2150SOL     OW 7348   3.111   1.797   2.529
 2150SOL    HW1 7349   3.074   1.849   2.606
 2150SOL    HW2 7350   3.093   1.699   2.543
 2151SOL     OW 7351   1.478   0.379   4.812
 2151SOL    HW1 7352   1.487   0.297   4.869
 2151SOL    HW2 7353   1.509   0.358   4.719
 2152SOL     OW 7354   3.674   5.602   0.867
 2152SOL    HW1 7355   3.712   5.509   0.865
 2152SOL    HW2 7356   3.598   5.605   0.932
 2153SOL     OW 7357   3.781   0.595   2.911
 2153SOL    HW1 7358   3.822   0.656   2.843
 2153SOL    HW2 7359   3.841   0.515   2.924
 2154SOL     OW 7360   4.650   0.036   5.070
 2154SOL    HW1 7361   4.741   0.061   5.034
 2154SOL    HW2 7362   4.594   7.018   4.995
 2155SOL     OW 7363   2.248   5.807   0.194
 2155SOL    HW1 7364   2.206   5.879   0.138
 2155SOL    HW2 7365   2.176   5.750   0.234
 2156SOL     OW 7366   2.433   1.492   4.774
 2156SOL    HW1 7367   2.374   1.563   4.810
 2156SOL    HW2 7368   2.406   1.470   4.680
 2157SOL     OW 7369   6.027   0.697   3.421
 2157SOL    HW1 7370   6.122   0.723   3.438
 2157SOL    HW2 7371   5.992   0.748   3.342
 2158SOL     OW 7372   3.895   5.987   1.228
 2158SOL    HW1 7373   3.847   6.051   1.288
 2158SOL    HW2 7374   3.977   6.031   1.192
 2159SOL     OW 7375   1.905   6.258   5.386
 2159SOL    HW1 7376   1.871   6.167   5.361
 2159SOL    HW2 7377   1.828   6.320   5.398
 2160SOL     OW 7378   3.880   3.816   0.597
 2160SOL    HW1 7379   3.904   3.888   0.662
 2160SOL    HW2 7380   3.844   3.857   0.513
 2161SOL     OW 7381   5.317   4.909   3.163
 2161SOL    HW1 7382   5.314   4.889   3.066
 2161SOL    HW2 7383   5.379   4.845   3.209
 2162SOL     OW 7384   2.049   0.952   1.553
 2162SOL    HW1 7385   2.122   1.015   1.578
 2162SOL    HW2 7386   2.089   0.872   1.508
 2163SOL     OW 7387   0.756   4.457   6.194
 2163SOL    HW1 7388   0.669   4.494   6.162
 2163SOL    HW2 7389   0.824   4.463   6.122
 2164SOL     OW 7390   1.474   3.079   6.801
 2164SOL    HW1 7391   1.383   3.119   6.811
 2164SOL    HW2 7392   1.488   3.009   6.872
 2165SOL     OW 7393   0.425   2.148   2.733
 2165SOL    HW1 7394   0.415   2.219   2.663
 2165SOL    HW2 7395   0.449   2.190   2.820
 2166SOL     OW 7396   1.344   2.415   5.024
 2166SOL    HW1 7397   1.322   2.439   4.929
 2166SOL    HW2 7398   1.295   2.332   5.050
 2167SOL     OW 7399   1.714   1.363   3.823
 2167SOL    HW1 7400   1.728   1.386   3.920
 2167SOL    HW2 7401   1.617   1.357   3.803
 2168SOL     OW 7402   1.034   1.742   3.792
 2168SOL    HW1 7403   1.114   1.696   3.829
 2168SOL    HW2 7404   0.974   1.770   3.867
 2169SOL     OW 7405   5.448   1.357   6.239
 2169SOL    HW1 7406   5.432   1.308   6.154
 2169SOL    HW2 7407   5.520   1.425   6.226
 2170SOL     OW 7408   6.719   5.239   5.629
 2170SOL    HW1 7409   6.720   5.147   5.590
 2170SOL    HW2 7410   6.688   5.234   5.724
 2171SOL     OW 7411   0.253   4.226   1.667
 2171SOL    HW1 7412   0.201   4.154   1.713
 2171SOL    HW2 7413   0.326   4.185   1.612
 2172SOL     OW 7414   2.228   2.701   0.406
 2172SOL    HW1 7415   2.312   2.654   0.380
 2172SOL    HW2 7416   2.200   2.672   0.498
 2173SOL     OW 7417   3.872   0.812   5.242
 2173SOL    HW1 7418   3.904   0.906   5.255
 2173SOL    HW2 7419   3.951   0.752   5.226
 2174SOL     OW 7420   5.358   6.228   5.234
 2174SOL    HW1 7421   5.353   6.279   5.147
 2174SOL    HW2 7422   5.377   6.132   5.215
 2175SOL     OW 7423   2.520   2.455   4.208
 2175SOL    HW1 7424   2.445   2.389   4.212
 2175SOL    HW2 7425   2.497   2.535   4.263
 2176SOL     OW 7426   0.576   1.980   0.432
 2176SOL    HW1 7427   0.503   2.048   0.435
 2176SOL    HW2 7428   0.614   1.976   0.339
 2177SOL     OW 7429   5.650   1.787   3.405
 2177SOL    HW1 7430   5.566   1.775   3.352
 2177SOL    HW2 7431   5.673   1.701   3.451
 2178SOL     OW 7432   1.912   2.416   0.787
 2178SOL    HW1 7433   1.942   2.323   0.808
 2178SOL    HW2 7434   1.820   2.413   0.748
 2179SOL     OW 7435   1.898   5.511   5.025
 2179SOL    HW1 7436   1.971   5.526   4.958
 2179SOL    HW2 7437   1.868   5.416   5.021
 2180SOL     OW 7438   2.028   2.793   1.918
 2180SOL    HW1 7439   1.992   2.885   1.934
 2180SOL    HW2 7440   2.125   2.800   1.892
 2181SOL     OW 7441   4.162   5.083   5.017
 2181SOL    HW1 7442   4.194   5.060   5.109
 2181SOL    HW2 7443   4.149   4.999   4.964
 2182SOL     OW 7444   1.116   3.436   4.713
 2182SOL    HW1 7445   1.125   3.369   4.639
 2182SOL    HW2 7446   1.207   3.459   4.748
 2183SOL     OW 7447   2.919   4.213   6.186
 2183SOL    HW1 7448   2.901   4.157   6.105
 2183SOL    HW2 7449   2.965   4.158   6.256
 2184SOL     OW 7450   4.494   2.074   6.972
 2184SOL    HW1 7451   4.578   2.110   7.012
 2184SOL    HW2 7452   4.417   2.092   0.016
 2185SOL     OW 7453   1.679   2.208   0.822
 2185SOL    HW1 7454   1.589   2.227   0.860
 2185SOL    HW2 7455   1.743   2.190   0.896
 2186SOL     OW 7456   0.605   5.698   2.019
 2186SOL    HW1 7457   0.600   5.635   1.941
 2186SOL    HW2 7458   0.594   5.646   2.104
 2187SOL     OW 7459   6.745   0.876   2.680
 2187SOL    HW1 7460   6.743   0.829   2.592
 2187SOL    HW2 7461   6.744   0.975   2.666
 2188SOL     OW 7462   6.349   6.442   5.269
 2188SOL    HW1 7463   6.295   6.492   5.337
 2188SOL    HW2 7464   6.442   6.429   5.303
 2189SOL     OW 7465   1.769   0.154   0.523
 2189SOL    HW1 7466   1.819   0.209   0.456
 2189SOL    HW2 7467   1.834   0.105   0.581
 2190SOL     OW 7468   0.135   2.914   2.327
 2190SOL    HW1 7469   0.143   2.815   2.318
 2190SOL    HW2 7470   0.052   2.937   2.377
 2191SOL     OW 7471   2.908   2.326   6.841
 2191SOL    HW1 7472   2.863   2.238   6.853
 2191SOL    HW2 7473   2.976   2.340   6.913
 2192SOL     OW 7474   3.949   1.375   2.953
 2192SOL    HW1 7475   3.879   1.316   2.994
 2192SOL    HW2 7476   3.926   1.470   2.971
 2193SOL     OW 7477   6.480   5.590   6.196
 2193SOL    HW1 7478   6.503   5.673   6.247
 2193SOL    HW2 7479   6.439   5.523   6.258
 2194SOL     OW 7480   2.644   4.664   6.171
 2194SOL    HW1 7481   2.696   4.580   6.186
 2194SOL    HW2 7482   2.660   4.727   6.248
 2195SOL     OW 7483   0.248   0.549   3.969
 2195SOL    HW1 7484   0.259   0.524   4.065
 2195SOL    HW2 7485   0.170   0.500   3.930
 2196SOL     OW 7486   3.184   0.121   4.957
 2196SOL    HW1 7487   3.184   0.110   5.056
 2196SOL    HW2 7488   3.161   0.216   4.934
 2197SOL     OW 7489   3.253   3.410   0.871
 2197SOL    HW1 7490   3.204   3.372   0.792
 2197SOL    HW2 7491   3.187   3.452   0.934
 2198SOL     OW 7492   6.637   1.684   0.489
 2198SOL    HW1 7493   6.549   1.695   0.443
 2198SOL    HW2 7494   6.643   1.747   0.567
 2199SOL     OW 7495   5.356   1.048   3.215
 2199SOL    HW1 7496   5.427   0.999   3.165
 2199SOL    HW2 7497   5.267   1.005   3.198
 2200SOL     OW 7498   2.427   0.852   5.047
 2200SOL    HW1 7499   2.521   0.857   5.015
 2200SOL    HW2 7500   2.372   0.924   5.005
 2201SOL     OW 7501   6.466   2.694   3.758
 2201SOL    HW1 7502   6.540   2.720   3.819
 2201SOL    HW2 7503   6.416   2.775   3.729
 2202SOL     OW 7504   2.818   5.023   2.286
 2202SOL    HW1 7505   2.908   5.058   2.259
 2202SOL    HW2 7506   2.783   4.963   2.215
 2203SOL     OW 7507   1.909   2.736   1.182
 2203SOL    HW1 7508   1.842   2.691   1.241
 2203SOL    HW2 7509   1.888   2.715   1.087
 2204SOL     OW 7510   3.967   0.950   0.572
 2204SOL    HW1 7511   4.022   0.895   0.634
 2204SOL    HW2 7512   3.997   1.046   0.578
 2205SOL     OW 7513   1.382   0.637   5.923
 2205SOL    HW1 7514   1.283   0.649   5.915
 2205SOL    HW2 7515   1.428   0.711   5.873
 2206SOL     OW 7516   3.275   4.504   6.556
 2206SOL    HW1 7517   3.198   4.566   6.540
 2206SOL    HW2 7518   3.359   4.558   6.570
 2207SOL     OW 7519   2.859   4.343   6.942
 2207SOL    HW1 7520   2.780   4.323   7.000
 2207SOL    HW2 7521   2.831   4.405   6.869
 2208SOL     OW 7522   1.712   6.559   2.470
 2208SOL    HW1 7523   1.737   6.500   2.546
 2208SOL    HW2 7524   1.705   6.504   2.386
 2209SOL     OW 7525   1.422   6.138   5.400
 2209SOL    HW1 7526   1.394   6.143   5.304
 2209SOL    HW2 7527   1.369   6.204   5.453
 2210SOL     OW 7528   6.622   5.010   3.855
 2210SOL    HW1 7529   6.643   5.107   3.856
 2210SOL    HW2 7530   6.525   4.997   3.831
 2211SOL     OW 7531   5.188   0.999   0.650
 2211SOL    HW1 7532   5.128   1.040   0.580
 2211SOL    HW2 7533   5.221   1.071   0.711
 2212SOL     OW 7534   1.470   6.248   6.880
 2212SOL    HW1 7535   1.538   6.315   6.907
 2212SOL    HW2 7536   1.379   6.288   6.887
 2213SOL     OW 7537   3.813   2.852   5.111
 2213SOL    HW1 7538   3.842   2.857   5.015
 2213SOL    HW2 7539   3.832   2.939   5.156
 2214SOL     OW 7540   3.567   2.896   4.828
 2214SOL    HW1 7541   3.563   2.839   4.910
 2214SOL    HW2 7542   3.474   2.920   4.800
 2215SOL     OW 7543   6.851   2.042   0.269
 2215SOL    HW1 7544   6.868   2.099   0.188
 2215SOL    HW2 7545   6.752   2.034   0.283
 2216SOL     OW 7546   1.966   0.871   5.796
 2216SOL    HW1 7547   1.981   0.911   5.887
 2216SOL    HW2 7548   2.054   0.855   5.752
 2217SOL     OW 7549   3.866   6.471   1.529
 2217SOL    HW1 7550   3.947   6.456   1.586
 2217SOL    HW2 7551   3.869   6.563   1.490
 2218SOL     OW 7552   0.403   6.668   0.085
 2218SOL    HW1 7553   0.447   6.706   0.003
 2218SOL    HW2 7554   0.424   6.571   0.092
 2219SOL     OW 7555   5.737   1.653   1.791
 2219SOL    HW1 7556   5.794   1.708   1.851
 2219SOL    HW2 7557   5.645   1.644   1.830
 2220SOL     OW 7558   1.201   0.290   4.192
 2220SOL    HW1 7559   1.141   0.295   4.112
 2220SOL    HW2 7560   1.258   0.373   4.197
 2221SOL     OW 7561   5.733   0.679   5.197
 2221SOL    HW1 7562   5.636   0.670   5.219
 2221SOL    HW2 7563   5.767   0.594   5.157
 2222SOL     OW 7564   4.433   0.244   0.614
 2222SOL    HW1 7565   4.378   0.175   0.568
 2222SOL    HW2 7566   4.405   0.252   0.709
 2223SOL     OW 7567   6.182   0.875   4.714
 2223SOL    HW1 7568   6.151   0.964   4.747
 2223SOL    HW2 7569   6.105   0.828   4.670
 2224SOL     OW 7570   1.794   4.026   1.347
 2224SOL    HW1 7571   1.862   3.965   1.387
 2224SOL    HW2 7572   1.840   4.101   1.299
 2225SOL     OW 7573   6.340   6.248   3.114
 2225SOL    HW1 7574   6.424   6.296   3.091
 2225SOL    HW2 7575   6.264   6.313   3.116
 2226SOL     OW 7576   3.931   4.545   0.948
 2226SOL    HW1 7577   3.885   4.582   0.867
 2226SOL    HW2 7578   3.890   4.586   1.030
 2227SOL     OW 7579   5.747   3.544   0.710
 2227SOL    HW1 7580   5.777   3.543   0.614
 2227SOL    HW2 7581   5.658   3.589   0.715
 2228SOL     OW 7582   3.080   5.109   1.151
 2228SOL    HW1 7583   3.073   5.208   1.159
 2228SOL    HW2 7584   2.992   5.071   1.122
 2229SOL     OW 7585   4.402   1.606   4.196
 2229SOL    HW1 7586   4.488   1.588   4.243
 2229SOL    HW2 7587   4.407   1.569   4.103
 2230SOL     OW 7588   5.758   5.965   6.636
 2230SOL    HW1 7589   5.715   5.936   6.550
 2230SOL    HW2 7590   5.786   5.884   6.688
 2231SOL     OW 7591   0.521   0.493   2.229
 2231SOL    HW1 7592   0.574   0.461   2.150
 2231SOL    HW2 7593   0.507   0.416   2.292
 2232SOL     OW 7594   0.789   3.160   4.841
 2232SOL    HW1 7595   0.831   3.124   4.758
 2232SOL    HW2 7596   0.856   3.159   4.915
 2233SOL     OW 7597   2.359   4.219   1.032
 2233SOL    HW1 7598   2.434   4.277   1.000
 2233SOL    HW2 7599   2.377   4.124   1.006
 2234SOL     OW 7600   4.064   2.103   1.750
 2234SOL    HW1 7601   4.005   2.182   1.733
 2234SOL    HW2 7602   4.111   2.078   1.666
 2235SOL     OW 7603   2.452   0.250   1.773
 2235SOL    HW1 7604   2.376   0.253   1.839
 2235SOL    HW2 7605   2.415   0.259   1.680
 2236SOL     OW 7606   1.325   4.505   6.521
 2236SOL    HW1 7607   1.369   4.581   6.474
 2236SOL    HW2 7608   1.289   4.537   6.609
 2237SOL     OW 7609   5.699   4.925   3.703
 2237SOL    HW1 7610   5.758   4.981   3.645
 2237SOL    HW2 7611   5.746   4.906   3.789
 2238SOL     OW 7612   5.343   4.562   0.927
 2238SOL    HW1 7613   5.418   4.570   0.993
 2238SOL    HW2 7614   5.350   4.474   0.880
 2239SOL     OW 7615   3.453   4.943   3.064
 2239SOL    HW1 7616   3.434   4.929   3.161
 2239SOL    HW2 7617   3.366   4.952   3.014
 2240SOL     OW 7618   4.940   5.848   3.621
 2240SOL    HW1 7619   4.880   5.925   3.603
 2240SOL    HW2 7620   5.009   5.841   3.548
 2241SOL     OW 7621   0.346   6.456   2.736
 2241SOL    HW1 7622   0.311   6.379   2.789
 2241SOL    HW2 7623   0.444   6.465   2.752
 2242SOL     OW 7624   5.259   1.732   2.963
 2242SOL    HW1 7625   5.351   1.767   2.980
 2242SOL    HW2 7626   5.251   1.703   2.867
 2243SOL     OW 7627   2.762   6.364   5.841
 2243SOL    HW1 7628   2.836   6.349   5.776
 2243SOL    HW2 7629   2.745   6.280   5.892
 2244SOL     OW 7630   2.425   6.193   2.245
 2244SOL    HW1 7631   2.478   6.275   2.224
 2244SOL    HW2 7632   2.368   6.169   2.167
 2245SOL     OW 7633   0.352   1.889   1.699
 2245SOL    HW1 7634   0.424   1.824   1.674
 2245SOL    HW2 7635   0.351   1.965   1.634
 2246SOL     OW 7636   0.627   1.855   5.689
 2246SOL    HW1 7637   0.580   1.874   5.603
 2246SOL    HW2 7638   0.586   1.775   5.733
 2247SOL     OW 7639   3.218   3.330   4.922
 2247SOL    HW1 7640   3.137   3.271   4.916
 2247SOL    HW2 7641   3.270   3.324   4.837
 2248SOL     OW 7642   4.244   4.337   6.035
 2248SOL    HW1 7643   4.190   4.253   6.036
 2248SOL    HW2 7644   4.310   4.335   6.110
 2249SOL     OW 7645   6.273   6.240   2.748
 2249SOL    HW1 7646   6.217   6.321   2.728
 2249SOL    HW2 7647   6.369   6.268   2.755
 2250SOL     OW 7648   4.327   3.048   6.891
 2250SOL    HW1 7649   4.364   3.130   6.936
 2250SOL    HW2 7650   4.313   2.976   6.958
 2251SOL     OW 7651   5.228   0.792   0.376
 2251SOL    HW1 7652   5.245   0.770   0.472
 2251SOL    HW2 7653   5.232   0.708   0.322
 2252SOL     OW 7654   5.264   2.559   2.561
 2252SOL    HW1 7655   5.266   2.492   2.487
 2252SOL    HW2 7656   5.299   2.518   2.645
 2253SOL     OW 7657   1.241   3.519   6.608
 2253SOL    HW1 7658   1.285   3.463   6.538
 2253SOL    HW2 7659   1.148   3.542   6.579
 2254SOL     OW 7660   3.700   3.537   5.128
 2254SOL    HW1 7661   3.622   3.495   5.173
 2254SOL    HW2 7662   3.688   3.636   5.124
 2255SOL     OW 7663   5.187   2.471   6.252
 2255SOL    HW1 7664   5.108   2.522   6.286
 2255SOL    HW2 7665   5.225   2.519   6.173
 2256SOL     OW 7666   4.804   5.849   1.376
 2256SOL    HW1 7667   4.781   5.902   1.295
 2256SOL    HW2 7668   4.861   5.771   1.349
 2257SOL     OW 7669   0.331   2.041   3.973
 2257SOL    HW1 7670   0.391   2.122   3.971
 2257SOL    HW2 7671   0.339   1.992   3.886
 2258SOL     OW 7672   1.383   5.367   5.695
 2258SOL    HW1 7673   1.470   5.320   5.711
 2258SOL    HW2 7674   1.400   5.456   5.654
 2259SOL     OW 7675   5.212   3.708   6.794
 2259SOL    HW1 7676   5.233   3.718   6.892
 2259SOL    HW2 7677   5.224   3.797   6.749
 2260SOL     OW 7678   5.806   4.470   3.055
 2260SOL    HW1 7679   5.739   4.403   3.086
 2260SOL    HW2 7680   5.795   4.485   2.956
 2261SOL     OW 7681   6.730   5.579   6.969
 2261SOL    HW1 7682   6.777   5.585   0.039
 2261SOL    HW2 7683   6.675   5.496   6.967
 2262SOL     OW 7684   5.393   1.545   1.972
 2262SOL    HW1 7685   5.473   1.488   1.991
 2262SOL    HW2 7686   5.422   1.631   1.929
 2263SOL     OW 7687   2.621   5.597   6.991
 2263SOL    HW1 7688   2.643   5.549   0.058
 2263SOL    HW2 7689   2.691   5.576   6.923
 2264SOL     OW 7690   3.623   3.805   0.765
 2264SOL    HW1 7691   3.560   3.731   0.741
 2264SOL    HW2 7692   3.711   3.789   0.721
 2265SOL     OW 7693   0.445   0.876   4.401
 2265SOL    HW1 7694   0.458   0.911   4.494
 2265SOL    HW2 7695   0.349   0.851   4.388
 2266SOL     OW 7696   6.000   2.168   1.158
 2266SOL    HW1 7697   6.085   2.215   1.185
 2266SOL    HW2 7698   6.001   2.075   1.194
 2267SOL     OW 7699   5.026   2.709   4.883
 2267SOL    HW1 7700   4.993   2.797   4.916
 2267SOL    HW2 7701   4.959   2.669   4.820
 2268SOL     OW 7702   6.537   3.854   6.443
 2268SOL    HW1 7703   6.481   3.798   6.382
 2268SOL    HW2 7704   6.487   3.870   6.529
 2269SOL     OW 7705   6.096   5.801   4.868
 2269SOL    HW1 7706   6.067   5.853   4.788
 2269SOL    HW2 7707   6.113   5.863   4.944
 2270SOL     OW 7708   3.468   2.315   6.305
 2270SOL    HW1 7709   3.534   2.391   6.315
 2270SOL    HW2 7710   3.413   2.330   6.223
 2271SOL     OW 7711   5.937   4.376   0.514
 2271SOL    HW1 7712   5.853   4.332   0.482
 2271SOL    HW2 7713   6.012   4.309   0.515
 2272SOL     OW 7714   6.196   1.952   6.158
 2272SOL    HW1 7715   6.151   1.863   6.165
 2272SOL    HW2 7716   6.151   2.006   6.087
 2273SOL     OW 7717   1.869   0.221   2.317
 2273SOL    HW1 7718   1.881   0.162   2.238
 2273SOL    HW2 7719   1.956   0.233   2.365
 2274SOL     OW 7720   0.751   3.118   6.057
 2274SOL    HW1 7721   0.694   3.142   6.136
 2274SOL    HW2 7722   0.728   3.178   5.980
 2275SOL     OW 7723   6.454   0.691   3.943
 2275SOL    HW1 7724   6.478   0.594   3.939
 2275SOL    HW2 7725   6.377   0.704   4.005
 2276SOL     OW 7726   2.812   5.210   1.435
 2276SOL    HW1 7727   2.838   5.117   1.408
 2276SOL    HW2 7728   2.846   5.227   1.528
 2277SOL     OW 7729   3.395   3.600   5.464
 2277SOL    HW1 7730   3.328   3.656   5.415
 2277SOL    HW2 7731   3.384   3.504   5.438
 2278SOL     OW 7732   6.894   4.849   3.907
 2278SOL    HW1 7733   6.850   4.760   3.897
 2278SOL    HW2 7734   6.849   4.916   3.848
 2279SOL     OW 7735   4.657   5.854   4.786
 2279SOL    HW1 7736   4.599   5.780   4.752
 2279SOL    HW2 7737   4.742   5.856   4.734
 2280SOL     OW 7738   6.714   6.582   4.031
 2280SOL    HW1 7739   6.744   6.601   4.124
 2280SOL    HW2 7740   6.790   6.594   3.967
 2281SOL     OW 7741   3.036   1.479   1.441
 2281SOL    HW1 7742   3.015   1.576   1.442
 2281SOL    HW2 7743   2.960   1.429   1.398
 2282SOL     OW 7744   4.777   6.365   5.108
 2282SOL    HW1 7745   4.703   6.369   5.041
 2282SOL    HW2 7746   4.738   6.355   5.200
 2283SOL     OW 7747   6.985   4.636   1.960
 2283SOL    HW1 7748   6.996   4.540   1.986
 2283SOL    HW2 7749   6.888   4.661   1.967
 2284SOL     OW 7750   2.088   2.296   0.425
 2284SOL    HW1 7751   2.014   2.292   0.357
 2284SOL    HW2 7752   2.094   2.388   0.463
 2285SOL     OW 7753   1.908   2.167   0.959
 2285SOL    HW1 7754   1.917   2.219   1.044
 2285SOL    HW2 7755   1.980   2.097   0.954
 2286SOL     OW 7756   0.022   0.430   4.574
 2286SOL    HW1 7757   7.009   0.337   4.593
 2286SOL    HW2 7758   7.017   0.455   4.480
 2287SOL     OW 7759   1.763   1.392   3.225
 2287SOL    HW1 7760   1.836   1.444   3.269
 2287SOL    HW2 7761   1.675   1.418   3.266
 2288SOL     OW 7762   6.161   5.133   4.432
 2288SOL    HW1 7763   6.153   5.146   4.531
 2288SOL    HW2 7764   6.149   5.221   4.386
 2289SOL     OW 7765   6.885   4.501   2.670
 2289SOL    HW1 7766   6.790   4.530   2.676
 2289SOL    HW2 7767   6.939   4.569   2.621
 2290SOL     OW 7768   1.520   3.832   2.022
 2290SOL    HW1 7769   1.519   3.932   2.027
 2290SOL    HW2 7770   1.426   3.799   2.019
 2291SOL     OW 7771   2.361   2.689   6.753
 2291SOL    HW1 7772   2.280   2.660   6.701
 2291SOL    HW2 7773   2.336   2.763   6.815
 2292SOL     OW 7774   5.675   3.020   4.117
 2292SOL    HW1 7775   5.577   3.009   4.134
 2292SOL    HW2 7776   5.690   3.085   4.043
 2293SOL     OW 7777   5.534   6.658   0.857
 2293SOL    HW1 7778   5.449   6.613   0.887
 2293SOL    HW2 7779   5.581   6.695   0.937
 2294SOL     OW 7780   3.608   0.859   6.177
 2294SOL    HW1 7781   3.572   0.784   6.231
 2294SOL    HW2 7782   3.537   0.928   6.163
 2295SOL     OW 7783   0.521   1.335   2.580
 2295SOL    HW1 7784   0.517   1.311   2.677
 2295SOL    HW2 7785   0.526   1.251   2.526
 2296SOL     OW 7786   3.254   5.454   2.084
 2296SOL    HW1 7787   3.246   5.355   2.078
 2296SOL    HW2 7788   3.226   5.485   2.174
 2297SOL     OW 7789   5.025   4.254   5.508
 2297SOL    HW1 7790   5.022   4.345   5.549
 2297SOL    HW2 7791   5.050   4.261   5.411
 2298SOL     OW 7792   4.007   3.355   1.705
 2298SOL    HW1 7793   4.017   3.350   1.606
 2298SOL    HW2 7794   4.021   3.449   1.736
 2299SOL     OW 7795   4.839   4.970   5.085
 2299SOL    HW1 7796   4.807   5.054   5.041
 2299SOL    HW2 7797   4.761   4.923   5.127
 2300SOL     OW 7798   2.432   5.908   2.135
 2300SOL    HW1 7799   2.417   5.832   2.073
 2300SOL    HW2 7800   2.483   5.980   2.088
 2301SOL     OW 7801   3.578   2.899   3.179
 2301SOL    HW1 7802   3.522   2.847   3.114
 2301SOL    HW2 7803   3.575   2.996   3.154
 2302SOL     OW 7804   3.332   0.281   1.300
 2302SOL    HW1 7805   3.419   0.320   1.272
 2302SOL    HW2 7806   3.347   0.190   1.339
 2303SOL     OW 7807   2.275   3.317   6.848
 2303SOL    HW1 7808   2.318   3.229   6.827
 2303SOL    HW2 7809   2.176   3.304   6.855
 2304SOL     OW 7810   5.418   6.793   4.540
 2304SOL    HW1 7811   5.463   6.780   4.629
 2304SOL    HW2 7812   5.423   6.889   4.514
 2305SOL     OW 7813   2.940   6.740   2.515
 2305SOL    HW1 7814   2.944   6.818   2.452
 2305SOL    HW2 7815   3.030   6.699   2.524
 2306SOL     OW 7816   2.017   5.081   1.797
 2306SOL    HW1 7817   2.024   4.982   1.794
 2306SOL    HW2 7818   2.109   5.121   1.796
 2307SOL     OW 7819   6.802   3.392   4.329
 2307SOL    HW1 7820   6.778   3.402   4.426
 2307SOL    HW2 7821   6.731   3.338   4.283
 2308SOL     OW 7822   1.859   4.641   1.734
 2308SOL    HW1 7823   1.787   4.572   1.734
 2308SOL    HW2 7824   1.948   4.596   1.749
 2309SOL     OW 7825   1.489   0.795   5.697
 2309SOL    HW1 7826   1.581   0.766   5.671
 2309SOL    HW2 7827   1.495   0.862   5.771
 2310SOL     OW 7828   5.857   5.504   0.505
 2310SOL    HW1 7829   5.831   5.412   0.477
 2310SOL    HW2 7830   5.800   5.571   0.457
 2311SOL     OW 7831   2.469   0.062   1.496
 2311SOL    HW1 7832   2.520   0.017   1.569
 2311SOL    HW2 7833   2.522   0.140   1.462
 2312SOL     OW 7834   4.274   6.130   2.706
 2312SOL    HW1 7835   4.270   6.032   2.724
 2312SOL    HW2 7836   4.351   6.169   2.757
 2313SOL     OW 7837   6.034   5.523   1.400
 2313SOL    HW1 7838   5.948   5.486   1.435
 2313SOL    HW2 7839   6.080   5.573   1.473
 2314SOL     OW 7840   5.418   6.180   3.643
 2314SOL    HW1 7841   5.402   6.236   3.724
 2314SOL    HW2 7842   5.500   6.212   3.596
 2315SOL     OW 7843   5.571   3.236   6.329
 2315SOL    HW1 7844   5.596   3.324   6.290
 2315SOL    HW2 7845   5.499   3.194   6.273
 2316SOL     OW 7846   4.713   1.628   3.557
 2316SOL    HW1 7847   4.791   1.585   3.602
 2316SOL    HW2 7848   4.644   1.558   3.535
 2317SOL     OW 7849   0.746   6.634   2.945
 2317SOL    HW1 7850   0.824   6.573   2.959
 2317SOL    HW2 7851   0.772   6.709   2.884
 2318SOL     OW 7852   1.303   2.731   3.784
 2318SOL    HW1 7853   1.228   2.741   3.718
 2318SOL    HW2 7854   1.268   2.686   3.867
 2319SOL     OW 7855   1.677   4.765   4.329
 2319SOL    HW1 7856   1.772   4.735   4.338
 2319SOL    HW2 7857   1.642   4.793   4.419
 2320SOL     OW 7858   1.023   2.280   4.727
 2320SOL    HW1 7859   0.964   2.200   4.722
 2320SOL    HW2 7860   1.020   2.329   4.640
 2321SOL     OW 7861   2.658   0.197   6.513
 2321SOL    HW1 7862   2.731   0.261   6.537
 2321SOL    HW2 7863   2.571   0.230   6.550
 2322SOL     OW 7864   3.128   1.652   5.071
 2322SOL    HW1 7865   3.051   1.701   5.112
 2322SOL    HW2 7866   3.099   1.560   5.047
 2323SOL     OW 7867   2.440   4.880   1.876
 2323SOL    HW1 7868   2.484   4.852   1.962
 2323SOL    HW2 7869   2.463   4.814   1.804
 2324SOL     OW 7870   5.851   6.221   1.430
 2324SOL    HW1 7871   5.889   6.207   1.521
 2324SOL    HW2 7872   5.753   6.242   1.438
 2325SOL     OW 7873   1.184   4.518   2.473
 2325SOL    HW1 7874   1.207   4.440   2.413
 2325SOL    HW2 7875   1.238   4.512   2.557
 2326SOL     OW 7876   3.716   5.343   5.599
 2326SOL    HW1 7877   3.669   5.325   5.513
 2326SOL    HW2 7878   3.777   5.267   5.621
 2327SOL     OW 7879   6.193   3.430   5.138
 2327SOL    HW1 7880   6.142   3.444   5.053
 2327SOL    HW2 7881   6.158   3.350   5.185
 2328SOL     OW 7882   3.319   2.028   3.168
 2328SOL    HW1 7883   3.371   2.039   3.083
 2328SOL    HW2 7884   3.383   2.011   3.243
 2329SOL     OW 7885   1.641   3.358   4.822
 2329SOL    HW1 7886   1.739   3.357   4.839
 2329SOL    HW2 7887   1.602   3.444   4.854
 2330SOL     OW 7888   1.224   3.907   2.094
 2330SOL    HW1 7889   1.223   3.816   2.053
 2330SOL    HW2 7890   1.134   3.926   2.133
 2331SOL     OW 7891   6.044   4.206   1.070
 2331SOL    HW1 7892   6.105   4.154   1.010
 2331SOL    HW2 7893   6.098   4.249   1.143
 2332SOL     OW 7894   4.116   2.007   5.442
 2332SOL    HW1 7895   4.064   2.074   5.495
 2332SOL    HW2 7896   4.180   1.960   5.502
 2333SOL     OW 7897   0.603   6.018   2.958
 2333SOL    HW1 7898   0.649   5.938   2.995
 2333SOL    HW2 7899   0.542   5.990   2.884
 2334SOL     OW 7900   2.038   0.510   6.839
 2334SOL    HW1 7901   2.117   0.523   6.899
 2334SOL    HW2 7902   1.980   0.591   6.843
 2335SOL     OW 7903   6.009   1.172   2.957
 2335SOL    HW1 7904   6.081   1.125   2.905
 2335SOL    HW2 7905   5.994   1.124   3.044
 2336SOL     OW 7906   4.519   1.766   4.956
 2336SOL    HW1 7907   4.444   1.826   4.930
 2336SOL    HW2 7908   4.533   1.771   5.055
 2337SOL     OW 7909   4.491   0.878   3.260
 2337SOL    HW1 7910   4.582   0.838   3.247
 2337SOL    HW2 7911   4.500   0.972   3.292
 2338SOL     OW 7912   1.592   1.374   6.062
 2338SOL    HW1 7913   1.634   1.418   6.142
 2338SOL    HW2 7914   1.540   1.442   6.010
 2339SOL     OW 7915   3.582   4.198   5.038
 2339SOL    HW1 7916   3.680   4.204   5.018
 2339SOL    HW2 7917   3.531   4.179   4.954
 2340SOL     OW 7918   5.453   4.852   6.298
 2340SOL    HW1 7919   5.454   4.800   6.383
 2340SOL    HW2 7920   5.504   4.803   6.228
 2341SOL     OW 7921   5.848   4.388   1.381
 2341SOL    HW1 7922   5.866   4.423   1.473
 2341SOL    HW2 7923   5.862   4.290   1.378
 2342SOL     OW 7924   0.224   6.262   5.161
 2342SOL    HW1 7925   0.281   6.240   5.240
 2342SOL    HW2 7926   0.277   6.314   5.094
 2343SOL     OW 7927   1.541   6.380   2.008
 2343SOL    HW1 7928   1.550   6.450   1.937
 2343SOL    HW2 7929   1.592   6.298   1.980
 2344SOL     OW 7930   1.997   0.391   1.018
 2344SOL    HW1 7931   2.007   0.316   0.953
 2344SOL    HW2 7932   2.077   0.394   1.079
 2345SOL     OW 7933   2.575   5.346   5.404
 2345SOL    HW1 7934   2.570   5.443   5.381
 2345SOL    HW2 7935   2.584   5.336   5.503
 2346SOL     OW 7936   4.873   2.969   4.905
 2346SOL    HW1 7937   4.852   3.018   4.989
 2346SOL    HW2 7938   4.802   2.900   4.887
 2347SOL     OW 7939   2.332   3.513   1.590
 2347SOL    HW1 7940   2.376   3.487   1.676
 2347SOL    HW2 7941   2.240   3.474   1.587
 2348SOL     OW 7942   3.643   6.017   3.957
 2348SOL    HW1 7943   3.599   6.005   4.046
 2348SOL    HW2 7944   3.727   6.071   3.968
 2349SOL     OW 7945   0.573   5.329   6.031
 2349SOL    HW1 7946   0.637   5.404   6.047
 2349SOL    HW2 7947   0.624   5.248   6.001
 2350SOL     OW 7948   5.248   0.087   6.461
 2350SOL    HW1 7949   5.195   0.007   6.489
 2350SOL    HW2 7950   5.329   0.057   6.412
 2351SOL     OW 7951   4.177   5.213   2.041
 2351SOL    HW1 7952   4.258   5.255   2.083
 2351SOL    HW2 7953   4.098   5.227   2.100
 2352SOL     OW 7954   1.204   3.872   2.440
 2352SOL    HW1 7955   1.170   3.801   2.378
 2352SOL    HW2 7956   1.296   3.899   2.412
 2353SOL     OW 7957   3.017   4.808   5.021
 2353SOL    HW1 7958   2.953   4.738   5.052
 2353SOL    HW2 7959   2.972   4.897   5.019
 2354SOL     OW 7960   2.832   1.909   6.467
 2354SOL    HW1 7961   2.874   1.822   6.441
 2354SOL    HW2 7962   2.903   1.975   6.492
 2355SOL     OW 7963   1.124   5.423   6.584
 2355SOL    HW1 7964   1.033   5.389   6.559
 2355SOL    HW2 7965   1.132   5.426   6.684
 2356SOL     OW 7966   2.168   4.071   0.254
 2356SOL    HW1 7967   2.239   4.012   0.213
 2356SOL    HW2 7968   2.210   4.133   0.319
 2357SOL     OW 7969   4.202   5.223   3.653
 2357SOL    HW1 7970   4.270   5.151   3.656
 2357SOL    HW2 7971   4.132   5.201   3.585
 2358SOL     OW 7972   2.202   5.424   5.113
 2358SOL    HW1 7973   2.279   5.380   5.158
 2358SOL    HW2 7974   2.147   5.356   5.064
 2359SOL     OW 7975   0.025   0.942   5.529
 2359SOL    HW1 7976   6.978   1.018   5.537
 2359SOL    HW2 7977   0.111   0.967   5.574
 2360SOL     OW 7978   5.060   6.455   5.759
 2360SOL    HW1 7979   5.102   6.372   5.724
 2360SOL    HW2 7980   5.037   6.443   5.856
 2361SOL     OW 7981   2.894   6.842   4.605
 2361SOL    HW1 7982   2.892   6.850   4.705
 2361SOL    HW2 7983   2.942   6.921   4.566
 2362SOL     OW 7984   3.213   6.830   5.284
 2362SOL    HW1 7985   3.289   6.807   5.345
 2362SOL    HW2 7986   3.138   6.766   5.299
 2363SOL     OW 7987   4.261   2.562   5.651
 2363SOL    HW1 7988   4.325   2.638   5.648
 2363SOL    HW2 7989   4.198   2.574   5.728
 2364SOL     OW 7990   7.012   2.541   3.322
 2364SOL    HW1 7991   6.919   2.515   3.347
 2364SOL    HW2 7992   0.056   2.465   3.340
 2365SOL     OW 7993   6.300   2.274   6.039
 2365SOL    HW1 7994   6.217   2.218   6.042
 2365SOL    HW2 7995   6.331   2.282   5.945
 2366SOL     OW 7996   1.608   4.471   5.932
 2366SOL    HW1 7997   1.621   4.374   5.953
 2366SOL    HW2 7998   1.610   4.484   5.833
 2367SOL     OW 7999   3.209   3.495   6.731
 2367SOL    HW1 8000   3.111   3.510   6.723
 2367SOL    HW2 8001   3.258   3.581   6.717
 2368SOL     OW 8002   4.508   0.001   4.131
 2368SOL    HW1 8003   4.563   6.958   4.073
 2368SOL    HW2 8004   4.529   0.096   4.109
 2369SOL     OW 8005   2.040   2.304   4.850
 2369SOL    HW1 8006   2.129   2.302   4.895
 2369SOL    HW2 8007   2.039   2.241   4.773
 2370SOL     OW 8008   4.745   4.219   6.400
 2370SOL    HW1 8009   4.745   4.293   6.468
 2370SOL    HW2 8010   4.677   4.150   6.426
 2371SOL     OW 8011   1.152   6.399   1.845
 2371SOL    HW1 8012   1.204   6.477   1.881
 2371SOL    HW2 8013   1.055   6.413   1.862
 2372SOL     OW 8014   0.918   2.166   1.498
 2372SOL    HW1 8015   1.009   2.189   1.465
 2372SOL    HW2 8016   0.899   2.070   1.478
 2373SOL     OW 8017   6.033   0.305   0.121
 2373SOL    HW1 8018   6.095   0.357   0.181
 2373SOL    HW2 8019   5.957   0.269   0.175
 2374SOL     OW 8020   6.366   0.972   4.109
 2374SOL    HW1 8021   6.353   1.051   4.049
 2374SOL    HW2 8022   6.435   0.995   4.178
 2375SOL     OW 8023   1.279   6.763   4.617
 2375SOL    HW1 8024   1.370   6.733   4.646
 2375SOL    HW2 8025   1.285   6.806   4.527
 2376SOL     OW 8026   6.283   2.595   4.092
 2376SOL    HW1 8027   6.382   2.605   4.080
 2376SOL    HW2 8028   6.264   2.547   4.178
 2377SOL     OW 8029   3.470   3.993   3.622
 2377SOL    HW1 8030   3.376   3.993   3.589
 2377SOL    HW2 8031   3.504   3.898   3.626
 2378SOL     OW 8032   5.613   1.745   6.646
 2378SOL    HW1 8033   5.680   1.774   6.578
 2378SOL    HW2 8034   5.522   1.745   6.605
 2379SOL     OW 8035   6.875   1.789   6.276
 2379SOL    HW1 8036   6.854   1.694   6.300
 2379SOL    HW2 8037   6.934   1.829   6.346
 2380SOL     OW 8038   6.500   6.429   6.109
 2380SOL    HW1 8039   6.546   6.393   6.190
 2380SOL    HW2 8040   6.529   6.523   6.092
 2381SOL     OW 8041   2.487   4.480   3.776
 2381SOL    HW1 8042   2.419   4.452   3.843
 2381SOL    HW2 8043   2.477   4.425   3.693
 2382SOL     OW 8044   2.285   4.688   2.762
 2382SOL    HW1 8045   2.293   4.637   2.847
 2382SOL    HW2 8046   2.190   4.713   2.746
 2383SOL     OW 8047   5.221   6.081   6.695
 2383SOL    HW1 8048   5.224   6.125   6.606
 2383SOL    HW2 8049   5.235   6.149   6.767
 2384SOL     OW 8050   0.864   0.253   2.349
 2384SOL    HW1 8051   0.768   0.265   2.323
 2384SOL    HW2 8052   0.883   0.306   2.431
 2385SOL     OW 8053   6.155   0.039   1.010
 2385SOL    HW1 8054   6.164   0.138   1.006
 2385SOL    HW2 8055   6.060   0.014   0.990
 2386SOL     OW 8056   4.370   5.432   4.228
 2386SOL    HW1 8057   4.395   5.428   4.325
 2386SOL    HW2 8058   4.270   5.437   4.220
 2387SOL     OW 8059   0.166   2.242   3.818
 2387SOL    HW1 8060   0.198   2.194   3.737
 2387SOL    HW2 8061   0.203   2.198   3.900
 2388SOL     OW 8062   1.030   1.656   4.475
 2388SOL    HW1 8063   1.026   1.597   4.395
 2388SOL    HW2 8064   1.124   1.666   4.505
 2389SOL     OW 8065   5.113   4.040   3.580
 2389SOL    HW1 8066   5.115   3.940   3.581
 2389SOL    HW2 8067   5.205   4.075   3.566
 2390SOL     OW 8068   3.881   2.953   4.573
 2390SOL    HW1 8069   3.937   2.872   4.556
 2390SOL    HW2 8070   3.872   2.967   4.671
 2391SOL     OW 8071   4.428   4.173   5.783
 2391SOL    HW1 8072   4.405   4.270   5.789
 2391SOL    HW2 8073   4.399   4.126   5.867
 2392SOL     OW 8074   3.360   5.776   5.563
 2392SOL    HW1 8075   3.271   5.775   5.517
 2392SOL    HW2 8076   3.433   5.778   5.494
 2393SOL     OW 8077   3.554   5.163   0.613
 2393SOL    HW1 8078   3.532   5.102   0.690
 2393SOL    HW2 8079   3.469   5.202   0.578
 2394SOL     OW 8080   1.594   3.091   4.935
 2394SOL    HW1 8081   1.610   3.181   4.893
 2394SOL    HW2 8082   1.673   3.032   4.920
 2395SOL     OW 8083   6.764   2.454   6.662
 2395SOL    HW1 8084   6.820   2.388   6.713
 2395SOL    HW2 8085   6.672   2.416   6.648
 2396SOL     OW 8086   4.641   5.545   0.276
 2396SOL    HW1 8087   4.587   5.593   0.345
 2396SOL    HW2 8088   4.594   5.461   0.249
 2397SOL     OW 8089   0.183   4.426   0.184
 2397SOL    HW1 8090   0.100   4.390   0.141
 2397SOL    HW2 8091   0.256   4.358   0.179
 2398SOL     OW 8092   3.012   4.893   5.976
 2398SOL    HW1 8093   2.970   4.949   6.048
 2398SOL    HW2 8094   3.036   4.804   6.013
 2399SOL     OW 8095   4.393   1.538   1.784
 2399SOL    HW1 8096   4.316   1.494   1.830
 2399SOL    HW2 8097   4.386   1.637   1.795
 2400SOL     OW 8098   4.196   4.482   0.572
 2400SOL    HW1 8099   4.261   4.410   0.547
 2400SOL    HW2 8100   4.239   4.546   0.636
 2401SOL     OW 8101   3.825   0.532   5.606
 2401SOL    HW1 8102   3.794   0.627   5.612
 2401SOL    HW2 8103   3.907   0.520   5.661
 2402SOL     OW 8104   0.180   2.779   4.144
 2402SOL    HW1 8105   0.126   2.698   4.167
 2402SOL    HW2 8106   0.272   2.750   4.116
 2403SOL     OW 8107   3.041   2.844   7.016
 2403SOL    HW1 8108   2.947   2.825   6.990
 2403SOL    HW2 8109   3.085   2.901   6.946
 2404SOL     OW 8110   5.484   1.490   2.574
 2404SOL    HW1 8111   5.491   1.484   2.475
 2404SOL    HW2 8112   5.509   1.402   2.615
 2405SOL     OW 8113   3.469   3.866   4.799
 2405SOL    HW1 8114   3.549   3.807   4.798
 2405SOL    HW2 8115   3.497   3.960   4.818
 2406SOL     OW 8116   1.626   0.558   3.948
 2406SOL    HW1 8117   1.648   0.597   3.859
 2406SOL    HW2 8118   1.636   0.459   3.944
 2407SOL     OW 8119   4.925   2.555   2.920
 2407SOL    HW1 8120   4.880   2.468   2.940
 2407SOL    HW2 8121   4.938   2.565   2.821
 2408SOL     OW 8122   3.567   5.257   2.352
 2408SOL    HW1 8123   3.648   5.261   2.411
 2408SOL    HW2 8124   3.552   5.162   2.324
 2409SOL     OW 8125   1.710   3.094   2.000
 2409SOL    HW1 8126   1.704   3.117   1.903
 2409SOL    HW2 8127   1.744   3.173   2.051
 2410SOL     OW 8128   5.965   2.935   5.609
 2410SOL    HW1 8129   5.893   2.891   5.556
 2410SOL    HW2 8130   6.033   2.867   5.636
 2411SOL     OW 8131   4.180   4.939   5.657
 2411SOL    HW1 8132   4.215   5.016   5.710
 2411SOL    HW2 8133   4.088   4.915   5.690
 2412SOL     OW 8134   3.079   4.114   0.225
 2412SOL    HW1 8135   3.075   4.150   0.132
 2412SOL    HW2 8136   3.169   4.135   0.264
 2413SOL     OW 8137   6.848   3.017   6.884
 2413SOL    HW1 8138   6.932   2.993   6.835
 2413SOL    HW2 8139   6.810   3.101   6.846
 2414SOL     OW 8140   5.507   3.670   2.378
 2414SOL    HW1 8141   5.540   3.705   2.465
 2414SOL    HW2 8142   5.503   3.570   2.382
 2415SOL     OW 8143   0.754   0.198   0.854
 2415SOL    HW1 8144   0.669   0.242   0.882
 2415SOL    HW2 8145   0.736   0.129   0.785
 2416SOL     OW 8146   2.727   1.850   5.404
 2416SOL    HW1 8147   2.659   1.779   5.419
 2416SOL    HW2 8148   2.683   1.931   5.365
 2417SOL     OW 8149   4.443   2.777   0.489
 2417SOL    HW1 8150   4.475   2.735   0.574
 2417SOL    HW2 8151   4.478   2.870   0.483
 2418SOL     OW 8152   3.375   3.626   3.920
 2418SOL    HW1 8153   3.442   3.557   3.949
 2418SOL    HW2 8154   3.415   3.717   3.929
 2419SOL     OW 8155   0.479   6.333   3.939
 2419SOL    HW1 8156   0.469   6.242   3.980
 2419SOL    HW2 8157   0.393   6.383   3.948
 2420SOL     OW 8158   4.232   0.361   1.908
 2420SOL    HW1 8159   4.145   0.332   1.948
 2420SOL    HW2 8160   4.306   0.344   1.973
 2421SOL     OW 8161   2.437   0.817   4.719
 2421SOL    HW1 8162   2.443   0.724   4.685
 2421SOL    HW2 8163   2.498   0.828   4.798
 2422SOL     OW 8164   5.521   0.386   1.415
 2422SOL    HW1 8165   5.611   0.425   1.400
 2422SOL    HW2 8166   5.493   0.334   1.334
 2423SOL     OW 8167   1.318   6.311   3.383
 2423SOL    HW1 8168   1.279   6.293   3.293
 2423SOL    HW2 8169   1.245   6.330   3.449
 2424SOL     OW 8170   5.672   5.590   6.053
 2424SOL    HW1 8171   5.583   5.549   6.029
 2424SOL    HW2 8172   5.716   5.534   6.123
 2425SOL     OW 8173   6.278   0.309   4.281
 2425SOL    HW1 8174   6.242   0.216   4.292
 2425SOL    HW2 8175   6.362   0.305   4.226
 2426SOL     OW 8176   0.920   4.677   4.742
 2426SOL    HW1 8177   0.863   4.596   4.754
 2426SOL    HW2 8178   0.892   4.726   4.659
 2427SOL     OW 8179   6.492   5.648   0.169
 2427SOL    HW1 8180   6.429   5.626   0.094
 2427SOL    HW2 8181   6.571   5.697   0.132
 2428SOL     OW 8182   0.558   6.983   3.002
 2428SOL    HW1 8183   0.542   0.026   2.924
 2428SOL    HW2 8184   0.655   6.957   3.004
 2429SOL     OW 8185   6.467   5.450   3.716
 2429SOL    HW1 8186   6.510   5.450   3.626
 2429SOL    HW2 8187   6.448   5.544   3.744
 2430SOL     OW 8188   6.364   2.959   1.605
 2430SOL    HW1 8189   6.279   2.949   1.554
 2430SOL    HW2 8190   6.404   3.048   1.585
 2431SOL     OW 8191   4.185   6.838   1.653
 2431SOL    HW1 8192   4.226   6.894   1.581
 2431SOL    HW2 8193   4.242   6.759   1.671
 2432SOL     OW 8194   4.405   6.331   2.559
 2432SOL    HW1 8195   4.469   6.290   2.494
 2432SOL    HW2 8196   4.342   6.260   2.592
 2433SOL     OW 8197   2.877   6.666   0.973
 2433SOL    HW1 8198   2.967   6.692   1.007
 2433SOL    HW2 8199   2.851   6.577   1.010
 2434SOL     OW 8200   4.514   1.450   3.478
 2434SOL    HW1 8201   4.423   1.444   3.519
 2434SOL    HW2 8202   4.505   1.467   3.380
 2435SOL     OW 8203   4.775   5.596   6.042
 2435SOL    HW1 8204   4.759   5.614   6.140
 2435SOL    HW2 8205   4.692   5.557   6.002
 2436SOL     OW 8206   1.755   6.909   0.928
 2436SOL    HW1 8207   1.708   6.846   0.990
 2436SOL    HW2 8208   1.708   6.997   0.928
 2437SOL     OW 8209   4.967   5.316   0.547
 2437SOL    HW1 8210   4.994   5.223   0.574
 2437SOL    HW2 8211   4.868   5.325   0.551
 2438SOL     OW 8212   3.646   1.010   5.634
 2438SOL    HW1 8213   3.666   0.928   5.581
 2438SOL    HW2 8214   3.656   1.091   5.575
 2439SOL     OW 8215   1.440   4.087   6.925
 2439SOL    HW1 8216   1.384   4.013   6.889
 2439SOL    HW2 8217   1.391   4.174   6.916
 2440SOL     OW 8218   3.557   6.105   5.304
 2440SOL    HW1 8219   3.583   6.017   5.346
 2440SOL    HW2 8220   3.639   6.161   5.293
 2441SOL     OW 8221   6.422   1.194   6.745
 2441SOL    HW1 8222   6.473   1.207   6.829
 2441SOL    HW2 8223   6.416   1.280   6.695
 2442SOL     OW 8224   6.113   5.995   3.602
 2442SOL    HW1 8225   6.181   5.940   3.650
 2442SOL    HW2 8226   6.117   5.975   3.504
 2443SOL     OW 8227   3.300   0.171   6.442
 2443SOL    HW1 8228   3.202   0.182   6.457
 2443SOL    HW2 8229   3.336   0.100   6.503
 2444SOL     OW 8230   4.001   4.254   6.401
 2444SOL    HW1 8231   4.001   4.340   6.452
 2444SOL    HW2 8232   3.941   4.263   6.321
 2445SOL     OW 8233   6.720   1.167   2.656
 2445SOL    HW1 8234   6.628   1.138   2.684
 2445SOL    HW2 8235   6.784   1.150   2.730
 2446SOL     OW 8236   0.848   2.770   4.539
 2446SOL    HW1 8237   0.756   2.809   4.543
 2446SOL    HW2 8238   0.847   2.677   4.576
 2447SOL     OW 8239   2.579   1.053   0.736
 2447SOL    HW1 8240   2.668   1.033   0.776
 2447SOL    HW2 8241   2.535   0.968   0.707
 2448SOL     OW 8242   0.527   0.508   3.884
 2448SOL    HW1 8243   0.542   0.527   3.787
 2448SOL    HW2 8244   0.428   0.507   3.903
 2449SOL     OW 8245   6.712   4.370   3.023
 2449SOL    HW1 8246   6.666   4.458   3.029
 2449SOL    HW2 8247   6.790   4.377   2.961
 2450SOL     OW 8248   3.022   5.491   4.756
 2450SOL    HW1 8249   2.979   5.483   4.846
 2450SOL    HW2 8250   3.109   5.541   4.766
 2451SOL     OW 8251   0.676   0.194   3.664
 2451SOL    HW1 8252   0.772   0.201   3.692
 2451SOL    HW2 8253   0.671   0.156   3.572
 2452SOL     OW 8254   2.912   2.286   3.156
 2452SOL    HW1 8255   2.983   2.261   3.091
 2452SOL    HW2 8256   2.925   2.235   3.241
 2453SOL     OW 8257   6.659   3.304   0.579
 2453SOL    HW1 8258   6.693   3.224   0.629
 2453SOL    HW2 8259   6.582   3.344   0.629
 2454SOL     OW 8260   3.103   0.681   0.087
 2454SOL    HW1 8261   3.051   0.682   0.172
 2454SOL    HW2 8262   3.154   0.766   0.078
 2455SOL     OW 8263   4.971   1.087   1.423
 2455SOL    HW1 8264   5.027   1.164   1.390
 2455SOL    HW2 8265   4.877   1.118   1.437
 2456SOL     OW 8266   5.721   1.626   0.082
 2456SOL    HW1 8267   5.648   1.558   0.080
 2456SOL    HW2 8268   5.721   1.673   0.171
 2457SOL     OW 8269   6.531   6.105   6.371
 2457SOL    HW1 8270   6.589   6.183   6.393
 2457SOL    HW2 8271   6.439   6.137   6.349
 2458SOL     OW 8272   2.375   6.058   3.949
 2458SOL    HW1 8273   2.394   6.039   3.852
 2458SOL    HW2 8274   2.437   6.129   3.982
 2459SOL     OW 8275   2.624   6.034   6.209
 2459SOL    HW1 8276   2.559   5.958   6.213
 2459SOL    HW2 8277   2.575   6.121   6.203
 2460SOL     OW 8278   1.685   1.634   1.733
 2460SOL    HW1 8279   1.663   1.662   1.640
 2460SOL    HW2 8280   1.734   1.707   1.779
 2461SOL     OW 8281   4.767   6.879   3.008
 2461SOL    HW1 8282   4.745   6.782   2.994
 2461SOL    HW2 8283   4.682   6.930   3.024
 2462SOL     OW 8284   2.052   5.612   0.660
 2462SOL    HW1 8285   2.051   5.684   0.590
 2462SOL    HW2 8286   2.039   5.653   0.750
 2463SOL     OW 8287   6.640   2.615   4.828
 2463SOL    HW1 8288   6.650   2.687   4.896
 2463SOL    HW2 8289   6.703   2.632   4.752
 2464SOL     OW 8290   1.704   3.875   1.796
 2464SOL    HW1 8291   1.641   3.882   1.873
 2464SOL    HW2 8292   1.667   3.810   1.729
 2465SOL     OW 8293   1.066   0.777   1.939
 2465SOL    HW1 8294   0.998   0.840   1.900
 2465SOL    HW2 8295   1.042   0.683   1.913
 2466SOL     OW 8296   2.833   1.788   2.588
 2466SOL    HW1 8297   2.747   1.747   2.619
 2466SOL    HW2 8298   2.827   1.808   2.490
 2467SOL     OW 8299   5.139   1.445   4.695
 2467SOL    HW1 8300   5.076   1.520   4.711
 2467SOL    HW2 8301   5.223   1.479   4.653
 2468SOL     OW 8302   5.318   6.254   1.654
 2468SOL    HW1 8303   5.373   6.170   1.652
 2468SOL    HW2 8304   5.229   6.234   1.695
 2469SOL     OW 8305   4.245   4.090   5.306
 2469SOL    HW1 8306   4.175   4.113   5.374
 2469SOL    HW2 8307   4.309   4.166   5.298
 2470SOL     OW 8308   3.673   4.645   5.732
 2470SOL    HW1 8309   3.639   4.689   5.816
 2470SOL    HW2 8310   3.697   4.550   5.752
 2471SOL     OW 8311   2.710   5.767   0.911
 2471SOL    HW1 8312   2.653   5.719   0.844
 2471SOL    HW2 8313   2.704   5.721   0.999
 2472SOL     OW 8314   5.035   2.301   3.997
 2472SOL    HW1 8315   4.957   2.269   4.050
 2472SOL    HW2 8316   5.103   2.228   3.989
 2473SOL     OW 8317   2.192   4.261   5.132
 2473SOL    HW1 8318   2.249   4.270   5.214
 2473SOL    HW2 8319   2.218   4.177   5.084
 2474SOL     OW 8320   0.577   5.924   0.208
 2474SOL    HW1 8321   0.496   5.982   0.208
 2474SOL    HW2 8322   0.653   5.973   0.165
 2475SOL     OW 8323   5.334   1.104   1.291
 2475SOL    HW1 8324   5.262   1.173   1.301
 2475SOL    HW2 8325   5.327   1.037   1.365
 2476SOL     OW 8326   0.335   2.169   3.603
 2476SOL    HW1 8327   0.408   2.214   3.656
 2476SOL    HW2 8328   0.320   2.219   3.518
 2477SOL     OW 8329   4.722   1.711   2.454
 2477SOL    HW1 8330   4.627   1.716   2.423
 2477SOL    HW2 8331   4.755   1.618   2.446
 2478SOL     OW 8332   6.046   1.061   1.836
 2478SOL    HW1 8333   6.038   0.968   1.802
 2478SOL    HW2 8334   6.112   1.112   1.779
 2479SOL     OW 8335   1.198   3.772   1.223
 2479SOL    HW1 8336   1.264   3.738   1.156
 2479SOL    HW2 8337   1.150   3.695   1.264
 2480SOL     OW 8338   6.257   3.891   1.039
 2480SOL    HW1 8339   6.161   3.883   1.011
 2480SOL    HW2 8340   6.292   3.801   1.065
 2481SOL     OW 8341   3.026   1.078   0.162
 2481SOL    HW1 8342   3.027   1.153   0.228
 2481SOL    HW2 8343   2.963   1.100   0.088
 2482SOL     OW 8344   4.525   3.432   5.841
 2482SOL    HW1 8345   4.591   3.382   5.897
 2482SOL    HW2 8346   4.456   3.368   5.806
 2483SOL     OW 8347   2.129   2.163   0.072
 2483SOL    HW1 8348   2.069   2.121   0.004
 2483SOL    HW2 8349   2.073   2.199   0.147
 2484SOL     OW 8350   2.259   0.493   0.034
 2484SOL    HW1 8351   2.291   0.411   0.082
 2484SOL    HW2 8352   2.315   0.508   6.971
 2485SOL     OW 8353   5.367   3.710   2.068
 2485SOL    HW1 8354   5.412   3.783   2.120
 2485SOL    HW2 8355   5.274   3.697   2.102
 2486SOL     OW 8356   2.723   5.173   4.013
 2486SOL    HW1 8357   2.765   5.210   3.929
 2486SOL    HW2 8358   2.688   5.082   3.994
 2487SOL     OW 8359   3.822   5.936   0.297
 2487SOL    HW1 8360   3.787   5.979   0.214
 2487SOL    HW2 8361   3.771   5.852   0.315
 2488SOL     OW 8362   1.755   4.601   2.048
 2488SOL    HW1 8363   1.736   4.599   1.950
 2488SOL    HW2 8364   1.752   4.696   2.080
 2489SOL     OW 8365   1.955   5.766   3.271
 2489SOL    HW1 8366   1.992   5.805   3.355
 2489SOL    HW2 8367   1.868   5.811   3.249
 2490SOL     OW 8368   6.491   5.350   1.284
 2490SOL    HW1 8369   6.524   5.275   1.342
 2490SOL    HW2 8370   6.405   5.322   1.241
 2491SOL     OW 8371   2.852   5.499   1.325
 2491SOL    HW1 8372   2.848   5.402   1.346
 2491SOL    HW2 8373   2.944   5.534   1.345
 2492SOL     OW 8374   4.758   2.794   6.874
 2492SOL    HW1 8375   4.796   2.876   6.917
 2492SOL    HW2 8376   4.739   2.813   6.777
 2493SOL     OW 8377   6.137   0.368   2.521
 2493SOL    HW1 8378   6.183   0.289   2.562
 2493SOL    HW2 8379   6.120   0.437   2.592
 2494SOL     OW 8380   5.970   4.036   2.538
 2494SOL    HW1 8381   6.001   4.075   2.451
 2494SOL    HW2 8382   5.878   4.000   2.527
 2495SOL     OW 8383   5.190   0.835   4.956
 2495SOL    HW1 8384   5.178   0.878   4.867
 2495SOL    HW2 8385   5.178   0.736   4.947
 2496SOL     OW 8386   0.391   4.127   6.253
 2496SOL    HW1 8387   0.407   4.208   6.308
 2496SOL    HW2 8388   0.444   4.133   6.168
 2497SOL     OW 8389   0.018   1.492   1.245
 2497SOL    HW1 8390   0.042   1.425   1.314
 2497SOL    HW2 8391   6.939   1.515   1.251
 2498SOL     OW 8392   3.333   2.070   3.728
 2498SOL    HW1 8393   3.389   1.990   3.707
 2498SOL    HW2 8394   3.348   2.098   3.823
 2499SOL     OW 8395   5.053   2.391   4.393
 2499SOL    HW1 8396   5.043   2.362   4.488
 2499SOL    HW2 8397   5.035   2.314   4.332
 2500SOL     OW 8398   4.423   2.763   6.070
 2500SOL    HW1 8399   4.462   2.788   6.158
 2500SOL    HW2 8400   4.457   2.825   5.999
 2501SOL     OW 8401   6.612   5.950   6.844
 2501SOL    HW1 8402   6.563   5.900   6.915
 2501SOL    HW2 8403   6.638   5.888   6.771
 2502SOL     OW 8404   2.254   5.885   3.229
 2502SOL    HW1 8405   2.166   5.841   3.208
 2502SOL    HW2 8406   2.244   5.984   3.226
 2503SOL     OW 8407   3.383   5.123   5.294
 2503SOL    HW1 8408   3.373   5.221   5.278
 2503SOL    HW2 8409   3.305   5.074   5.254
 2504SOL     OW 8410   3.009   5.194   5.536
 2504SOL    HW1 8411   2.935   5.231   5.479
 2504SOL    HW2 8412   2.995   5.096   5.548
 2505SOL     OW 8413   1.777   6.135   4.328
 2505SOL    HW1 8414   1.747   6.162   4.237
 2505SOL    HW2 8415   1.705   6.154   4.394
 2506SOL     OW 8416   5.944   3.422   6.605
 2506SOL    HW1 8417   5.908   3.332   6.627
 2506SOL    HW2 8418   5.886   3.464   6.535
 2507SOL     OW 8419   0.585   4.179   0.368
 2507SOL    HW1 8420   0.660   4.146   0.426
 2507SOL    HW2 8421   0.598   4.277   0.350
 2508SOL     OW 8422   2.876   1.170   2.553
 2508SOL    HW1 8423   2.845   1.244   2.493
 2508SOL    HW2 8424   2.942   1.113   2.505
 2509SOL     OW 8425   6.064   2.518   2.641
 2509SOL    HW1 8426   6.003   2.532   2.719
 2509SOL    HW2 8427   6.108   2.604   2.617
 2510SOL     OW 8428   3.547   4.084   1.402
 2510SOL    HW1 8429   3.615   4.134   1.348
 2510SOL    HW2 8430   3.511   4.008   1.348
 2511SOL     OW 8431   2.374   1.532   4.056
 2511SOL    HW1 8432   2.287   1.513   4.011
 2511SOL    HW2 8433   2.364   1.519   4.155
 2512SOL     OW 8434   4.776   5.265   5.234
 2512SOL    HW1 8435   4.809   5.359   5.236
 2512SOL    HW2 8436   4.776   5.231   5.140
 2513SOL     OW 8437   1.229   3.231   5.256
 2513SOL    HW1 8438   1.326   3.236   5.230
 2513SOL    HW2 8439   1.209   3.302   5.324
 2514SOL     OW 8440   6.162   4.477   4.473
 2514SOL    HW1 8441   6.074   4.522   4.483
 2514SOL    HW2 8442   6.194   4.488   4.379
 2515SOL     OW 8443   1.486   0.046   0.246
 2515SOL    HW1 8444   1.388   0.058   0.231
 2515SOL    HW2 8445   1.501   0.011   0.339
 2516SOL     OW 8446   5.758   0.030   3.596
 2516SOL    HW1 8447   5.781   0.094   3.669
 2516SOL    HW2 8448   5.683   0.066   3.541
 2517SOL     OW 8449   1.577   5.731   5.811
 2517SOL    HW1 8450   1.515   5.755   5.886
 2517SOL    HW2 8451   1.663   5.782   5.822
 2518SOL     OW 8452   2.615   3.500   6.920
 2518SOL    HW1 8453   2.519   3.510   6.946
 2518SOL    HW2 8454   2.652   3.418   6.964
 2519SOL     OW 8455   4.536   5.837   4.015
 2519SOL    HW1 8456   4.555   5.759   3.954
 2519SOL    HW2 8457   4.470   5.809   4.084
 2520SOL     OW 8458   1.197   2.916   0.542
 2520SOL    HW1 8459   1.275   2.862   0.510
 2520SOL    HW2 8460   1.134   2.858   0.593
 2521SOL     OW 8461   1.012   6.396   5.622
 2521SOL    HW1 8462   1.018   6.410   5.721
 2521SOL    HW2 8463   1.104   6.396   5.583
 2522SOL     OW 8464   0.189   3.284   5.455
 2522SOL    HW1 8465   0.239   3.228   5.389
 2522SOL    HW2 8466   0.164   3.229   5.535
 2523SOL     OW 8467   0.185   3.232   1.428
 2523SOL    HW1 8468   0.099   3.187   1.404
 2523SOL    HW2 8469   0.174   3.281   1.515
 2524SOL     OW 8470   0.427   5.841   4.488
 2524SOL    HW1 8471   0.417   5.938   4.508
 2524SOL    HW2 8472   0.450   5.830   4.391
 2525SOL     OW 8473   1.290   2.310   4.356
 2525SOL    HW1 8474   1.363   2.376   4.338
 2525SOL    HW2 8475   1.209   2.357   4.390
 2526SOL     OW 8476   1.821   3.844   5.828
 2526SOL    HW1 8477   1.806   3.914   5.758
 2526SOL    HW2 8478   1.883   3.880   5.899
 2527SOL     OW 8479   5.036   6.722   5.238
 2527SOL    HW1 8480   5.063   6.672   5.320
 2527SOL    HW2 8481   5.024   6.819   5.261
 2528SOL     OW 8482   6.316   4.564   0.887
 2528SOL    HW1 8483   6.351   4.626   0.816
 2528SOL    HW2 8484   6.373   4.571   0.968
 2529SOL     OW 8485   6.689   5.431   6.118
 2529SOL    HW1 8486   6.731   5.438   6.209
 2529SOL    HW2 8487   6.613   5.496   6.112
 2530SOL     OW 8488   1.201   6.324   4.635
 2530SOL    HW1 8489   1.107   6.289   4.634
 2530SOL    HW2 8490   1.217   6.377   4.551
 2531SOL     OW 8491   5.579   5.804   4.126
 2531SOL    HW1 8492   5.574   5.728   4.061
 2531SOL    HW2 8493   5.494   5.807   4.180
 2532SOL     OW 8494   0.857   6.035   0.841
 2532SOL    HW1 8495   0.805   6.002   0.763
 2532SOL    HW2 8496   0.945   5.987   0.846
 2533SOL     OW 8497   4.652   6.534   3.586
 2533SOL    HW1 8498   4.624   6.626   3.559
 2533SOL    HW2 8499   4.747   6.536   3.618
 2534SOL     OW 8500   2.311   0.128   3.120
 2534SOL    HW1 8501   2.404   0.127   3.158
 2534SOL    HW2 8502   2.301   0.052   3.056
 2535SOL     OW 8503   2.693   2.960   6.411
 2535SOL    HW1 8504   2.646   2.872   6.402
 2535SOL    HW2 8505   2.722   2.972   6.506
 2536SOL     OW 8506   0.197   2.484   3.596
 2536SOL    HW1 8507   0.169   2.443   3.682
 2536SOL    HW2 8508   0.163   2.429   3.520
 2537SOL     OW 8509   5.515   0.034   6.383
 2537SOL    HW1 8510   5.558   0.007   6.297
 2537SOL    HW2 8511   5.584   0.069   6.446
 2538SOL     OW 8512   1.594   4.404   4.716
 2538SOL    HW1 8513   1.664   4.424   4.648
 2538SOL    HW2 8514   1.588   4.305   4.730
 2539SOL     OW 8515   4.404   0.126   5.559
 2539SOL    HW1 8516   4.378   0.030   5.546
 2539SOL    HW2 8517   4.431   0.165   5.471
 2540SOL     OW 8518   4.792   1.229   1.786
 2540SOL    HW1 8519   4.697   1.199   1.799
 2540SOL    HW2 8520   4.793   1.327   1.768
 2541SOL     OW 8521   1.480   0.059   5.355
 2541SOL    HW1 8522   1.466   0.144   5.305
 2541SOL    HW2 8523   1.456   0.072   5.451
 2542SOL     OW 8524   4.274   1.857   5.605
 2542SOL    HW1 8525   4.320   1.793   5.543
 2542SOL    HW2 8526   4.260   1.812   5.694
 2543SOL     OW 8527   1.764   1.137   3.108
 2543SOL    HW1 8528   1.831   1.141   3.035
 2543SOL    HW2 8529   1.761   1.225   3.156
 2544SOL     OW 8530   0.290   5.328   2.419
 2544SOL    HW1 8531   0.273   5.386   2.339
 2544SOL    HW2 8532   0.356   5.373   2.480
 2545SOL     OW 8533   1.856   0.435   0.759
 2545SOL    HW1 8534   1.868   0.408   0.854
 2545SOL    HW2 8535   1.896   0.366   0.699
 2546SOL     OW 8536   0.021   2.642   2.293
 2546SOL    HW1 8537   7.001   2.621   2.203
 2546SOL    HW2 8538   6.965   2.664   2.356
 2547SOL     OW 8539   5.888   5.686   0.014
 2547SOL    HW1 8540   5.819   5.648   0.075
 2547SOL    HW2 8541   5.978   5.651   0.039
 2548SOL     OW 8542   2.822   6.544   5.117
 2548SOL    HW1 8543   2.799   6.581   5.207
 2548SOL    HW2 8544   2.896   6.598   5.076
 2549SOL     OW 8545   2.029   1.921   1.335
 2549SOL    HW1 8546   2.101   1.859   1.366
 2549SOL    HW2 8547   1.987   1.883   1.252
 2550SOL     OW 8548   6.232   0.602   6.732
 2550SOL    HW1 8549   6.146   0.622   6.685
 2550SOL    HW2 8550   6.229   0.510   6.770
 2551SOL     OW 8551   2.793   5.375   0.140
 2551SOL    HW1 8552   2.762   5.371   0.235
 2551SOL    HW2 8553   2.873   5.435   0.134
 2552SOL     OW 8554   1.053   5.875   5.524
 2552SOL    HW1 8555   1.148   5.901   5.538
 2552SOL    HW2 8556   1.039   5.848   5.428
 2553SOL     OW 8557   2.897   3.597   0.114
 2553SOL    HW1 8558   2.812   3.645   0.092
 2553SOL    HW2 8559   2.969   3.663   0.133
 2554SOL     OW 8560   1.842   5.797   6.500
 2554SOL    HW1 8561   1.849   5.884   6.451
 2554SOL    HW2 8562   1.929   5.748   6.494
 2555SOL     OW 8563   5.999   6.077   5.710
 2555SOL    HW1 8564   6.042   6.037   5.629
 2555SOL    HW2 8565   6.052   6.054   5.791
 2556SOL     OW 8566   4.081   6.052   0.817
 2556SOL    HW1 8567   4.163   6.108   0.831
 2556SOL    HW2 8568   4.003   6.112   0.800
 2557SOL     OW 8569   1.955   2.295   6.709
 2557SOL    HW1 8570   2.009   2.374   6.736
 2557SOL    HW2 8571   1.988   2.260   6.621
 2558SOL     OW 8572   3.787   3.463   6.244
 2558SOL    HW1 8573   3.720   3.509   6.303
 2558SOL    HW2 8574   3.739   3.414   6.172
 2559SOL     OW 8575   6.460   2.838   4.469
 2559SOL    HW1 8576   6.505   2.759   4.428
 2559SOL    HW2 8577   6.493   2.851   4.562
 2560SOL     OW 8578   5.242   3.221   4.113
 2560SOL    HW1 8579   5.223   3.312   4.077
 2560SOL    HW2 8580   5.167   3.159   4.091
 2561SOL     OW 8581   3.964   0.202   3.541
 2561SOL    HW1 8582   4.006   0.227   3.454
 2561SOL    HW2 8583   3.912   0.118   3.530
 2562SOL     OW 8584   2.295   5.403   2.317
 2562SOL    HW1 8585   2.275   5.332   2.249
 2562SOL    HW2 8586   2.328   5.485   2.270
 2563SOL     OW 8587   3.970   1.651   6.654
 2563SOL    HW1 8588   4.018   1.737   6.674
 2563SOL    HW2 8589   3.872   1.668   6.649
 2564SOL     OW 8590   1.446   0.269   6.186
 2564SOL    HW1 8591   1.498   0.335   6.132
 2564SOL    HW2 8592   1.507   0.196   6.218
 2565SOL     OW 8593   7.007   0.613   0.853
 2565SOL    HW1 8594   0.045   0.688   0.889
 2565SOL    HW2 8595   6.952   0.647   0.776
 2566SOL     OW 8596   1.407   0.171   0.731
 2566SOL    HW1 8597   1.345   0.248   0.741
 2566SOL    HW2 8598   1.354   0.088   0.713
 2567SOL     OW 8599   1.130   1.792   2.362
 2567SOL    HW1 8600   1.214   1.847   2.371
 2567SOL    HW2 8601   1.079   1.821   2.282
 2568SOL     OW 8602   2.610   1.038   6.832
 2568SOL    HW1 8603   2.688   0.984   6.801
 2568SOL    HW2 8604   2.527   0.982   6.829
 2569SOL     OW 8605   2.886   1.122   2.065
 2569SOL    HW1 8606   2.829   1.062   2.121
 2569SOL    HW2 8607   2.830   1.193   2.023
 2570SOL     OW 8608   5.844   0.849   6.316
 2570SOL    HW1 8609   5.855   0.860   6.415
 2570SOL    HW2 8610   5.795   0.929   6.280
 2571SOL     OW 8611   2.821   3.500   5.360
 2571SOL    HW1 8612   2.912   3.484   5.323
 2571SOL    HW2 8613   2.794   3.423   5.418
 2572SOL     OW 8614   1.895   6.550   1.486
 2572SOL    HW1 8615   1.935   6.633   1.447
 2572SOL    HW2 8616   1.961   6.475   1.483
 2573SOL     OW 8617   6.312   1.507   2.649
 2573SOL    HW1 8618   6.277   1.575   2.713
 2573SOL    HW2 8619   6.248   1.497   2.572
 2574SOL     OW 8620   0.065   2.657   0.534
 2574SOL    HW1 8621   0.061   2.659   0.434
 2574SOL    HW2 8622   0.033   2.744   0.571
 2575SOL     OW 8623   5.306   4.127   0.222
 2575SOL    HW1 8624   5.209   4.110   0.205
 2575SOL    HW2 8625   5.357   4.117   0.136
 2576SOL     OW 8626   3.867   6.974   3.507
 2576SOL    HW1 8627   3.835   6.951   3.598
 2576SOL    HW2 8628   3.833   6.907   3.441
 2577SOL     OW 8629   4.883   6.516   2.660
 2577SOL    HW1 8630   4.820   6.593   2.652
 2577SOL    HW2 8631   4.921   6.494   2.570
 2578SOL     OW 8632   4.557   2.682   5.237
 2578SOL    HW1 8633   4.608   2.766   5.257
 2578SOL    HW2 8634   4.461   2.695   5.263
 2579SOL     OW 8635   1.008   1.126   3.693
 2579SOL    HW1 8636   0.991   1.050   3.756
 2579SOL    HW2 8637   0.929   1.137   3.633
 2580SOL     OW 8638   2.185   2.820   6.951
 2580SOL    HW1 8639   2.110   2.765   6.914
 2580SOL    HW2 8640   2.148   2.901   6.996
 2581SOL     OW 8641   6.228   4.502   1.893
 2581SOL    HW1 8642   6.273   4.527   1.979
 2581SOL    HW2 8643   6.286   4.527   1.816
 2582SOL     OW 8644   1.189   4.296   2.266
 2582SOL    HW1 8645   1.174   4.347   2.181
 2582SOL    HW2 8646   1.277   4.250   2.262
 2583SOL     OW 8647   0.723   1.554   1.195
 2583SOL    HW1 8648   0.800   1.616   1.182
 2583SOL    HW2 8649   0.691   1.522   1.106
 2584SOL     OW 8650   4.101   5.845   0.624
 2584SOL    HW1 8651   4.118   5.904   0.703
 2584SOL    HW2 8652   4.045   5.895   0.557
 2585SOL     OW 8653   3.742   0.939   0.112
 2585SOL    HW1 8654   3.764   1.030   0.147
 2585SOL    HW2 8655   3.761   0.936   0.014
 2586SOL     OW 8656   4.151   2.019   3.298
 2586SOL    HW1 8657   4.175   2.081   3.373
 2586SOL    HW2 8658   4.057   2.037   3.269
 2587SOL     OW 8659   6.449   0.430   4.060
 2587SOL    HW1 8660   6.410   0.495   4.125
 2587SOL    HW2 8661   6.534   0.394   4.097
 2588SOL     OW 8662   4.609   0.193   0.039
 2588SOL    HW1 8663   4.623   0.094   0.038
 2588SOL    HW2 8664   4.631   0.229   0.130
 2589SOL     OW 8665   0.333   5.834   5.232
 2589SOL    HW1 8666   0.237   5.862   5.236
 2589SOL    HW2 8667   0.383   5.877   5.307
 2590SOL     OW 8668   3.217   6.189   2.001
 2590SOL    HW1 8669   3.291   6.125   2.018
 2590SOL    HW2 8670   3.129   6.142   2.007
 2591SOL     OW 8671   6.573   6.058   2.242
 2591SOL    HW1 8672   6.555   6.098   2.332
 2591SOL    HW2 8673   6.577   5.959   2.249
 2592SOL     OW 8674   2.547   6.672   1.512
 2592SOL    HW1 8675   2.611   6.730   1.462
 2592SOL    HW2 8676   2.579   6.578   1.510
 2593SOL     OW 8677   2.621   6.406   1.493
 2593SOL    HW1 8678   2.536   6.415   1.545
 2593SOL    HW2 8679   2.699   6.405   1.556
 2594SOL     OW 8680   0.221   5.910   6.011
 2594SOL    HW1 8681   0.246   5.816   6.031
 2594SOL    HW2 8682   0.277   5.944   5.935
 2595SOL     OW 8683   6.122   1.164   5.216
 2595SOL    HW1 8684   6.134   1.081   5.162
 2595SOL    HW2 8685   6.157   1.243   5.164
 2596SOL     OW 8686   3.857   2.020   1.958
 2596SOL    HW1 8687   3.915   2.028   1.877
 2596SOL    HW2 8688   3.786   2.091   1.954
 2597SOL     OW 8689   2.003   3.978   6.724
 2597SOL    HW1 8690   2.099   3.961   6.748
 2597SOL    HW2 8691   1.979   3.924   6.644
 2598SOL     OW 8692   6.095   0.970   4.306
 2598SOL    HW1 8693   6.190   0.949   4.283
 2598SOL    HW2 8694   6.086   0.980   4.405
 2599SOL     OW 8695   3.001   0.279   0.613
 2599SOL    HW1 8696   2.915   0.234   0.588
 2599SOL    HW2 8697   3.072   0.211   0.625
 2600SOL     OW 8698   4.958   3.389   4.654
 2600SOL    HW1 8699   4.924   3.362   4.564
 2600SOL    HW2 8700   4.929   3.483   4.674
 2601SOL     OW 8701   2.571   1.621   6.595
 2601SOL    HW1 8702   2.534   1.540   6.550
 2601SOL    HW2 8703   2.570   1.608   6.694
 2602SOL     OW 8704   0.098   4.636   3.745
 2602SOL    HW1 8705   0.160   4.562   3.770
 2602SOL    HW2 8706   0.135   4.723   3.777
 2603SOL     OW 8707   2.244   1.775   2.626
 2603SOL    HW1 8708   2.211   1.682   2.644
 2603SOL    HW2 8709   2.224   1.800   2.531
 2604SOL     OW 8710   5.079   1.155   2.955
 2604SOL    HW1 8711   4.989   1.121   2.928
 2604SOL    HW2 8712   5.123   1.089   3.015
 2605SOL     OW 8713   2.657   4.670   2.788
 2605SOL    HW1 8714   2.580   4.728   2.763
 2605SOL    HW2 8715   2.664   4.666   2.888
 2606SOL     OW 8716   6.989   4.853   0.991
 2606SOL    HW1 8717   0.066   4.878   0.972
 2606SOL    HW2 8718   6.979   4.753   0.986
 2607SOL     OW 8719   0.436   1.369   5.870
 2607SOL    HW1 8720   0.457   1.274   5.893
 2607SOL    HW2 8721   0.390   1.372   5.782
 2608SOL     OW 8722   4.302   5.324   2.293
 2608SOL    HW1 8723   4.241   5.403   2.297
 2608SOL    HW2 8724   4.373   5.333   2.363
 2609SOL     OW 8725   0.598   1.804   2.098
 2609SOL    HW1 8726   0.692   1.806   2.064
 2609SOL    HW2 8727   0.556   1.894   2.084
 2610SOL     OW 8728   6.970   4.665   4.479
 2610SOL    HW1 8729   6.921   4.584   4.447
 2610SOL    HW2 8730   0.050   4.647   4.480
 2611SOL     OW 8731   4.520   5.825   1.282
 2611SOL    HW1 8732   4.617   5.806   1.297
 2611SOL    HW2 8733   4.493   5.904   1.338
 2612SOL     OW 8734   6.495   6.375   5.829
 2612SOL    HW1 8735   6.494   6.407   5.923
 2612SOL    HW2 8736   6.427   6.426   5.776
 2613SOL     OW 8737   2.767   6.263   0.822
 2613SOL    HW1 8738   2.726   6.172   0.816
 2613SOL    HW2 8739   2.745   6.315   0.739
 2614SOL     OW 8740   6.494   0.773   6.317
 2614SOL    HW1 8741   6.548   0.781   6.233
 2614SOL    HW2 8742   6.398   0.795   6.297
 2615SOL     OW 8743   6.277   3.708   3.646
 2615SOL    HW1 8744   6.274   3.628   3.705
 2615SOL    HW2 8745   6.372   3.735   3.630
 2616SOL     OW 8746   3.758   3.298   4.371
 2616SOL    HW1 8747   3.732   3.303   4.467
 2616SOL    HW2 8748   3.854   3.270   4.364
 2617SOL     OW 8749   3.797   6.934   0.779
 2617SOL    HW1 8750   3.710   6.972   0.747
 2617SOL    HW2 8751   3.856   7.009   0.810
 2618SOL     OW 8752   0.306   0.033   4.568
 2618SOL    HW1 8753   0.291   6.952   4.565
 2618SOL    HW2 8754   0.272   0.074   4.483
 2619SOL     OW 8755   4.107   1.344   3.170
 2619SOL    HW1 8756   4.093   1.256   3.215
 2619SOL    HW2 8757   4.047   1.350   3.090
 2620SOL     OW 8758   0.388   6.157   2.840
 2620SOL    HW1 8759   0.370   6.072   2.888
 2620SOL    HW2 8760   0.454   6.212   2.891
 2621SOL     OW 8761   1.574   5.872   2.224
 2621SOL    HW1 8762   1.627   5.787   2.218
 2621SOL    HW2 8763   1.637   5.950   2.227
 2622SOL     OW 8764   2.016   2.401   6.098
 2622SOL    HW1 8765   1.957   2.416   6.019
 2622SOL    HW2 8766   2.076   2.480   6.110
 2623SOL     OW 8767   2.484   1.387   5.525
 2623SOL    HW1 8768   2.441   1.371   5.437
 2623SOL    HW2 8769   2.577   1.352   5.524
 2624SOL     OW 8770   6.284   2.442   5.090
 2624SOL    HW1 8771   6.308   2.385   5.011
 2624SOL    HW2 8772   6.184   2.448   5.098
 2625SOL     OW 8773   2.424   1.660   5.852
 2625SOL    HW1 8774   2.421   1.692   5.947
 2625SOL    HW2 8775   2.446   1.562   5.851
 2626SOL     OW 8776   0.130   0.658   5.443
 2626SOL    HW1 8777   0.172   0.665   5.353
 2626SOL    HW2 8778   0.066   0.581   5.444
 2627SOL     OW 8779   1.118   1.175   5.106
 2627SOL    HW1 8780   1.129   1.191   5.204
 2627SOL    HW2 8781   1.021   1.177   5.082
 2628SOL     OW 8782   1.939   4.709   6.020
 2628SOL    HW1 8783   2.005   4.784   6.016
 2628SOL    HW2 8784   1.848   4.745   6.039
 2629SOL     OW 8785   3.053   3.955   1.770
 2629SOL    HW1 8786   3.025   4.049   1.752
 2629SOL    HW2 8787   2.997   3.917   1.844
 2630SOL     OW 8788   3.323   1.602   3.545
 2630SOL    HW1 8789   3.240   1.574   3.496
 2630SOL    HW2 8790   3.351   1.528   3.605
 2631SOL     OW 8791   5.286   0.546   4.855
 2631SOL    HW1 8792   5.341   0.609   4.800
 2631SOL    HW2 8793   5.343   0.510   4.930
 2632SOL     OW 8794   2.726   2.243   6.452
 2632SOL    HW1 8795   2.649   2.251   6.514
 2632SOL    HW2 8796   2.767   2.152   6.460
 2633SOL     OW 8797   6.547   1.388   4.974
 2633SOL    HW1 8798   6.627   1.416   4.921
 2633SOL    HW2 8799   6.572   1.376   5.069
 2634SOL     OW 8800   1.297   3.936   3.114
 2634SOL    HW1 8801   1.284   3.928   3.015
 2634SOL    HW2 8802   1.289   3.846   3.156
 2635SOL     OW 8803   6.262   6.166   5.223
 2635SOL    HW1 8804   6.322   6.246   5.227
 2635SOL    HW2 8805   6.168   6.193   5.243
 2636SOL     OW 8806   4.734   0.409   5.497
 2636SOL    HW1 8807   4.774   0.439   5.410
 2636SOL    HW2 8808   4.806   0.378   5.558
 2637SOL     OW 8809   5.568   1.488   3.321
 2637SOL    HW1 8810   5.496   1.556   3.305
 2637SOL    HW2 8811   5.550   1.441   3.408
 2638SOL     OW 8812   6.668   0.406   3.155
 2638SOL    HW1 8813   6.602   0.480   3.149
 2638SOL    HW2 8814   6.625   0.325   3.194
 2639SOL     OW 8815   0.949   0.187   1.830
 2639SOL    HW1 8816   0.925   0.234   1.914
 2639SOL    HW2 8817   0.943   0.250   1.753
 2640SOL     OW 8818   6.924   6.039   4.577
 2640SOL    HW1 8819   6.970   5.954   4.551
 2640SOL    HW2 8820   6.980   6.117   4.549
 2641SOL     OW 8821   4.936   3.063   2.121
 2641SOL    HW1 8822   4.855   3.039   2.068
 2641SOL    HW2 8823   4.919   3.048   2.218
 2642SOL     OW 8824   4.116   6.797   4.480
 2642SOL    HW1 8825   4.119   6.749   4.392
 2642SOL    HW2 8826   4.208   6.829   4.504
 2643SOL     OW 8827   0.098   3.732   2.646
 2643SOL    HW1 8828   0.149   3.750   2.730
 2643SOL    HW2 8829   0.161   3.721   2.570
 2644SOL     OW 8830   6.081   5.705   6.068
 2644SOL    HW1 8831   6.044   5.657   6.147
 2644SOL    HW2 8832   6.008   5.725   6.003
 2645SOL     OW 8833   4.522   5.672   4.687
 2645SOL    HW1 8834   4.483   5.727   4.614
 2645SOL    HW2 8835   4.450   5.615   4.728
 2646SOL     OW 8836   5.959   0.661   6.892
 2646SOL    HW1 8837   6.053   0.653   6.858
 2646SOL    HW2 8838   5.949   0.747   6.942
 2647SOL     OW 8839   6.416   0.871   1.765
 2647SOL    HW1 8840   6.445   0.938   1.832
 2647SOL    HW2 8841   6.343   0.814   1.803
 2648SOL     OW 8842   0.453   6.798   4.196
 2648SOL    HW1 8843   0.376   6.735   4.206
 2648SOL    HW2 8844   0.432   6.884   4.243
 2649SOL     OW 8845   5.868   3.136   6.645
 2649SOL    HW1 8846   5.888   3.061   6.582
 2649SOL    HW2 8847   5.797   3.107   6.710
 2650SOL     OW 8848   0.731   4.025   4.259
 2650SOL    HW1 8849   0.788   3.997   4.183
 2650SOL    HW2 8850   0.787   4.070   4.329
 2651SOL     OW 8851   0.677   1.498   0.079
 2651SOL    HW1 8852   0.644   1.582   0.035
 2651SOL    HW2 8853   0.725   1.522   0.164
 2652SOL     OW 8854   3.464   3.886   3.917
 2652SOL    HW1 8855   3.562   3.873   3.901
 2652SOL    HW2 8856   3.449   3.926   4.007
 2653SOL     OW 8857   5.293   0.029   5.499
 2653SOL    HW1 8858   5.348   0.044   5.581
 2653SOL    HW2 8859   5.348   0.047   5.418
 2654SOL     OW 8860   5.193   5.075   1.413
 2654SOL    HW1 8861   5.096   5.099   1.405
 2654SOL    HW2 8862   5.200   4.981   1.448
 2655SOL     OW 8863   4.634   5.313   4.109
 2655SOL    HW1 8864   4.689   5.330   4.028
 2655SOL    HW2 8865   4.545   5.357   4.100
 2656SOL     OW 8866   3.282   4.953   3.921
 2656SOL    HW1 8867   3.360   4.916   3.971
 2656SOL    HW2 8868   3.312   5.029   3.863
 2657SOL     OW 8869   1.598   4.044   6.218
 2657SOL    HW1 8870   1.666   3.975   6.241
 2657SOL    HW2 8871   1.507   4.012   6.243
 2658SOL     OW 8872   4.952   4.370   0.227
 2658SOL    HW1 8873   4.899   4.285   0.236
 2658SOL    HW2 8874   4.977   4.403   0.318
 2659SOL     OW 8875   6.110   3.007   4.973
 2659SOL    HW1 8876   6.128   2.908   4.979
 2659SOL    HW2 8877   6.193   3.054   4.942
 2660SOL     OW 8878   1.108   0.830   0.826
 2660SOL    HW1 8879   1.158   0.916   0.834
 2660SOL    HW2 8880   1.059   0.812   0.911
 2661SOL     OW 8881   2.382   6.753   0.662
 2661SOL    HW1 8882   2.465   6.761   0.718
 2661SOL    HW2 8883   2.340   6.663   0.679
 2662SOL     OW 8884   4.709   6.613   5.446
 2662SOL    HW1 8885   4.757   6.536   5.489
 2662SOL    HW2 8886   4.769   6.693   5.443
 2663SOL     OW 8887   2.769   4.279   0.704
 2663SOL    HW1 8888   2.712   4.205   0.668
 2663SOL    HW2 8889   2.747   4.364   0.656
 2664SOL     OW 8890   4.040   3.925   5.169
 2664SOL    HW1 8891   4.095   3.993   5.218
 2664SOL    HW2 8892   4.005   3.857   5.234
 2665SOL     OW 8893   2.536   2.749   5.322
 2665SOL    HW1 8894   2.525   2.843   5.289
 2665SOL    HW2 8895   2.530   2.686   5.245
 2666SOL     OW 8896   5.848   4.061   1.216
 2666SOL    HW1 8897   5.778   4.015   1.161
 2666SOL    HW2 8898   5.916   4.103   1.155
 2667SOL     OW 8899   1.549   6.379   4.040
 2667SOL    HW1 8900   1.457   6.411   4.021
 2667SOL    HW2 8901   1.607   6.458   4.063
 2668SOL     OW 8902   6.127   3.460   4.240
 2668SOL    HW1 8903   6.102   3.387   4.303
 2668SOL    HW2 8904   6.066   3.538   4.254
 2669SOL     OW 8905   2.711   4.662   5.364
 2669SOL    HW1 8906   2.640   4.671   5.293
 2669SOL    HW2 8907   2.800   4.650   5.320
 2670SOL     OW 8908   5.931   2.636   6.432
 2670SOL    HW1 8909   5.910   2.733   6.425
 2670SOL    HW2 8910   5.919   2.606   6.526
 2671SOL     OW 8911   3.924   5.209   6.597
 2671SOL    HW1 8912   4.003   5.161   6.636
 2671SOL    HW2 8913   3.852   5.142   6.576
 2672SOL     OW 8914   0.421   5.241   1.025
 2672SOL    HW1 8915   0.499   5.216   0.967
 2672SOL    HW2 8916   0.397   5.336   1.007
 2673SOL     OW 8917   6.197   1.382   4.172
 2673SOL    HW1 8918   6.196   1.394   4.272
 2673SOL    HW2 8919   6.106   1.354   4.141
 2674SOL     OW 8920   1.088   4.534   3.461
 2674SOL    HW1 8921   1.039   4.558   3.377
 2674SOL    HW2 8922   1.186   4.544   3.445
 2675SOL     OW 8923   6.524   5.388   3.952
 2675SOL    HW1 8924   6.512   5.398   3.853
 2675SOL    HW2 8925   6.550   5.477   3.991
 2676SOL     OW 8926   4.236   1.528   0.798
 2676SOL    HW1 8927   4.178   1.475   0.737
 2676SOL    HW2 8928   4.179   1.582   0.860
 2677SOL     OW 8929   3.134   3.440   0.605
 2677SOL    HW1 8930   3.115   3.488   0.520
 2677SOL    HW2 8931   3.198   3.365   0.588
 2678SOL     OW 8932   0.315   2.535   1.522
 2678SOL    HW1 8933   0.390   2.572   1.576
 2678SOL    HW2 8934   0.316   2.435   1.529
 2679SOL     OW 8935   3.482   4.729   1.110
 2679SOL    HW1 8936   3.476   4.655   1.176
 2679SOL    HW2 8937   3.417   4.801   1.134
 2680SOL     OW 8938   0.977   1.240   0.623
 2680SOL    HW1 8939   1.031   1.319   0.593
 2680SOL    HW2 8940   0.939   1.193   0.543
 2681SOL     OW 8941   1.120   2.586   4.791
 2681SOL    HW1 8942   1.203   2.639   4.812
 2681SOL    HW2 8943   1.145   2.505   4.737
 2682SOL     OW 8944   5.131   4.409   2.452
 2682SOL    HW1 8945   5.067   4.439   2.523
 2682SOL    HW2 8946   5.215   4.378   2.495
 2683SOL     OW 8947   2.610   4.391   0.988
 2683SOL    HW1 8948   2.680   4.416   0.922
 2683SOL    HW2 8949   2.653   4.344   1.066
 2684SOL     OW 8950   4.432   5.346   0.886
 2684SOL    HW1 8951   4.414   5.302   0.973
 2684SOL    HW2 8952   4.479   5.433   0.902
 2685SOL     OW 8953   6.319   6.298   6.757
 2685SOL    HW1 8954   6.246   6.311   6.824
 2685SOL    HW2 8955   6.319   6.374   6.693
 2686SOL     OW 8956   1.614   1.787   5.939
 2686SOL    HW1 8957   1.659   1.760   5.854
 2686SOL    HW2 8958   1.655   1.872   5.973
 2687SOL     OW 8959   4.773   4.239   2.108
 2687SOL    HW1 8960   4.820   4.228   2.021
 2687SOL    HW2 8961   4.675   4.226   2.095
 2688SOL     OW 8962   4.669   4.423   0.008
 2688SOL    HW1 8963   4.743   4.474   0.051
 2688SOL    HW2 8964   4.707   4.356   6.963
 2689SOL     OW 8965   1.561   3.301   3.695
 2689SOL    HW1 8966   1.491   3.271   3.761
 2689SOL    HW2 8967   1.522   3.298   3.603
 2690SOL     OW 8968   3.665   3.534   3.668
 2690SOL    HW1 8969   3.756   3.517   3.631
 2690SOL    HW2 8970   3.626   3.448   3.702
 2691SOL     OW 8971   1.687   5.850   1.877
 2691SOL    HW1 8972   1.706   5.852   1.779
 2691SOL    HW2 8973   1.766   5.813   1.926
 2692SOL     OW 8974   3.501   5.270   2.662
 2692SOL    HW1 8975   3.501   5.178   2.623
 2692SOL    HW2 8976   3.592   5.291   2.698
 2693SOL     OW 8977   1.446   4.798   2.596
 2693SOL    HW1 8978   1.467   4.807   2.498
 2693SOL    HW2 8979   1.490   4.873   2.646
 2694SOL     OW 8980   4.251   6.748   2.838
 2694SOL    HW1 8981   4.292   6.708   2.756
 2694SOL    HW2 8982   4.164   6.791   2.813
 2695SOL     OW 8983   5.082   0.222   2.569
 2695SOL    HW1 8984   5.065   0.320   2.568
 2695SOL    HW2 8985   5.098   0.191   2.663
 2696SOL     OW 8986   3.774   3.233   5.594
 2696SOL    HW1 8987   3.813   3.324   5.610
 2696SOL    HW2 8988   3.677   3.234   5.616
 2697SOL     OW 8989   3.453   2.086   2.939
 2697SOL    HW1 8990   3.437   2.019   2.866
 2697SOL    HW2 8991   3.517   2.155   2.906
 2698SOL     OW 8992   2.331   6.460   0.559
 2698SOL    HW1 8993   2.305   6.370   0.526
 2698SOL    HW2 8994   2.339   6.523   0.481
 2699SOL     OW 8995   3.073   6.535   0.564
 2699SOL    HW1 8996   3.026   6.484   0.492
 2699SOL    HW2 8997   3.160   6.569   0.530
 2700SOL     OW 8998   2.033   3.786   0.695
 2700SOL    HW1 8999   1.970   3.823   0.627
 2700SOL    HW2 9000   1.983   3.727   0.758
 2701SOL     OW 9001   4.616   0.890   6.818
 2701SOL    HW1 9002   4.551   0.964   6.833
 2701SOL    HW2 9003   4.704   0.914   6.859
 2702SOL     OW 9004   0.636   3.227   3.986
 2702SOL    HW1 9005   0.566   3.265   3.925
 2702SOL    HW2 9006   0.632   3.127   3.982
 2703SOL     OW 9007   1.746   0.582   1.981
 2703SOL    HW1 9008   1.686   0.533   1.917
 2703SOL    HW2 9009   1.733   0.544   2.073
 2704SOL     OW 9010   6.606   6.476   0.995
 2704SOL    HW1 9011   6.559   6.532   1.064
 2704SOL    HW2 9012   6.689   6.437   1.034
 2705SOL     OW 9013   0.356   5.586   4.580
 2705SOL    HW1 9014   0.362   5.576   4.679
 2705SOL    HW2 9015   0.394   5.675   4.553
 2706SOL     OW 9016   0.476   0.365   1.607
 2706SOL    HW1 9017   0.441   0.324   1.523
 2706SOL    HW2 9018   0.575   0.357   1.610
 2707SOL     OW 9019   2.919   0.603   4.779
 2707SOL    HW1 9020   2.857   0.561   4.713
 2707SOL    HW2 9021   2.984   0.662   4.731
 2708SOL     OW 9022   0.586   2.507   6.515
 2708SOL    HW1 9023   0.664   2.459   6.555
 2708SOL    HW2 9024   0.619   2.584   6.460
 2709SOL     OW 9025   6.528   6.369   0.281
 2709SOL    HW1 9026   6.540   6.447   0.219
 2709SOL    HW2 9027   6.457   6.392   0.348
 2710SOL     OW 9028   0.776   3.433   3.665
 2710SOL    HW1 9029   0.847   3.503   3.662
 2710SOL    HW2 9030   0.697   3.469   3.714
 2711SOL     OW 9031   2.626   1.563   4.168
 2711SOL    HW1 9032   2.536   1.600   4.145
 2711SOL    HW2 9033   2.662   1.511   4.090
 2712SOL     OW 9034   2.961   4.476   0.797
 2712SOL    HW1 9035   2.873   4.523   0.794
 2712SOL    HW2 9036   2.967   4.413   0.719
 2713SOL     OW 9037   2.306   2.357   4.944
 2713SOL    HW1 9038   2.302   2.442   4.995
 2713SOL    HW2 9039   2.395   2.313   4.958
 2714SOL     OW 9040   4.381   2.320   0.519
 2714SOL    HW1 9041   4.438   2.366   0.450
 2714SOL    HW2 9042   4.286   2.349   0.507
 2715SOL     OW 9043   4.835   1.425   0.800
 2715SOL    HW1 9044   4.738   1.403   0.809
 2715SOL    HW2 9045   4.859   1.499   0.863
 2716SOL     OW 9046   5.296   4.630   2.950
 2716SOL    HW1 9047   5.349   4.589   3.024
 2716SOL    HW2 9048   5.341   4.612   2.863
 2717SOL     OW 9049   1.552   5.466   2.226
 2717SOL    HW1 9050   1.604   5.381   2.220
 2717SOL    HW2 9051   1.519   5.477   2.320
 2718SOL     OW 9052   1.788   2.289   5.743
 2718SOL    HW1 9053   1.808   2.361   5.810
 2718SOL    HW2 9054   1.784   2.328   5.651
 2719SOL     OW 9055   6.764   5.741   1.228
 2719SOL    HW1 9056   6.824   5.776   1.299
 2719SOL    HW2 9057   6.762   5.805   1.151
 2720SOL     OW 9058   1.617   6.118   1.951
 2720SOL    HW1 9059   1.589   6.099   2.045
 2720SOL    HW2 9060   1.644   6.032   1.906
 2721SOL     OW 9061   3.228   0.584   3.786
 2721SOL    HW1 9062   3.142   0.542   3.815
 2721SOL    HW2 9063   3.284   0.604   3.867
 2722SOL     OW 9064   6.479   5.589   1.659
 2722SOL    HW1 9065   6.502   5.596   1.562
 2722SOL    HW2 9066   6.397   5.532   1.670
 2723SOL     OW 9067   1.160   0.092   5.775
 2723SOL    HW1 9068   1.066   0.121   5.762
 2723SOL    HW2 9069   1.165   7.010   5.773
 2724SOL     OW 9070   2.245   6.775   6.502
 2724SOL    HW1 9071   2.342   6.778   6.526
 2724SOL    HW2 9072   2.215   6.680   6.499
 2725SOL     OW 9073   5.382   4.906   4.160
 2725SOL    HW1 9074   5.452   4.967   4.197
 2725SOL    HW2 9075   5.313   4.961   4.113
 2726SOL     OW 9076   6.876   3.233   1.128
 2726SOL    HW1 9077   6.918   3.149   1.094
 2726SOL    HW2 9078   6.840   3.286   1.050
 2727SOL     OW 9079   0.491   4.827   3.880
 2727SOL    HW1 9080   0.541   4.880   3.812
 2727SOL    HW2 9081   0.549   4.812   3.960
 2728SOL     OW 9082   4.198   6.334   5.709
 2728SOL    HW1 9083   4.232   6.247   5.675
 2728SOL    HW2 9084   4.262   6.373   5.775
 2729SOL     OW 9085   6.445   5.850   1.288
 2729SOL    HW1 9086   6.457   5.760   1.329
 2729SOL    HW2 9087   6.511   5.861   1.214
 2730SOL     OW 9088   2.414   5.300   1.573
 2730SOL    HW1 9089   2.443   5.390   1.607
 2730SOL    HW2 9090   2.465   5.278   1.490
 2731SOL     OW 9091   4.147   3.375   2.223
 2731SOL    HW1 9092   4.236   3.347   2.187
 2731SOL    HW2 9093   4.145   3.359   2.322
 2732SOL     OW 9094   5.596   2.441   1.608
 2732SOL    HW1 9095   5.636   2.472   1.521
 2732SOL    HW2 9096   5.646   2.362   1.642
 2733SOL     OW 9097   0.640   0.261   4.391
 2733SOL    HW1 9098   0.712   0.224   4.450
 2733SOL    HW2 9099   0.562   0.198   4.390
 2734SOL     OW 9100   2.128   5.890   1.330
 2734SOL    HW1 9101   2.034   5.864   1.308
 2734SOL    HW2 9102   2.183   5.889   1.247
 2735SOL     OW 9103   0.991   3.837   2.624
 2735SOL    HW1 9104   1.049   3.828   2.543
 2735SOL    HW2 9105   0.962   3.933   2.633
 2736SOL     OW 9106   4.545   6.663   5.047
 2736SOL    HW1 9107   4.633   6.709   5.055
 2736SOL    HW2 9108   4.483   6.719   4.992
 2737SOL     OW 9109   3.529   3.213   5.700
 2737SOL    HW1 9110   3.514   3.311   5.709
 2737SOL    HW2 9111   3.531   3.171   5.791
 2738SOL     OW 9112   5.146   5.293   3.595
 2738SOL    HW1 9113   5.116   5.198   3.603
 2738SOL    HW2 9114   5.153   5.317   3.498
 2739SOL     OW 9115   0.334   4.710   1.224
 2739SOL    HW1 9116   0.289   4.791   1.261
 2739SOL    HW2 9117   0.269   4.634   1.222
 2740SOL     OW 9118   6.377   3.622   2.965
 2740SOL    HW1 9119   6.315   3.547   2.985
 2740SOL    HW2 9120   6.442   3.633   3.040
 2741SOL     OW 9121   6.165   0.562   5.717
 2741SOL    HW1 9122   6.121   0.541   5.630
 2741SOL    HW2 9123   6.119   0.639   5.761
 2742SOL     OW 9124   2.272   5.074   6.584
 2742SOL    HW1 9125   2.238   5.016   6.658
 2742SOL    HW2 9126   2.367   5.050   6.563
 2743SOL     OW 9127   6.944   5.198   2.160
 2743SOL    HW1 9128   6.916   5.199   2.256
 2743SOL    HW2 9129   6.963   5.291   2.129
 2744SOL     OW 9130   5.157   1.683   6.847
 2744SOL    HW1 9131   5.075   1.627   6.835
 2744SOL    HW2 9132   5.133   1.779   6.835
 2745SOL     OW 9133   0.753   6.527   5.836
 2745SOL    HW1 9134   0.699   6.445   5.857
 2745SOL    HW2 9135   0.835   6.527   5.892
 2746SOL     OW 9136   2.232   2.251   4.038
 2746SOL    HW1 9137   2.199   2.160   4.016
 2746SOL    HW2 9138   2.332   2.251   4.037
 2747SOL     OW 9139   5.871   3.602   5.996
 2747SOL    HW1 9140   5.808   3.654   5.938
 2747SOL    HW2 9141   5.965   3.615   5.963
 2748SOL     OW 9142   5.232   1.885   1.212
 2748SOL    HW1 9143   5.185   1.962   1.255
 2748SOL    HW2 9144   5.238   1.900   1.113
 2749SOL     OW 9145   6.388   4.808   3.620
 2749SOL    HW1 9146   6.310   4.787   3.562
 2749SOL    HW2 9147   6.470   4.817   3.564
 2750SOL     OW 9148   0.771   5.132   1.346
 2750SOL    HW1 9149   0.782   5.110   1.249
 2750SOL    HW2 9150   0.680   5.105   1.377
 2751SOL     OW 9151   6.972   6.482   1.379
 2751SOL    HW1 9152   0.048   6.450   1.385
 2751SOL    HW2 9153   6.950   6.539   1.458
 2752SOL     OW 9154   4.400   4.782   5.910
 2752SOL    HW1 9155   4.420   4.724   5.831
 2752SOL    HW2 9156   4.301   4.793   5.919
 2753SOL     OW 9157   0.460   0.021   5.560
 2753SOL    HW1 9158   0.445   6.957   5.616
 2753SOL    HW2 9159   0.534   0.004   5.496
 2754SOL     OW 9160   0.361   0.459   3.461
 2754SOL    HW1 9161   0.321   0.378   3.504
 2754SOL    HW2 9162   0.294   0.501   3.400
 2755SOL     OW 9163   2.219   0.096   3.390
 2755SOL    HW1 9164   2.197   7.016   3.394
 2755SOL    HW2 9165   2.224   0.125   3.294
 2756SOL     OW 9166   5.710   4.074   6.368
 2756SOL    HW1 9167   5.636   4.050   6.304
 2756SOL    HW2 9168   5.792   4.097   6.316
 2757SOL     OW 9169   2.541   1.307   6.099
 2757SOL    HW1 9170   2.514   1.211   6.092
 2757SOL    HW2 9171   2.460   1.365   6.106
 2758SOL     OW 9172   4.972   6.037   2.915
 2758SOL    HW1 9173   5.047   6.102   2.905
 2758SOL    HW2 9174   4.892   6.069   2.865
 2759SOL     OW 9175   4.878   5.469   5.661
 2759SOL    HW1 9176   4.860   5.388   5.606
 2759SOL    HW2 9177   4.792   5.515   5.681
 2760SOL     OW 9178   0.339   5.720   3.094
 2760SOL    HW1 9179   0.321   5.675   3.007
 2760SOL    HW2 9180   0.435   5.746   3.098
 2761SOL     OW 9181   2.084   4.382   4.926
 2761SOL    HW1 9182   2.131   4.346   5.007
 2761SOL    HW2 9183   2.056   4.476   4.942
 2762SOL     OW 9184   2.022   1.316   6.117
 2762SOL    HW1 9185   1.998   1.264   6.199
 2762SOL    HW2 9186   2.070   1.399   6.142
 2763SOL     OW 9187   4.760   2.371   4.976
 2763SOL    HW1 9188   4.854   2.407   4.982
 2763SOL    HW2 9189   4.700   2.443   4.941
 2764SOL     OW 9190   0.187   0.623   1.684
 2764SOL    HW1 9191   0.273   0.654   1.641
 2764SOL    HW2 9192   0.122   0.699   1.685
 2765SOL     OW 9193   6.142   6.761   0.968
 2765SOL    HW1 9194   6.058   6.728   0.927
 2765SOL    HW2 9195   6.130   6.857   0.995
 2766SOL     OW 9196   4.715   2.977   0.225
 2766SOL    HW1 9197   4.646   2.905   0.234
 2766SOL    HW2 9198   4.803   2.936   0.203
 2767SOL     OW 9199   6.908   5.318   0.449
 2767SOL    HW1 9200   6.815   5.283   0.457
 2767SOL    HW2 9201   6.948   5.327   0.541
 2768SOL     OW 9202   4.470   0.666   1.157
 2768SOL    HW1 9203   4.523   0.750   1.149
 2768SOL    HW2 9204   4.464   0.640   1.253
 2769SOL     OW 9205   2.234   4.781   6.309
 2769SOL    HW1 9206   2.158   4.841   6.333
 2769SOL    HW2 9207   2.211   4.729   6.226
 2770SOL     OW 9208   4.521   5.500   5.950
 2770SOL    HW1 9209   4.448   5.567   5.963
 2770SOL    HW2 9210   4.489   5.410   5.980
 2771SOL     OW 9211   5.877   1.198   4.886
 2771SOL    HW1 9212   5.866   1.119   4.946
 2771SOL    HW2 9213   5.808   1.195   4.814
 2772SOL     OW 9214   3.239   1.368   0.766
 2772SOL    HW1 9215   3.254   1.314   0.849
 2772SOL    HW2 9216   3.275   1.318   0.687
 2773SOL     OW 9217   6.590   2.399   4.567
 2773SOL    HW1 9218   6.636   2.370   4.651
 2773SOL    HW2 9219   6.498   2.432   4.589
 2774SOL     OW 9220   5.562   2.452   3.243
 2774SOL    HW1 9221   5.477   2.503   3.242
 2774SOL    HW2 9222   5.588   2.427   3.150
 2775SOL     OW 9223   6.919   3.868   5.558
 2775SOL    HW1 9224   6.993   3.845   5.495
 2775SOL    HW2 9225   6.955   3.865   5.652
 2776SOL     OW 9226   4.628   3.904   5.974
 2776SOL    HW1 9227   4.551   3.964   5.994
 2776SOL    HW2 9228   4.669   3.931   5.887
 2777SOL     OW 9229   2.678   1.964   1.436
 2777SOL    HW1 9230   2.707   1.947   1.531
 2777SOL    HW2 9231   2.655   2.060   1.425
 2778SOL     OW 9232   1.495   6.755   6.059
 2778SOL    HW1 9233   1.566   6.696   6.020
 2778SOL    HW2 9234   1.506   6.759   6.158
 2779SOL     OW 9235   5.380   6.636   2.126
 2779SOL    HW1 9236   5.365   6.686   2.211
 2779SOL    HW2 9237   5.457   6.677   2.077
 2780SOL     OW 9238   0.906   6.732   5.721
 2780SOL    HW1 9239   0.886   6.752   5.625
 2780SOL    HW2 9240   0.852   6.653   5.751
 2781SOL     OW 9241   6.140   0.533   2.070
 2781SOL    HW1 9242   6.086   0.453   2.047
 2781SOL    HW2 9243   6.143   0.545   2.169
 2782SOL     OW 9244   4.707   1.149   5.462
 2782SOL    HW1 9245   4.627   1.090   5.451
 2782SOL    HW2 9246   4.754   1.159   5.374
 2783SOL     OW 9247   5.606   4.218   2.506
 2783SOL    HW1 9248   5.624   4.236   2.603
 2783SOL    HW2 9249   5.665   4.144   2.474
 2784SOL     OW 9250   3.591   1.260   2.358
 2784SOL    HW1 9251   3.547   1.345   2.327
 2784SOL    HW2 9252   3.633   1.215   2.279
 2785SOL     OW 9253   5.264   1.945   0.893
 2785SOL    HW1 9254   5.186   2.005   0.875
 2785SOL    HW2 9255   5.242   1.852   0.865
 2786SOL     OW 9256   5.752   6.683   2.275
 2786SOL    HW1 9257   5.745   6.778   2.303
 2786SOL    HW2 9258   5.758   6.678   2.175
 2787SOL     OW 9259   5.866   6.512   5.782
 2787SOL    HW1 9260   5.884   6.598   5.830
 2787SOL    HW2 9261   5.802   6.457   5.836
 2788SOL     OW 9262   2.730   6.628   5.965
 2788SOL    HW1 9263   2.740   6.536   5.925
 2788SOL    HW2 9264   2.789   6.692   5.915
 2789SOL     OW 9265   2.266   1.976   3.995
 2789SOL    HW1 9266   2.265   1.978   3.895
 2789SOL    HW2 9267   2.350   1.933   4.026
 2790SOL     OW 9268   3.547   5.515   1.589
 2790SOL    HW1 9269   3.584   5.513   1.496
 2790SOL    HW2 9270   3.461   5.565   1.589
 2791SOL     OW 9271   0.460   2.933   2.595
 2791SOL    HW1 9272   0.525   2.914   2.668
 2791SOL    HW2 9273   0.417   3.022   2.611
 2792SOL     OW 9274   2.051   0.919   4.134
 2792SOL    HW1 9275   2.134   0.874   4.098
 2792SOL    HW2 9276   2.071   0.958   4.224
 2793SOL     OW 9277   5.264   3.691   1.187
 2793SOL    HW1 9278   5.187   3.627   1.196
 2793SOL    HW2 9279   5.276   3.741   1.273
 2794SOL     OW 9280   6.644   1.741   6.135
 2794SOL    HW1 9281   6.720   1.742   6.200
 2794SOL    HW2 9282   6.565   1.696   6.177
 2795SOL     OW 9283   0.910   3.126   0.887
 2795SOL    HW1 9284   0.979   3.054   0.878
 2795SOL    HW2 9285   0.868   3.121   0.978
 2796SOL     OW 9286   7.003   6.263   3.075
 2796SOL    HW1 9287   6.954   6.241   3.160
 2796SOL    HW2 9288   6.997   6.185   3.013
 2797SOL     OW 9289   5.094   5.494   5.388
 2797SOL    HW1 9290   5.187   5.463   5.404
 2797SOL    HW2 9291   5.052   5.522   5.475
 2798SOL     OW 9292   6.315   5.498   2.863
 2798SOL    HW1 9293   6.280   5.455   2.779
 2798SOL    HW2 9294   6.353   5.427   2.923
 2799SOL     OW 9295   5.977   5.436   5.534
 2799SOL    HW1 9296   5.899   5.476   5.582
 2799SOL    HW2 9297   5.945   5.380   5.458
 2800SOL     OW 9298   4.639   6.335   5.818
 2800SOL    HW1 9299   4.553   6.386   5.812
 2800SOL    HW2 9300   4.697   6.375   5.890
 2801SOL     OW 9301   0.488   5.284   5.621
 2801SOL    HW1 9302   0.502   5.346   5.698
 2801SOL    HW2 9303   0.503   5.334   5.536
 2802SOL     OW 9304   5.463   6.105   5.695
 2802SOL    HW1 9305   5.434   6.153   5.612
 2802SOL    HW2 9306   5.554   6.066   5.680
 2803SOL     OW 9307   4.116   4.987   6.227
 2803SOL    HW1 9308   4.126   5.085   6.244
 2803SOL    HW2 9309   4.093   4.940   6.313
 2804SOL     OW 9310   1.182   4.232   5.230
 2804SOL    HW1 9311   1.118   4.305   5.252
 2804SOL    HW2 9312   1.132   4.145   5.223
 2805SOL     OW 9313   5.996   3.416   2.801
 2805SOL    HW1 9314   5.904   3.408   2.762
 2805SOL    HW2 9315   5.990   3.462   2.890
 2806SOL     OW 9316   1.989   4.015   6.010
 2806SOL    HW1 9317   2.058   4.034   5.941
 2806SOL    HW2 9318   2.034   3.994   6.097
 2807SOL     OW 9319   3.956   6.576   3.632
 2807SOL    HW1 9320   4.031   6.543   3.575
 2807SOL    HW2 9321   3.986   6.583   3.727
 2808SOL     OW 9322   6.528   5.132   2.274
 2808SOL    HW1 9323   6.613   5.173   2.307
 2808SOL    HW2 9324   6.457   5.141   2.343
 2809SOL     OW 9325   5.389   2.839   1.018
 2809SOL    HW1 9326   5.321   2.769   1.036
 2809SOL    HW2 9327   5.374   2.917   1.079
 2810SOL     OW 9328   2.021   5.545   2.936
 2810SOL    HW1 9329   2.092   5.560   3.006
 2810SOL    HW2 9330   2.045   5.465   2.881
 2811SOL     OW 9331   1.521   1.832   3.796
 2811SOL    HW1 9332   1.434   1.876   3.772
 2811SOL    HW2 9333   1.582   1.900   3.836
 2812SOL     OW 9334   5.790   2.885   0.272
 2812SOL    HW1 9335   5.855   2.809   0.267
 2812SOL    HW2 9336   5.811   2.941   0.352
 2813SOL     OW 9337   0.832   1.133   0.021
 2813SOL    HW1 9338   0.878   1.046   0.040
 2813SOL    HW2 9339   0.734   1.124   0.040
 2814SOL     OW 9340   3.586   4.145   5.596
 2814SOL    HW1 9341   3.643   4.065   5.614
 2814SOL    HW2 9342   3.640   4.215   5.550
 2815SOL     OW 9343   6.855   4.892   6.680
 2815SOL    HW1 9344   6.937   4.885   6.624
 2815SOL    HW2 9345   6.834   4.802   6.719
 2816SOL     OW 9346   6.450   5.689   3.856
 2816SOL    HW1 9347   6.548   5.684   3.877
 2816SOL    HW2 9348   6.397   5.679   3.941
 2817SOL     OW 9349   3.163   0.089   2.280
 2817SOL    HW1 9350   3.204   0.180   2.271
 2817SOL    HW2 9351   3.227   0.020   2.248
 2818SOL     OW 9352   0.067   1.043   2.347
 2818SOL    HW1 9353   0.107   0.987   2.419
 2818SOL    HW2 9354   7.007   1.094   2.384
 2819SOL     OW 9355   2.254   6.930   1.847
 2819SOL    HW1 9356   2.221   0.007   1.852
 2819SOL    HW2 9357   2.180   6.871   1.816
 2820SOL     OW 9358   1.558   1.964   3.286
 2820SOL    HW1 9359   1.498   2.041   3.265
 2820SOL    HW2 9360   1.625   1.991   3.355
 2821SOL     OW 9361   3.977   4.565   5.710
 2821SOL    HW1 9362   3.954   4.564   5.612
 2821SOL    HW2 9363   3.903   4.521   5.761
 2822SOL     OW 9364   4.063   1.987   0.323
 2822SOL    HW1 9365   3.997   1.933   0.376
 2822SOL    HW2 9366   4.148   1.936   0.315
 2823SOL     OW 9367   4.926   1.142   0.578
 2823SOL    HW1 9368   4.958   1.231   0.544
 2823SOL    HW2 9369   4.827   1.145   0.590
 2824SOL     OW 9370   2.093   2.055   5.450
 2824SOL    HW1 9371   2.184   2.071   5.490
 2824SOL    HW2 9372   2.094   2.084   5.355
 2825SOL     OW 9373   5.002   0.067   6.080
 2825SOL    HW1 9374   5.074   0.077   6.011
 2825SOL    HW2 9375   5.013   0.136   6.151
 2826SOL     OW 9376   4.560   2.608   6.800
 2826SOL    HW1 9377   4.566   2.704   6.775
 2826SOL    HW2 9378   4.648   2.564   6.784
 2827SOL     OW 9379   0.089   1.063   6.498
 2827SOL    HW1 9380   0.084   1.007   6.581
 2827SOL    HW2 9381   0.123   1.154   6.521
 2828SOL     OW 9382   2.095   2.588   0.630
 2828SOL    HW1 9383   2.005   2.550   0.655
 2828SOL    HW2 9384   2.089   2.687   0.628
 2829SOL     OW 9385   3.643   3.260   3.654
 2829SOL    HW1 9386   3.685   3.169   3.653
 2829SOL    HW2 9387   3.590   3.272   3.738
 2830SOL     OW 9388   3.115   4.253   5.206
 2830SOL    HW1 9389   3.066   4.340   5.193
 2830SOL    HW2 9390   3.135   4.213   5.116
 2831SOL     OW 9391   0.825   3.501   3.195
 2831SOL    HW1 9392   0.847   3.555   3.276
 2831SOL    HW2 9393   0.734   3.461   3.205
 2832SOL     OW 9394   0.499   2.698   1.994
 2832SOL    HW1 9395   0.454   2.648   2.068
 2832SOL    HW2 9396   0.548   2.776   2.031
 2833SOL     OW 9397   3.060   1.532   2.525
 2833SOL    HW1 9398   3.124   1.506   2.454
 2833SOL    HW2 9399   2.966   1.523   2.491
 2834SOL     OW 9400   3.751   6.168   5.775
 2834SOL    HW1 9401   3.734   6.084   5.722
 2834SOL    HW2 9402   3.696   6.166   5.858
 2835SOL     OW 9403   0.805   0.007   1.462
 2835SOL    HW1 9404   0.779   6.938   1.420
 2835SOL    HW2 9405   0.900   0.001   1.494
 2836SOL     OW 9406   0.698   6.803   1.353
 2836SOL    HW1 9407   0.702   6.811   1.254
 2836SOL    HW2 9408   0.729   6.711   1.380
 2837SOL     OW 9409   5.105   4.608   2.278
 2837SOL    HW1 9410   5.113   4.525   2.333
 2837SOL    HW2 9411   5.195   4.652   2.271
 2838SOL     OW 9412   4.539   3.631   0.719
 2838SOL    HW1 9413   4.511   3.535   0.716
 2838SOL    HW2 9414   4.465   3.687   0.683
 2839SOL     OW 9415   0.016   2.068   2.762
 2839SOL    HW1 9416   0.089   2.023   2.814
 2839SOL    HW2 9417   6.949   2.016   2.773
 2840SOL     OW 9418   1.561   6.515   1.782
 2840SOL    HW1 9419   1.651   6.550   1.757
 2840SOL    HW2 9420   1.541   6.433   1.727
 2841SOL     OW 9421   6.025   2.112   6.315
 2841SOL    HW1 9422   6.064   2.168   6.389
 2841SOL    HW2 9423   6.099   2.066   6.266
 2842SOL     OW 9424   0.353   5.110   4.410
 2842SOL    HW1 9425   0.406   5.027   4.390
 2842SOL    HW2 9426   0.410   5.174   4.462
 2843SOL     OW 9427   2.647   2.006   2.721
 2843SOL    HW1 9428   2.566   1.971   2.769
 2843SOL    HW2 9429   2.705   1.930   2.693
 2844SOL     OW 9430   6.506   5.200   0.743
 2844SOL    HW1 9431   6.542   5.107   0.743
 2844SOL    HW2 9432   6.501   5.233   0.837
 2845SOL     OW 9433   5.421   3.010   2.223
 2845SOL    HW1 9434   5.342   3.037   2.167
 2845SOL    HW2 9435   5.506   3.032   2.175
 2846SOL     OW 9436   4.006   6.956   0.388
 2846SOL    HW1 9437   4.030   6.982   0.294
 2846SOL    HW2 9438   4.035   0.009   0.451
 2847SOL     OW 9439   5.226   3.704   3.283
 2847SOL    HW1 9440   5.237   3.611   3.316
 2847SOL    HW2 9441   5.287   3.719   3.205
 2848SOL     OW 9442   2.255   2.683   5.385
 2848SOL    HW1 9443   2.334   2.658   5.442
 2848SOL    HW2 9444   2.256   2.782   5.368
 2849SOL     OW 9445   3.298   0.472   0.958
 2849SOL    HW1 9446   3.204   0.480   0.926
 2849SOL    HW2 9447   3.324   0.376   0.963
 2850SOL     OW 9448   1.964   0.152   2.690
 2850SOL    HW1 9449   1.875   0.196   2.703
 2850SOL    HW2 9450   2.009   0.140   2.778
 2851SOL     OW 9451   5.808   2.216   6.520
 2851SOL    HW1 9452   5.895   2.202   6.565
 2851SOL    HW2 9453   5.823   2.263   6.432
 2852SOL     OW 9454   6.210   4.282   0.034
 2852SOL    HW1 9455   6.309   4.296   0.030
 2852SOL    HW2 9456   6.190   4.185   0.023
 2853SOL     OW 9457   1.837   2.408   6.313
 2853SOL    HW1 9458   1.884   2.424   6.227
 2853SOL    HW2 9459   1.811   2.311   6.320
 2854SOL     OW 9460   3.964   1.053   5.741
 2854SOL    HW1 9461   3.969   0.978   5.675
 2854SOL    HW2 9462   3.889   1.038   5.804
 2855SOL     OW 9463   1.339   1.780   5.604
 2855SOL    HW1 9464   1.371   1.825   5.688
 2855SOL    HW2 9465   1.401   1.802   5.529
 2856SOL     OW 9466   0.686   3.283   4.599
 2856SOL    HW1 9467   0.656   3.370   4.639
 2856SOL    HW2 9468   0.736   3.230   4.668
 2857SOL     OW 9469   0.767   2.326   1.177
 2857SOL    HW1 9470   0.700   2.373   1.235
 2857SOL    HW2 9471   0.761   2.227   1.195
 2858SOL     OW 9472   4.242   5.065   2.506
 2858SOL    HW1 9473   4.249   4.982   2.451
 2858SOL    HW2 9474   4.301   5.136   2.466
 2859SOL     OW 9475   6.615   0.098   6.941
 2859SOL    HW1 9476   6.539   0.032   6.941
 2859SOL    HW2 9477   6.606   0.160   0.001
 2860SOL     OW 9478   2.283   1.011   2.327
 2860SOL    HW1 9479   2.306   1.106   2.305
 2860SOL    HW2 9480   2.218   1.009   2.403
 2861SOL     OW 9481   3.053   5.641   5.057
 2861SOL    HW1 9482   3.043   5.729   5.011
 2861SOL    HW2 9483   2.962   5.604   5.078
 2862SOL     OW 9484   4.267   2.288   1.631
 2862SOL    HW1 9485   4.348   2.238   1.663
 2862SOL    HW2 9486   4.263   2.284   1.532
 2863SOL     OW 9487   4.656   1.265   6.834
 2863SOL    HW1 9488   4.716   1.240   6.910
 2863SOL    HW2 9489   4.699   1.237   6.748
 2864SOL     OW 9490   4.590   2.261   1.008
 2864SOL    HW1 9491   4.567   2.284   0.913
 2864SOL    HW2 9492   4.676   2.306   1.033
 2865SOL     OW 9493   4.520   6.283   4.190
 2865SOL    HW1 9494   4.514   6.259   4.094
 2865SOL    HW2 9495   4.598   6.343   4.205
 2866SOL     OW 9496   5.490   4.680   6.497
 2866SOL    HW1 9497   5.548   4.619   6.444
 2866SOL    HW2 9498   5.548   4.742   6.551
 2867SOL     OW 9499   5.939   6.281   2.778
 2867SOL    HW1 9500   5.914   6.367   2.822
 2867SOL    HW2 9501   5.938   6.293   2.679
 2868SOL     OW 9502   1.243   1.259   5.730
 2868SOL    HW1 9503   1.340   1.232   5.727
 2868SOL    HW2 9504   1.235   1.357   5.713
 2869SOL     OW 9505   6.576   1.012   3.027
 2869SOL    HW1 9506   6.618   1.102   3.038
 2869SOL    HW2 9507   6.540   1.004   2.934
 2870SOL     OW 9508   0.585   2.182   5.792
 2870SOL    HW1 9509   0.546   2.135   5.871
 2870SOL    HW2 9510   0.675   2.144   5.773
 2871SOL     OW 9511   5.834   1.055   0.530
 2871SOL    HW1 9512   5.843   1.041   0.431
 2871SOL    HW2 9513   5.797   1.146   0.547
 2872SOL     OW 9514   2.364   2.047   1.397
 2872SOL    HW1 9515   2.337   1.951   1.396
 2872SOL    HW2 9516   2.282   2.105   1.400
 2873SOL     OW 9517   6.515   6.795   2.197
 2873SOL    HW1 9518   6.508   6.820   2.100
 2873SOL    HW2 9519   6.527   6.696   2.205
 2874SOL     OW 9520   4.241   6.573   2.579
 2874SOL    HW1 9521   4.316   6.507   2.573
 2874SOL    HW2 9522   4.177   6.558   2.504
 2875SOL     OW 9523   5.267   6.970   0.984
 2875SOL    HW1 9524   5.223   6.886   1.017
 2875SOL    HW2 9525   5.329   6.948   0.909
 2876SOL     OW 9526   1.974   0.459   2.864
 2876SOL    HW1 9527   1.946   0.475   2.769
 2876SOL    HW2 9528   2.047   0.390   2.866
 2877SOL     OW 9529   2.719   1.021   5.966
 2877SOL    HW1 9530   2.646   1.035   6.032
 2877SOL    HW2 9531   2.686   0.962   5.892
 2878SOL     OW 9532   2.823   3.763   5.231
 2878SOL    HW1 9533   2.831   3.833   5.160
 2878SOL    HW2 9534   2.861   3.677   5.197
 2879SOL     OW 9535   5.466   5.506   5.845
 2879SOL    HW1 9536   5.371   5.505   5.815
 2879SOL    HW2 9537   5.517   5.577   5.796
 2880SOL     OW 9538   0.520   1.720   2.583
 2880SOL    HW1 9539   0.597   1.656   2.588
 2880SOL    HW2 9540   0.513   1.771   2.668
 2881SOL     OW 9541   4.094   5.850   0.277
 2881SOL    HW1 9542   4.006   5.887   0.308
 2881SOL    HW2 9543   4.079   5.787   0.201
 2882SOL     OW 9544   0.601   5.696   1.590
 2882SOL    HW1 9545   0.584   5.763   1.663
 2882SOL    HW2 9546   0.697   5.700   1.563
 2883SOL     OW 9547   5.750   0.145   4.092
 2883SOL    HW1 9548   5.804   0.110   4.016
 2883SOL    HW2 9549   5.766   0.244   4.102
 2884SOL     OW 9550   1.108   6.744   2.709
 2884SOL    HW1 9551   1.074   6.656   2.676
 2884SOL    HW2 9552   1.155   6.792   2.634
 2885SOL     OW 9553   1.497   2.987   4.031
 2885SOL    HW1 9554   1.515   2.900   4.078
 2885SOL    HW2 9555   1.512   3.063   4.094
 2886SOL     OW 9556   1.868   3.461   6.513
 2886SOL    HW1 9557   1.785   3.500   6.473
 2886SOL    HW2 9558   1.888   3.373   6.469
 2887SOL     OW 9559   0.859   0.358   5.120
 2887SOL    HW1 9560   0.790   0.306   5.069
 2887SOL    HW2 9561   0.946   0.355   5.071
 2888SOL     OW 9562   0.060   4.090   6.743
 2888SOL    HW1 9563   0.018   4.058   6.658
 2888SOL    HW2 9564   0.159   4.075   6.739
 2889SOL     OW 9565   2.689   6.174   2.426
 2889SOL    HW1 9566   2.692   6.250   2.362
 2889SOL    HW2 9567   2.594   6.149   2.445
 2890SOL     OW 9568   1.632   6.410   0.310
 2890SOL    HW1 9569   1.644   6.324   0.359
 2890SOL    HW2 9570   1.719   6.459   0.305
 2891SOL     OW 9571   0.530   4.115   3.452
 2891SOL    HW1 9572   0.546   4.201   3.404
 2891SOL    HW2 9573   0.569   4.039   3.401
 2892SOL     OW 9574   6.412   2.987   0.891
 2892SOL    HW1 9575   6.436   2.964   0.796
 2892SOL    HW2 9576   6.494   3.009   0.942
 2893SOL     OW 9577   0.591   5.187   4.585
 2893SOL    HW1 9578   0.615   5.127   4.508
 2893SOL    HW2 9579   0.675   5.224   4.626
 2894SOL     OW 9580   0.759   3.103   2.182
 2894SOL    HW1 9581   0.660   3.112   2.174
 2894SOL    HW2 9582   0.792   3.162   2.256
 2895SOL     OW 9583   4.929   0.897   5.046
 2895SOL    HW1 9584   4.878   0.834   5.104
 2895SOL    HW2 9585   5.017   0.857   5.022
 2896SOL     OW 9586   4.277   6.872   5.291
 2896SOL    HW1 9587   4.233   6.860   5.380
 2896SOL    HW2 9588   4.364   6.821   5.290
 2897SOL     OW 9589   3.979   5.088   2.485
 2897SOL    HW1 9590   3.927   5.038   2.554
 2897SOL    HW2 9591   4.077   5.072   2.497
 2898SOL     OW 9592   4.277   4.785   4.569
 2898SOL    HW1 9593   4.329   4.760   4.488
 2898SOL    HW2 9594   4.196   4.838   4.541
 2899SOL     OW 9595   0.297   1.758   0.801
 2899SOL    HW1 9596   0.313   1.679   0.860
 2899SOL    HW2 9597   0.333   1.740   0.710
 2900SOL     OW 9598   3.297   4.573   7.001
 2900SOL    HW1 9599   3.305   4.529   0.072
 2900SOL    HW2 9600   3.389   4.594   6.966
 2901SOL     OW 9601   2.666   4.669   3.099
 2901SOL    HW1 9602   2.630   4.752   3.057
 2901SOL    HW2 9603   2.682   4.684   3.196
 2902SOL     OW 9604   6.352   4.875   2.995
 2902SOL    HW1 9605   6.257   4.851   3.016
 2902SOL    HW2 9606   6.399   4.796   2.957
 2903SOL     OW 9607   4.274   6.697   0.485
 2903SOL    HW1 9608   4.175   6.696   0.474
 2903SOL    HW2 9609   4.310   6.606   0.468
 2904SOL     OW 9610   2.705   5.078   4.474
 2904SOL    HW1 9611   2.773   5.006   4.489
 2904SOL    HW2 9612   2.720   5.120   4.385
 2905SOL     OW 9613   1.456   4.006   4.368
 2905SOL    HW1 9614   1.549   3.973   4.382
 2905SOL    HW2 9615   1.392   3.930   4.380
 2906SOL     OW 9616   4.853   4.966   2.735
 2906SOL    HW1 9617   4.775   5.008   2.690
 2906SOL    HW2 9618   4.832   4.870   2.754
 2907SOL     OW 9619   0.748   1.892   3.540
 2907SOL    HW1 9620   0.681   1.957   3.507
 2907SOL    HW2 9621   0.836   1.908   3.494
 2908SOL     OW 9622   5.092   6.698   3.413
 2908SOL    HW1 9623   5.147   6.614   3.421
 2908SOL    HW2 9624   5.118   6.761   3.486
 2909SOL     OW 9625   1.926   6.146   3.969
 2909SOL    HW1 9626   1.826   6.137   3.969
 2909SOL    HW2 9627   1.952   6.222   3.909
 2910SOL     OW 9628   5.816   0.628   4.309
 2910SOL    HW1 9629   5.902   0.586   4.337
 2910SOL    HW2 9630   5.788   0.696   4.377
 2911SOL     OW 9631   2.181   6.120   3.453
 2911SOL    HW1 9632   2.250   6.100   3.523
 2911SOL    HW2 9633   2.225   6.127   3.363
 2912SOL     OW 9634   5.734   6.825   0.570
 2912SOL    HW1 9635   5.785   6.777   0.641
 2912SOL    HW2 9636   5.649   6.776   0.551
 2913SOL     OW 9637   3.769   4.841   1.651
 2913SOL    HW1 9638   3.813   4.923   1.688
 2913SOL    HW2 9639   3.740   4.782   1.726
 2914SOL     OW 9640   6.252   6.031   6.738
 2914SOL    HW1 9641   6.326   5.971   6.709
 2914SOL    HW2 9642   6.290   6.117   6.774
 2915SOL     OW 9643   3.189   2.113   3.497
 2915SOL    HW1 9644   3.232   2.134   3.585
 2915SOL    HW2 9645   3.097   2.150   3.495
 2916SOL     OW 9646   1.117   5.758   0.548
 2916SOL    HW1 9647   1.207   5.727   0.519
 2916SOL    HW2 9648   1.126   5.846   0.595
 2917SOL     OW 9649   2.605   0.029   3.653
 2917SOL    HW1 9650   2.519   0.066   3.618
 2917SOL    HW2 9651   2.677   0.098   3.648
 2918SOL     OW 9652   6.086   4.295   5.436
 2918SOL    HW1 9653   6.140   4.228   5.387
 2918SOL    HW2 9654   6.043   4.358   5.370
 2919SOL     OW 9655   6.017   0.270   1.988
 2919SOL    HW1 9656   5.918   0.277   1.992
 2919SOL    HW2 9657   6.052   0.239   2.077
 2920SOL     OW 9658   2.598   1.127   1.083
 2920SOL    HW1 9659   2.661   1.072   1.027
 2920SOL    HW2 9660   2.558   1.069   1.154
 2921SOL     OW 9661   0.817   6.827   4.445
 2921SOL    HW1 9662   0.739   6.771   4.413
 2921SOL    HW2 9663   0.853   6.788   4.529
 2922SOL     OW 9664   4.807   6.729   1.352
 2922SOL    HW1 9665   4.860   6.756   1.271
 2922SOL    HW2 9666   4.722   6.782   1.354
 2923SOL     OW 9667   6.244   5.576   3.140
 2923SOL    HW1 9668   6.166   5.632   3.168
 2923SOL    HW2 9669   6.328   5.630   3.151
 2924SOL     OW 9670   6.572   2.353   5.492
 2924SOL    HW1 9671   6.661   2.314   5.468
 2924SOL    HW2 9672   6.509   2.344   5.415
 2925SOL     OW 9673   5.840   2.091   0.443
 2925SOL    HW1 9674   5.828   2.084   0.543
 2925SOL    HW2 9675   5.750   2.092   0.399
 2926SOL     OW 9676   5.372   2.038   6.734
 2926SOL    HW1 9677   5.430   1.970   6.778
 2926SOL    HW2 9678   5.318   1.994   6.662
 2927SOL     OW 9679   1.523   4.030   1.016
 2927SOL    HW1 9680   1.431   3.997   0.998
 2927SOL    HW2 9681   1.559   4.077   0.936
 2928SOL     OW 9682   0.032   0.724   6.853
 2928SOL    HW1 9683   0.075   0.678   6.931
 2928SOL    HW2 9684   6.990   0.659   6.805
 2929SOL     OW 9685   1.484   2.661   6.268
 2929SOL    HW1 9686   1.448   2.693   6.356
 2929SOL    HW2 9687   1.434   2.580   6.239
 2930SOL     OW 9688   5.332   0.211   5.702
 2930SOL    HW1 9689   5.353   0.302   5.740
 2930SOL    HW2 9690   5.288   0.222   5.613
 2931SOL     OW 9691   4.930   5.072   6.864
 2931SOL    HW1 9692   5.007   5.080   6.928
 2931SOL    HW2 9693   4.898   4.978   6.861
 2932SOL     OW 9694   0.983   6.012   1.874
 2932SOL    HW1 9695   1.065   6.058   1.910
 2932SOL    HW2 9696   0.999   5.913   1.870
 2933SOL     OW 9697   1.732   6.084   2.246
 2933SOL    HW1 9698   1.815   6.133   2.218
 2933SOL    HW2 9699   1.728   6.080   2.346
 2934SOL     OW 9700   5.338   2.225   6.962
 2934SOL    HW1 9701   5.427   2.269   6.972
 2934SOL    HW2 9702   5.329   2.189   6.870
 2935SOL     OW 9703   6.496   2.876   6.235
 2935SOL    HW1 9704   6.533   2.838   6.319
 2935SOL    HW2 9705   6.404   2.839   6.220
 2936SOL     OW 9706   4.424   6.064   0.610
 2936SOL    HW1 9707   4.391   6.036   0.520
 2936SOL    HW2 9708   4.494   6.134   0.600
 2937SOL     OW 9709   5.521   5.067   1.615
 2937SOL    HW1 9710   5.434   5.110   1.591
 2937SOL    HW2 9711   5.582   5.135   1.656
 2938SOL     OW 9712   4.974   4.852   6.664
 2938SOL    HW1 9713   4.978   4.791   6.743
 2938SOL    HW2 9714   4.972   4.799   6.580
 2939SOL     OW 9715   2.432   0.957   1.725
 2939SOL    HW1 9716   2.377   0.885   1.684
 2939SOL    HW2 9717   2.393   0.983   1.813
 2940SOL     OW 9718   5.484   5.376   5.191
 2940SOL    HW1 9719   5.568   5.345   5.145
 2940SOL    HW2 9720   5.415   5.304   5.186
 2941SOL     OW 9721   1.946   2.007   4.001
 2941SOL    HW1 9722   1.968   2.063   4.080
 2941SOL    HW2 9723   2.029   1.966   3.964
 2942SOL     OW 9724   3.999   2.197   0.640
 2942SOL    HW1 9725   4.036   2.105   0.628
 2942SOL    HW2 9726   4.050   2.261   0.583
 2943SOL     OW 9727   5.901   4.037   4.006
 2943SOL    HW1 9728   5.978   4.097   3.982
 2943SOL    HW2 9729   5.922   3.944   3.976
 2944SOL     OW 9730   2.856   5.882   4.128
 2944SOL    HW1 9731   2.911   5.844   4.202
 2944SOL    HW2 9732   2.760   5.884   4.155
 2945SOL     OW 9733   3.627   3.318   2.282
 2945SOL    HW1 9734   3.585   3.268   2.206
 2945SOL    HW2 9735   3.616   3.266   2.366
 2946SOL     OW 9736   1.495   4.945   6.301
 2946SOL    HW1 9737   1.402   4.945   6.265
 2946SOL    HW2 9738   1.554   4.997   6.240
 2947SOL     OW 9739   0.386   5.227   1.630
 2947SOL    HW1 9740   0.335   5.292   1.686
 2947SOL    HW2 9741   0.472   5.269   1.601
 2948SOL     OW 9742   0.362   4.159   4.308
 2948SOL    HW1 9743   0.452   4.153   4.265
 2948SOL    HW2 9744   0.305   4.083   4.278
 2949SOL     OW 9745   1.376   5.505   1.206
 2949SOL    HW1 9746   1.291   5.459   1.230
 2949SOL    HW2 9747   1.360   5.604   1.202
 2950SOL     OW 9748   5.850   5.829   4.172
 2950SOL    HW1 9749   5.756   5.841   4.140
 2950SOL    HW2 9750   5.854   5.753   4.237
 2951SOL     OW 9751   5.532   1.779   2.235
 2951SOL    HW1 9752   5.524   1.818   2.327
 2951SOL    HW2 9753   5.441   1.762   2.198
 2952SOL     OW 9754   7.002   5.716   5.577
 2952SOL    HW1 9755   6.910   5.755   5.587
 2952SOL    HW2 9756   0.052   5.784   5.602
 2953SOL     OW 9757   6.109   4.036   2.766
 2953SOL    HW1 9758   6.209   4.035   2.758
 2953SOL    HW2 9759   6.068   4.034   2.675
 2954SOL     OW 9760   1.249   5.797   1.437
 2954SOL    HW1 9761   1.179   5.827   1.372
 2954SOL    HW2 9762   1.206   5.750   1.514
 2955SOL     OW 9763   0.750   4.323   1.392
 2955SOL    HW1 9764   0.760   4.261   1.470
 2955SOL    HW2 9765   0.674   4.386   1.409
 2956SOL     OW 9766   5.602   6.409   2.806
 2956SOL    HW1 9767   5.637   6.456   2.724
 2956SOL    HW2 9768   5.628   6.312   2.802
 2957SOL     OW 9769   5.616   4.223   1.615
 2957SOL    HW1 9770   5.608   4.187   1.708
 2957SOL    HW2 9771   5.690   4.175   1.567
 2958SOL     OW 9772   2.418   4.379   3.545
 2958SOL    HW1 9773   2.413   4.279   3.548
 2958SOL    HW2 9774   2.335   4.416   3.504
 2959SOL     OW 9775   4.997   3.642   1.606
 2959SOL    HW1 9776   4.899   3.627   1.591
 2959SOL    HW2 9777   5.024   3.600   1.693
 2960SOL     OW 9778   3.234   0.596   0.499
 2960SOL    HW1 9779   3.238   0.537   0.418
 2960SOL    HW2 9780   3.303   0.566   0.565
 2961SOL     OW 9781   6.146   4.662   3.493
 2961SOL    HW1 9782   6.081   4.738   3.500
 2961SOL    HW2 9783   6.108   4.592   3.433
 2962SOL     OW 9784   4.827   6.083   3.298
 2962SOL    HW1 9785   4.844   5.998   3.248
 2962SOL    HW2 9786   4.856   6.161   3.243
 2963SOL     OW 9787   1.545   1.014   0.007
 2963SOL    HW1 9788   1.508   0.927   6.994
 2963SOL    HW2 9789   1.622   1.041   6.966
 2964SOL     OW 9790   6.808   1.320   5.117
 2964SOL    HW1 9791   6.852   1.409   5.134
 2964SOL    HW2 9792   6.850   1.251   5.177
 2965SOL     OW 9793   0.540   0.597   4.549
 2965SOL    HW1 9794   0.518   0.548   4.465
 2965SOL    HW2 9795   0.564   0.692   4.527
 2966SOL     OW 9796   4.395   5.163   3.129
 2966SOL    HW1 9797   4.377   5.252   3.088
 2966SOL    HW2 9798   4.396   5.171   3.228
 2967SOL     OW 9799   5.729   0.916   5.341
 2967SOL    HW1 9800   5.650   0.923   5.402
 2967SOL    HW2 9801   5.723   0.831   5.288
 2968SOL     OW 9802   1.023   2.790   0.697
 2968SOL    HW1 9803   1.065   2.824   0.781
 2968SOL    HW2 9804   1.007   2.691   0.706
 2969SOL     OW 9805   4.728   2.389   4.269
 2969SOL    HW1 9806   4.797   2.460   4.288
 2969SOL    HW2 9807   4.647   2.432   4.229
 2970SOL     OW 9808   2.535   2.910   5.590
 2970SOL    HW1 9809   2.499   2.818   5.571
 2970SOL    HW2 9810   2.569   2.951   5.506
 2971SOL     OW 9811   5.093   3.970   0.498
 2971SOL    HW1 9812   5.070   3.906   0.572
 2971SOL    HW2 9813   5.044   3.943   0.415
 2972SOL     OW 9814   6.704   4.958   6.301
 2972SOL    HW1 9815   6.771   4.896   6.342
 2972SOL    HW2 9816   6.646   4.997   6.372
 2973SOL     OW 9817   5.494   6.017   1.623
 2973SOL    HW1 9818   5.524   5.941   1.681
 2973SOL    HW2 9819   5.439   5.981   1.548
 2974SOL     OW 9820   0.369   4.594   4.117
 2974SOL    HW1 9821   0.424   4.577   4.035
 2974SOL    HW2 9822   0.429   4.623   4.192
 2975SOL     OW 9823   4.911   3.864   4.225
 2975SOL    HW1 9824   4.897   3.914   4.310
 2975SOL    HW2 9825   4.846   3.896   4.155
 2976SOL     OW 9826   4.307   2.310   2.725
 2976SOL    HW1 9827   4.362   2.232   2.695
 2976SOL    HW2 9828   4.324   2.388   2.665
 2977SOL     OW 9829   1.632   0.767   2.670
 2977SOL    HW1 9830   1.632   0.725   2.760
 2977SOL    HW2 9831   1.582   0.854   2.674
 2978SOL     OW 9832   3.910   4.688   0.266
 2978SOL    HW1 9833   3.883   4.709   0.360
 2978SOL    HW2 9834   4.003   4.649   0.266
 2979SOL     OW 9835   3.858   1.088   3.712
 2979SOL    HW1 9836   3.811   1.003   3.688
 2979SOL    HW2 9837   3.922   1.113   3.639
 2980SOL     OW 9838   1.715   5.522   5.537
 2980SOL    HW1 9839   1.626   5.566   5.550
 2980SOL    HW2 9840   1.708   5.452   5.466
 2981SOL     OW 9841   3.121   0.978   6.231
 2981SOL    HW1 9842   3.158   1.067   6.205
 2981SOL    HW2 9843   3.022   0.985   6.239
 2982SOL     OW 9844   3.071   5.663   1.739
 2982SOL    HW1 9845   3.089   5.681   1.836
 2982SOL    HW2 9846   2.990   5.605   1.731
 2983SOL     OW 9847   6.419   2.538   2.515
 2983SOL    HW1 9848   6.335   2.528   2.461
 2983SOL    HW2 9849   6.488   2.584   2.460
 2984SOL     OW 9850   5.971   4.481   0.254
 2984SOL    HW1 9851   5.938   4.419   0.183
 2984SOL    HW2 9852   5.997   4.428   0.335
 2985SOL     OW 9853   2.198   2.564   4.469
 2985SOL    HW1 9854   2.265   2.508   4.420
 2985SOL    HW2 9855   2.191   2.531   4.564
 2986SOL     OW 9856   3.569   4.127   3.099
 2986SOL    HW1 9857   3.666   4.138   3.119
 2986SOL    HW2 9858   3.516   4.147   3.182
 2987SOL     OW 9859   1.155   1.968   3.994
 2987SOL    HW1 9860   1.168   2.028   4.073
 2987SOL    HW2 9861   1.158   1.873   4.023
 2988SOL     OW 9862   1.838   7.009   2.488
 2988SOL    HW1 9863   1.807   0.068   2.434
 2988SOL    HW2 9864   1.888   0.024   2.568
 2989SOL     OW 9865   5.380   5.161   5.502
 2989SOL    HW1 9866   5.363   5.257   5.524
 2989SOL    HW2 9867   5.396   5.110   5.587
 2990SOL     OW 9868   3.608   1.259   4.416
 2990SOL    HW1 9869   3.660   1.316   4.480
 2990SOL    HW2 9870   3.671   1.217   4.351
 2991SOL     OW 9871   6.376   3.774   5.736
 2991SOL    HW1 9872   6.453   3.796   5.796
 2991SOL    HW2 9873   6.409   3.725   5.655
 2992SOL     OW 9874   1.084   5.360   4.624
 2992SOL    HW1 9875   1.163   5.331   4.678
 2992SOL    HW2 9876   1.114   5.421   4.551
 2993SOL     OW 9877   0.212   4.885   1.378
 2993SOL    HW1 9878   0.212   4.934   1.465
 2993SOL    HW2 9879   0.121   4.850   1.359
 2994SOL     OW 9880   3.820   6.333   6.786
 2994SOL    HW1 9881   3.842   6.259   6.850
 2994SOL    HW2 9882   3.811   6.295   6.694
 2995SOL     OW 9883   3.455   1.162   6.399
 2995SOL    HW1 9884   3.435   1.108   6.481
 2995SOL    HW2 9885   3.543   1.208   6.410
 2996SOL     OW 9886   0.623   1.401   4.988
 2996SOL    HW1 9887   0.610   1.498   4.967
 2996SOL    HW2 9888   0.564   1.376   5.065
 2997SOL     OW 9889   4.947   0.038   3.000
 2997SOL    HW1 9890   4.884   6.978   3.001
 2997SOL    HW2 9891   4.966   0.067   3.093
 2998SOL     OW 9892   5.427   6.504   3.441
 2998SOL    HW1 9893   5.351   6.441   3.456
 2998SOL    HW2 9894   5.423   6.539   3.348
 2999SOL     OW 9895   2.404   5.263   5.210
 2999SOL    HW1 9896   2.461   5.282   5.290
 2999SOL    HW2 9897   2.412   5.167   5.186
 3000SOL     OW 9898   3.355   4.079   6.269
 3000SOL    HW1 9899   3.354   4.135   6.186
 3000SOL    HW2 9900   3.316   3.989   6.250
 3001SOL     OW 9901   6.674   0.862   6.524
 3001SOL    HW1 9902   6.773   0.871   6.515
 3001SOL    HW2 9903   6.637   0.818   6.441
 3002SOL     OW 9904   3.107   1.805   6.737
 3002SOL    HW1 9905   3.028   1.761   6.695
 3002SOL    HW2 9906   3.096   1.904   6.734
 3003SOL     OW 9907   0.457   6.790   1.084
 3003SOL    HW1 9908   0.414   6.834   1.004
 3003SOL    HW2 9909   0.551   6.765   1.062
 3004SOL     OW 9910   0.713   4.391   2.751
 3004SOL    HW1 9911   0.674   4.308   2.792
 3004SOL    HW2 9912   0.755   4.368   2.664
 3005SOL     OW 9913   1.454   2.992   0.071
 3005SOL    HW1 9914   1.497   2.905   0.049
 3005SOL    HW2 9915   1.372   2.976   0.126
 3006SOL     OW 9916   5.388   2.015   4.252
 3006SOL    HW1 9917   5.303   2.037   4.203
 3006SOL    HW2 9918   5.451   2.091   4.246
 3007SOL     OW 9919   5.866   4.026   0.778
 3007SOL    HW1 9920   5.831   3.962   0.709
 3007SOL    HW2 9921   5.789   4.076   0.819
 3008SOL     OW 9922   3.128   2.466   6.281
 3008SOL    HW1 9923   3.102   2.475   6.185
 3008SOL    HW2 9924   3.227   2.454   6.288
 3009SOL     OW 9925   6.686   2.389   2.853
 3009SOL    HW1 9926   6.726   2.381   2.944
 3009SOL    HW2 9927   6.618   2.316   2.840
 3010SOL     OW 9928   2.847   5.604   3.171
 3010SOL    HW1 9929   2.865   5.692   3.126
 3010SOL    HW2 9930   2.755   5.605   3.211
 3011SOL     OW 9931   5.833   1.367   2.826
 3011SOL    HW1 9932   5.892   1.287   2.835
 3011SOL    HW2 9933   5.799   1.394   2.916
 3012SOL     OW 9934   2.420   3.703   6.333
 3012SOL    HW1 9935   2.454   3.712   6.426
 3012SOL    HW2 9936   2.327   3.666   6.334
 3013SOL     OW 9937   5.272   5.639   3.930
 3013SOL    HW1 9938   5.262   5.707   4.003
 3013SOL    HW2 9939   5.347   5.576   3.952
 3014SOL     OW 9940   4.678   2.369   5.555
 3014SOL    HW1 9941   4.738   2.442   5.522
 3014SOL    HW2 9942   4.631   2.327   5.477
 3015SOL     OW 9943   2.135   1.739   0.107
 3015SOL    HW1 9944   2.133   1.659   0.048
 3015SOL    HW2 9945   2.190   1.811   0.064
 3016SOL     OW 9946   3.070   6.106   4.331
 3016SOL    HW1 9947   3.048   6.039   4.401
 3016SOL    HW2 9948   3.057   6.199   4.367
 3017SOL     OW 9949   6.223   5.651   2.146
 3017SOL    HW1 9950   6.294   5.588   2.177
 3017SOL    HW2 9951   6.250   5.692   2.059
 3018SOL     OW 9952   2.628   0.017   6.290
 3018SOL    HW1 9953   2.636   0.055   6.382
 3018SOL    HW2 9954   2.533   7.012   6.271
 3019SOL     OW 9955   0.499   6.880   6.310
 3019SOL    HW1 9956   0.480   6.971   6.346
 3019SOL    HW2 9957   0.413   6.829   6.302
 3020SOL     OW 9958   3.930   2.839   1.095
 3020SOL    HW1 9959   3.942   2.749   1.053
 3020SOL    HW2 9960   3.846   2.880   1.060
 3021SOL     OW 9961   3.146   0.079   5.219
 3021SOL    HW1 9962   3.100   0.133   5.290
 3021SOL    HW2 9963   3.143   7.000   5.243
 3022SOL     OW 9964   4.413   5.495   5.178
 3022SOL    HW1 9965   4.375   5.575   5.223
 3022SOL    HW2 9966   4.491   5.461   5.230
 3023SOL     OW 9967   4.421   6.578   2.975
 3023SOL    HW1 9968   4.359   6.638   2.926
 3023SOL    HW2 9969   4.370   6.501   3.013
 3024SOL     OW 9970   5.382   6.294   4.723
 3024SOL    HW1 9971   5.343   6.309   4.814
 3024SOL    HW2 9972   5.316   6.321   4.654
 3025SOL     OW 9973   4.079   6.187   1.248
 3025SOL    HW1 9974   4.134   6.243   1.310
 3025SOL    HW2 9975   4.138   6.121   1.202
 3026SOL     OW 9976   0.789   1.279   5.854
 3026SOL    HW1 9977   0.792   1.319   5.763
 3026SOL    HW2 9978   0.694   1.274   5.885
 3027SOL     OW 9979   4.624   1.517   2.884
 3027SOL    HW1 9980   4.636   1.430   2.933
 3027SOL    HW2 9981   4.616   1.591   2.950
 3028SOL     OW 9982   1.425   3.489   5.706
 3028SOL    HW1 9983   1.487   3.436   5.648
 3028SOL    HW2 9984   1.468   3.576   5.730
 3029SOL     OW 9985   0.929   2.999   5.049
 3029SOL    HW1 9986   1.014   2.990   5.100
 3029SOL    HW2 9987   0.920   2.924   4.984
 3030SOL     OW 9988   0.761   3.569   0.540
 3030SOL    HW1 9989   0.826   3.645   0.542
 3030SOL    HW2 9990   0.807   3.485   0.569
 3031SOL     OW 9991   7.010   4.752   1.265
 3031SOL    HW1 9992   0.041   4.666   1.276
 3031SOL    HW2 9993   6.989   4.767   1.168
 3032SOL     OW 9994   2.289   6.745   1.467
 3032SOL    HW1 9995   2.255   6.826   1.514
 3032SOL    HW2 9996   2.384   6.728   1.495
 3033SOL     OW 9997   5.232   1.255   1.730
 3033SOL    HW1 9998   5.196   1.344   1.701
 3033SOL    HW2 9999   5.318   1.269   1.781
 3034SOL     OW10000   1.093   0.481   2.736
 3034SOL    HW110001   1.151   0.557   2.765
 3034SOL    HW210002   1.008   0.482   2.788
 3035SOL     OW10003   0.283   2.698   5.749
 3035SOL    HW110004   0.363   2.744   5.787
 3035SOL    HW210005   0.310   2.645   5.669
 3036SOL     OW10006   1.745   1.636   5.412
 3036SOL    HW110007   1.780   1.727   5.388
 3036SOL    HW210008   1.646   1.634   5.398
 3037SOL     OW10009   6.465   5.504   6.572
 3037SOL    HW110010   6.468   5.483   6.475
 3037SOL    HW210011   6.487   5.422   6.625
 3038SOL     OW10012   5.210   5.498   5.758
 3038SOL    HW110013   5.160   5.583   5.766
 3038SOL    HW210014   5.151   5.421   5.781
 3039SOL     OW10015   0.873   3.124   1.441
 3039SOL    HW110016   0.788   3.097   1.486
 3039SOL    HW210017   0.941   3.051   1.452
 3040SOL     OW10018   3.348   3.937   5.594
 3040SOL    HW110019   3.423   3.895   5.543
 3040SOL    HW210020   3.342   4.034   5.569
 3041SOL     OW10021   2.271   3.506   5.319
 3041SOL    HW110022   2.367   3.489   5.294
 3041SOL    HW210023   2.224   3.418   5.329
 3042SOL     OW10024   6.107   6.058   2.871
 3042SOL    HW110025   6.178   6.114   2.829
 3042SOL    HW210026   6.020   6.107   2.869
 3043SOL     OW10027   2.605   3.905   1.222
 3043SOL    HW110028   2.547   3.982   1.249
 3043SOL    HW210029   2.550   3.835   1.178
 3044SOL     OW10030   3.549   5.299   6.002
 3044SOL    HW110031   3.538   5.342   5.913
 3044SOL    HW210032   3.471   5.324   6.061
 3045SOL     OW10033   4.947   6.498   3.642
 3045SOL    HW110034   5.013   6.436   3.685
 3045SOL    HW210035   4.976   6.517   3.548
 3046SOL     OW10036   3.272   1.270   5.775
 3046SOL    HW110037   3.358   1.222   5.793
 3046SOL    HW210038   3.259   1.279   5.676
 3047SOL     OW10039   6.221   0.657   1.845
 3047SOL    HW110040   6.142   0.673   1.786
 3047SOL    HW210041   6.191   0.608   1.927
 3048SOL     OW10042   3.802   2.266   1.445
 3048SOL    HW110043   3.830   2.272   1.540
 3048SOL    HW210044   3.713   2.221   1.440
 3049SOL     OW10045   1.505   0.110   2.976
 3049SOL    HW110046   1.590   0.065   3.001
 3049SOL    HW210047   1.511   0.207   2.996
 3050SOL     OW10048   2.791   1.855   2.274
 3050SOL    HW110049   2.702   1.897   2.255
 3050SOL    HW210050   2.839   1.838   2.188
 3051SOL     OW10051   2.119   6.092   6.283
 3051SOL    HW110052   2.172   6.030   6.341
 3051SOL    HW210053   2.126   6.185   6.318
 3052SOL     OW10054   4.965   5.102   1.684
 3052SOL    HW110055   4.986   5.175   1.749
 3052SOL    HW210056   4.867   5.105   1.662
 3053SOL     OW10057   0.201   2.724   1.300
 3053SOL    HW110058   0.206   2.650   1.232
 3053SOL    HW210059   0.252   2.696   1.382
 3054SOL     OW10060   6.115   2.412   1.511
 3054SOL    HW110061   6.021   2.393   1.541
 3054SOL    HW210062   6.142   2.504   1.541
 3055SOL     OW10063   5.134   0.157   5.152
 3055SOL    HW110064   5.057   0.177   5.092
 3055SOL    HW210065   5.219   0.181   5.105
 3056SOL     OW10066   5.972   0.966   5.744
 3056SOL    HW110067   5.917   1.043   5.776
 3056SOL    HW210068   5.939   0.936   5.654
 3057SOL     OW10069   4.208   5.475   3.743
 3057SOL    HW110070   4.203   5.383   3.705
 3057SOL    HW210071   4.295   5.517   3.718
 3058SOL     OW10072   0.367   4.621   0.955
 3058SOL    HW110073   0.391   4.634   1.052
 3058SOL    HW210074   0.441   4.571   0.910
 3059SOL     OW10075   3.186   1.950   4.384
 3059SOL    HW110076   3.240   1.982   4.462
 3059SOL    HW210077   3.089   1.953   4.408
 3060SOL     OW10078   1.458   5.484   0.199
 3060SOL    HW110079   1.376   5.536   0.174
 3060SOL    HW210080   1.457   5.466   0.298
 3061SOL     OW10081   6.584   5.717   5.621
 3061SOL    HW110082   6.538   5.790   5.673
 3061SOL    HW210083   6.516   5.658   5.579
 3062SOL     OW10084   2.182   0.354   1.204
 3062SOL    HW110085   2.202   0.269   1.155
 3062SOL    HW210086   2.113   0.337   1.275
 3063SOL     OW10087   1.620   4.813   1.622
 3063SOL    HW110088   1.691   4.743   1.614
 3063SOL    HW210089   1.624   4.854   1.713
 3064SOL     OW10090   5.532   3.685   0.790
 3064SOL    HW110091   5.489   3.721   0.872
 3064SOL    HW210092   5.495   3.732   0.709
 3065SOL     OW10093   1.763   1.904   6.289
 3065SOL    HW110094   1.815   1.977   6.246
 3065SOL    HW210095   1.665   1.919   6.276
 3066SOL     OW10096   5.337   4.376   0.312
 3066SOL    HW110097   5.279   4.420   0.245
 3066SOL    HW210098   5.340   4.277   0.295
 3067SOL     OW10099   4.009   1.172   6.040
 3067SOL    HW110100   4.063   1.184   5.957
 3067SOL    HW210101   3.923   1.126   6.018
 3068SOL     OW10102   6.984   6.710   0.931
 3068SOL    HW110103   0.054   6.677   0.896
 3068SOL    HW210104   6.985   6.708   1.031
 3069SOL     OW10105   6.741   6.414   2.034
 3069SOL    HW110106   6.826   6.466   2.044
 3069SOL    HW210107   6.666   6.463   2.078
 3070SOL     OW10108   2.883   1.492   6.941
 3070SOL    HW110109   2.905   1.428   6.868
 3070SOL    HW210110   2.793   1.471   6.979
 3071SOL     OW10111   6.654   6.387   3.845
 3071SOL    HW110112   6.626   6.303   3.892
 3071SOL    HW210113   6.683   6.455   3.912
 3072SOL     OW10114   2.644   5.652   6.209
 3072SOL    HW110115   2.560   5.707   6.217
 3072SOL    HW210116   2.694   5.655   6.296
 3073SOL     OW10117   0.114   3.720   4.109
 3073SOL    HW110118   0.173   3.702   4.030
 3073SOL    HW210119   0.022   3.689   4.089
 3074SOL     OW10120   0.045   4.289   1.157
 3074SOL    HW110121   0.010   4.247   1.241
 3074SOL    HW210122   0.002   4.245   1.078
 3075SOL     OW10123   2.416   5.569   2.125
 3075SOL    HW110124   2.510   5.564   2.160
 3075SOL    HW210125   2.409   5.519   2.039
 3076SOL     OW10126   6.294   0.807   3.438
 3076SOL    HW110127   6.334   0.798   3.529
 3076SOL    HW210128   6.327   0.890   3.394
 3077SOL     OW10129   5.865   4.328   1.803
 3077SOL    HW110130   5.877   4.405   1.865
 3077SOL    HW210131   5.767   4.317   1.782
 3078SOL     OW10132   0.149   3.587   3.074
 3078SOL    HW110133   0.109   3.628   3.156
 3078SOL    HW210134   0.213   3.652   3.032
 3079SOL     OW10135   2.993   2.173   2.684
 3079SOL    HW110136   2.894   2.174   2.679
 3079SOL    HW210137   3.030   2.259   2.647
 3080SOL     OW10138   5.888   5.230   2.406
 3080SOL    HW110139   5.901   5.299   2.478
 3080SOL    HW210140   5.939   5.257   2.324
 3081SOL     OW10141   0.918   3.289   6.282
 3081SOL    HW110142   0.863   3.259   6.204
 3081SOL    HW210143   1.007   3.321   6.249
 3082SOL     OW10144   2.160   5.895   4.353
 3082SOL    HW110145   2.095   5.894   4.429
 3082SOL    HW210146   2.130   5.961   4.284
 3083SOL     OW10147   2.935   5.851   3.628
 3083SOL    HW110148   2.936   5.897   3.717
 3083SOL    HW210149   3.029   5.844   3.594
 3084SOL     OW10150   6.675   3.673   4.286
 3084SOL    HW110151   6.675   3.724   4.372
 3084SOL    HW210152   6.713   3.582   4.301
 3085SOL     OW10153   6.141   4.080   0.782
 3085SOL    HW110154   6.191   4.112   0.702
 3085SOL    HW210155   6.043   4.083   0.764
 3086SOL     OW10156   4.987   1.255   1.020
 3086SOL    HW110157   4.902   1.308   1.027
 3086SOL    HW210158   5.044   1.293   0.947
 3087SOL     OW10159   2.184   6.638   3.824
 3087SOL    HW110160   2.270   6.686   3.842
 3087SOL    HW210161   2.176   6.559   3.884
 3088SOL     OW10162   2.292   4.835   4.455
 3088SOL    HW110163   2.252   4.911   4.405
 3088SOL    HW210164   2.366   4.869   4.514
 3089SOL     OW10165   3.576   1.819   4.319
 3089SOL    HW110166   3.525   1.775   4.244
 3089SOL    HW210167   3.674   1.815   4.300
 3090SOL     OW10168   2.075   1.605   1.966
 3090SOL    HW110169   2.031   1.540   1.903
 3090SOL    HW210170   2.174   1.606   1.950
 3091SOL     OW10171   1.528   1.076   1.116
 3091SOL    HW110172   1.532   1.162   1.167
 3091SOL    HW210173   1.490   1.005   1.174
 3092SOL     OW10174   5.603   0.810   0.819
 3092SOL    HW110175   5.691   0.765   0.833
 3092SOL    HW210176   5.571   0.790   0.726
 3093SOL     OW10177   5.507   6.405   6.826
 3093SOL    HW110178   5.581   6.339   6.809
 3093SOL    HW210179   5.427   6.357   6.863
 3094SOL     OW10180   2.056   0.203   3.574
 3094SOL    HW110181   2.124   0.189   3.502
 3094SOL    HW210182   1.986   0.267   3.542
 3095SOL     OW10183   2.727   4.053   5.701
 3095SOL    HW110184   2.669   4.096   5.631
 3095SOL    HW210185   2.765   3.968   5.664
 3096SOL     OW10186   0.749   5.254   5.369
 3096SOL    HW110187   0.700   5.228   5.286
 3096SOL    HW210188   0.815   5.182   5.392
 3097SOL     OW10189   5.694   3.418   6.817
 3097SOL    HW110190   5.649   3.336   6.781
 3097SOL    HW210191   5.695   3.489   6.747
 3098SOL     OW10192   1.848   3.033   1.016
 3098SOL    HW110193   1.879   3.079   1.100
 3098SOL    HW210194   1.928   3.002   0.964
 3099SOL     OW10195   1.092   6.138   3.916
 3099SOL    HW110196   1.178   6.186   3.898
 3099SOL    HW210197   1.112   6.043   3.940
 3100SOL     OW10198   0.239   6.776   3.926
 3100SOL    HW110199   0.309   6.737   3.867
 3100SOL    HW210200   0.262   6.757   4.022
 3101SOL     OW10201   6.126   5.828   6.880
 3101SOL    HW110202   6.184   5.801   6.957
 3101SOL    HW210203   6.172   5.900   6.828
 3102SOL     OW10204   6.380   6.511   1.651
 3102SOL    HW110205   6.414   6.427   1.693
 3102SOL    HW210206   6.354   6.576   1.723
 3103SOL     OW10207   4.543   1.119   1.792
 3103SOL    HW110208   4.528   1.099   1.695
 3103SOL    HW210209   4.459   1.102   1.843
 3104SOL     OW10210   4.273   0.144   6.479
 3104SOL    HW110211   4.214   0.159   6.400
 3104SOL    HW210212   4.255   0.053   6.516
 3105SOL     OW10213   5.820   4.080   1.480
 3105SOL    HW110214   5.903   4.084   1.536
 3105SOL    HW210215   5.846   4.069   1.384
 3106SOL     OW10216   4.616   0.159   4.384
 3106SOL    HW110217   4.631   0.242   4.330
 3106SOL    HW210218   4.523   0.126   4.370
 3107SOL     OW10219   3.739   0.814   4.936
 3107SOL    HW110220   3.811   0.814   4.866
 3107SOL    HW210221   3.741   0.901   4.986
 3108SOL     OW10222   2.325   5.703   4.487
 3108SOL    HW110223   2.361   5.757   4.563
 3108SOL    HW210224   2.280   5.763   4.422
 3109SOL     OW10225   5.685   6.290   3.527
 3109SOL    HW110226   5.684   6.388   3.548
 3109SOL    HW210227   5.753   6.271   3.457
 3110SOL     OW10228   1.134   3.429   3.181
 3110SOL    HW110229   1.122   3.335   3.212
 3110SOL    HW210230   1.048   3.479   3.194
 3111SOL     OW10231   6.882   4.565   3.325
 3111SOL    HW110232   6.788   4.585   3.297
 3111SOL    HW210233   6.885   4.476   3.369
 3112SOL     OW10234   3.507   2.783   0.126
 3112SOL    HW110235   3.555   2.782   0.038
 3112SOL    HW210236   3.412   2.754   0.112
 3113SOL     OW10237   3.372   4.928   3.325
 3113SOL    HW110238   3.336   5.018   3.349
 3113SOL    HW210239   3.417   4.888   3.405
 3114SOL     OW10240   3.578   1.861   0.372
 3114SOL    HW110241   3.596   1.820   0.462
 3114SOL    HW210242   3.482   1.891   0.368
 3115SOL     OW10243   4.541   4.567   6.186
 3115SOL    HW110244   4.597   4.502   6.134
 3115SOL    HW210245   4.600   4.641   6.221
 3116SOL     OW10246   0.196   2.596   6.956
 3116SOL    HW110247   0.123   2.624   6.894
 3116SOL    HW210248   0.285   2.622   6.918
 3117SOL     OW10249   4.607   3.939   5.340
 3117SOL    HW110250   4.667   3.983   5.272
 3117SOL    HW210251   4.611   3.990   5.426
 3118SOL     OW10252   0.832   5.152   2.095
 3118SOL    HW110253   0.829   5.100   2.010
 3118SOL    HW210254   0.917   5.130   2.144
 3119SOL     OW10255   2.065   3.073   6.994
 3119SOL    HW110256   2.029   3.122   6.915
 3119SOL    HW210257   2.019   3.103   0.059
 3120SOL     OW10258   3.017   0.071   6.390
 3120SOL    HW110259   2.989   0.069   6.294
 3120SOL    HW210260   3.000   6.999   6.431
 3121SOL     OW10261   6.974   1.206   4.278
 3121SOL    HW110262   6.929   1.233   4.193
 3121SOL    HW210263   6.979   1.107   4.283
 3122SOL     OW10264   4.188   5.603   6.493
 3122SOL    HW110265   4.216   5.602   6.589
 3122SOL    HW210266   4.139   5.518   6.472
 3123SOL     OW10267   2.392   1.902   2.811
 3123SOL    HW110268   2.402   1.994   2.772
 3123SOL    HW210269   2.334   1.847   2.750
 3124SOL     OW10270   5.053   6.667   4.793
 3124SOL    HW110271   5.028   6.590   4.852
 3124SOL    HW210272   5.107   6.634   4.716
 3125SOL     OW10273   0.995   3.336   5.017
 3125SOL    HW110274   0.992   3.387   4.931
 3125SOL    HW210275   1.090   3.329   5.048
 3126SOL     OW10276   5.660   4.342   5.642
 3126SOL    HW110277   5.697   4.319   5.553
 3126SOL    HW210278   5.606   4.266   5.678
 3127SOL     OW10279   1.927   2.649   6.882
 3127SOL    HW110280   1.866   2.727   6.881
 3127SOL    HW210281   1.883   2.572   6.928
 3128SOL     OW10282   2.970   0.600   6.392
 3128SOL    HW110283   3.003   0.556   6.308
 3128SOL    HW210284   3.019   0.563   6.471
 3129SOL     OW10285   6.206   3.524   6.965
 3129SOL    HW110286   6.108   3.545   6.970
 3129SOL    HW210287   6.232   3.511   6.869
 3130SOL     OW10288   2.049   4.518   2.192
 3130SOL    HW110289   2.051   4.513   2.092
 3130SOL    HW210290   1.976   4.460   2.227
 3131SOL     OW10291   0.817   3.361   1.570
 3131SOL    HW110292   0.816   3.285   1.506
 3131SOL    HW210293   0.724   3.379   1.602
 3132SOL     OW10294   4.810   5.753   6.546
 3132SOL    HW110295   4.845   5.840   6.511
 3132SOL    HW210296   4.784   5.694   6.470
 3133SOL     OW10297   3.129   1.065   3.157
 3133SOL    HW110298   3.216   1.078   3.110
 3133SOL    HW210299   3.121   0.970   3.187
 3134SOL     OW10300   4.517   3.836   1.281
 3134SOL    HW110301   4.555   3.875   1.196
 3134SOL    HW210302   4.536   3.898   1.357
 3135SOL     OW10303   4.271   0.194   6.056
 3135SOL    HW110304   4.237   0.262   5.991
 3135SOL    HW210305   4.222   0.204   6.143
 3136SOL     OW10306   5.400   0.187   2.566
 3136SOL    HW110307   5.315   0.143   2.597
 3136SOL    HW210308   5.464   0.193   2.642
 3137SOL     OW10309   6.128   0.391   2.829
 3137SOL    HW110310   6.175   0.478   2.839
 3137SOL    HW210311   6.189   0.317   2.860
 3138SOL     OW10312   0.004   5.484   3.108
 3138SOL    HW110313   6.930   5.513   3.136
 3138SOL    HW210314   0.024   5.395   3.148
 3139SOL     OW10315   4.051   5.359   0.338
 3139SOL    HW110316   3.967   5.381   0.389
 3139SOL    HW210317   4.125   5.418   0.369
 3140SOL     OW10318   6.954   6.145   0.328
 3140SOL    HW110319   6.862   6.181   0.309
 3140SOL    HW210320   6.954   6.046   0.317
 3141SOL     OW10321   0.861   0.449   6.512
 3141SOL    HW110322   0.955   0.427   6.539
 3141SOL    HW210323   0.861   0.481   6.417
 3142SOL     OW10324   3.210   6.882   2.692
 3142SOL    HW110325   3.172   6.963   2.648
 3142SOL    HW210326   3.147   6.850   2.762
 3143SOL     OW10327   6.934   1.961   0.615
 3143SOL    HW110328   6.929   1.895   0.540
 3143SOL    HW210329   6.966   2.049   0.581
 3144SOL     OW10330   4.076   3.689   1.071
 3144SOL    HW110331   4.101   3.723   1.161
 3144SOL    HW210332   3.991   3.637   1.077
 3145SOL     OW10333   2.059   6.170   2.245
 3145SOL    HW110334   2.021   6.227   2.318
 3145SOL    HW210335   2.136   6.219   2.202
 3146SOL     OW10336   0.645   1.621   4.581
 3146SOL    HW110337   0.691   1.701   4.543
 3146SOL    HW210338   0.547   1.636   4.584
 3147SOL     OW10339   2.926   5.196   0.728
 3147SOL    HW110340   2.911   5.112   0.677
 3147SOL    HW210341   3.012   5.238   0.698
 3148SOL     OW10342   6.530   0.243   3.359
 3148SOL    HW110343   6.434   0.240   3.386
 3148SOL    HW210344   6.581   0.172   3.408
 3149SOL     OW10345   3.329   0.469   5.737
 3149SOL    HW110346   3.370   0.515   5.658
 3149SOL    HW210347   3.351   0.521   5.820
 3150SOL     OW10348   6.695   5.829   5.221
 3150SOL    HW110349   6.733   5.892   5.154
 3150SOL    HW210350   6.733   5.850   5.311
 3151SOL     OW10351   0.443   0.770   4.929
 3151SOL    HW110352   0.480   0.678   4.925
 3151SOL    HW210353   0.362   0.772   4.987
 3152SOL     OW10354   0.584   5.418   1.241
 3152SOL    HW110355   0.532   5.452   1.163
 3152SOL    HW210356   0.575   5.318   1.246
 3153SOL     OW10357   6.328   5.327   0.597
 3153SOL    HW110358   6.400   5.279   0.647
 3153SOL    HW210359   6.368   5.379   0.522
 3154SOL     OW10360   0.424   1.958   6.458
 3154SOL    HW110361   0.502   1.951   6.520
 3154SOL    HW210362   0.407   1.870   6.415
 3155SOL     OW10363   6.699   4.428   0.746
 3155SOL    HW110364   6.649   4.341   0.753
 3155SOL    HW210365   6.787   4.419   0.792
 3156SOL     OW10366   3.771   2.907   2.618
 3156SOL    HW110367   3.857   2.948   2.587
 3156SOL    HW210368   3.774   2.896   2.717
 3157SOL     OW10369   2.312   1.687   5.177
 3157SOL    HW110370   2.382   1.758   5.183
 3157SOL    HW210371   2.256   1.689   5.260
 3158SOL     OW10372   3.487   1.842   3.683
 3158SOL    HW110373   3.577   1.803   3.663
 3158SOL    HW210374   3.416   1.776   3.662
 3159SOL     OW10375   5.933   0.837   0.103
 3159SOL    HW110376   5.939   0.936   0.116
 3159SOL    HW210377   5.893   0.794   0.184
 3160SOL     OW10378   0.592   5.948   5.623
 3160SOL    HW110379   0.595   5.848   5.615
 3160SOL    HW210380   0.682   5.982   5.649
 3161SOL     OW10381   2.296   2.881   2.925
 3161SOL    HW110382   2.269   2.976   2.908
 3161SOL    HW210383   2.352   2.848   2.849
 3162SOL     OW10384   1.516   5.798   1.391
 3162SOL    HW110385   1.426   5.816   1.431
 3162SOL    HW210386   1.565   5.731   1.446
 3163SOL     OW10387   4.521   3.192   6.577
 3163SOL    HW110388   4.458   3.116   6.591
 3163SOL    HW210389   4.474   3.278   6.593
 3164SOL     OW10390   3.943   5.656   0.894
 3164SOL    HW110391   3.844   5.655   0.883
 3164SOL    HW210392   3.974   5.566   0.927
 3165SOL     OW10393   0.986   6.736   1.127
 3165SOL    HW110394   1.045   6.800   1.077
 3165SOL    HW210395   1.038   6.654   1.149
 3166SOL     OW10396   4.016   1.555   3.913
 3166SOL    HW110397   4.012   1.563   4.012
 3166SOL    HW210398   3.961   1.477   3.883
 3167SOL     OW10399   6.473   4.734   0.719
 3167SOL    HW110400   6.466   4.718   0.620
 3167SOL    HW210401   6.569   4.728   0.746
 3168SOL     OW10402   5.042   3.247   0.552
 3168SOL    HW110403   4.966   3.205   0.503
 3168SOL    HW210404   5.111   3.177   0.573
 3169SOL     OW10405   2.231   4.156   4.133
 3169SOL    HW110406   2.155   4.218   4.151
 3169SOL    HW210407   2.199   4.080   4.077
 3170SOL     OW10408   4.102   5.901   1.436
 3170SOL    HW110409   4.070   5.955   1.515
 3170SOL    HW210410   4.041   5.916   1.359
 3171SOL     OW10411   6.881   1.221   2.443
 3171SOL    HW110412   6.820   1.219   2.523
 3171SOL    HW210413   6.836   1.267   2.367
 3172SOL     OW10414   0.170   5.857   0.375
 3172SOL    HW110415   0.085   5.862   0.323
 3172SOL    HW210416   0.217   5.772   0.353
 3173SOL     OW10417   3.130   2.217   0.332
 3173SOL    HW110418   3.105   2.185   0.424
 3173SOL    HW210419   3.094   2.309   0.318
 3174SOL     OW10420   2.973   2.414   0.245
 3174SOL    HW110421   2.948   2.484   0.312
 3174SOL    HW210422   2.895   2.397   0.185
 3175SOL     OW10423   6.027   0.867   1.648
 3175SOL    HW110424   5.946   0.921   1.623
 3175SOL    HW210425   6.103   0.891   1.588
 3176SOL     OW10426   1.667   4.193   5.990
 3176SOL    HW110427   1.623   4.148   5.912
 3176SOL    HW210428   1.641   4.146   6.075
 3177SOL     OW10429   4.829   3.969   3.676
 3177SOL    HW110430   4.836   3.890   3.737
 3177SOL    HW210431   4.838   3.939   3.581
 3178SOL     OW10432   6.785   2.360   0.551
 3178SOL    HW110433   6.742   2.425   0.613
 3178SOL    HW210434   6.723   2.342   0.474
 3179SOL     OW10435   0.784   2.824   2.197
 3179SOL    HW110436   0.873   2.790   2.228
 3179SOL    HW210437   0.791   2.923   2.181
 3180SOL     OW10438   5.671   0.873   6.809
 3180SOL    HW110439   5.596   0.913   6.755
 3180SOL    HW210440   5.651   0.776   6.826
 3181SOL     OW10441   0.168   2.042   3.097
 3181SOL    HW110442   0.189   1.980   3.021
 3181SOL    HW210443   0.105   2.113   3.065
 3182SOL     OW10444   2.436   0.290   6.634
 3182SOL    HW110445   2.439   0.368   6.697
 3182SOL    HW210446   2.342   0.255   6.629
 3183SOL     OW10447   5.204   4.195   1.841
 3183SOL    HW110448   5.132   4.239   1.789
 3183SOL    HW210449   5.164   4.144   1.917
 3184SOL     OW10450   0.569   3.397   3.034
 3184SOL    HW110451   0.615   3.310   3.018
 3184SOL    HW210452   0.492   3.384   3.097
 3185SOL     OW10453   5.025   5.934   6.814
 3185SOL    HW110454   5.112   5.964   6.775
 3185SOL    HW210455   4.998   5.847   6.772
 3186SOL     OW10456   3.169   2.215   1.458
 3186SOL    HW110457   3.217   2.160   1.390
 3186SOL    HW210458   3.082   2.172   1.481
 3187SOL     OW10459   4.549   4.358   0.659
 3187SOL    HW110460   4.470   4.364   0.598
 3187SOL    HW210461   4.537   4.421   0.736
 3188SOL     OW10462   1.419   0.206   3.976
 3188SOL    HW110463   1.512   0.224   3.945
 3188SOL    HW210464   1.360   0.190   3.897
 3189SOL     OW10465   1.477   1.727   1.221
 3189SOL    HW110466   1.448   1.661   1.291
 3189SOL    HW210467   1.426   1.711   1.137
 3190SOL     OW10468   0.798   5.582   0.131
 3190SOL    HW110469   0.787   5.512   0.060
 3190SOL    HW210470   0.781   5.672   0.091
 3191SOL     OW10471   4.938   5.490   1.072
 3191SOL    HW110472   4.921   5.539   0.986
 3191SOL    HW210473   5.029   5.448   1.069
 3192SOL     OW10474   0.455   3.090   1.679
 3192SOL    HW110475   0.456   3.052   1.587
 3192SOL    HW210476   0.367   3.070   1.723
 3193SOL     OW10477   4.006   1.133   6.695
 3193SOL    HW110478   3.925   1.186   6.723
 3193SOL    HW210479   4.076   1.196   6.663
 3194SOL     OW10480   1.534   1.871   6.752
 3194SOL    HW110481   1.526   1.781   6.710
 3194SOL    HW210482   1.608   1.923   6.707
 3195SOL     OW10483   2.849   1.159   3.231
 3195SOL    HW110484   2.811   1.069   3.252
 3195SOL    HW210485   2.949   1.153   3.229
 3196SOL     OW10486   0.399   0.143   6.186
 3196SOL    HW110487   0.341   0.223   6.202
 3196SOL    HW210488   0.475   0.168   6.126
 3197SOL     OW10489   2.851   6.781   3.835
 3197SOL    HW110490   2.764   6.792   3.786
 3197SOL    HW210491   2.837   6.727   3.917
 3198SOL     OW10492   6.166   2.784   4.498
 3198SOL    HW110493   6.254   2.802   4.453
 3198SOL    HW210494   6.181   2.762   4.594
 3199SOL     OW10495   4.883   3.994   2.741
 3199SOL    HW110496   4.975   4.001   2.702
 3199SOL    HW210497   4.889   3.997   2.841
 3200SOL     OW10498   6.321   3.525   2.540
 3200SOL    HW110499   6.418   3.504   2.527
 3200SOL    HW210500   6.267   3.444   2.520
 3201SOL     OW10501   6.202   4.884   4.308
 3201SOL    HW110502   6.196   4.964   4.368
 3201SOL    HW210503   6.230   4.913   4.216
 3202SOL     OW10504   0.663   4.677   1.891
 3202SOL    HW110505   0.691   4.590   1.931
 3202SOL    HW210506   0.730   4.747   1.916
 3203SOL     OW10507   6.591   2.289   0.361
 3203SOL    HW110508   6.498   2.316   0.389
 3203SOL    HW210509   6.604   2.191   0.376
 3204SOL     OW10510   4.507   6.329   3.493
 3204SOL    HW110511   4.445   6.295   3.564
 3204SOL    HW210512   4.550   6.414   3.523
 3205SOL     OW10513   6.203   2.805   6.188
 3205SOL    HW110514   6.211   2.893   6.234
 3205SOL    HW210515   6.116   2.802   6.138
 3206SOL     OW10516   1.808   4.816   0.045
 3206SOL    HW110517   1.739   4.855   7.002
 3206SOL    HW210518   1.764   4.782   0.127
 3207SOL     OW10519   0.671   1.406   6.168
 3207SOL    HW110520   0.714   1.406   6.258
 3207SOL    HW210521   0.742   1.397   6.097
 3208SOL     OW10522   4.987   6.016   5.780
 3208SOL    HW110523   4.988   5.971   5.869
 3208SOL    HW210524   4.896   6.009   5.740
 3209SOL     OW10525   4.309   5.834   3.023
 3209SOL    HW110526   4.344   5.907   3.081
 3209SOL    HW210527   4.215   5.812   3.051
 3210SOL     OW10528   0.841   4.825   1.307
 3210SOL    HW110529   0.851   4.731   1.274
 3210SOL    HW210530   0.757   4.834   1.360
 3211SOL     OW10531   1.702   3.600   0.924
 3211SOL    HW110532   1.662   3.602   1.016
 3211SOL    HW210533   1.784   3.657   0.923
 3212SOL     OW10534   3.069   0.063   1.261
 3212SOL    HW110535   3.017   6.995   1.258
 3212SOL    HW210536   3.106   0.076   1.353
 3213SOL     OW10537   1.075   6.858   0.846
 3213SOL    HW110538   1.005   6.898   0.787
 3213SOL    HW210539   1.089   6.762   0.823
 3214SOL     OW10540   4.403   5.399   0.327
 3214SOL    HW110541   4.416   5.299   0.326
 3214SOL    HW210542   4.369   5.427   0.416
 3215SOL     OW10543   6.955   2.834   1.255
 3215SOL    HW110544   6.916   2.784   1.178
 3215SOL    HW210545   0.025   2.793   1.280
 3216SOL     OW10546   6.662   5.076   0.261
 3216SOL    HW110547   6.706   5.061   0.172
 3216SOL    HW210548   6.682   5.000   0.322
 3217SOL     OW10549   6.734   5.340   2.317
 3217SOL    HW110550   6.780   5.420   2.356
 3217SOL    HW210551   6.690   5.364   2.231
 3218SOL     OW10552   4.341   1.923   3.488
 3218SOL    HW110553   4.379   1.969   3.568
 3218SOL    HW210554   4.356   1.979   3.407
 3219SOL     OW10555   0.306   2.174   3.307
 3219SOL    HW110556   0.278   2.115   3.231
 3219SOL    HW210557   0.401   2.204   3.292
 3220SOL     OW10558   6.925   5.367   7.013
 3220SOL    HW110559   6.866   5.340   6.937
 3220SOL    HW210560   6.963   5.457   6.995
 3221SOL     OW10561   4.155   0.632   1.437
 3221SOL    HW110562   4.155   0.720   1.485
 3221SOL    HW210563   4.233   0.578   1.467
 3222SOL     OW10564   3.499   1.507   2.670
 3222SOL    HW110565   3.487   1.522   2.768
 3222SOL    HW210566   3.443   1.430   2.641
 3223SOL     OW10567   2.038   6.430   6.095
 3223SOL    HW110568   1.977   6.503   6.065
 3223SOL    HW210569   2.037   6.355   6.029
 3224SOL     OW10570   4.276   3.952   5.673
 3224SOL    HW110571   4.317   3.867   5.703
 3224SOL    HW210572   4.326   4.030   5.711
 3225SOL     OW10573   5.564   2.654   6.353
 3225SOL    HW110574   5.501   2.720   6.313
 3225SOL    HW210575   5.552   2.652   6.452
 3226SOL     OW10576   2.328   1.590   3.133
 3226SOL    HW110577   2.427   1.577   3.136
 3226SOL    HW210578   2.304   1.640   3.049
 3227SOL     OW10579   3.555   2.318   6.950
 3227SOL    HW110580   3.480   2.384   6.953
 3227SOL    HW210581   3.534   2.241   7.010
 3228SOL     OW10582   0.227   4.070   2.432
 3228SOL    HW110583   0.232   4.158   2.384
 3228SOL    HW210584   0.131   4.041   2.437
 3229SOL     OW10585   4.182   0.347   4.719
 3229SOL    HW110586   4.275   0.320   4.744
 3229SOL    HW210587   4.135   0.269   4.678
 3230SOL     OW10588   2.319   3.907   5.505
 3230SOL    HW110589   2.404   3.926   5.456
 3230SOL    HW210590   2.246   3.889   5.439
 3231SOL     OW10591   3.046   0.546   1.506
 3231SOL    HW110592   2.970   0.607   1.483
 3231SOL    HW210593   3.067   0.488   1.427
 3232SOL     OW10594   5.019   5.891   5.023
 3232SOL    HW110595   4.957   5.965   4.997
 3232SOL    HW210596   5.035   5.895   5.122
 3233SOL     OW10597   0.901   2.594   1.724
 3233SOL    HW110598   0.858   2.578   1.812
 3233SOL    HW210599   0.855   2.539   1.654
 3234SOL     OW10600   0.338   1.700   0.208
 3234SOL    HW110601   0.342   1.790   0.250
 3234SOL    HW210602   0.370   1.705   0.113
 3235SOL     OW10603   5.519   0.628   2.383
 3235SOL    HW110604   5.526   0.648   2.481
 3235SOL    HW210605   5.449   0.558   2.369
 3236SOL     OW10606   1.573   3.243   0.122
 3236SOL    HW110607   1.530   3.157   0.097
 3236SOL    HW210608   1.563   3.258   0.221
 3237SOL     OW10609   5.045   1.216   3.822
 3237SOL    HW110610   5.119   1.249   3.881
 3237SOL    HW210611   5.085   1.169   3.743
 3238SOL     OW10612   6.972   5.677   0.788
 3238SOL    HW110613   6.979   5.759   0.731
 3238SOL    HW210614   6.906   5.692   0.861
 3239SOL     OW10615   6.589   1.438   2.397
 3239SOL    HW110616   6.528   1.485   2.334
 3239SOL    HW210617   6.650   1.377   2.345
 3240SOL     OW10618   0.049   6.803   6.584
 3240SOL    HW110619   0.008   6.770   6.499
 3240SOL    HW210620   0.042   6.903   6.588
 3241SOL     OW10621   4.534   1.471   4.985
 3241SOL    HW110622   4.590   1.414   4.924
 3241SOL    HW210623   4.513   1.557   4.939
 3242SOL     OW10624   3.927   3.766   6.915
 3242SOL    HW110625   3.884   3.763   7.005
 3242SOL    HW210626   3.859   3.741   6.845
 3243SOL     OW10627   4.199   4.143   0.599
 3243SOL    HW110628   4.165   4.196   0.521
 3243SOL    HW210629   4.180   4.046   0.584
 3244SOL     OW10630   4.563   5.359   0.089
 3244SOL    HW110631   4.652   5.315   0.076
 3244SOL    HW210632   4.552   5.433   0.022
 3245SOL     OW10633   5.349   3.296   5.344
 3245SOL    HW110634   5.438   3.287   5.300
 3245SOL    HW210635   5.291   3.218   5.318
 3246SOL     OW10636   5.932   0.145   2.480
 3246SOL    HW110637   5.896   0.185   2.564
 3246SOL    HW210638   5.936   0.215   2.408
 3247SOL     OW10639   5.967   4.955   2.767
 3247SOL    HW110640   5.947   4.900   2.848
 3247SOL    HW210641   6.004   5.044   2.796
 3248SOL     OW10642   6.360   3.646   1.113
 3248SOL    HW110643   6.413   3.586   1.174
 3248SOL    HW210644   6.266   3.611   1.106
 3249SOL     OW10645   3.988   3.123   4.388
 3249SOL    HW110646   3.917   3.056   4.410
 3249SOL    HW210647   4.028   3.158   4.473
 3250SOL     OW10648   5.357   0.020   1.909
 3250SOL    HW110649   5.430   0.088   1.903
 3250SOL    HW210650   5.269   0.065   1.893
 3251SOL     OW10651   3.396   0.735   3.331
 3251SOL    HW110652   3.338   0.784   3.396
 3251SOL    HW210653   3.364   0.750   3.238
 3252SOL     OW10654   2.348   1.321   2.865
 3252SOL    HW110655   2.416   1.376   2.912
 3252SOL    HW210656   2.304   1.259   2.930
 3253SOL     OW10657   4.917   4.367   1.878
 3253SOL    HW110658   4.960   4.342   1.792
 3253SOL    HW210659   4.881   4.460   1.871
 3254SOL     OW10660   4.996   5.714   5.750
 3254SOL    HW110661   4.952   5.634   5.709
 3254SOL    HW210662   4.961   5.726   5.843
 3255SOL     OW10663   5.792   6.022   0.292
 3255SOL    HW110664   5.792   6.122   0.297
 3255SOL    HW210665   5.788   5.993   0.197
 3256SOL     OW10666   3.370   1.199   0.563
 3256SOL    HW110667   3.325   1.111   0.549
 3256SOL    HW210668   3.384   1.244   0.475
 3257SOL     OW10669   1.687   1.914   1.995
 3257SOL    HW110670   1.762   1.926   1.930
 3257SOL    HW210671   1.691   1.986   2.064
 3258SOL     OW10672   4.397   4.932   1.901
 3258SOL    HW110673   4.429   5.024   1.925
 3258SOL    HW210674   4.397   4.922   1.801
 3259SOL     OW10675   5.024   5.448   4.028
 3259SOL    HW110676   5.071   5.474   3.944
 3259SOL    HW210677   5.079   5.476   4.107
 3260SOL     OW10678   1.315   2.004   1.230
 3260SOL    HW110679   1.273   1.923   1.271
 3260SOL    HW210680   1.412   2.008   1.255
 3261SOL     OW10681   5.947   0.659   1.087
 3261SOL    HW110682   5.857   0.684   1.121
 3261SOL    HW210683   5.948   0.666   0.987
 3262SOL     OW10684   2.905   1.777   2.908
 3262SOL    HW110685   2.977   1.845   2.898
 3262SOL    HW210686   2.869   1.753   2.818
 3263SOL     OW10687   2.421   0.648   3.353
 3263SOL    HW110688   2.341   0.705   3.331
 3263SOL    HW210689   2.405   0.601   3.439
 3264SOL     OW10690   1.321   4.189   0.471
 3264SOL    HW110691   1.347   4.261   0.535
 3264SOL    HW210692   1.343   4.100   0.512
 3265SOL     OW10693   5.841   0.604   6.229
 3265SOL    HW110694   5.828   0.695   6.269
 3265SOL    HW210695   5.851   0.612   6.130
 3266SOL     OW10696   1.847   3.713   0.415
 3266SOL    HW110697   1.905   3.794   0.407
 3266SOL    HW210698   1.778   3.713   0.343
 3267SOL     OW10699   3.410   6.844   0.816
 3267SOL    HW110700   3.453   6.781   0.880
 3267SOL    HW210701   3.345   6.902   0.864
 3268SOL     OW10702   1.197   3.445   1.140
 3268SOL    HW110703   1.211   3.358   1.093
 3268SOL    HW210704   1.104   3.478   1.123
 3269SOL     OW10705   4.964   5.489   2.052
 3269SOL    HW110706   4.902   5.447   2.118
 3269SOL    HW210707   4.941   5.585   2.040
 3270SOL     OW10708   1.142   4.368   6.369
 3270SOL    HW110709   1.110   4.421   6.290
 3270SOL    HW210710   1.197   4.428   6.428
 3271SOL     OW10711   5.629   3.764   2.604
 3271SOL    HW110712   5.619   3.670   2.635
 3271SOL    HW210713   5.580   3.826   2.665
 3272SOL     OW10714   3.776   4.656   6.107
 3272SOL    HW110715   3.848   4.592   6.081
 3272SOL    HW210716   3.817   4.745   6.127
 3273SOL     OW10717   0.478   6.392   0.882
 3273SOL    HW110718   0.523   6.377   0.970
 3273SOL    HW210719   0.412   6.319   0.866
 3274SOL     OW10720   5.008   0.650   0.943
 3274SOL    HW110721   4.914   0.667   0.913
 3274SOL    HW210722   5.061   0.734   0.938
 3275SOL     OW10723   6.576   1.853   6.456
 3275SOL    HW110724   6.544   1.795   6.531
 3275SOL    HW210725   6.668   1.826   6.429
 3276SOL     OW10726   2.485   5.534   0.239
 3276SOL    HW110727   2.396   5.532   0.284
 3276SOL    HW210728   2.553   5.493   0.299
 3277SOL     OW10729   3.896   6.948   6.727
 3277SOL    HW110730   3.840   6.940   6.644
 3277SOL    HW210731   3.910   6.858   6.767
 3278SOL     OW10732   0.793   1.373   5.298
 3278SOL    HW110733   0.696   1.349   5.300
 3278SOL    HW210734   0.827   1.368   5.204
 3279SOL     OW10735   5.436   0.364   0.235
 3279SOL    HW110736   5.362   0.382   0.170
 3279SOL    HW210737   5.521   0.401   0.199
 3280SOL     OW10738   3.886   4.998   4.683
 3280SOL    HW110739   3.913   5.083   4.638
 3280SOL    HW210740   3.812   5.016   4.748
 3281SOL     OW10741   2.115   5.412   1.995
 3281SOL    HW110742   2.100   5.409   1.896
 3281SOL    HW210743   2.102   5.505   2.028
 3282SOL     OW10744   0.231   4.700   5.766
 3282SOL    HW110745   0.267   4.765   5.833
 3282SOL    HW210746   0.164   4.747   5.708
 3283SOL     OW10747   3.619   0.705   0.870
 3283SOL    HW110748   3.627   0.804   0.864
 3283SOL    HW210749   3.678   0.670   0.943
 3284SOL     OW10750   0.087   5.387   0.259
 3284SOL    HW110751   0.034   5.335   0.326
 3284SOL    HW210752   0.034   5.396   0.175
 3285SOL     OW10753   4.731   2.707   3.589
 3285SOL    HW110754   4.724   2.802   3.557
 3285SOL    HW210755   4.665   2.650   3.539
 3286SOL     OW10756   3.663   3.328   2.759
 3286SOL    HW110757   3.739   3.267   2.780
 3286SOL    HW210758   3.698   3.416   2.729
 3287SOL     OW10759   0.401   0.527   6.720
 3287SOL    HW110760   0.318   0.473   6.730
 3287SOL    HW210761   0.476   0.483   6.769
 3288SOL     OW10762   0.717   5.683   5.857
 3288SOL    HW110763   0.710   5.779   5.884
 3288SOL    HW210764   0.669   5.670   5.770
 3289SOL     OW10765   2.738   6.900   5.600
 3289SOL    HW110766   2.705   6.966   5.533
 3289SOL    HW210767   2.818   6.937   5.648
 3290SOL     OW10768   0.328   0.024   2.097
 3290SOL    HW110769   0.416   0.068   2.077
 3290SOL    HW210770   0.254   0.080   2.058
 3291SOL     OW10771   1.432   6.770   0.813
 3291SOL    HW110772   1.350   6.822   0.789
 3291SOL    HW210773   1.434   6.755   0.912
 3292SOL     OW10774   0.836   0.985   0.773
 3292SOL    HW110775   0.755   1.035   0.804
 3292SOL    HW210776   0.865   1.019   0.684
 3293SOL     OW10777   0.102   3.429   2.309
 3293SOL    HW110778   0.008   3.421   2.343
 3293SOL    HW210779   0.146   3.339   2.312
 3294SOL     OW10780   6.148   1.763   6.804
 3294SOL    HW110781   6.052   1.778   6.826
 3294SOL    HW210782   6.156   1.730   6.710
 3295SOL     OW10783   1.447   3.203   2.031
 3295SOL    HW110784   1.544   3.183   2.045
 3295SOL    HW210785   1.400   3.119   2.002
 3296SOL     OW10786   1.592   0.210   2.349
 3296SOL    HW110787   1.560   0.185   2.440
 3296SOL    HW210788   1.691   0.225   2.352
 3297SOL     OW10789   2.580   0.585   4.507
 3297SOL    HW110790   2.535   0.535   4.434
 3297SOL    HW210791   2.679   0.577   4.497
 3298SOL     OW10792   5.807   1.724   4.949
 3298SOL    HW110793   5.854   1.636   4.944
 3298SOL    HW210794   5.713   1.711   4.980
 3299SOL     OW10795   2.933   5.823   3.001
 3299SOL    HW110796   2.847   5.860   2.965
 3299SOL    HW210797   2.975   5.890   3.062
 3300SOL     OW10798   6.446   0.517   5.739
 3300SOL    HW110799   6.347   0.529   5.735
 3300SOL    HW210800   6.468   0.420   5.728
 3301SOL     OW10801   2.002   2.907   3.543
 3301SOL    HW110802   1.926   2.929   3.604
 3301SOL    HW210803   1.982   2.823   3.493
 3302SOL     OW10804   0.001   4.848   5.663
 3302SOL    HW110805   6.953   4.791   5.712
 3302SOL    HW210806   6.990   4.944   5.668
 3303SOL     OW10807   3.428   3.333   1.378
 3303SOL    HW110808   3.340   3.375   1.354
 3303SOL    HW210809   3.437   3.329   1.477
 3304SOL     OW10810   0.736   5.728   4.032
 3304SOL    HW110811   0.695   5.742   3.942
 3304SOL    HW210812   0.752   5.817   4.075
 3305SOL     OW10813   2.541   1.268   2.380
 3305SOL    HW110814   2.497   1.240   2.465
 3305SOL    HW210815   2.489   1.344   2.339
 3306SOL     OW10816   1.999   5.734   5.157
 3306SOL    HW110817   1.969   5.642   5.131
 3306SOL    HW210818   1.945   5.767   5.234
 3307SOL     OW10819   0.302   5.420   6.957
 3307SOL    HW110820   0.229   5.477   6.995
 3307SOL    HW210821   0.308   5.435   6.858
 3308SOL     OW10822   2.949   6.026   1.054
 3308SOL    HW110823   2.962   6.096   0.984
 3308SOL    HW210824   2.867   5.972   1.033
 3309SOL     OW10825   0.204   5.880   2.719
 3309SOL    HW110826   0.178   5.975   2.706
 3309SOL    HW210827   0.294   5.875   2.762
 3310SOL     OW10828   6.903   3.056   6.102
 3310SOL    HW110829   6.964   3.060   6.023
 3310SOL    HW210830   6.840   2.979   6.090
 3311SOL     OW10831   2.298   4.178   1.533
 3311SOL    HW110832   2.214   4.233   1.536
 3311SOL    HW210833   2.354   4.199   1.613
 3312SOL     OW10834   4.442   4.464   5.864
 3312SOL    HW110835   4.441   4.522   5.783
 3312SOL    HW210836   4.349   4.452   5.898
 3313SOL     OW10837   1.026   5.156   3.688
 3313SOL    HW110838   1.090   5.189   3.619
 3313SOL    HW210839   1.033   5.213   3.770
 3314SOL     OW10840   2.735   1.325   3.049
 3314SOL    HW110841   2.771   1.255   3.111
 3314SOL    HW210842   2.726   1.287   2.957
 3315SOL     OW10843   6.527   3.879   4.787
 3315SOL    HW110844   6.475   3.793   4.791
 3315SOL    HW210845   6.511   3.923   4.699
 3316SOL     OW10846   5.063   1.429   6.122
 3316SOL    HW110847   4.980   1.409   6.071
 3316SOL    HW210848   5.040   1.478   6.206
 3317SOL     OW10849   4.350   3.165   1.720
 3317SOL    HW110850   4.265   3.147   1.769
 3317SOL    HW210851   4.428   3.134   1.774
 3318SOL     OW10852   2.125   1.238   0.984
 3318SOL    HW110853   2.136   1.189   0.898
 3318SOL    HW210854   2.203   1.298   0.999
 3319SOL     OW10855   0.050   0.924   3.798
 3319SOL    HW110856   6.999   0.979   3.845
 3319SOL    HW210857   0.077   0.970   3.713
 3320SOL     OW10858   5.975   6.792   4.877
 3320SOL    HW110859   6.049   6.747   4.926
 3320SOL    HW210860   5.992   6.786   4.778
 3321SOL     OW10861   4.668   1.851   0.322
 3321SOL    HW110862   4.733   1.888   0.256
 3321SOL    HW210863   4.583   1.827   0.276
 3322SOL     OW10864   6.075   3.056   0.802
 3322SOL    HW110865   6.024   3.121   0.858
 3322SOL    HW210866   6.172   3.082   0.800
 3323SOL     OW10867   2.737   3.182   0.648
 3323SOL    HW110868   2.732   3.095   0.598
 3323SOL    HW210869   2.773   3.253   0.587
 3324SOL     OW10870   3.244   5.696   6.995
 3324SOL    HW110871   3.281   5.714   0.068
 3324SOL    HW210872   3.308   5.729   6.925
 3325SOL     OW10873   1.091   2.888   0.069
 3325SOL    HW110874   1.028   2.813   0.087
 3325SOL    HW210875   1.041   2.975   0.072
 3326SOL     OW10876   4.755   2.311   1.664
 3326SOL    HW110877   4.817   2.261   1.725
 3326SOL    HW210878   4.782   2.407   1.660
 3327SOL     OW10879   2.787   6.236   2.052
 3327SOL    HW110880   2.795   6.334   2.067
 3327SOL    HW210881   2.695   6.214   2.020
 3328SOL     OW10882   3.808   2.038   0.464
 3328SOL    HW110883   3.711   2.046   0.487
 3328SOL    HW210884   3.846   2.129   0.445
 3329SOL     OW10885   4.806   0.223   4.629
 3329SOL    HW110886   4.730   0.201   4.568
 3329SOL    HW210887   4.884   0.165   4.606
 3330SOL     OW10888   6.269   4.940   1.458
 3330SOL    HW110889   6.188   4.934   1.399
 3330SOL    HW210890   6.347   4.900   1.411
 3331SOL     OW10891   1.792   3.223   1.229
 3331SOL    HW110892   1.738   3.281   1.289
 3331SOL    HW210893   1.801   3.132   1.270
 3332SOL     OW10894   6.281   4.765   6.929
 3332SOL    HW110895   6.204   4.828   6.937
 3332SOL    HW210896   6.280   4.701   7.006
 3333SOL     OW10897   3.880   4.123   6.724
 3333SOL    HW110898   3.873   4.220   6.702
 3333SOL    HW210899   3.965   4.086   6.687
 3334SOL     OW10900   2.820   3.477   1.099
 3334SOL    HW110901   2.829   3.498   1.196
 3334SOL    HW210902   2.749   3.535   1.058
 3335SOL     OW10903   5.111   6.597   5.464
 3335SOL    HW110904   5.058   6.544   5.530
 3335SOL    HW210905   5.178   6.654   5.513
 3336SOL     OW10906   1.719   6.509   4.745
 3336SOL    HW110907   1.792   6.555   4.796
 3336SOL    HW210908   1.711   6.415   4.778
 3337SOL     OW10909   2.946   3.788   1.953
 3337SOL    HW110910   2.960   3.782   2.052
 3337SOL    HW210911   2.963   3.698   1.912
 3338SOL     OW10912   5.501   3.397   2.333
 3338SOL    HW110913   5.576   3.384   2.397
 3338SOL    HW210914   5.420   3.348   2.365
 3339SOL     OW10915   6.948   0.345   6.905
 3339SOL    HW110916   0.029   0.335   6.899
 3339SOL    HW210917   6.904   0.269   6.858
 3340SOL     OW10918   4.031   1.879   2.827
 3340SOL    HW110919   3.942   1.926   2.833
 3340SOL    HW210920   4.067   1.863   2.919
 3341SOL     OW10921   1.256   5.554   3.390
 3341SOL    HW110922   1.276   5.582   3.484
 3341SOL    HW210923   1.314   5.605   3.327
 3342SOL     OW10924   1.910   6.919   4.029
 3342SOL    HW110925   1.941   6.856   4.100
 3342SOL    HW210926   1.959   6.900   3.944
 3343SOL     OW10927   5.817   3.387   0.318
 3343SOL    HW110928   5.749   3.323   0.354
 3343SOL    HW210929   5.892   3.337   0.275
 3344SOL     OW10930   5.879   3.241   4.045
 3344SOL    HW110931   5.951   3.309   4.058
 3344SOL    HW210932   5.897   3.188   3.962
 3345SOL     OW10933   1.778   3.053   5.724
 3345SOL    HW110934   1.818   3.143   5.738
 3345SOL    HW210935   1.825   3.007   5.649
 3346SOL     OW10936   1.833   0.878   0.487
 3346SOL    HW110937   1.798   0.832   0.406
 3346SOL    HW210938   1.756   0.920   0.537
 3347SOL     OW10939   0.804   3.572   5.974
 3347SOL    HW110940   0.723   3.620   5.944
 3347SOL    HW210941   0.830   3.503   5.906
 3348SOL     OW10942   3.378   3.846   4.231
 3348SOL    HW110943   3.462   3.805   4.196
 3348SOL    HW210944   3.339   3.786   4.301
 3349SOL     OW10945   1.040   5.387   2.857
 3349SOL    HW110946   1.113   5.456   2.857
 3349SOL    HW210947   1.055   5.323   2.932
 3350SOL     OW10948   0.496   2.791   5.854
 3350SOL    HW110949   0.563   2.720   5.878
 3350SOL    HW210950   0.539   2.858   5.793
 3351SOL     OW10951   4.638   1.447   2.121
 3351SOL    HW110952   4.592   1.535   2.114
 3351SOL    HW210953   4.736   1.461   2.138
 3352SOL     OW10954   0.265   2.405   0.413
 3352SOL    HW110955   0.239   2.405   0.317
 3352SOL    HW210956   0.185   2.389   0.470
 3353SOL     OW10957   2.310   5.588   1.699
 3353SOL    HW110958   2.382   5.593   1.768
 3353SOL    HW210959   2.281   5.680   1.674
 3354SOL     OW10960   4.994   2.873   5.263
 3354SOL    HW110961   5.051   2.791   5.276
 3354SOL    HW210962   4.911   2.864   5.318
 3355SOL     OW10963   2.080   2.252   6.479
 3355SOL    HW110964   2.141   2.174   6.468
 3355SOL    HW210965   2.083   2.309   6.397
 3356SOL     OW10966   0.484   4.901   5.412
 3356SOL    HW110967   0.385   4.898   5.425
 3356SOL    HW210968   0.530   4.887   5.499
 3357SOL     OW10969   2.341   4.097   1.853
 3357SOL    HW110970   2.388   4.044   1.924
 3357SOL    HW210971   2.405   4.162   1.812
 3358SOL     OW10972   4.574   1.415   0.773
 3358SOL    HW110973   4.547   1.498   0.725
 3358SOL    HW210974   4.511   1.398   0.848
 3359SOL     OW10975   0.321   6.753   2.799
 3359SOL    HW110976   0.407   6.795   2.769
 3359SOL    HW210977   0.330   6.654   2.798
 3360SOL     OW10978   1.297   1.632   7.004
 3360SOL    HW110979   1.232   1.568   0.027
 3360SOL    HW210980   1.303   1.616   6.906
 3361SOL     OW10981   0.695   5.059   4.373
 3361SOL    HW110982   0.642   4.975   4.379
 3361SOL    HW210983   0.772   5.046   4.310
 3362SOL     OW10984   3.777   1.047   2.960
 3362SOL    HW110985   3.767   1.051   2.861
 3362SOL    HW210986   3.742   1.131   3.001
 3363SOL     OW10987   6.438   0.027   1.700
 3363SOL    HW110988   6.340   0.027   1.682
 3363SOL    HW210989   6.485   6.989   1.631
 3364SOL     OW10990   1.139   4.886   3.748
 3364SOL    HW110991   1.082   4.967   3.734
 3364SOL    HW210992   1.213   4.907   3.812
 3365SOL     OW10993   6.708   2.288   5.210
 3365SOL    HW110994   6.785   2.336   5.169
 3365SOL    HW210995   6.657   2.239   5.139
 3366SOL     OW10996   5.952   6.442   5.153
 3366SOL    HW110997   5.978   6.363   5.208
 3366SOL    HW210998   5.856   6.435   5.127
 3367SOL     OW10999   3.712   2.893   2.242
 3367SOL    HW111000   3.802   2.935   2.243
 3367SOL    HW211001   3.645   2.955   2.283
 3368SOL     OW11002   0.967   5.603   5.896
 3368SOL    HW111003   0.986   5.545   5.975
 3368SOL    HW211004   0.871   5.630   5.897
 3369SOL     OW11005   4.071   2.545   0.278
 3369SOL    HW111006   4.170   2.553   0.284
 3369SOL    HW211007   4.046   2.506   0.190
 3370SOL     OW11008   0.182   6.131   7.001
 3370SOL    HW111009   0.256   6.168   6.945
 3370SOL    HW211010   0.198   6.033   7.015
 3371SOL     OW11011   2.314   2.724   1.806
 3371SOL    HW111012   2.340   2.724   1.903
 3371SOL    HW211013   2.328   2.633   1.768
 3372SOL     OW11014   0.791   1.935   1.457
 3372SOL    HW111015   0.693   1.946   1.471
 3372SOL    HW211016   0.832   1.893   1.538
 3373SOL     OW11017   0.047   1.273   3.258
 3373SOL    HW111018   0.133   1.275   3.309
 3373SOL    HW211019   0.052   1.338   3.182
 3374SOL     OW11020   1.124   6.241   4.946
 3374SOL    HW111021   1.047   6.189   4.909
 3374SOL    HW211022   1.156   6.306   4.876
 3375SOL     OW11023   0.139   4.386   6.679
 3375SOL    HW111024   0.200   4.328   6.733
 3375SOL    HW211025   0.127   4.474   6.725
 3376SOL     OW11026   4.091   3.760   3.812
 3376SOL    HW111027   4.072   3.764   3.911
 3376SOL    HW211028   4.126   3.669   3.789
 3377SOL     OW11029   6.704   5.570   6.442
 3377SOL    HW111030   6.643   5.646   6.421
 3377SOL    HW211031   6.692   5.542   6.537
 3378SOL     OW11032   0.417   1.051   0.488
 3378SOL    HW111033   0.455   1.026   0.399
 3378SOL    HW211034   0.488   1.039   0.559
 3379SOL     OW11035   6.633   6.637   6.397
 3379SOL    HW111036   6.582   6.713   6.357
 3379SOL    HW211037   6.627   6.641   6.496
 3380SOL     OW11038   5.432   6.540   5.029
 3380SOL    HW111039   5.480   6.597   4.962
 3380SOL    HW211040   5.373   6.474   4.981
 3381SOL     OW11041   0.637   2.811   1.601
 3381SOL    HW111042   0.640   2.767   1.511
 3381SOL    HW211043   0.716   2.872   1.611
 3382SOL     OW11044   0.850   2.025   0.957
 3382SOL    HW111045   0.810   2.019   1.048
 3382SOL    HW211046   0.946   2.051   0.965
 3383SOL     OW11047   4.368   5.682   1.105
 3383SOL    HW111048   4.424   5.740   1.164
 3383SOL    HW211049   4.304   5.739   1.054
 3384SOL     OW11050   2.867   3.363   6.237
 3384SOL    HW111051   2.920   3.429   6.183
 3384SOL    HW211052   2.775   3.397   6.251
 3385SOL     OW11053   6.495   3.041   4.295
 3385SOL    HW111054   6.444   3.053   4.210
 3385SOL    HW211055   6.457   2.966   4.348
 3386SOL     OW11056   5.919   4.790   6.987
 3386SOL    HW111057   5.846   4.750   6.932
 3386SOL    HW211058   5.901   4.772   0.066
 3387SOL     OW11059   3.079   0.474   3.236
 3387SOL    HW111060   3.173   0.487   3.204
 3387SOL    HW211061   3.072   0.502   3.332
 3388SOL     OW11062   5.656   3.346   1.683
 3388SOL    HW111063   5.622   3.380   1.596
 3388SOL    HW211064   5.579   3.312   1.738
 3389SOL     OW11065   5.689   5.360   6.484
 3389SOL    HW111066   5.589   5.359   6.487
 3389SOL    HW211067   5.722   5.452   6.506
 3390SOL     OW11068   5.392   6.371   6.560
 3390SOL    HW111069   5.375   6.461   6.520
 3390SOL    HW211070   5.454   6.381   6.638
 3391SOL     OW11071   5.216   3.352   4.954
 3391SOL    HW111072   5.141   3.391   5.008
 3391SOL    HW211073   5.180   3.319   4.867
 3392SOL     OW11074   2.708   0.496   3.429
 3392SOL    HW111075   2.723   0.410   3.476
 3392SOL    HW211076   2.670   0.479   3.338
 3393SOL     OW11077   0.368   6.283   6.885
 3393SOL    HW111078   0.299   6.356   6.883
 3393SOL    HW211079   0.440   6.306   6.950
 3394SOL     OW11080   5.357   3.689   1.736
 3394SOL    HW111081   5.298   3.610   1.718
 3394SOL    HW211082   5.365   3.703   1.834
 3395SOL     OW11083   4.882   3.118   3.229
 3395SOL    HW111084   4.818   3.042   3.223
 3395SOL    HW211085   4.968   3.087   3.269
 3396SOL     OW11086   4.983   1.857   2.830
 3396SOL    HW111087   4.971   1.760   2.850
 3396SOL    HW211088   4.931   1.881   2.748
 3397SOL     OW11089   2.887   0.137   5.380
 3397SOL    HW111090   2.834   0.218   5.355
 3397SOL    HW211091   2.952   0.160   5.453
 3398SOL     OW11092   0.940   0.012   4.939
 3398SOL    HW111093   1.006   7.000   4.871
 3398SOL    HW211094   0.953   6.977   5.023
 3399SOL     OW11095   5.511   3.849   3.689
 3399SOL    HW111096   5.454   3.882   3.764
 3399SOL    HW211097   5.602   3.888   3.696
 3400SOL     OW11098   4.387   3.216   5.750
 3400SOL    HW111099   4.332   3.180   5.675
 3400SOL    HW211100   4.433   3.141   5.797
 3401SOL     OW11101   0.588   2.469   1.340
 3401SOL    HW111102   0.559   2.513   1.256
 3401SOL    HW211103   0.508   2.439   1.392
 3402SOL     OW11104   3.964   5.882   6.919
 3402SOL    HW111105   3.968   5.811   6.989
 3402SOL    HW211106   4.052   5.931   6.916
 3403SOL     OW11107   3.297   5.937   5.062
 3403SOL    HW111108   3.325   5.856   5.113
 3403SOL    HW211109   3.261   5.909   4.972
 3404SOL     OW11110   4.958   1.108   0.239
 3404SOL    HW111111   4.864   1.089   0.212
 3404SOL    HW211112   4.982   1.202   0.214
 3405SOL     OW11113   6.746   4.007   5.276
 3405SOL    HW111114   6.718   4.093   5.231
 3405SOL    HW211115   6.782   4.027   5.367
 3406SOL     OW11116   1.075   4.248   1.828
 3406SOL    HW111117   1.067   4.248   1.729
 3406SOL    HW211118   0.998   4.198   1.868
 3407SOL     OW11119   1.679   5.003   6.602
 3407SOL    HW111120   1.642   4.988   6.510
 3407SOL    HW211121   1.677   4.917   6.653
 3408SOL     OW11122   4.864   3.906   4.977
 3408SOL    HW111123   4.793   3.971   5.004
 3408SOL    HW211124   4.832   3.813   4.995
 3409SOL     OW11125   3.343   6.899   6.591
 3409SOL    HW111126   3.298   6.825   6.640
 3409SOL    HW211127   3.409   6.944   6.652
 3410SOL     OW11128   6.465   6.584   1.205
 3410SOL    HW111129   6.512   6.547   1.285
 3410SOL    HW211130   6.366   6.582   1.220
 3411SOL     OW11131   0.840   3.460   1.934
 3411SOL    HW111132   0.933   3.490   1.912
 3411SOL    HW211133   0.820   3.374   1.886
 3412SOL     OW11134   4.846   2.918   0.657
 3412SOL    HW111135   4.821   2.821   0.661
 3412SOL    HW211136   4.901   2.942   0.737
 3413SOL     OW11137   6.018   1.309   0.701
 3413SOL    HW111138   6.058   1.395   0.671
 3413SOL    HW211139   6.082   1.261   0.762
 3414SOL     OW11140   3.985   1.169   5.485
 3414SOL    HW111141   4.052   1.244   5.485
 3414SOL    HW211142   3.964   1.143   5.579
 3415SOL     OW11143   2.062   3.602   4.562
 3415SOL    HW111144   2.048   3.658   4.644
 3415SOL    HW211145   2.087   3.661   4.485
 3416SOL     OW11146   6.593   5.573   0.786
 3416SOL    HW111147   6.537   5.522   0.852
 3416SOL    HW211148   6.677   5.605   0.831
 3417SOL     OW11149   0.604   6.418   2.913
 3417SOL    HW111150   0.648   6.507   2.906
 3417SOL    HW211151   0.629   6.375   3.000
 3418SOL     OW11152   3.103   6.686   3.824
 3418SOL    HW111153   3.017   6.737   3.829
 3418SOL    HW211154   3.132   6.678   3.729
 3419SOL     OW11155   2.605   6.153   5.508
 3419SOL    HW111156   2.512   6.120   5.524
 3419SOL    HW211157   2.623   6.157   5.410
 3420SOL     OW11158   5.794   3.088   4.340
 3420SOL    HW111159   5.738   3.147   4.398
 3420SOL    HW211160   5.739   3.054   4.263
 3421SOL     OW11161   4.709   1.057   5.017
 3421SOL    HW111162   4.625   1.026   5.063
 3421SOL    HW211163   4.780   0.988   5.028
 3422SOL     OW11164   2.289   0.378   0.760
 3422SOL    HW111165   2.291   0.431   0.676
 3422SOL    HW211166   2.295   0.440   0.839
 3423SOL     OW11167   0.358   4.336   6.423
 3423SOL    HW111168   0.327   4.428   6.398
 3423SOL    HW211169   0.287   4.291   6.478
 3424SOL     OW11170   2.757   6.843   1.391
 3424SOL    HW111171   2.808   6.761   1.366
 3424SOL    HW211172   2.820   6.921   1.394
 3425SOL     OW11173   5.582   5.376   2.514
 3425SOL    HW111174   5.561   5.450   2.578
 3425SOL    HW211175   5.681   5.370   2.502
 3426SOL     OW11176   3.584   2.578   0.322
 3426SOL    HW111177   3.661   2.615   0.374
 3426SOL    HW211178   3.507   2.641   0.326
 3427SOL     OW11179   6.622   1.074   0.064
 3427SOL    HW111180   6.542   1.126   0.033
 3427SOL    HW211181   6.649   1.105   0.156
 3428SOL     OW11182   2.321   5.652   6.796
 3428SOL    HW111183   2.340   5.585   6.725
 3428SOL    HW211184   2.316   5.606   6.885
 3429SOL     OW11185   1.122   1.795   0.803
 3429SOL    HW111186   1.080   1.723   0.858
 3429SOL    HW211187   1.161   1.755   0.720
 3430SOL     OW11188   1.759   6.782   5.167
 3430SOL    HW111189   1.683   6.800   5.229
 3430SOL    HW211190   1.733   6.811   5.074
 3431SOL     OW11191   1.206   7.005   1.079
 3431SOL    HW111192   1.176   6.974   0.989
 3431SOL    HW211193   1.126   0.008   1.135
 3432SOL     OW11194   1.793   2.920   6.904
 3432SOL    HW111195   1.826   2.979   6.830
 3432SOL    HW211196   1.844   2.940   6.988
 3433SOL     OW11197   1.423   0.152   5.607
 3433SOL    HW111198   1.462   0.163   5.699
 3433SOL    HW211199   1.327   0.183   5.609
 3434SOL     OW11200   4.095   1.649   1.547
 3434SOL    HW111201   4.163   1.646   1.473
 3434SOL    HW211202   4.007   1.618   1.512
 3435SOL     OW11203   0.745   1.444   0.927
 3435SOL    HW111204   0.753   1.349   0.897
 3435SOL    HW211205   0.702   1.498   0.855
 3436SOL     OW11206   4.437   6.236   0.233
 3436SOL    HW111207   4.529   6.210   0.203
 3436SOL    HW211208   4.377   6.245   0.154
 3437SOL     OW11209   2.099   0.285   5.723
 3437SOL    HW111210   2.041   0.271   5.803
 3437SOL    HW211211   2.161   0.207   5.712
 3438SOL     OW11212   1.224   2.997   0.282
 3438SOL    HW111213   1.172   2.966   0.203
 3438SOL    HW211214   1.171   2.982   0.366
 3439SOL     OW11215   2.359   6.090   4.744
 3439SOL    HW111216   2.303   6.025   4.795
 3439SOL    HW211217   2.312   6.115   4.659
 3440SOL     OW11218   3.090   3.504   1.062
 3440SOL    HW111219   2.999   3.499   1.022
 3440SOL    HW211220   3.106   3.424   1.120
 3441SOL     OW11221   5.689   6.182   5.389
 3441SOL    HW111222   5.706   6.195   5.291
 3441SOL    HW211223   5.760   6.229   5.441
 3442SOL     OW11224   2.197   4.873   2.167
 3442SOL    HW111225   2.157   4.941   2.228
 3442SOL    HW211226   2.258   4.814   2.219
 3443SOL     OW11227   4.272   6.262   1.472
 3443SOL    HW111228   4.305   6.321   1.399
 3443SOL    HW211229   4.308   6.295   1.560
 3444SOL     OW11230   5.106   5.087   0.055
 3444SOL    HW111231   5.087   5.049   0.146
 3444SOL    HW211232   5.185   5.040   0.016
 3445SOL     OW11233   6.524   5.555   3.231
 3445SOL    HW111234   6.455   5.501   3.184
 3445SOL    HW211235   6.525   5.648   3.193
 3446SOL     OW11236   6.443   1.109   2.767
 3446SOL    HW111237   6.384   1.082   2.692
 3446SOL    HW211238   6.440   1.208   2.779
 3447SOL     OW11239   6.156   5.350   0.834
 3447SOL    HW111240   6.146   5.255   0.865
 3447SOL    HW211241   6.196   5.352   0.742
 3448SOL     OW11242   3.432   0.218   0.355
 3448SOL    HW111243   3.519   0.175   0.331
 3448SOL    HW211244   3.422   0.304   0.307
 3449SOL     OW11245   5.938   6.061   4.287
 3449SOL    HW111246   5.918   5.971   4.248
 3449SOL    HW211247   5.883   6.074   4.369
 3450SOL     OW11248   6.860   2.612   6.342
 3450SOL    HW111249   6.862   2.664   6.427
 3450SOL    HW211250   6.769   2.570   6.330
 3451SOL     OW11251   2.306   5.929   1.138
 3451SOL    HW111252   2.398   5.956   1.169
 3451SOL    HW211253   2.300   5.940   1.039
 3452SOL     OW11254   6.267   0.780   6.035
 3452SOL    HW111255   6.181   0.777   5.983
 3452SOL    HW211256   6.250   0.825   6.123
 3453SOL     OW11257   6.777   5.481   6.715
 3453SOL    HW111258   6.762   5.522   6.804
 3453SOL    HW211259   6.781   5.381   6.725
 3454SOL     OW11260   1.080   2.370   5.536
 3454SOL    HW111261   0.993   2.366   5.585
 3454SOL    HW211262   1.143   2.303   5.574
 3455SOL     OW11263   2.895   2.233   4.712
 3455SOL    HW111264   2.976   2.182   4.685
 3455SOL    HW211265   2.901   2.327   4.677
 3456SOL     OW11266   5.701   5.597   2.173
 3456SOL    HW111267   5.798   5.571   2.170
 3456SOL    HW211268   5.644   5.515   2.180
 3457SOL     OW11269   2.911   5.022   3.296
 3457SOL    HW111270   2.993   4.979   3.333
 3457SOL    HW211271   2.833   4.961   3.308
 3458SOL     OW11272   4.944   0.617   2.219
 3458SOL    HW111273   5.007   0.663   2.281
 3458SOL    HW211274   4.871   0.679   2.193
 3459SOL     OW11275   5.662   3.209   3.282
 3459SOL    HW111276   5.681   3.111   3.272
 3459SOL    HW211277   5.735   3.252   3.335
 3460SOL     OW11278   2.245   3.233   0.127
 3460SOL    HW111279   2.334   3.277   0.111
 3460SOL    HW211280   2.218   3.183   0.044
 3461SOL     OW11281   5.167   5.029   4.696
 3461SOL    HW111282   5.243   4.975   4.659
 3461SOL    HW211283   5.100   5.045   4.624
 3462SOL     OW11284   0.150   4.313   3.307
 3462SOL    HW111285   0.061   4.342   3.342
 3462SOL    HW211286   0.154   4.327   3.208
 3463SOL     OW11287   1.401   4.013   2.286
 3463SOL    HW111288   1.466   4.089   2.278
 3463SOL    HW211289   1.365   3.990   2.196
 3464SOL     OW11290   6.412   4.226   6.261
 3464SOL    HW111291   6.496   4.182   6.290
 3464SOL    HW211292   6.394   4.204   6.165
 3465SOL     OW11293   1.796   2.175   2.204
 3465SOL    HW111294   1.774   2.222   2.290
 3465SOL    HW211295   1.753   2.224   2.128
 3466SOL     OW11296   0.264   4.959   0.313
 3466SOL    HW111297   0.309   4.977   0.226
 3466SOL    HW211298   0.332   4.933   0.381
 3467SOL     OW11299   1.879   2.811   0.148
 3467SOL    HW111300   1.978   2.815   0.160
 3467SOL    HW211301   1.834   2.868   0.217
 3468SOL     OW11302   5.188   6.614   2.819
 3468SOL    HW111303   5.109   6.640   2.875
 3468SOL    HW211304   5.191   6.672   2.737
 3469SOL     OW11305   5.367   0.412   2.403
 3469SOL    HW111306   5.272   0.429   2.429
 3469SOL    HW211307   5.406   0.342   2.462
 3470SOL     OW11308   5.967   3.858   0.990
 3470SOL    HW111309   5.916   3.929   0.941
 3470SOL    HW211310   5.969   3.775   0.934
 3471SOL     OW11311   4.070   5.273   4.357
 3471SOL    HW111312   4.030   5.339   4.293
 3471SOL    HW211313   4.009   5.262   4.435
 3472SOL     OW11314   2.451   0.775   2.449
 3472SOL    HW111315   2.435   0.862   2.401
 3472SOL    HW211316   2.419   0.699   2.392
 3473SOL     OW11317   0.322   2.305   1.289
 3473SOL    HW111318   0.229   2.327   1.260
 3473SOL    HW211319   0.384   2.314   1.211
 3474SOL     OW11320   1.370   4.912   1.865
 3474SOL    HW111321   1.469   4.906   1.857
 3474SOL    HW211322   1.345   4.994   1.918
 3475SOL     OW11323   0.508   5.105   4.031
 3475SOL    HW111324   0.591   5.060   3.999
 3475SOL    HW211325   0.513   5.203   4.012
 3476SOL     OW11326   3.268   1.248   3.408
 3476SOL    HW111327   3.331   1.279   3.479
 3476SOL    HW211328   3.189   1.309   3.404
 3477SOL     OW11329   2.847   5.358   0.930
 3477SOL    HW111330   2.893   5.294   0.869
 3477SOL    HW211331   2.909   5.385   1.004
 3478SOL     OW11332   2.637   5.692   4.902
 3478SOL    HW111333   2.540   5.673   4.892
 3478SOL    HW211334   2.665   5.758   4.831
 3479SOL     OW11335   1.706   0.678   2.920
 3479SOL    HW111336   1.708   0.579   2.912
 3479SOL    HW211337   1.710   0.704   3.017
 3480SOL     OW11338   0.276   6.747   5.014
 3480SOL    HW111339   0.359   6.705   5.053
 3480SOL    HW211340   0.211   6.766   5.087
 3481SOL     OW11341   4.590   0.420   0.502
 3481SOL    HW111342   4.635   0.476   0.572
 3481SOL    HW211343   4.536   0.349   0.546
 3482SOL     OW11344   5.517   1.243   1.566
 3482SOL    HW111345   5.494   1.230   1.663
 3482SOL    HW211346   5.470   1.174   1.512
 3483SOL     OW11347   4.518   1.874   1.277
 3483SOL    HW111348   4.431   1.916   1.250
 3483SOL    HW211349   4.565   1.934   1.342
 3484SOL     OW11350   1.206   3.811   0.485
 3484SOL    HW111351   1.198   3.886   0.420
 3484SOL    HW211352   1.148   3.829   0.565
 3485SOL     OW11353   1.867   1.377   4.666
 3485SOL    HW111354   1.910   1.426   4.741
 3485SOL    HW211355   1.808   1.304   4.703
 3486SOL     OW11356   2.916   0.780   2.766
 3486SOL    HW111357   2.998   0.746   2.812
 3486SOL    HW211358   2.839   0.719   2.785
 3487SOL     OW11359   5.414   2.743   5.917
 3487SOL    HW111360   5.322   2.761   5.885
 3487SOL    HW211361   5.451   2.663   5.869
 3488SOL     OW11362   5.730   1.726   4.512
 3488SOL    HW111363   5.675   1.710   4.594
 3488SOL    HW211364   5.673   1.715   4.431
 3489SOL     OW11365   3.233   6.718   1.328
 3489SOL    HW111366   3.174   6.778   1.383
 3489SOL    HW211367   3.198   6.625   1.332
 3490SOL     OW11368   4.534   4.299   0.229
 3490SOL    HW111369   4.461   4.238   0.198
 3490SOL    HW211370   4.581   4.337   0.150
 3491SOL     OW11371   5.282   2.832   4.881
 3491SOL    HW111372   5.216   2.773   4.927
 3491SOL    HW211373   5.309   2.906   4.942
 3492SOL     OW11374   0.022   5.162   1.198
 3492SOL    HW111375   0.034   5.165   1.099
 3492SOL    HW211376   6.944   5.144   1.219
 3493SOL     OW11377   5.745   4.300   6.520
 3493SOL    HW111378   5.841   4.307   6.546
 3493SOL    HW211379   5.723   4.206   6.495
 3494SOL     OW11380   3.841   0.852   1.218
 3494SOL    HW111381   3.935   0.878   1.195
 3494SOL    HW211382   3.830   0.855   1.317
 3495SOL     OW11383   5.233   5.486   2.786
 3495SOL    HW111384   5.185   5.442   2.862
 3495SOL    HW211385   5.262   5.577   2.813
 3496SOL     OW11386   6.632   4.119   0.816
 3496SOL    HW111387   6.534   4.121   0.835
 3496SOL    HW211388   6.646   4.107   0.718
 3497SOL     OW11389   3.497   0.600   3.536
 3497SOL    HW111390   3.594   0.576   3.526
 3497SOL    HW211391   3.468   0.654   3.457
 3498SOL     OW11392   2.339   2.129   0.978
 3498SOL    HW111393   2.382   2.086   1.057
 3498SOL    HW211394   2.407   2.183   0.928
 3499SOL     OW11395   4.846   3.083   4.466
 3499SOL    HW111396   4.772   3.126   4.519
 3499SOL    HW211397   4.891   3.153   4.410
 3500SOL     OW11398   1.641   3.369   4.538
 3500SOL    HW111399   1.653   3.362   4.637
 3500SOL    HW211400   1.729   3.383   4.494
 3501SOL     OW11401   1.780   5.549   4.689
 3501SOL    HW111402   1.854   5.483   4.697
 3501SOL    HW211403   1.811   5.628   4.636
 3502SOL     OW11404   6.179   2.758   2.536
 3502SOL    HW111405   6.223   2.831   2.587
 3502SOL    HW211406   6.184   2.777   2.438
 3503SOL     OW11407   6.743   6.350   4.533
 3503SOL    HW111408   6.668   6.307   4.483
 3503SOL    HW211409   6.830   6.324   4.490
 3504SOL     OW11410   1.836   2.149   1.365
 3504SOL    HW111411   1.911   2.084   1.353
 3504SOL    HW211412   1.753   2.111   1.326
 3505SOL     OW11413   5.600   4.913   5.136
 3505SOL    HW111414   5.536   4.842   5.164
 3505SOL    HW211415   5.610   4.980   5.210
 3506SOL     OW11416   5.174   5.579   6.062
 3506SOL    HW111417   5.273   5.575   6.068
 3506SOL    HW211418   5.146   5.673   6.041
 3507SOL     OW11419   1.670   1.151   0.196
 3507SOL    HW111420   1.623   1.143   0.284
 3507SOL    HW211421   1.619   1.100   0.126
 3508SOL     OW11422   3.045   2.527   6.021
 3508SOL    HW111423   3.104   2.531   5.941
 3508SOL    HW211424   2.981   2.603   6.019
 3509SOL     OW11425   6.049   6.963   5.762
 3509SOL    HW111426   6.000   0.028   5.736
 3509SOL    HW211427   5.986   6.885   5.758
 3510SOL     OW11428   1.719   2.816   1.669
 3510SOL    HW111429   1.749   2.754   1.742
 3510SOL    HW211430   1.633   2.859   1.696
 3511SOL     OW11431   2.492   5.183   0.506
 3511SOL    HW111432   2.459   5.232   0.587
 3511SOL    HW211433   2.439   5.100   0.493
 3512SOL     OW11434   0.632   5.208   0.845
 3512SOL    HW111435   0.606   5.149   0.769
 3512SOL    HW211436   0.663   5.297   0.810
 3513SOL     OW11437   6.513   3.381   0.850
 3513SOL    HW111438   6.443   3.415   0.787
 3513SOL    HW211439   6.469   3.331   0.925
 3514SOL     OW11440   1.033   1.522   1.867
 3514SOL    HW111441   0.974   1.508   1.788
 3514SOL    HW211442   1.126   1.492   1.846
 3515SOL     OW11443   4.514   6.275   2.792
 3515SOL    HW111444   4.509   6.314   2.700
 3515SOL    HW211445   4.459   6.330   2.855
 3516SOL     OW11446   4.833   6.959   0.702
 3516SOL    HW111447   4.918   6.964   0.649
 3516SOL    HW211448   4.805   6.864   0.711
 3517SOL     OW11449   0.938   1.983   0.695
 3517SOL    HW111450   0.875   1.998   0.772
 3517SOL    HW211451   1.028   1.957   0.731
 3518SOL     OW11452   5.773   3.684   4.802
 3518SOL    HW111453   5.709   3.610   4.779
 3518SOL    HW211454   5.842   3.692   4.731
 3519SOL     OW11455   1.123   1.190   6.170
 3519SOL    HW111456   1.156   1.264   6.112
 3519SOL    HW211457   1.200   1.133   6.200
 3520SOL     OW11458   2.840   5.074   6.427
 3520SOL    HW111459   2.927   5.108   6.390
 3520SOL    HW211460   2.794   5.147   6.477
 3521SOL     OW11461   5.683   3.057   6.818
 3521SOL    HW111462   5.673   3.076   6.915
 3521SOL    HW211463   5.607   3.098   6.767
 3522SOL     OW11464   6.393   4.215   1.950
 3522SOL    HW111465   6.410   4.129   1.997
 3522SOL    HW211466   6.301   4.248   1.972
 3523SOL     OW11467   3.201   4.997   5.802
 3523SOL    HW111468   3.137   4.962   5.871
 3523SOL    HW211469   3.218   5.094   5.820
 3524SOL     OW11470   3.428   0.769   1.317
 3524SOL    HW111471   3.430   0.840   1.247
 3524SOL    HW211472   3.483   0.691   1.288
 3525SOL     OW11473   0.906   4.226   2.274
 3525SOL    HW111474   0.998   4.262   2.255
 3525SOL    HW211475   0.879   4.253   2.367
 3526SOL     OW11476   2.596   5.941   4.214
 3526SOL    HW111477   2.553   5.851   4.202
 3526SOL    HW211478   2.532   6.012   4.185
 3527SOL     OW11479   6.285   3.107   6.143
 3527SOL    HW111480   6.375   3.145   6.165
 3527SOL    HW211481   6.292   3.051   6.060
 3528SOL     OW11482   0.700   4.834   4.094
 3528SOL    HW111483   0.779   4.851   4.153
 3528SOL    HW211484   0.721   4.862   4.001
 3529SOL     OW11485   4.531   0.243   6.408
 3529SOL    HW111486   4.578   0.282   6.487
 3529SOL    HW211487   4.433   0.232   6.429
 3530SOL     OW11488   1.594   4.867   3.841
 3530SOL    HW111489   1.675   4.868   3.781
 3530SOL    HW211490   1.616   4.821   3.927
 3531SOL     OW11491   4.778   3.651   1.146
 3531SOL    HW111492   4.770   3.713   1.224
 3531SOL    HW211493   4.689   3.641   1.101
 3532SOL     OW11494   2.605   1.189   1.508
 3532SOL    HW111495   2.628   1.130   1.586
 3532SOL    HW211496   2.536   1.256   1.536
 3533SOL     OW11497   1.788   1.805   2.420
 3533SOL    HW111498   1.807   1.740   2.494
 3533SOL    HW211499   1.862   1.800   2.352
 3534SOL     OW11500   5.477   1.139   5.255
 3534SOL    HW111501   5.549   1.124   5.323
 3534SOL    HW211502   5.439   1.050   5.227
 3535SOL     OW11503   0.661   5.802   0.441
 3535SOL    HW111504   0.601   5.841   0.371
 3535SOL    HW211505   0.683   5.707   0.416
 3536SOL     OW11506   2.558   1.896   4.074
 3536SOL    HW111507   2.639   1.872   4.021
 3536SOL    HW211508   2.565   1.856   4.165
 3537SOL     OW11509   2.701   4.990   0.726
 3537SOL    HW111510   2.775   4.982   0.793
 3537SOL    HW211511   2.689   5.087   0.702
 3538SOL     OW11512   0.959   0.700   5.763
 3538SOL    HW111513   0.896   0.651   5.824
 3538SOL    HW211514   1.049   0.658   5.768
 3539SOL     OW11515   5.888   3.875   6.198
 3539SOL    HW111516   5.877   3.883   6.099
 3539SOL    HW211517   5.985   3.877   6.221
 3540SOL     OW11518   1.807   2.483   5.935
 3540SOL    HW111519   1.740   2.466   6.008
 3540SOL    HW211520   1.772   2.554   5.874
 3541SOL     OW11521   2.090   2.754   6.634
 3541SOL    HW111522   2.034   2.704   6.700
 3541SOL    HW211523   2.047   2.748   6.544
 3542SOL     OW11524   0.757   4.162   1.638
 3542SOL    HW111525   0.718   4.071   1.655
 3542SOL    HW211526   0.715   4.228   1.700
 3543SOL     OW11527   0.779   3.852   5.637
 3543SOL    HW111528   0.731   3.765   5.643
 3543SOL    HW211529   0.734   3.910   5.569
 3544SOL     OW11530   2.533   5.019   6.570
 3544SOL    HW111531   2.593   4.948   6.607
 3544SOL    HW211532   2.503   4.993   6.478
 3545SOL     OW11533   4.125   5.078   0.322
 3545SOL    HW111534   4.100   5.170   0.353
 3545SOL    HW211535   4.045   5.035   0.278
 3546SOL     OW11536   0.329   4.761   2.993
 3546SOL    HW111537   0.377   4.700   3.056
 3546SOL    HW211538   0.233   4.735   2.988
 3547SOL     OW11539   5.798   5.036   4.987
 3547SOL    HW111540   5.834   4.980   4.912
 3547SOL    HW211541   5.719   4.991   5.028
 3548SOL     OW11542   4.652   0.508   5.755
 3548SOL    HW111543   4.640   0.589   5.814
 3548SOL    HW211544   4.664   0.538   5.661
 3549SOL     OW11545   0.012   5.121   5.698
 3549SOL    HW111546   0.104   5.142   5.732
 3549SOL    HW211547   7.007   5.182   5.622
 3550SOL     OW11548   5.975   2.787   3.781
 3550SOL    HW111549   5.979   2.755   3.687
 3550SOL    HW211550   5.917   2.726   3.835
 3551SOL     OW11551   3.459   2.070   3.420
 3551SOL    HW111552   3.366   2.100   3.441
 3551SOL    HW211553   3.517   2.086   3.499
 3552SOL     OW11554   6.116   6.670   1.855
 3552SOL    HW111555   6.089   6.738   1.787
 3552SOL    HW211556   6.097   6.579   1.820
 3553SOL     OW11557   4.209   5.542   0.473
 3553SOL    HW111558   4.217   5.526   0.571
 3553SOL    HW211559   4.249   5.630   0.449
 3554SOL     OW11560   4.630   1.605   1.133
 3554SOL    HW111561   4.574   1.534   1.177
 3554SOL    HW211562   4.580   1.641   1.054
 3555SOL     OW11563   0.440   4.018   4.571
 3555SOL    HW111564   0.462   4.102   4.521
 3555SOL    HW211565   0.441   3.940   4.508
 3556SOL     OW11566   4.151   0.842   4.191
 3556SOL    HW111567   4.226   0.831   4.126
 3556SOL    HW211568   4.129   0.940   4.201
 3557SOL     OW11569   0.670   0.760   3.978
 3557SOL    HW111570   0.598   0.705   4.020
 3557SOL    HW211571   0.678   0.735   3.881
 3558SOL     OW11572   1.532   6.200   2.615
 3558SOL    HW111573   1.441   6.162   2.626
 3558SOL    HW211574   1.570   6.222   2.705
 3559SOL     OW11575   0.790   6.438   5.091
 3559SOL    HW111576   0.782   6.512   5.025
 3559SOL    HW211577   0.786   6.475   5.184
 3560SOL     OW11578   1.912   5.687   2.364
 3560SOL    HW111579   1.987   5.624   2.384
 3560SOL    HW211580   1.947   5.780   2.357
 3561SOL     OW11581   4.487   4.315   5.291
 3561SOL    HW111582   4.418   4.342   5.224
 3561SOL    HW211583   4.577   4.350   5.264
 3562SOL     OW11584   3.707   1.287   3.076
 3562SOL    HW111585   3.619   1.284   3.028
 3562SOL    HW211586   3.711   1.370   3.132
 3563SOL     OW11587   6.318   2.342   0.670
 3563SOL    HW111588   6.381   2.285   0.722
 3563SOL    HW211589   6.230   2.347   0.717
 3564SOL     OW11590   1.352   4.338   3.064
 3564SOL    HW111591   1.361   4.272   2.989
 3564SOL    HW211592   1.283   4.305   3.129
 3565SOL     OW11593   3.261   6.113   4.733
 3565SOL    HW111594   3.274   6.200   4.686
 3565SOL    HW211595   3.197   6.125   4.809
 3566SOL     OW11596   6.627   3.497   6.249
 3566SOL    HW111597   6.658   3.592   6.242
 3566SOL    HW211598   6.707   3.436   6.246
 3567SOL     OW11599   0.493   2.017   5.977
 3567SOL    HW111600   0.416   1.956   5.997
 3567SOL    HW211601   0.576   1.981   6.019
 3568SOL     OW11602   4.783   4.046   4.033
 3568SOL    HW111603   4.726   4.121   4.069
 3568SOL    HW211604   4.724   3.975   3.995
 3569SOL     OW11605   2.453   1.768   6.128
 3569SOL    HW111606   2.520   1.738   6.196
 3569SOL    HW211607   2.425   1.862   6.147
 3570SOL     OW11608   5.108   0.621   5.933
 3570SOL    HW111609   5.085   0.703   5.880
 3570SOL    HW211610   5.025   0.566   5.947
 3571SOL     OW11611   0.647   5.249   5.091
 3571SOL    HW111612   0.624   5.312   5.016
 3571SOL    HW211613   0.713   5.181   5.058
 3572SOL     OW11614   5.892   3.579   3.010
 3572SOL    HW111615   5.793   3.582   2.995
 3572SOL    HW211616   5.933   3.664   2.979
 3573SOL     OW11617   0.113   5.603   3.796
 3573SOL    HW111618   0.160   5.525   3.837
 3573SOL    HW211619   0.119   5.598   3.696
 3574SOL     OW11620   0.288   3.892   0.672
 3574SOL    HW111621   0.237   3.890   0.757
 3574SOL    HW211622   0.374   3.841   0.682
 3575SOL     OW11623   5.030   5.131   2.861
 3575SOL    HW111624   5.118   5.084   2.853
 3575SOL    HW211625   4.956   5.070   2.832
 3576SOL     OW11626   0.235   2.115   5.842
 3576SOL    HW111627   0.187   2.043   5.792
 3576SOL    HW211628   0.323   2.081   5.874
 3577SOL     OW11629   1.676   2.133   5.930
 3577SOL    HW111630   1.743   2.158   6.000
 3577SOL    HW211631   1.699   2.178   5.844
 3578SOL     OW11632   3.578   2.195   0.569
 3578SOL    HW111633   3.647   2.253   0.613
 3578SOL    HW211634   3.553   2.121   0.632
 3579SOL     OW11635   6.554   2.574   4.127
 3579SOL    HW111636   6.586   2.611   4.215
 3579SOL    HW211637   6.629   2.528   4.080
 3580SOL     OW11638   5.475   3.197   1.839
 3580SOL    HW111639   5.432   3.281   1.872
 3580SOL    HW211640   5.406   3.125   1.831
 3581SOL     OW11641   1.200   5.962   3.625
 3581SOL    HW111642   1.237   6.053   3.644
 3581SOL    HW211643   1.105   5.971   3.595
 3582SOL     OW11644   0.713   2.949   5.707
 3582SOL    HW111645   0.697   3.039   5.748
 3582SOL    HW211646   0.669   2.945   5.617
 3583SOL     OW11647   0.802   3.981   6.301
 3583SOL    HW111648   0.743   3.992   6.381
 3583SOL    HW211649   0.801   3.886   6.272
 3584SOL     OW11650   5.396   5.585   6.882
 3584SOL    HW111651   5.468   5.538   6.830
 3584SOL    HW211652   5.402   5.683   6.867
 3585SOL     OW11653   3.437   0.474   4.775
 3585SOL    HW111654   3.500   0.408   4.816
 3585SOL    HW211655   3.375   0.427   4.712
 3586SOL     OW11656   6.517   1.983   4.746
 3586SOL    HW111657   6.573   1.917   4.695
 3586SOL    HW211658   6.440   2.012   4.689
 3587SOL     OW11659   2.757   4.806   6.380
 3587SOL    HW111660   2.729   4.760   6.465
 3587SOL    HW211661   2.771   4.903   6.397
 3588SOL     OW11662   1.394   2.578   5.990
 3588SOL    HW111663   1.404   2.604   5.894
 3588SOL    HW211664   1.345   2.650   6.039
 3589SOL     OW11665   4.278   1.159   4.326
 3589SOL    HW111666   4.323   1.212   4.398
 3589SOL    HW211667   4.252   1.069   4.361
 3590SOL     OW11668   0.948   2.633   0.090
 3590SOL    HW111669   0.922   2.645   0.186
 3590SOL    HW211670   1.038   2.590   0.084
 3591SOL     OW11671   5.400   4.184   6.752
 3591SOL    HW111672   5.431   4.137   6.670
 3591SOL    HW211673   5.344   4.123   6.807
 3592SOL     OW11674   0.157   5.051   2.182
 3592SOL    HW111675   0.235   5.097   2.139
 3592SOL    HW211676   0.072   5.097   2.157
 3593SOL     OW11677   0.664   5.960   4.783
 3593SOL    HW111678   0.616   5.876   4.808
 3593SOL    HW211679   0.760   5.938   4.762
 3594SOL     OW11680   4.247   6.721   3.220
 3594SOL    HW111681   4.245   6.814   3.254
 3594SOL    HW211682   4.323   6.710   3.155
 3595SOL     OW11683   3.680   5.716   7.002
 3595SOL    HW111684   3.681   5.791   0.051
 3595SOL    HW211685   3.605   5.730   6.938
 3596SOL     OW11686   6.307   2.915   3.620
 3596SOL    HW111687   6.243   2.985   3.650
 3596SOL    HW211688   6.266   2.861   3.547
 3597SOL     OW11689   1.625   2.300   5.352
 3597SOL    HW111690   1.535   2.268   5.323
 3597SOL    HW211691   1.618   2.343   5.442
 3598SOL     OW11692   1.323   5.275   6.200
 3598SOL    HW111693   1.298   5.247   6.108
 3598SOL    HW211694   1.404   5.224   6.230
 3599SOL     OW11695   0.217   2.350   6.669
 3599SOL    HW111696   0.148   2.374   6.601
 3599SOL    HW211697   0.282   2.425   6.679
 3600SOL     OW11698   0.727   3.079   1.671
 3600SOL    HW111699   0.785   3.140   1.724
 3600SOL    HW211700   0.634   3.079   1.709
 3601SOL     OW11701   5.389   3.777   6.487
 3601SOL    HW111702   5.437   3.693   6.511
 3601SOL    HW211703   5.322   3.758   6.416
 3602SOL     OW11704   1.913   3.170   0.412
 3602SOL    HW111705   1.974   3.146   0.487
 3602SOL    HW211706   1.843   3.234   0.445
 3603SOL     OW11707   3.796   0.544   3.475
 3603SOL    HW111708   3.845   0.561   3.389
 3603SOL    HW211709   3.860   0.507   3.542
 3604SOL     OW11710   6.384   5.197   3.640
 3604SOL    HW111711   6.430   5.280   3.672
 3604SOL    HW211712   6.438   5.155   3.567
 3605SOL     OW11713   6.458   3.451   5.090
 3605SOL    HW111714   6.360   3.432   5.101
 3605SOL    HW211715   6.478   3.542   5.126
 3606SOL     OW11716   6.957   0.705   4.360
 3606SOL    HW111717   0.010   0.637   4.340
 3606SOL    HW211718   6.871   0.659   4.380
 3607SOL     OW11719   5.686   5.173   1.874
 3607SOL    HW111720   5.746   5.149   1.797
 3607SOL    HW211721   5.688   5.101   1.943
 3608SOL     OW11722   5.788   2.621   3.939
 3608SOL    HW111723   5.725   2.645   3.865
 3608SOL    HW211724   5.859   2.560   3.903
 3609SOL     OW11725   1.269   6.736   3.665
 3609SOL    HW111726   1.288   6.789   3.748
 3609SOL    HW211727   1.173   6.709   3.664
 3610SOL     OW11728   1.750   0.120   5.708
 3610SOL    HW111729   1.802   0.184   5.765
 3610SOL    HW211730   1.674   0.082   5.761
 3611SOL     OW11731   4.062   5.479   5.281
 3611SOL    HW111732   4.059   5.445   5.375
 3611SOL    HW211733   4.130   5.553   5.274
 3612SOL     OW11734   6.697   6.737   0.267
 3612SOL    HW111735   6.617   6.787   0.300
 3612SOL    HW211736   6.741   6.690   0.344
 3613SOL     OW11737   4.646   4.537   2.043
 3613SOL    HW111738   4.712   4.537   1.968
 3613SOL    HW211739   4.619   4.443   2.064
 3614SOL     OW11740   3.914   3.094   1.535
 3614SOL    HW111741   3.934   3.187   1.503
 3614SOL    HW211742   4.000   3.043   1.543
 3615SOL     OW11743   5.073   5.531   6.364
 3615SOL    HW111744   5.124   5.548   6.280
 3615SOL    HW211745   5.070   5.616   6.418
 3616SOL     OW11746   0.596   1.913   0.113
 3616SOL    HW111747   0.549   1.849   0.052
 3616SOL    HW211748   0.549   2.001   0.111
 3617SOL     OW11749   3.766   1.134   6.853
 3617SOL    HW111750   3.758   1.043   6.811
 3617SOL    HW211751   3.674   1.172   6.867
 3618SOL     OW11752   2.245   2.627   5.072
 3618SOL    HW111753   2.172   2.672   5.125
 3618SOL    HW211754   2.333   2.644   5.116
 3619SOL     OW11755   5.625   2.409   4.516
 3619SOL    HW111756   5.525   2.420   4.519
 3619SOL    HW211757   5.660   2.449   4.431
 3620SOL     OW11758   6.366   6.762   6.393
 3620SOL    HW111759   6.392   6.816   6.473
 3620SOL    HW211760   6.408   6.802   6.312
 3621SOL     OW11761   3.532   2.776   5.143
 3621SOL    HW111762   3.487   2.707   5.201
 3621SOL    HW211763   3.631   2.770   5.155
 3622SOL     OW11764   1.286   1.515   5.140
 3622SOL    HW111765   1.217   1.469   5.196
 3622SOL    HW211766   1.374   1.512   5.186
 3623SOL     OW11767   6.499   5.819   4.689
 3623SOL    HW111768   6.482   5.746   4.623
 3623SOL    HW211769   6.553   5.891   4.646
 3624SOL     OW11770   1.407   0.115   1.946
 3624SOL    HW111771   1.489   0.087   1.895
 3624SOL    HW211772   1.427   0.198   1.997
 3625SOL     OW11773   6.597   3.068   6.514
 3625SOL    HW111774   6.564   2.976   6.533
 3625SOL    HW211775   6.527   3.120   6.466
 3626SOL     OW11776   1.463   1.997   5.749
 3626SOL    HW111777   1.542   1.972   5.693
 3626SOL    HW211778   1.495   2.032   5.837
 3627SOL     OW11779   2.916   3.266   2.620
 3627SOL    HW111780   2.995   3.288   2.678
 3627SOL    HW211781   2.933   3.180   2.573
 3628SOL     OW11782   1.889   1.195   2.173
 3628SOL    HW111783   1.794   1.202   2.142
 3628SOL    HW211784   1.906   1.260   2.246
 3629SOL     OW11785   6.639   0.994   5.443
 3629SOL    HW111786   6.653   1.016   5.346
 3629SOL    HW211787   6.563   1.047   5.479
 3630SOL     OW11788   5.193   2.734   4.134
 3630SOL    HW111789   5.264   2.764   4.198
 3630SOL    HW211790   5.174   2.637   4.148
 3631SOL     OW11791   2.515   1.066   3.248
 3631SOL    HW111792   2.548   0.972   3.260
 3631SOL    HW211793   2.548   1.102   3.161
 3632SOL     OW11794   4.929   4.842   1.644
 3632SOL    HW111795   5.009   4.785   1.625
 3632SOL    HW211796   4.957   4.924   1.693
 3633SOL     OW11797   4.003   1.952   5.832
 3633SOL    HW111798   3.931   1.911   5.888
 3633SOL    HW211799   3.963   1.985   5.746
 3634SOL     OW11800   1.779   4.715   4.730
 3634SOL    HW111801   1.764   4.689   4.825
 3634SOL    HW211802   1.700   4.765   4.696
 3635SOL     OW11803   3.184   0.098   0.708
 3635SOL    HW111804   3.169   0.042   0.789
 3635SOL    HW211805   3.271   0.147   0.716
 3636SOL     OW11806   0.116   5.685   1.033
 3636SOL    HW111807   0.100   5.682   0.934
 3636SOL    HW211808   0.123   5.592   1.069
 3637SOL     OW11809   0.162   2.415   2.268
 3637SOL    HW111810   0.101   2.494   2.271
 3637SOL    HW211811   0.114   2.334   2.301
 3638SOL     OW11812   0.678   4.434   3.135
 3638SOL    HW111813   0.703   4.413   3.229
 3638SOL    HW211814   0.590   4.482   3.133
 3639SOL     OW11815   3.787   4.858   0.634
 3639SOL    HW111816   3.883   4.885   0.625
 3639SOL    HW211817   3.737   4.885   0.551
 3640SOL     OW11818   4.341   0.346   6.969
 3640SOL    HW111819   4.345   0.354   6.869
 3640SOL    HW211820   4.432   0.358   7.007
 3641SOL     OW11821   5.197   3.976   2.146
 3641SOL    HW111822   5.284   3.954   2.191
 3641SOL    HW211823   5.159   4.059   2.185
 3642SOL     OW11824   5.588   1.390   0.198
 3642SOL    HW111825   5.533   1.307   0.199
 3642SOL    HW211826   5.678   1.370   0.239
 3643SOL     OW11827   3.551   5.698   4.178
 3643SOL    HW111828   3.601   5.740   4.254
 3643SOL    HW211829   3.463   5.663   4.211
 3644SOL     OW11830   0.335   0.951   1.813
 3644SOL    HW111831   0.242   0.942   1.849
 3644SOL    HW211832   0.390   0.874   1.844
 3645SOL     OW11833   0.815   2.780   3.998
 3645SOL    HW111834   0.889   2.842   3.971
 3645SOL    HW211835   0.821   2.762   4.096
 3646SOL     OW11836   1.720   4.314   6.629
 3646SOL    HW111837   1.780   4.259   6.570
 3646SOL    HW211838   1.628   4.277   6.627
 3647SOL     OW11839   2.439   5.805   6.278
 3647SOL    HW111840   2.459   5.793   6.375
 3647SOL    HW211841   2.340   5.818   6.265
 3648SOL     OW11842   4.260   5.209   1.775
 3648SOL    HW111843   4.207   5.226   1.858
 3648SOL    HW211844   4.214   5.138   1.720
 3649SOL     OW11845   5.693   3.031   1.310
 3649SOL    HW111846   5.730   3.121   1.334
 3649SOL    HW211847   5.692   3.022   1.210
 3650SOL     OW11848   6.905   5.976   1.439
 3650SOL    HW111849   6.914   6.069   1.475
 3650SOL    HW211850   6.994   5.942   1.412
 3651SOL     OW11851   0.717   6.912   4.818
 3651SOL    HW111852   0.788   6.975   4.851
 3651SOL    HW211853   0.636   6.965   4.791
 3652SOL     OW11854   6.301   6.661   3.685
 3652SOL    HW111855   6.314   6.623   3.593
 3652SOL    HW211856   6.261   6.591   3.745
 3653SOL     OW11857   0.994   2.006   3.673
 3653SOL    HW111858   1.011   1.922   3.725
 3653SOL    HW211859   1.069   2.021   3.609
 3654SOL     OW11860   3.387   4.429   0.711
 3654SOL    HW111861   3.436   4.510   0.741
 3654SOL    HW211862   3.336   4.390   0.788
 3655SOL     OW11863   3.041   6.435   3.946
 3655SOL    HW111864   2.971   6.488   3.993
 3655SOL    HW211865   3.122   6.492   3.930
 3656SOL     OW11866   0.642   4.516   1.201
 3656SOL    HW111867   0.564   4.492   1.258
 3656SOL    HW211868   0.669   4.437   1.146
 3657SOL     OW11869   5.615   5.737   5.753
 3657SOL    HW111870   5.626   5.825   5.707
 3657SOL    HW211871   5.625   5.751   5.852
 3658SOL     OW11872   2.188   4.589   6.120
 3658SOL    HW111873   2.092   4.592   6.092
 3658SOL    HW211874   2.227   4.500   6.094
 3659SOL     OW11875   2.458   3.659   6.018
 3659SOL    HW111876   2.531   3.701   6.071
 3659SOL    HW211877   2.371   3.667   6.068
 3660SOL     OW11878   5.368   5.728   3.547
 3660SOL    HW111879   5.381   5.789   3.625
 3660SOL    HW211880   5.287   5.756   3.496
 3661SOL     OW11881   6.018   0.511   5.467
 3661SOL    HW111882   6.063   0.506   5.378
 3661SOL    HW211883   5.934   0.458   5.465
 3662SOL     OW11884   3.804   0.749   3.662
 3662SOL    HW111885   3.798   0.698   3.577
 3662SOL    HW211886   3.712   0.761   3.700
 3663SOL     OW11887   1.890   2.053   0.412
 3663SOL    HW111888   1.903   2.036   0.509
 3663SOL    HW211889   1.949   1.991   0.359
 3664SOL     OW11890   4.402   2.577   1.369
 3664SOL    HW111891   4.432   2.667   1.337
 3664SOL    HW211892   4.405   2.575   1.469
 3665SOL     OW11893   1.075   6.453   5.122
 3665SOL    HW111894   1.081   6.363   5.078
 3665SOL    HW211895   0.989   6.461   5.172
 3666SOL     OW11896   0.435   3.237   3.416
 3666SOL    HW111897   0.471   3.156   3.370
 3666SOL    HW211898   0.360   3.275   3.361
 3667SOL     OW11899   0.996   1.819   3.357
 3667SOL    HW111900   1.087   1.860   3.352
 3667SOL    HW211901   0.988   1.765   3.441
 3668SOL     OW11902   1.293   1.037   0.870
 3668SOL    HW111903   1.323   1.100   0.799
 3668SOL    HW211904   1.364   1.028   0.940
 3669SOL     OW11905   5.255   1.455   3.532
 3669SOL    HW111906   5.219   1.518   3.464
 3669SOL    HW211907   5.216   1.476   3.622
 3670SOL     OW11908   1.789   6.157   0.180
 3670SOL    HW111909   1.828   6.189   0.094
 3670SOL    HW211910   1.839   6.077   0.212
 3671SOL     OW11911   0.143   1.562   3.883
 3671SOL    HW111912   0.071   1.548   3.950
 3671SOL    HW211913   0.232   1.558   3.928
 3672SOL     OW11914   4.813   1.792   1.234
 3672SOL    HW111915   4.781   1.872   1.284
 3672SOL    HW211916   4.736   1.747   1.189
 3673SOL     OW11917   3.945   6.197   0.216
 3673SOL    HW111918   3.861   6.180   0.268
 3673SOL    HW211919   4.024   6.185   0.276
 3674SOL     OW11920   1.108   5.579   5.359
 3674SOL    HW111921   1.192   5.629   5.339
 3674SOL    HW211922   1.107   5.552   5.455
 3675SOL     OW11923   2.325   2.881   3.930
 3675SOL    HW111924   2.316   2.935   3.846
 3675SOL    HW211925   2.350   2.787   3.907
 3676SOL     OW11926   6.074   4.514   3.134
 3676SOL    HW111927   6.114   4.441   3.080
 3676SOL    HW211928   5.974   4.509   3.128
 3677SOL     OW11929   2.484   6.195   4.371
 3677SOL    HW111930   2.567   6.180   4.425
 3677SOL    HW211931   2.410   6.223   4.432
 3678SOL     OW11932   0.621   1.481   3.868
 3678SOL    HW111933   0.675   1.397   3.865
 3678SOL    HW211934   0.588   1.503   3.777
 3679SOL     OW11935   0.575   0.505   3.613
 3679SOL    HW111936   0.498   0.504   3.549
 3679SOL    HW211937   0.597   0.411   3.639
 3680SOL     OW11938   5.003   3.034   4.048
 3680SOL    HW111939   4.975   2.956   3.992
 3680SOL    HW211940   5.002   3.007   4.145
 3681SOL     OW11941   0.057   0.816   5.956
 3681SOL    HW111942   0.127   0.748   5.980
 3681SOL    HW211943   0.048   0.882   6.030
 3682SOL     OW11944   5.010   2.660   6.752
 3682SOL    HW111945   4.933   2.682   6.812
 3682SOL    HW211946   5.070   2.593   6.797
 3683SOL     OW11947   6.764   1.506   3.734
 3683SOL    HW111948   6.707   1.432   3.699
 3683SOL    HW211949   6.796   1.562   3.657
 3684SOL     OW11950   1.277   4.828   6.858
 3684SOL    HW111951   1.313   4.888   6.787
 3684SOL    HW211952   1.280   4.733   6.826
 3685SOL     OW11953   1.830   6.097   6.508
 3685SOL    HW111954   1.816   6.194   6.526
 3685SOL    HW211955   1.844   6.082   6.411
 3686SOL     OW11956   5.768   5.579   4.404
 3686SOL    HW111957   5.830   5.507   4.433
 3686SOL    HW211958   5.717   5.549   4.323
 3687SOL     OW11959   3.780   6.041   4.462
 3687SOL    HW111960   3.706   5.974   4.456
 3687SOL    HW211961   3.847   6.024   4.390
 3688SOL     OW11962   0.498   3.306   6.779
 3688SOL    HW111963   0.594   3.333   6.781
 3688SOL    HW211964   0.491   3.208   6.801
 3689SOL     OW11965   2.319   0.129   5.720
 3689SOL    HW111966   2.346   0.097   5.629
 3689SOL    HW211967   2.338   0.227   5.728
 3690SOL     OW11968   4.348   5.951   0.349
 3690SOL    HW111969   4.394   5.950   0.261
 3690SOL    HW211970   4.255   5.914   0.337
 3691SOL     OW11971   2.446   1.426   6.437
 3691SOL    HW111972   2.429   1.460   6.345
 3691SOL    HW211973   2.359   1.404   6.481
 3692SOL     OW11974   6.535   5.571   5.244
 3692SOL    HW111975   6.606   5.641   5.242
 3692SOL    HW211976   6.488   5.568   5.156
 3693SOL     OW11977   2.064   3.634   2.866
 3693SOL    HW111978   2.115   3.712   2.828
 3693SOL    HW211979   1.980   3.620   2.813
 3694SOL     OW11980   0.684   6.576   2.196
 3694SOL    HW111981   0.752   6.594   2.125
 3694SOL    HW211982   0.723   6.598   2.286
 3695SOL     OW11983   5.333   3.358   2.034
 3695SOL    HW111984   5.425   3.358   2.073
 3695SOL    HW211985   5.296   3.451   2.037
 3696SOL     OW11986   3.837   6.786   4.138
 3696SOL    HW111987   3.790   6.784   4.226
 3696SOL    HW211988   3.885   6.874   4.128
 3697SOL     OW11989   0.140   6.158   2.684
 3697SOL    HW111990   0.230   6.184   2.722
 3697SOL    HW211991   0.098   6.238   2.641
 3698SOL     OW11992   2.766   0.952   4.157
 3698SOL    HW111993   2.681   0.903   4.137
 3698SOL    HW211994   2.743   1.043   4.192
 3699SOL     OW11995   1.706   2.456   4.252
 3699SOL    HW111996   1.706   2.364   4.291
 3699SOL    HW211997   1.688   2.451   4.154
 3700SOL     OW11998   0.739   5.717   4.429
 3700SOL    HW111999   0.791   5.743   4.510
 3700SOL    HW212000   0.642   5.713   4.452
 3701SOL     OW12001   1.403   1.473   4.200
 3701SOL    HW112002   1.390   1.400   4.133
 3701SOL    HW212003   1.404   1.562   4.154
 3702SOL     OW12004   5.812   6.931   3.088
 3702SOL    HW112005   5.897   6.960   3.043
 3702SOL    HW212006   5.834   6.873   3.166
 3703SOL     OW12007   6.067   0.433   6.164
 3703SOL    HW112008   6.065   0.387   6.075
 3703SOL    HW212009   5.976   0.468   6.186
 3704SOL     OW12010   3.423   1.384   1.042
 3704SOL    HW112011   3.345   1.335   1.003
 3704SOL    HW212012   3.502   1.375   0.982
 3705SOL     OW12013   5.011   4.261   4.892
 3705SOL    HW112014   5.065   4.316   4.828
 3705SOL    HW212015   5.028   4.164   4.874
 3706SOL     OW12016   1.726   4.137   0.248
 3706SOL    HW112017   1.774   4.054   0.278
 3706SOL    HW212018   1.780   4.183   0.178
 3707SOL     OW12019   5.251   4.670   3.896
 3707SOL    HW112020   5.347   4.647   3.915
 3707SOL    HW212021   5.201   4.680   3.982
 3708SOL     OW12022   6.257   1.208   0.224
 3708SOL    HW112023   6.318   1.185   0.301
 3708SOL    HW212024   6.230   1.124   0.177
 3709SOL     OW12025   3.471   0.938   1.089
 3709SOL    HW112026   3.564   0.930   1.053
 3709SOL    HW212027   3.455   1.032   1.119
 3710SOL     OW12028   6.347   5.838   5.729
 3710SOL    HW112029   6.359   5.885   5.816
 3710SOL    HW212030   6.254   5.800   5.724
 3711SOL     OW12031   0.863   6.509   4.548
 3711SOL    HW112032   0.912   6.506   4.461
 3711SOL    HW212033   0.908   6.573   4.610
 3712SOL     OW12034   0.983   5.185   5.865
 3712SOL    HW112035   0.895   5.171   5.910
 3712SOL    HW212036   0.969   5.198   5.767
 3713SOL     OW12037   0.582   6.738   5.340
 3713SOL    HW112038   0.602   6.711   5.435
 3713SOL    HW212039   0.601   6.835   5.328
 3714SOL     OW12040   5.713   6.024   6.158
 3714SOL    HW112041   5.762   6.022   6.245
 3714SOL    HW212042   5.733   6.110   6.111
 3715SOL     OW12043   0.675   3.938   2.554
 3715SOL    HW112044   0.649   3.857   2.606
 3715SOL    HW212045   0.731   3.998   2.611
 3716SOL     OW12046   5.791   6.485   4.217
 3716SOL    HW112047   5.767   6.397   4.176
 3716SOL    HW212048   5.788   6.478   4.317
 3717SOL     OW12049   6.758   6.265   6.660
 3717SOL    HW112050   6.846   6.250   6.707
 3717SOL    HW212051   6.689   6.292   6.727
 3718SOL     OW12052   0.498   0.595   6.455
 3718SOL    HW112053   0.457   0.563   6.540
 3718SOL    HW212054   0.531   0.689   6.467
 3719SOL     OW12055   5.332   4.129   1.621
 3719SOL    HW112056   5.311   4.138   1.718
 3719SOL    HW212057   5.426   4.094   1.611
 3720SOL     OW12058   5.796   2.799   6.875
 3720SOL    HW112059   5.737   2.746   6.936
 3720SOL    HW212060   5.752   2.886   6.854
 3721SOL     OW12061   6.390   4.625   1.660
 3721SOL    HW112062   6.470   4.642   1.717
 3721SOL    HW212063   6.332   4.707   1.659
 3722SOL     OW12064   5.496   6.063   0.796
 3722SOL    HW112065   5.407   6.083   0.838
 3722SOL    HW212066   5.499   5.967   0.769
 3723SOL     OW12067   5.784   4.890   1.412
 3723SOL    HW112068   5.709   4.920   1.471
 3723SOL    HW212069   5.749   4.829   1.341
 3724SOL     OW12070   2.023   4.800   4.823
 3724SOL    HW112071   2.043   4.890   4.785
 3724SOL    HW212072   1.935   4.768   4.790
 3725SOL     OW12073   6.933   5.107   0.088
 3725SOL    HW112074   6.950   5.090   0.185
 3725SOL    HW212075   6.931   5.206   0.071
 3726SOL     OW12076   6.408   3.159   0.011
 3726SOL    HW112077   6.318   3.119   0.033
 3726SOL    HW212078   6.476   3.123   0.074
 3727SOL     OW12079   6.352   1.611   5.237
 3727SOL    HW112080   6.295   1.690   5.262
 3727SOL    HW212081   6.412   1.588   5.313
 3728SOL     OW12082   1.622   3.674   5.843
 3728SOL    HW112083   1.646   3.584   5.877
 3728SOL    HW212084   1.704   3.730   5.835
 3729SOL     OW12085   1.754   1.837   4.498
 3729SOL    HW112086   1.697   1.803   4.423
 3729SOL    HW212087   1.844   1.861   4.463
 3730SOL     OW12088   3.238   5.357   5.527
 3730SOL    HW112089   3.277   5.355   5.435
 3730SOL    HW212090   3.167   5.287   5.535
 3731SOL     OW12091   0.118   1.361   0.697
 3731SOL    HW112092   0.145   1.266   0.707
 3731SOL    HW212093   0.111   1.404   0.787
 3732SOL     OW12094   2.622   1.716   0.001
 3732SOL    HW112095   2.680   1.667   0.065
 3732SOL    HW212096   2.677   1.748   6.941
 3733SOL     OW12097   1.724   3.324   3.363
 3733SOL    HW112098   1.643   3.267   3.373
 3733SOL    HW212099   1.806   3.266   3.368
 3734SOL     OW12100   5.176   0.207   0.936
 3734SOL    HW112101   5.199   0.242   0.846
 3734SOL    HW212102   5.203   0.110   0.942
 3735SOL     OW12103   2.559   1.053   2.938
 3735SOL    HW112104   2.643   1.043   2.886
 3735SOL    HW212105   2.510   0.966   2.940
 3736SOL     OW12106   6.807   2.360   1.267
 3736SOL    HW112107   6.774   2.277   1.312
 3736SOL    HW212108   6.771   2.441   1.315
 3737SOL     OW12109   5.337   1.104   3.944
 3737SOL    HW112110   5.351   1.055   3.859
 3737SOL    HW212111   5.306   1.041   4.015
 3738SOL     OW12112   6.752   0.335   2.157
 3738SOL    HW112113   6.760   0.289   2.068
 3738SOL    HW212114   6.728   0.267   2.227
 3739SOL     OW12115   2.235   5.578   0.372
 3739SOL    HW112116   2.275   5.600   0.461
 3739SOL    HW212117   2.200   5.484   0.374
 3740SOL     OW12118   6.581   0.366   0.961
 3740SOL    HW112119   6.583   0.266   0.953
 3740SOL    HW212120   6.674   0.399   0.977
 3741SOL     OW12121   5.456   3.061   6.146
 3741SOL    HW112122   5.428   3.101   6.059
 3741SOL    HW212123   5.555   3.048   6.146
 3742SOL     OW12124   2.551   1.901   6.533
 3742SOL    HW112125   2.533   1.815   6.580
 3742SOL    HW212126   2.649   1.910   6.517
 3743SOL     OW12127   6.114   3.265   0.250
 3743SOL    HW112128   6.174   3.344   0.245
 3743SOL    HW212129   6.138   3.199   0.179
 3744SOL     OW12130   1.629   6.046   1.563
 3744SOL    HW112131   1.560   6.018   1.496
 3744SOL    HW212132   1.696   5.973   1.575
 3745SOL     OW12133   4.566   4.823   2.506
 3745SOL    HW112134   4.505   4.806   2.583
 3745SOL    HW212135   4.590   4.920   2.504
 3746SOL     OW12136   5.929   1.056   3.936
 3746SOL    HW112137   5.998   1.053   3.864
 3746SOL    HW212138   5.950   0.988   4.006
 3747SOL     OW12139   2.980   6.270   5.189
 3747SOL    HW112140   2.896   6.293   5.238
 3747SOL    HW212141   3.046   6.344   5.202
 3748SOL     OW12142   5.445   0.829   1.806
 3748SOL    HW112143   5.420   0.798   1.715
 3748SOL    HW212144   5.413   0.763   1.874
 3749SOL     OW12145   1.519   5.252   3.558
 3749SOL    HW112146   1.527   5.156   3.585
 3749SOL    HW212147   1.566   5.309   3.626
 3750SOL     OW12148   6.778   5.038   1.365
 3750SOL    HW112149   6.688   5.068   1.399
 3750SOL    HW212150   6.849   5.071   1.427
 3751SOL     OW12151   6.608   3.635   1.520
 3751SOL    HW112152   6.647   3.588   1.599
 3751SOL    HW212153   6.644   3.728   1.515
 3752SOL     OW12154   6.233   6.352   0.700
 3752SOL    HW112155   6.332   6.348   0.701
 3752SOL    HW212156   6.196   6.305   0.781
 3753SOL     OW12157   6.678   0.273   4.194
 3753SOL    HW112158   6.674   0.210   4.117
 3753SOL    HW212159   6.751   0.246   4.256
 3754SOL     OW12160   4.033   6.834   1.096
 3754SOL    HW112161   4.041   6.849   1.195
 3754SOL    HW212162   3.991   6.745   1.080
 3755SOL     OW12163   5.300   5.829   4.151
 3755SOL    HW112164   5.240   5.909   4.142
 3755SOL    HW212165   5.284   5.786   4.240
 3756SOL     OW12166   2.169   5.887   6.747
 3756SOL    HW112167   2.086   5.861   6.798
 3756SOL    HW212168   2.235   5.811   6.751
 3757SOL     OW12169   4.642   6.358   6.298
 3757SOL    HW112170   4.701   6.438   6.291
 3757SOL    HW212171   4.668   6.290   6.229
 3758SOL     OW12172   2.375   1.834   5.660
 3758SOL    HW112173   2.281   1.834   5.693
 3758SOL    HW212174   2.428   1.768   5.714
 3759SOL     OW12175   4.259   5.618   6.765
 3759SOL    HW112176   4.253   5.713   6.796
 3759SOL    HW212177   4.354   5.587   6.769
 3760SOL     OW12178   1.707   1.449   5.094
 3760SOL    HW112179   1.735   1.376   5.032
 3760SOL    HW212180   1.787   1.506   5.115
 3761SOL     OW12181   1.070   1.103   4.664
 3761SOL    HW112182   0.992   1.165   4.659
 3761SOL    HW212183   1.048   1.017   4.618
 3762SOL     OW12184   0.919   3.818   0.647
 3762SOL    HW112185   0.869   3.790   0.729
 3762SOL    HW212186   0.880   3.903   0.612
 3763SOL     OW12187   6.945   3.854   1.507
 3763SOL    HW112188   6.864   3.883   1.559
 3763SOL    HW212189   0.009   3.871   1.561
 3764SOL     OW12190   1.606   6.837   3.217
 3764SOL    HW112191   1.524   6.892   3.231
 3764SOL    HW212192   1.639   6.851   3.124
 3765SOL     OW12193   4.893   0.915   0.779
 3765SOL    HW112194   4.957   0.935   0.853
 3765SOL    HW212195   4.887   0.994   0.718
 3766SOL     OW12196   1.347   0.612   3.447
 3766SOL    HW112197   1.356   0.578   3.541
 3766SOL    HW212198   1.251   0.630   3.427
 3767SOL     OW12199   1.808   4.867   0.378
 3767SOL    HW112200   1.891   4.811   0.379
 3767SOL    HW212201   1.832   4.962   0.356
 3768SOL     OW12202   1.340   6.501   4.792
 3768SOL    HW112203   1.413   6.556   4.751
 3768SOL    HW212204   1.310   6.432   4.726
 3769SOL     OW12205   6.678   6.089   5.593
 3769SOL    HW112206   6.631   6.072   5.680
 3769SOL    HW212207   6.610   6.112   5.523
 3770SOL     OW12208   1.947   1.380   6.554
 3770SOL    HW112209   1.909   1.432   6.630
 3770SOL    HW212210   1.887   1.388   6.475
 3771SOL     OW12211   6.112   3.198   6.829
 3771SOL    HW112212   6.057   3.254   6.767
 3771SOL    HW212213   6.209   3.223   6.820
 3772SOL     OW12214   0.018   0.975   6.746
 3772SOL    HW112215   6.964   1.028   6.792
 3772SOL    HW212216   0.017   0.882   6.781
 3773SOL     OW12217   6.337   2.718   5.962
 3773SOL    HW112218   6.317   2.756   6.053
 3773SOL    HW212219   6.382   2.788   5.906
 3774SOL     OW12220   0.200   5.929   0.677
 3774SOL    HW112221   0.210   5.900   0.582
 3774SOL    HW212222   0.103   5.940   0.699
 3775SOL     OW12223   4.692   5.075   1.599
 3775SOL    HW112224   4.619   5.008   1.616
 3775SOL    HW212225   4.708   5.082   1.501
 3776SOL     OW12226   4.465   1.083   0.391
 3776SOL    HW112227   4.447   1.084   0.293
 3776SOL    HW212228   4.462   0.988   0.424
 3777SOL     OW12229   3.396   5.677   3.918
 3777SOL    HW112230   3.455   5.717   3.988
 3777SOL    HW212231   3.331   5.615   3.961
 3778SOL     OW12232   3.715   4.937   2.374
 3778SOL    HW112233   3.802   4.898   2.341
 3778SOL    HW212234   3.661   4.969   2.296
 3779SOL     OW12235   1.447   4.710   0.550
 3779SOL    HW112236   1.412   4.737   0.639
 3779SOL    HW212237   1.546   4.721   0.548
 3780SOL     OW12238   6.193   5.837   5.442
 3780SOL    HW112239   6.250   5.813   5.521
 3780SOL    HW212240   6.242   5.814   5.358
 3781SOL     OW12241   0.233   6.123   4.349
 3781SOL    HW112242   0.313   6.180   4.331
 3781SOL    HW212243   0.226   6.052   4.278
 3782SOL     OW12244   2.633   0.692   3.597
 3782SOL    HW112245   2.633   0.616   3.532
 3782SOL    HW212246   2.719   0.693   3.648
 3783SOL     OW12247   5.744   5.514   3.462
 3783SOL    HW112248   5.666   5.457   3.438
 3783SOL    HW212249   5.743   5.598   3.408
 3784SOL     OW12250   4.871   2.863   2.378
 3784SOL    HW112251   4.965   2.830   2.375
 3784SOL    HW212252   4.871   2.963   2.379
 3785SOL     OW12253   2.378   2.383   6.297
 3785SOL    HW112254   2.314   2.458   6.280
 3785SOL    HW212255   2.411   2.388   6.391
 3786SOL     OW12256   1.707   5.597   2.998
 3786SOL    HW112257   1.674   5.640   3.082
 3786SOL    HW212258   1.799   5.560   3.014
 3787SOL     OW12259   5.879   1.188   1.992
 3787SOL    HW112260   5.938   1.252   2.040
 3787SOL    HW212261   5.928   1.149   1.914
 3788SOL     OW12262   0.859   4.411   4.723
 3788SOL    HW112263   0.898   4.348   4.791
 3788SOL    HW212264   0.763   4.386   4.707
 3789SOL     OW12265   0.481   2.689   5.123
 3789SOL    HW112266   0.483   2.776   5.074
 3789SOL    HW212267   0.461   2.705   5.219
 3790SOL     OW12268   1.377   4.464   5.655
 3790SOL    HW112269   1.370   4.439   5.558
 3790SOL    HW212270   1.472   4.459   5.684
 3791SOL     OW12271   5.413   0.663   0.019
 3791SOL    HW112272   5.478   0.715   0.075
 3791SOL    HW212273   5.344   0.726   6.999
 3792SOL     OW12274   0.855   2.103   5.022
 3792SOL    HW112275   0.756   2.100   5.007
 3792SOL    HW212276   0.885   2.198   5.023
 3793SOL     OW12277   5.104   6.847   1.930
 3793SOL    HW112278   5.136   6.891   2.014
 3793SOL    HW212279   5.164   6.770   1.908
 3794SOL     OW12280   2.290   3.880   0.650
 3794SOL    HW112281   2.349   3.801   0.632
 3794SOL    HW212282   2.196   3.848   0.662
 3795SOL     OW12283   4.089   6.645   6.993
 3795SOL    HW112284   3.996   6.664   0.005
 3795SOL    HW212285   4.148   6.724   7.011
 3796SOL     OW12286   3.004   2.008   2.357
 3796SOL    HW112287   3.045   1.987   2.446
 3796SOL    HW212288   2.941   1.935   2.331
 3797SOL     OW12289   6.989   4.082   1.321
 3797SOL    HW112290   0.018   4.028   1.252
 3797SOL    HW212291   6.935   4.021   1.380
 3798SOL     OW12292   2.536   5.494   3.005
 3798SOL    HW112293   2.516   5.592   3.011
 3798SOL    HW212294   2.635   5.479   3.010
 3799SOL     OW12295   0.722   2.137   3.936
 3799SOL    HW112296   0.781   2.122   4.016
 3799SOL    HW212297   0.708   2.050   3.888
 3800SOL     OW12298   5.569   3.361   3.914
 3800SOL    HW112299   5.615   3.288   3.863
 3800SOL    HW212300   5.601   3.361   4.009
 3801SOL     OW12301   6.023   6.968   2.897
 3801SOL    HW112302   6.095   0.006   2.939
 3801SOL    HW212303   6.035   6.966   2.798
 3802SOL     OW12304   1.210   2.323   2.949
 3802SOL    HW112305   1.267   2.263   2.892
 3802SOL    HW212306   1.203   2.283   3.041
 3803SOL     OW12307   3.292   2.451   1.298
 3803SOL    HW112308   3.287   2.505   1.381
 3803SOL    HW212309   3.298   2.354   1.321
 3804SOL     OW12310   4.634   1.420   4.026
 3804SOL    HW112311   4.552   1.468   3.995
 3804SOL    HW212312   4.625   1.323   4.007
 3805SOL     OW12313   2.716   2.766   1.603
 3805SOL    HW112314   2.749   2.837   1.666
 3805SOL    HW212315   2.704   2.680   1.653
 3806SOL     OW12316   3.490   3.847   6.463
 3806SOL    HW112317   3.392   3.867   6.464
 3806SOL    HW212318   3.542   3.932   6.454
 3807SOL     OW12319   1.440   5.846   2.461
 3807SOL    HW112320   1.430   5.939   2.497
 3807SOL    HW212321   1.491   5.849   2.375
 3808SOL     OW12322   3.794   0.644   1.046
 3808SOL    HW112323   3.870   0.579   1.057
 3808SOL    HW212324   3.813   0.727   1.098
 3809SOL     OW12325   5.177   3.095   1.061
 3809SOL    HW112326   5.189   3.185   1.102
 3809SOL    HW212327   5.233   3.028   1.110
 3810SOL     OW12328   4.499   2.535   4.161
 3810SOL    HW112329   4.431   2.527   4.087
 3810SOL    HW212330   4.546   2.623   4.153
 3811SOL     OW12331   1.259   4.446   4.379
 3811SOL    HW112332   1.321   4.502   4.323
 3811SOL    HW212333   1.309   4.369   4.417
 3812SOL     OW12334   5.127   6.195   4.549
 3812SOL    HW112335   5.057   6.163   4.485
 3812SOL    HW212336   5.213   6.148   4.530
 3813SOL     OW12337   4.675   4.422   0.427
 3813SOL    HW112338   4.655   4.385   0.517
 3813SOL    HW212339   4.654   4.354   0.357
 3814SOL     OW12340   0.091   6.824   6.985
 3814SOL    HW112341   0.064   6.912   0.005
 3814SOL    HW212342   0.190   6.814   6.989
 3815SOL     OW12343   4.254   2.500   0.833
 3815SOL    HW112344   4.318   2.563   0.878
 3815SOL    HW212345   4.201   2.550   0.764
 3816SOL     OW12346   0.745   6.093   6.997
 3816SOL    HW112347   0.770   6.122   0.071
 3816SOL    HW212348   0.821   6.111   6.934
 3817SOL     OW12349   5.133   4.035   2.630
 3817SOL    HW112350   5.131   4.126   2.671
 3817SOL    HW212351   5.204   4.031   2.560
 3818SOL     OW12352   6.095   0.900   0.423
 3818SOL    HW112353   6.186   0.940   0.420
 3818SOL    HW212354   6.029   0.969   0.455
 3819SOL     OW12355   5.282   5.798   2.159
 3819SOL    HW112356   5.378   5.814   2.136
 3819SOL    HW212357   5.224   5.830   2.084
 3820SOL     OW12358   5.645   6.549   3.615
 3820SOL    HW112359   5.681   6.639   3.593
 3820SOL    HW212360   5.570   6.527   3.552
 3821SOL     OW12361   2.405   1.748   1.044
 3821SOL    HW112362   2.306   1.737   1.037
 3821SOL    HW212363   2.426   1.815   1.116
 3822SOL     OW12364   1.959   6.840   1.804
 3822SOL    HW112365   1.975   6.787   1.887
 3822SOL    HW212366   1.893   6.913   1.823
 3823SOL     OW12367   3.297   2.897   5.774
 3823SOL    HW112368   3.347   2.891   5.688
 3823SOL    HW212369   3.207   2.938   5.759
 3824SOL     OW12370   6.097   2.392   0.810
 3824SOL    HW112371   6.013   2.344   0.834
 3824SOL    HW212372   6.161   2.388   0.887
 3825SOL     OW12373   0.477   6.234   1.176
 3825SOL    HW112374   0.539   6.203   1.247
 3825SOL    HW212375   0.382   6.217   1.205
 3826SOL     OW12376   1.034   3.149   0.003
 3826SOL    HW112377   1.111   3.122   6.962
 3826SOL    HW212378   1.004   3.241   6.997
 3827SOL     OW12379   2.265   2.966   1.510
 3827SOL    HW112380   2.334   2.899   1.537
 3827SOL    HW212381   2.296   3.057   1.536
 3828SOL     OW12382   3.611   2.683   1.765
 3828SOL    HW112383   3.642   2.588   1.761
 3828SOL    HW212384   3.511   2.685   1.767
 3829SOL     OW12385   0.951   4.876   4.208
 3829SOL    HW112386   1.021   4.860   4.278
 3829SOL    HW212387   0.973   4.959   4.157
 3830SOL     OW12388   0.758   1.569   4.094
 3830SOL    HW112389   0.716   1.535   4.010
 3830SOL    HW212390   0.692   1.563   4.169
 3831SOL     OW12391   4.541   2.568   2.203
 3831SOL    HW112392   4.619   2.618   2.166
 3831SOL    HW212393   4.472   2.556   2.132
 3832SOL     OW12394   5.873   0.923   2.595
 3832SOL    HW112395   5.960   0.915   2.547
 3832SOL    HW212396   5.824   1.003   2.561
 3833SOL     OW12397   0.516   6.340   5.653
 3833SOL    HW112398   0.567   6.345   5.567
 3833SOL    HW212399   0.424   6.304   5.635
 3834SOL     OW12400   4.755   3.636   1.780
 3834SOL    HW112401   4.697   3.556   1.763
 3834SOL    HW212402   4.715   3.716   1.735
 3835SOL     OW12403   2.955   5.577   4.506
 3835SOL    HW112404   2.875   5.547   4.456
 3835SOL    HW212405   2.967   5.520   4.587
 3836SOL     OW12406   1.732   3.996   5.630
 3836SOL    HW112407   1.707   3.967   5.538
 3836SOL    HW212408   1.792   4.075   5.625
 3837SOL     OW12409   4.947   4.440   6.653
 3837SOL    HW112410   4.991   4.410   6.568
 3837SOL    HW212411   4.853   4.468   6.633
 3838SOL     OW12412   6.688   3.726   4.969
 3838SOL    HW112413   6.633   3.681   5.039
 3838SOL    HW212414   6.627   3.774   4.905
 3839SOL     OW12415   4.230   0.540   3.761
 3839SOL    HW112416   4.326   0.568   3.755
 3839SOL    HW212417   4.174   0.620   3.781
 3840SOL     OW12418   2.099   1.110   5.652
 3840SOL    HW112419   2.084   1.071   5.561
 3840SOL    HW212420   2.146   1.044   5.709
 3841SOL     OW12421   0.513   3.590   5.221
 3841SOL    HW112422   0.413   3.580   5.215
 3841SOL    HW212423   0.555   3.499   5.222
 3842SOL     OW12424   1.535   3.528   6.681
 3842SOL    HW112425   1.439   3.505   6.666
 3842SOL    HW212426   1.567   3.484   6.765
 3843SOL     OW12427   6.554   4.349   2.673
 3843SOL    HW112428   6.522   4.393   2.589
 3843SOL    HW212429   6.485   4.359   2.744
 3844SOL     OW12430   0.584   2.858   6.101
 3844SOL    HW112431   0.610   2.954   6.102
 3844SOL    HW212432   0.552   2.833   6.009
 3845SOL     OW12433   3.895   3.052   3.760
 3845SOL    HW112434   3.881   3.019   3.853
 3845SOL    HW212435   3.967   3.122   3.760
 3846SOL     OW12436   0.708   5.282   3.888
 3846SOL    HW112437   0.766   5.248   3.814
 3846SOL    HW212438   0.757   5.353   3.938
 3847SOL     OW12439   6.221   0.628   4.455
 3847SOL    HW112440   6.215   0.563   4.530
 3847SOL    HW212441   6.267   0.711   4.486
 3848SOL     OW12442   3.113   5.490   2.788
 3848SOL    HW112443   3.114   5.510   2.886
 3848SOL    HW212444   3.202   5.512   2.749
 3849SOL     OW12445   0.908   1.657   5.217
 3849SOL    HW112446   0.923   1.593   5.292
 3849SOL    HW212447   0.911   1.608   5.130
 3850SOL     OW12448   2.536   3.173   1.040
 3850SOL    HW112449   2.478   3.108   1.089
 3850SOL    HW212450   2.481   3.251   1.009
 3851SOL     OW12451   1.890   4.368   2.709
 3851SOL    HW112452   1.864   4.373   2.805
 3851SOL    HW212453   1.810   4.344   2.654
 3852SOL     OW12454   4.257   6.924   4.035
 3852SOL    HW112455   4.349   6.951   4.063
 3852SOL    HW212456   4.238   6.832   4.070
 3853SOL     OW12457   1.096   3.167   3.254
 3853SOL    HW112458   1.189   3.154   3.220
 3853SOL    HW212459   1.089   3.133   3.348
 3854SOL     OW12460   1.042   3.616   2.316
 3854SOL    HW112461   0.958   3.667   2.334
 3854SOL    HW212462   1.042   3.582   2.222
 3855SOL     OW12463   5.177   6.560   6.849
 3855SOL    HW112464   5.237   6.620   6.795
 3855SOL    HW212465   5.217   6.546   6.940
 3856SOL     OW12466   0.093   6.585   5.770
 3856SOL    HW112467   0.121   6.560   5.863
 3856SOL    HW212468   0.069   6.502   5.720
 3857SOL     OW12469   0.462   6.084   6.251
 3857SOL    HW112470   0.438   6.094   6.347
 3857SOL    HW212471   0.516   6.163   6.222
 3858SOL     OW12472   1.610   6.719   5.543
 3858SOL    HW112473   1.533   6.756   5.594
 3858SOL    HW212474   1.595   6.733   5.445
 3859SOL     OW12475   6.502   2.175   3.072
 3859SOL    HW112476   6.551   2.247   3.123
 3859SOL    HW212477   6.560   2.094   3.065
 3860SOL     OW12478   2.129   0.187   5.398
 3860SOL    HW112479   2.038   0.147   5.397
 3860SOL    HW212480   2.122   0.287   5.401
 3861SOL     OW12481   4.761   4.666   2.780
 3861SOL    HW112482   4.696   4.625   2.716
 3861SOL    HW212483   4.839   4.604   2.792
 3862SOL     OW12484   0.828   0.366   4.795
 3862SOL    HW112485   0.781   0.306   4.859
 3862SOL    HW212486   0.927   0.352   4.804
 3863SOL     OW12487   4.868   2.899   6.339
 3863SOL    HW112488   4.839   2.988   6.373
 3863SOL    HW212489   4.950   2.910   6.283
 3864SOL     OW12490   2.865   0.819   5.479
 3864SOL    HW112491   2.933   0.748   5.458
 3864SOL    HW212492   2.913   0.900   5.512
 3865SOL     OW12493   3.334   6.617   0.571
 3865SOL    HW112494   3.386   6.615   0.485
 3865SOL    HW212495   3.397   6.628   0.648
 3866SOL     OW12496   4.008   1.149   1.137
 3866SOL    HW112497   4.034   1.068   1.189
 3866SOL    HW212498   3.991   1.225   1.200
 3867SOL     OW12499   1.409   3.726   3.656
 3867SOL    HW112500   1.485   3.702   3.717
 3867SOL    HW212501   1.411   3.666   3.576
 3868SOL     OW12502   2.870   6.954   1.069
 3868SOL    HW112503   2.846   6.866   1.028
 3868SOL    HW212504   2.797   0.002   1.052
 3869SOL     OW12505   0.142   3.273   5.061
 3869SOL    HW112506   0.144   3.240   4.967
 3869SOL    HW212507   0.096   3.361   5.064
 3870SOL     OW12508   4.464   4.639   0.275
 3870SOL    HW112509   4.520   4.712   0.316
 3870SOL    HW212510   4.505   4.550   0.295
 3871SOL     OW12511   4.563   0.303   1.985
 3871SOL    HW112512   4.555   0.397   2.020
 3871SOL    HW212513   4.635   0.256   2.034
 3872SOL     OW12514   3.948   3.024   2.049
 3872SOL    HW112515   3.855   3.033   2.013
 3872SOL    HW212516   3.953   3.067   2.139
 3873SOL     OW12517   6.678   4.435   1.588
 3873SOL    HW112518   6.760   4.389   1.555
 3873SOL    HW212519   6.696   4.532   1.600
 3874SOL     OW12520   3.589   6.018   6.649
 3874SOL    HW112521   3.570   5.962   6.568
 3874SOL    HW212522   3.685   6.007   6.675
 3875SOL     OW12523   1.244   2.874   2.125
 3875SOL    HW112524   1.150   2.861   2.094
 3875SOL    HW212525   1.258   2.825   2.210
 3876SOL     OW12526   5.850   5.263   6.883
 3876SOL    HW112527   5.783   5.193   6.859
 3876SOL    HW212528   5.814   5.321   6.955
 3877SOL     OW12529   0.084   2.704   6.721
 3877SOL    HW112530   0.158   2.749   6.671
 3877SOL    HW212531   7.017   2.709   6.668
 3878SOL     OW12532   2.360   6.476   5.530
 3878SOL    HW112533   2.399   6.431   5.610
 3878SOL    HW212534   2.292   6.543   5.560
 3879SOL     OW12535   5.161   6.712   1.022
 3879SOL    HW112536   5.169   6.661   0.936
 3879SOL    HW212537   5.215   6.666   1.092
 3880SOL     OW12538   6.114   4.563   3.764
 3880SOL    HW112539   6.135   4.594   3.671
 3880SOL    HW212540   6.061   4.633   3.812
 3881SOL     OW12541   1.124   4.961   0.867
 3881SOL    HW112542   1.223   4.959   0.874
 3881SOL    HW212543   1.088   5.039   0.919
 3882SOL     OW12544   6.224   1.420   4.756
 3882SOL    HW112545   6.181   1.506   4.728
 3882SOL    HW212546   6.231   1.417   4.856
 3883SOL     OW12547   4.722   0.736   3.260
 3883SOL    HW112548   4.770   0.667   3.205
 3883SOL    HW212549   4.742   0.720   3.357
 3884SOL     OW12550   1.641   6.127   3.986
 3884SOL    HW112551   1.570   6.058   4.001
 3884SOL    HW212552   1.601   6.218   3.992
 3885SOL     OW12553   6.662   0.866   3.896
 3885SOL    HW112554   6.592   0.807   3.937
 3885SOL    HW212555   6.626   0.959   3.887
 3886SOL     OW12556   6.613   6.225   5.006
 3886SOL    HW112557   6.540   6.284   4.972
 3886SOL    HW212558   6.692   6.281   5.032
 3887SOL     OW12559   5.428   1.530   5.389
 3887SOL    HW112560   5.489   1.574   5.323
 3887SOL    HW212561   5.347   1.496   5.342
 3888SOL     OW12562   0.607   0.349   6.447
 3888SOL    HW112563   0.578   0.442   6.470
 3888SOL    HW212564   0.679   0.320   6.510
 3889SOL     OW12565   6.792   2.429   6.036
 3889SOL    HW112566   6.696   2.438   6.061
 3889SOL    HW212567   6.829   2.518   6.010
 3890SOL     OW12568   6.107   5.658   2.870
 3890SOL    HW112569   6.037   5.586   2.871
 3890SOL    HW212570   6.197   5.617   2.887
 3891SOL     OW12571   5.095   5.022   4.418
 3891SOL    HW112572   5.007   5.069   4.416
 3891SOL    HW212573   5.136   5.023   4.327
 3892SOL     OW12574   0.290   1.434   2.406
 3892SOL    HW112575   0.287   1.525   2.364
 3892SOL    HW212576   0.366   1.430   2.471
 3893SOL     OW12577   2.876   5.248   2.052
 3893SOL    HW112578   2.871   5.344   2.079
 3893SOL    HW212579   2.950   5.203   2.102
 3894SOL     OW12580   2.732   1.942   0.775
 3894SOL    HW112581   2.667   1.867   0.784
 3894SOL    HW212582   2.724   2.003   0.853
 3895SOL     OW12583   0.911   0.847   5.542
 3895SOL    HW112584   0.979   0.817   5.476
 3895SOL    HW212585   0.930   0.804   5.631
 3896SOL     OW12586   0.191   2.240   6.112
 3896SOL    HW112587   0.109   2.227   6.167
 3896SOL    HW212588   0.174   2.207   6.019
 3897SOL     OW12589   3.503   6.469   2.071
 3897SOL    HW112590   3.572   6.541   2.061
 3897SOL    HW212591   3.414   6.506   2.046
 3898SOL     OW12592   3.250   3.664   3.687
 3898SOL    HW112593   3.174   3.729   3.694
 3898SOL    HW212594   3.288   3.647   3.777
 3899SOL     OW12595   5.075   0.876   4.358
 3899SOL    HW112596   5.130   0.872   4.441
 3899SOL    HW212597   4.980   0.895   4.382
 3900SOL     OW12598   5.035   3.060   2.967
 3900SOL    HW112599   4.963   3.055   2.898
 3900SOL    HW212600   4.995   3.054   3.058
 3901SOL     OW12601   3.034   6.432   5.723
 3901SOL    HW112602   3.067   6.494   5.651
 3901SOL    HW212603   3.049   6.474   5.812
 3902SOL     OW12604   4.942   4.009   1.933
 3902SOL    HW112605   5.029   3.960   1.925
 3902SOL    HW212606   4.909   4.002   2.027
 3903SOL     OW12607   4.945   3.555   7.000
 3903SOL    HW112608   5.027   3.502   6.978
 3903SOL    HW212609   4.959   3.650   6.973
 3904SOL     OW12610   2.061   0.924   6.039
 3904SOL    HW112611   2.108   0.862   6.101
 3904SOL    HW212612   2.126   0.987   5.997
 3905SOL     OW12613   5.922   6.334   6.175
 3905SOL    HW112614   6.017   6.331   6.145
 3905SOL    HW212615   5.919   6.333   6.275
 3906SOL     OW12616   1.569   4.827   5.869
 3906SOL    HW112617   1.625   4.793   5.793
 3906SOL    HW212618   1.493   4.881   5.833
 3907SOL     OW12619   7.010   0.942   4.200
 3907SOL    HW112620   0.014   0.866   4.261
 3907SOL    HW212621   6.992   0.907   4.108
 3908SOL     OW12622   1.615   1.444   6.474
 3908SOL    HW112623   1.627   1.352   6.511
 3908SOL    HW212624   1.666   1.452   6.388
 3909SOL     OW12625   6.628   4.314   6.621
 3909SOL    HW112626   6.619   4.230   6.568
 3909SOL    HW212627   6.678   4.296   6.705
 3910SOL     OW12628   3.726   3.859   1.919
 3910SOL    HW112629   3.805   3.918   1.902
 3910SOL    HW212630   3.755   3.763   1.914
 3911SOL     OW12631   4.863   0.753   0.526
 3911SOL    HW112632   4.858   0.836   0.582
 3911SOL    HW212633   4.785   0.751   0.463
 3912SOL     OW12634   3.856   0.845   6.250
 3912SOL    HW112635   3.763   0.861   6.218
 3912SOL    HW212636   3.917   0.838   6.171
 3913SOL     OW12637   3.361   6.603   6.695
 3913SOL    HW112638   3.365   6.503   6.683
 3913SOL    HW212639   3.454   6.640   6.698
 3914SOL     OW12640   5.109   0.825   1.294
 3914SOL    HW112641   5.062   0.911   1.313
 3914SOL    HW212642   5.044   0.749   1.302
 3915SOL     OW12643   4.503   6.758   6.799
 3915SOL    HW112644   4.451   6.825   6.851
 3915SOL    HW212645   4.504   6.671   6.849
 3916SOL     OW12646   2.604   6.987   3.016
 3916SOL    HW112647   2.658   6.907   2.989
 3916SOL    HW212648   2.578   0.021   2.934
 3917SOL     OW12649   1.345   4.760   0.819
 3917SOL    HW112650   1.287   4.707   0.883
 3917SOL    HW212651   1.387   4.836   0.868
 3918SOL     OW12652   3.491   6.642   1.335
 3918SOL    HW112653   3.403   6.690   1.334
 3918SOL    HW212654   3.545   6.670   1.256
 3919SOL     OW12655   3.601   0.439   6.662
 3919SOL    HW112656   3.640   0.520   6.618
 3919SOL    HW212657   3.535   0.467   6.732
 3920SOL     OW12658   2.779   0.628   6.759
 3920SOL    HW112659   2.756   0.698   6.828
 3920SOL    HW212660   2.769   0.668   6.668
 3921SOL     OW12661   0.231   1.818   6.836
 3921SOL    HW112662   0.162   1.848   6.901
 3921SOL    HW212663   0.216   1.865   6.748
 3922SOL     OW12664   4.882   4.829   1.364
 3922SOL    HW112665   4.936   4.756   1.321
 3922SOL    HW212666   4.891   4.823   1.463
 3923SOL     OW12667   5.510   2.098   0.953
 3923SOL    HW112668   5.596   2.075   0.907
 3923SOL    HW212669   5.438   2.039   0.918
 3924SOL     OW12670   0.473   4.597   3.185
 3924SOL    HW112671   0.549   4.645   3.229
 3924SOL    HW212672   0.427   4.540   3.253
 3925SOL     OW12673   4.629   5.051   1.075
 3925SOL    HW112674   4.667   5.138   1.042
 3925SOL    HW212675   4.549   5.026   1.020
 3926SOL     OW12676   0.456   0.547   5.367
 3926SOL    HW112677   0.542   0.598   5.365
 3926SOL    HW212678   0.439   0.514   5.460
 3927SOL     OW12679   0.382   2.417   4.160
 3927SOL    HW112680   0.392   2.504   4.111
 3927SOL    HW212681   0.408   2.342   4.100
 3928SOL     OW12682   3.194   5.792   2.792
 3928SOL    HW112683   3.158   5.876   2.754
 3928SOL    HW212684   3.119   5.730   2.814
 3929SOL     OW12685   0.142   1.193   0.144
 3929SOL    HW112686   0.213   1.189   0.214
 3929SOL    HW212687   0.069   1.129   0.168
 3930SOL     OW12688   0.944   2.203   3.415
 3930SOL    HW112689   0.887   2.239   3.489
 3930SOL    HW212690   1.025   2.158   3.453
 3931SOL     OW12691   1.932   1.827   1.859
 3931SOL    HW112692   2.017   1.790   1.894
 3931SOL    HW212693   1.948   1.920   1.825
 3932SOL     OW12694   2.280   5.078   3.924
 3932SOL    HW112695   2.273   4.994   3.979
 3932SOL    HW212696   2.372   5.116   3.932
 3933SOL     OW12697   1.646   6.732   0.180
 3933SOL    HW112698   1.630   6.813   0.124
 3933SOL    HW212699   1.569   6.720   0.244
 3934SOL     OW12700   6.920   1.152   2.986
 3934SOL    HW112701   6.984   1.227   3.002
 3934SOL    HW212702   6.831   1.188   2.958
 3935SOL     OW12703   0.609   1.615   5.823
 3935SOL    HW112704   0.660   1.594   5.906
 3935SOL    HW212705   0.535   1.549   5.811
 3936SOL     OW12706   0.044   6.351   5.646
 3936SOL    HW112707   0.014   6.260   5.676
 3936SOL    HW212708   0.028   6.360   5.547
 3937SOL     OW12709   0.344   6.584   3.107
 3937SOL    HW112710   0.332   6.485   3.115
 3937SOL    HW212711   0.260   6.625   3.071
 3938SOL     OW12712   6.350   3.782   4.329
 3938SOL    HW112713   6.368   3.692   4.288
 3938SOL    HW212714   6.437   3.829   4.343
 3939SOL     OW12715   2.810   1.443   3.999
 3939SOL    HW112716   2.834   1.354   4.036
 3939SOL    HW212717   2.867   1.462   3.919
 3940SOL     OW12718   2.912   4.829   1.855
 3940SOL    HW112719   2.875   4.739   1.877
 3940SOL    HW212720   2.876   4.897   1.919
 3941SOL     OW12721   5.545   0.169   4.351
 3941SOL    HW112722   5.508   0.180   4.259
 3941SOL    HW212723   5.487   0.106   4.403
 3942SOL     OW12724   0.719   6.385   5.460
 3942SOL    HW112725   0.767   6.298   5.467
 3942SOL    HW212726   0.782   6.457   5.432
 3943SOL     OW12727   0.662   3.472   2.526
 3943SOL    HW112728   0.656   3.515   2.436
 3943SOL    HW212729   0.574   3.480   2.573
 3944SOL     OW12730   5.746   3.715   5.747
 3944SOL    HW112731   5.783   3.803   5.716
 3944SOL    HW212732   5.655   3.701   5.707
 3945SOL     OW12733   1.245   2.368   3.239
 3945SOL    HW112734   1.191   2.445   3.205
 3945SOL    HW212735   1.245   2.368   3.339
 3946SOL     OW12736   0.665   3.580   6.813
 3946SOL    HW112737   0.642   3.634   6.894
 3946SOL    HW212738   0.605   3.607   6.737
 3947SOL     OW12739   5.632   4.956   0.565
 3947SOL    HW112740   5.606   4.954   0.662
 3947SOL    HW212741   5.730   4.940   0.556
 3948SOL     OW12742   1.545   3.813   6.621
 3948SOL    HW112743   1.528   3.714   6.627
 3948SOL    HW212744   1.638   3.833   6.651
 3949SOL     OW12745   6.352   0.148   3.538
 3949SOL    HW112746   6.378   0.113   3.629
 3949SOL    HW212747   6.302   0.077   3.488
 3950SOL     OW12748   4.304   4.159   1.661
 3950SOL    HW112749   4.348   4.175   1.749
 3950SOL    HW212750   4.273   4.247   1.624
 3951SOL     OW12751   0.112   1.324   6.618
 3951SOL    HW112752   0.152   1.393   6.558
 3951SOL    HW212753   0.167   1.317   6.702
 3952SOL     OW12754   6.045   3.184   4.300
 3952SOL    HW112755   5.956   3.139   4.312
 3952SOL    HW212756   6.106   3.125   4.248
 3953SOL     OW12757   3.464   4.298   5.756
 3953SOL    HW112758   3.503   4.222   5.704
 3953SOL    HW212759   3.407   4.355   5.696
 3954SOL     OW12760   6.065   5.081   5.753
 3954SOL    HW112761   6.064   5.107   5.656
 3954SOL    HW212762   6.115   5.150   5.806
 3955SOL     OW12763   4.649   6.234   0.013
 3955SOL    HW112764   4.689   6.164   0.073
 3955SOL    HW212765   4.679   6.219   6.937
 3956SOL     OW12766   0.926   2.606   5.088
 3956SOL    HW112767   0.939   2.677   5.018
 3956SOL    HW212768   0.872   2.643   5.163
 3957SOL     OW12769   3.194   6.175   3.331
 3957SOL    HW112770   3.141   6.200   3.412
 3957SOL    HW212771   3.288   6.208   3.342
 3958SOL     OW12772   6.091   6.308   6.962
 3958SOL    HW112773   5.991   6.307   6.975
 3958SOL    HW212774   6.135   6.281   0.029
 3959SOL     OW12775   3.328   6.302   1.233
 3959SOL    HW112776   3.381   6.380   1.200
 3959SOL    HW212777   3.388   6.241   1.284
 3960SOL     OW12778   5.446   2.310   5.943
 3960SOL    HW112779   5.450   2.353   6.033
 3960SOL    HW212780   5.350   2.290   5.920
 3961SOL     OW12781   5.138   2.085   1.397
 3961SOL    HW112782   5.133   2.161   1.461
 3961SOL    HW212783   5.050   2.074   1.351
 3962SOL     OW12784   0.274   5.869   6.951
 3962SOL    HW112785   0.236   5.808   6.881
 3962SOL    HW212786   0.348   5.822   6.999
 3963SOL     OW12787   5.711   5.236   3.660
 3963SOL    HW112788   5.798   5.271   3.696
 3963SOL    HW212789   5.695   5.275   3.570
 3964SOL     OW12790   4.573   5.845   5.545
 3964SOL    HW112791   4.660   5.794   5.547
 3964SOL    HW212792   4.575   5.910   5.470
 3965SOL     OW12793   3.730   5.008   5.774
 3965SOL    HW112794   3.663   5.071   5.814
 3965SOL    HW212795   3.683   4.947   5.710
 3966SOL     OW12796   6.813   4.656   0.252
 3966SOL    HW112797   6.911   4.644   0.237
 3966SOL    HW212798   6.770   4.567   0.267
 3967SOL     OW12799   1.025   4.774   2.847
 3967SOL    HW112800   0.946   4.804   2.794
 3967SOL    HW212801   1.008   4.682   2.883
 3968SOL     OW12802   5.771   0.423   1.827
 3968SOL    HW112803   5.821   0.493   1.777
 3968SOL    HW212804   5.681   0.457   1.852
 3969SOL     OW12805   0.884   4.384   2.529
 3969SOL    HW112806   0.984   4.384   2.522
 3969SOL    HW212807   0.849   4.476   2.513
 3970SOL     OW12808   5.119   5.499   3.764
 3970SOL    HW112809   5.191   5.543   3.817
 3970SOL    HW212810   5.158   5.421   3.715
 3971SOL     OW12811   3.003   5.215   2.536
 3971SOL    HW112812   2.945   5.297   2.539
 3971SOL    HW212813   2.954   5.142   2.488
 3972SOL     OW12814   0.728   5.985   0.610
 3972SOL    HW112815   0.703   5.916   0.541
 3972SOL    HW212816   0.659   6.057   0.611
 3973SOL     OW12817   3.048   3.465   5.171
 3973SOL    HW112818   3.080   3.477   5.077
 3973SOL    HW212819   3.034   3.367   5.189
 3974SOL     OW12820   0.449   0.841   6.133
 3974SOL    HW112821   0.426   0.892   6.217
 3974SOL    HW212822   0.519   0.891   6.083
 3975SOL     OW12823   6.372   0.122   6.147
 3975SOL    HW112824   6.356   0.215   6.180
 3975SOL    HW212825   6.288   0.087   6.105
 3976SOL     OW12826   1.062   4.927   1.175
 3976SOL    HW112827   1.020   5.016   1.154
 3976SOL    HW212828   1.005   4.878   1.240
 3977SOL     OW12829   2.954   5.255   5.901
 3977SOL    HW112830   2.934   5.160   5.926
 3977SOL    HW212831   2.996   5.302   5.978
 3978SOL     OW12832   5.015   0.571   4.454
 3978SOL    HW112833   4.939   0.632   4.434
 3978SOL    HW212834   5.099   0.607   4.413
 3979SOL     OW12835   2.015   6.198   1.889
 3979SOL    HW112836   1.956   6.278   1.880
 3979SOL    HW212837   1.964   6.116   1.863
 3980SOL     OW12838   0.059   4.013   6.308
 3980SOL    HW112839   0.013   4.098   6.282
 3980SOL    HW212840   0.157   4.031   6.318
 3981SOL     OW12841   1.173   1.969   6.081
 3981SOL    HW112842   1.244   2.025   6.038
 3981SOL    HW212843   1.123   2.024   6.148
 3982SOL     OW12844   2.813   0.677   3.803
 3982SOL    HW112845   2.799   0.579   3.797
 3982SOL    HW212846   2.874   0.698   3.880
 3983SOL     OW12847   3.218   6.028   4.119
 3983SOL    HW112848   3.169   6.066   4.197
 3983SOL    HW212849   3.305   5.990   4.149
 3984SOL     OW12850   2.690   0.465   1.548
 3984SOL    HW112851   2.751   0.519   1.490
 3984SOL    HW212852   2.634   0.405   1.490
 3985SOL     OW12853   2.307   4.471   6.650
 3985SOL    HW112854   2.309   4.371   6.651
 3985SOL    HW212855   2.215   4.502   6.624
 3986SOL     OW12856   0.262   1.811   3.484
 3986SOL    HW112857   0.182   1.871   3.477
 3986SOL    HW212858   0.322   1.825   3.405
 3987SOL     OW12859   1.423   5.150   4.980
 3987SOL    HW112860   1.353   5.123   5.045
 3987SOL    HW212861   1.484   5.073   4.962
 3988SOL     OW12862   3.602   1.881   5.739
 3988SOL    HW112863   3.622   1.911   5.645
 3988SOL    HW212864   3.518   1.827   5.739
 3989SOL     OW12865   5.775   0.690   5.959
 3989SOL    HW112866   5.743   0.783   5.944
 3989SOL    HW212867   5.700   0.625   5.944
 3990SOL     OW12868   5.693   2.011   3.948
 3990SOL    HW112869   5.691   1.963   4.036
 3990SOL    HW212870   5.774   1.983   3.897
 3991SOL     OW12871   6.599   2.425   3.713
 3991SOL    HW112872   6.621   2.413   3.810
 3991SOL    HW212873   6.566   2.518   3.697
 3992SOL     OW12874   4.608   2.798   6.532
 3992SOL    HW112875   4.527   2.844   6.570
 3992SOL    HW212876   4.619   2.825   6.437
 3993SOL     OW12877   2.248   1.918   3.708
 3993SOL    HW112878   2.276   1.956   3.619
 3993SOL    HW212879   2.225   1.822   3.697
 3994SOL     OW12880   1.988   2.579   4.883
 3994SOL    HW112881   2.057   2.606   4.950
 3994SOL    HW212882   1.991   2.480   4.870
 3995SOL     OW12883   2.344   4.712   3.758
 3995SOL    HW112884   2.420   4.772   3.785
 3995SOL    HW212885   2.381   4.623   3.731
 3996SOL     OW12886   1.836   1.260   4.942
 3996SOL    HW112887   1.930   1.226   4.942
 3996SOL    HW212888   1.789   1.225   4.860
 3997SOL     OW12889   4.883   3.464   3.704
 3997SOL    HW112890   4.833   3.541   3.663
 3997SOL    HW212891   4.830   3.428   3.781
 3998SOL     OW12892   5.429   2.492   1.975
 3998SOL    HW112893   5.357   2.428   1.946
 3998SOL    HW212894   5.513   2.441   1.993
 3999SOL     OW12895   5.849   3.352   3.414
 3999SOL    HW112896   5.914   3.427   3.402
 3999SOL    HW212897   5.808   3.358   3.505
 4000SOL     OW12898   3.323   5.441   2.542
 4000SOL    HW112899   3.249   5.376   2.526
 4000SOL    HW212900   3.404   5.392   2.576
 4001SOL     OW12901   2.244   2.913   5.272
 4001SOL    HW112902   2.173   2.886   5.207
 4001SOL    HW212903   2.328   2.936   5.223
 4002SOL     OW12904   3.753   3.993   5.331
 4002SOL    HW112905   3.684   3.947   5.387
 4002SOL    HW212906   3.712   4.073   5.287
 4003SOL     OW12907   1.687   1.049   5.773
 4003SOL    HW112908   1.644   0.980   5.832
 4003SOL    HW212909   1.766   1.088   5.820
 4004SOL     OW12910   5.914   2.883   4.550
 4004SOL    HW112911   5.886   2.913   4.459
 4004SOL    HW212912   6.006   2.844   4.545
 4005SOL     OW12913   5.104   4.335   0.973
 4005SOL    HW112914   5.094   4.243   0.936
 4005SOL    HW212915   5.190   4.341   1.025
 4006SOL     OW12916   4.801   4.671   2.468
 4006SOL    HW112917   4.847   4.725   2.398
 4006SOL    HW212918   4.717   4.717   2.497
 4007SOL     OW12919   0.658   2.591   2.312
 4007SOL    HW112920   0.567   2.619   2.282
 4007SOL    HW212921   0.724   2.662   2.289
 4008SOL     OW12922   3.291   1.628   5.974
 4008SOL    HW112923   3.219   1.576   5.927
 4008SOL    HW212924   3.378   1.615   5.926
 4009SOL     OW12925   3.882   2.326   0.924
 4009SOL    HW112926   3.848   2.418   0.946
 4009SOL    HW212927   3.850   2.300   0.833
 4010SOL     OW12928   2.587   3.069   1.649
 4010SOL    HW112929   2.590   3.168   1.643
 4010SOL    HW212930   2.660   3.037   1.710
 4011SOL     OW12931   0.354   6.783   2.134
 4011SOL    HW112932   0.369   6.882   2.129
 4011SOL    HW212933   0.439   6.738   2.162
 4012SOL     OW12934   4.318   6.093   2.157
 4012SOL    HW112935   4.258   6.014   2.147
 4012SOL    HW212936   4.385   6.075   2.229
 4013SOL     OW12937   2.737   0.401   1.179
 4013SOL    HW112938   2.651   0.354   1.159
 4013SOL    HW212939   2.720   0.499   1.189
 4014SOL     OW12940   3.837   5.667   4.088
 4014SOL    HW112941   3.870   5.747   4.038
 4014SOL    HW212942   3.740   5.652   4.068
 4015SOL     OW12943   4.427   4.426   6.894
 4015SOL    HW112944   4.513   4.446   6.941
 4015SOL    HW212945   4.351   4.434   6.958
 4016SOL     OW12946   2.309   5.576   0.022
 4016SOL    HW112947   2.406   5.567   0.044
 4016SOL    HW212948   2.274   5.661   0.060
 4017SOL     OW12949   0.922   6.549   6.041
 4017SOL    HW112950   0.993   6.596   6.092
 4017SOL    HW212951   0.834   6.557   6.089
 4018SOL     OW12952   5.061   6.664   0.736
 4018SOL    HW112953   5.098   6.756   0.725
 4018SOL    HW212954   5.097   6.604   0.664
 4019SOL     OW12955   6.121   3.839   2.996
 4019SOL    HW112956   6.027   3.868   3.013
 4019SOL    HW212957   6.147   3.865   2.902
 4020SOL     OW12958   0.303   3.022   6.037
 4020SOL    HW112959   0.284   3.036   6.134
 4020SOL    HW212960   0.229   3.061   5.983
 4021SOL     OW12961   3.139   4.066   4.965
 4021SOL    HW112962   3.144   4.108   4.875
 4021SOL    HW212963   3.189   3.979   4.965
 4022SOL     OW12964   4.769   6.852   6.777
 4022SOL    HW112965   4.675   6.824   6.758
 4022SOL    HW212966   4.827   6.771   6.785
 4023SOL     OW12967   0.340   0.841   4.128
 4023SOL    HW112968   0.409   0.874   4.193
 4023SOL    HW212969   0.282   0.773   4.172
 4024SOL     OW12970   2.177   5.627   4.215
 4024SOL    HW112971   2.203   5.716   4.252
 4024SOL    HW212972   2.239   5.557   4.250
 4025SOL     OW12973   1.014   6.509   4.327
 4025SOL    HW112974   1.004   6.571   4.249
 4025SOL    HW212975   1.033   6.417   4.293
 4026SOL     OW12976   6.043   6.905   3.252
 4026SOL    HW112977   6.029   6.830   3.316
 4026SOL    HW212978   6.008   6.990   3.291
 4027SOL     OW12979   2.847   2.546   0.465
 4027SOL    HW112980   2.890   2.603   0.534
 4027SOL    HW212981   2.786   2.480   0.509
 4028SOL     OW12982   3.522   1.649   3.365
 4028SOL    HW112983   3.603   1.592   3.379
 4028SOL    HW212984   3.459   1.636   3.442
 4029SOL     OW12985   3.281   4.738   5.782
 4029SOL    HW112986   3.247   4.832   5.778
 4029SOL    HW212987   3.373   4.738   5.822
 4030SOL     OW12988   0.616   1.680   1.685
 4030SOL    HW112989   0.615   1.617   1.607
 4030SOL    HW212990   0.573   1.636   1.764
 4031SOL     OW12991   5.154   5.836   3.406
 4031SOL    HW112992   5.067   5.816   3.361
 4031SOL    HW212993   5.193   5.920   3.369
 4032SOL     OW12994   6.085   0.605   2.381
 4032SOL    HW112995   5.988   0.624   2.366
 4032SOL    HW212996   6.100   0.506   2.384
 4033SOL     OW12997   2.363   3.403   1.289
 4033SOL    HW112998   2.285   3.346   1.314
 4033SOL    HW212999   2.352   3.494   1.329
 4034SOL     OW13000   6.654   1.482   4.434
 4034SOL    HW113001   6.675   1.403   4.377
 4034SOL    HW213002   6.568   1.466   4.484
 4035SOL     OW13003   6.534   2.184   0.779
 4035SOL    HW113004   6.576   2.200   0.868
 4035SOL    HW213005   6.589   2.119   0.727
 4036SOL     OW13006   4.494   5.664   2.264
 4036SOL    HW113007   4.580   5.614   2.260
 4036SOL    HW213008   4.460   5.680   2.171
 4037SOL     OW13009   2.544   1.647   0.418
 4037SOL    HW113010   2.612   1.720   0.412
 4037SOL    HW213011   2.453   1.685   0.405
 4038SOL     OW13012   4.748   3.178   1.696
 4038SOL    HW113013   4.690   3.141   1.769
 4038SOL    HW213014   4.781   3.103   1.639
 4039SOL     OW13015   5.476   4.665   1.484
 4039SOL    HW113016   5.500   4.679   1.388
 4039SOL    HW213017   5.480   4.568   1.506
 4040SOL     OW13018   3.705   6.788   5.976
 4040SOL    HW113019   3.729   6.874   5.932
 4040SOL    HW213020   3.610   6.793   6.010
 4041SOL     OW13021   1.100   4.923   1.525
 4041SOL    HW113022   1.015   4.961   1.488
 4041SOL    HW213023   1.147   4.992   1.579
 4042SOL     OW13024   5.865   5.758   3.369
 4042SOL    HW113025   5.924   5.723   3.441
 4042SOL    HW213026   5.919   5.779   3.288
 4043SOL     OW13027   5.702   1.433   4.441
 4043SOL    HW113028   5.698   1.414   4.343
 4043SOL    HW213029   5.793   1.468   4.465
 4044SOL     OW13030   4.820   7.015   3.556
 4044SOL    HW113031   4.733   0.038   3.527
 4044SOL    HW213032   4.871   6.987   3.475
 4045SOL     OW13033   3.238   5.635   5.234
 4045SOL    HW113034   3.170   5.630   5.161
 4045SOL    HW213035   3.201   5.688   5.311
 4046SOL     OW13036   1.707   2.094   4.097
 4046SOL    HW113037   1.644   2.142   4.036
 4046SOL    HW213038   1.781   2.053   4.043
 4047SOL     OW13039   2.185   2.165   0.647
 4047SOL    HW113040   2.153   2.208   0.563
 4047SOL    HW213041   2.224   2.234   0.707
 4048SOL     OW13042   5.357   2.342   1.686
 4048SOL    HW113043   5.446   2.382   1.664
 4048SOL    HW213044   5.367   2.245   1.706
 4049SOL     OW13045   6.102   5.332   6.415
 4049SOL    HW113046   6.054   5.265   6.357
 4049SOL    HW213047   6.055   5.339   6.503
 4050SOL     OW13048   1.407   0.411   1.385
 4050SOL    HW113049   1.354   0.490   1.354
 4050SOL    HW213050   1.485   0.443   1.440
 4051SOL     OW13051   3.826   1.774   6.930
 4051SOL    HW113052   3.756   1.815   6.872
 4051SOL    HW213053   3.881   1.709   6.877
 4052SOL     OW13054   6.704   1.477   3.110
 4052SOL    HW113055   6.764   1.523   3.044
 4052SOL    HW213056   6.740   1.491   3.202
 4053SOL     OW13057   2.898   5.660   3.930
 4053SOL    HW113058   2.849   5.673   4.016
 4053SOL    HW213059   2.927   5.748   3.894
 4054SOL     OW13060   6.323   3.654   1.542
 4054SOL    HW113061   6.416   3.656   1.505
 4054SOL    HW213062   6.280   3.566   1.522
 4055SOL     OW13063   3.329   3.092   6.918
 4055SOL    HW113064   3.272   3.020   6.879
 4055SOL    HW213065   3.284   3.131   6.998
 4056SOL     OW13066   3.728   3.465   0.818
 4056SOL    HW113067   3.786   3.438   0.742
 4056SOL    HW213068   3.654   3.523   0.785
 4057SOL     OW13069   5.950   3.129   1.554
 4057SOL    HW113070   5.934   3.183   1.471
 4057SOL    HW213071   5.863   3.107   1.597
 4058SOL     OW13072   1.807   0.325   4.439
 4058SOL    HW113073   1.808   0.225   4.434
 4058SOL    HW213074   1.754   0.361   4.361
 4059SOL     OW13075   1.669   2.078   3.514
 4059SOL    HW113076   1.582   2.086   3.563
 4059SOL    HW213077   1.733   2.024   3.570
 4060SOL     OW13078   5.523   5.652   4.542
 4060SOL    HW113079   5.507   5.626   4.638
 4060SOL    HW213080   5.619   5.636   4.519
 4061SOL     OW13081   2.895   4.764   2.139
 4061SOL    HW113082   2.995   4.771   2.145
 4061SOL    HW213083   2.870   4.677   2.098
 4062SOL     OW13084   2.089   2.289   2.020
 4062SOL    HW113085   1.994   2.276   2.047
 4062SOL    HW213086   2.138   2.202   2.028
 4063SOL     OW13087   6.277   6.155   6.294
 4063SOL    HW113088   6.228   6.239   6.321
 4063SOL    HW213089   6.215   6.096   6.242
 4064SOL     OW13090   2.424   0.231   3.903
 4064SOL    HW113091   2.411   0.229   3.804
 4064SOL    HW213092   2.348   0.184   3.949
 4065SOL     OW13093   0.352   0.213   1.420
 4065SOL    HW113094   0.411   0.160   1.360
 4065SOL    HW213095   0.271   0.159   1.444
 4066SOL     OW13096   5.485   5.189   3.769
 4066SOL    HW113097   5.576   5.218   3.742
 4066SOL    HW213098   5.453   5.117   3.707
 4067SOL     OW13099   6.234   3.282   3.319
 4067SOL    HW113100   6.246   3.290   3.220
 4067SOL    HW213101   6.165   3.211   3.338
 4068SOL     OW13102   2.405   1.092   4.478
 4068SOL    HW113103   2.483   1.037   4.505
 4068SOL    HW213104   2.416   1.121   4.382
 4069SOL     OW13105   2.471   5.027   6.038
 4069SOL    HW113106   2.413   5.054   5.961
 4069SOL    HW213107   2.551   4.979   6.004
 4070SOL     OW13108   0.170   3.179   2.365
 4070SOL    HW113109   0.140   3.188   2.460
 4070SOL    HW213110   0.157   3.085   2.334
 4071SOL     OW13111   1.384   0.526   5.415
 4071SOL    HW113112   1.427   0.591   5.478
 4071SOL    HW213113   1.314   0.475   5.464
 4072SOL     OW13114   0.113   5.933   4.170
 4072SOL    HW113115   0.021   5.903   4.194
 4072SOL    HW213116   0.174   5.853   4.168
 4073SOL     OW13117   2.816   5.983   6.416
 4073SOL    HW113118   2.891   6.050   6.415
 4073SOL    HW213119   2.747   6.009   6.348
 4074SOL     OW13120   0.007   3.214   1.792
 4074SOL    HW113121   6.931   3.246   1.783
 4074SOL    HW213122   0.067   3.269   1.733
 4075SOL     OW13123   3.665   1.822   1.985
 4075SOL    HW113124   3.755   1.864   1.995
 4075SOL    HW213125   3.594   1.887   2.011
 4076SOL     OW13126   2.654   3.142   5.705
 4076SOL    HW113127   2.622   3.047   5.696
 4076SOL    HW213128   2.704   3.167   5.622
 4077SOL     OW13129   3.296   0.834   0.665
 4077SOL    HW113130   3.214   0.793   0.625
 4077SOL    HW213131   3.376   0.811   0.608
 4078SOL     OW13132   0.071   5.867   2.178
 4078SOL    HW113133   0.071   5.909   2.269
 4078SOL    HW213134   7.001   5.882   2.134
 4079SOL     OW13135   1.583   2.270   3.898
 4079SOL    HW113136   1.568   2.339   3.968
 4079SOL    HW213137   1.647   2.304   3.830
 4080SOL     OW13138   3.256   4.368   6.830
 4080SOL    HW113139   3.244   4.432   6.906
 4080SOL    HW213140   3.267   4.420   6.745
 4081SOL     OW13141   2.257   2.471   4.704
 4081SOL    HW113142   2.352   2.473   4.674
 4081SOL    HW213143   2.249   2.419   4.789
 4082SOL     OW13144   1.541   2.816   0.775
 4082SOL    HW113145   1.628   2.856   0.746
 4082SOL    HW213146   1.539   2.811   0.875
 4083SOL     OW13147   6.722   4.861   1.663
 4083SOL    HW113148   6.726   4.817   1.573
 4083SOL    HW213149   6.756   4.798   1.732
 4084SOL     OW13150   4.691   2.359   3.657
 4084SOL    HW113151   4.775   2.407   3.633
 4084SOL    HW213152   4.680   2.358   3.757
 4085SOL     OW13153   2.189   6.385   1.021
 4085SOL    HW113154   2.180   6.432   0.933
 4085SOL    HW213155   2.281   6.399   1.057
 4086SOL     OW13156   0.804   5.232   1.618
 4086SOL    HW113157   0.823   5.181   1.534
 4086SOL    HW213158   0.805   5.169   1.696
 4087SOL     OW13159   1.471   1.743   3.419
 4087SOL    HW113160   1.483   1.818   3.355
 4087SOL    HW213161   1.381   1.750   3.463
 4088SOL     OW13162   5.863   0.851   6.594
 4088SOL    HW113163   5.929   0.926   6.606
 4088SOL    HW213164   5.800   0.850   6.671
 4089SOL     OW13165   5.675   5.144   3.986
 4089SOL    HW113166   5.589   5.161   3.937
 4089SOL    HW213167   5.727   5.229   3.992
 4090SOL     OW13168   1.270   5.362   5.249
 4090SOL    HW113169   1.292   5.374   5.152
 4090SOL    HW213170   1.210   5.435   5.279
 4091SOL     OW13171   0.024   6.489   6.523
 4091SOL    HW113172   0.102   6.479   6.461
 4091SOL    HW213173   6.972   6.546   6.480
 4092SOL     OW13174   5.718   2.463   4.277
 4092SOL    HW113175   5.791   2.397   4.259
 4092SOL    HW213176   5.752   2.555   4.260
 4093SOL     OW13177   4.484   5.768   2.018
 4093SOL    HW113178   4.518   5.677   1.996
 4093SOL    HW213179   4.546   5.837   1.979
 4094SOL     OW13180   1.944   5.547   5.707
 4094SOL    HW113181   2.021   5.498   5.668
 4094SOL    HW213182   1.870   5.551   5.640
 4095SOL     OW13183   0.539   3.735   0.642
 4095SOL    HW113184   0.565   3.813   0.584
 4095SOL    HW213185   0.612   3.667   0.639
 4096SOL     OW13186   4.762   0.270   6.214
 4096SOL    HW113187   4.749   0.250   6.311
 4096SOL    HW213188   4.677   0.251   6.165
 4097SOL     OW13189   3.866   4.956   5.054
 4097SOL    HW113190   3.887   5.046   5.093
 4097SOL    HW213191   3.935   4.933   4.986
 4098SOL     OW13192   6.720   2.895   1.610
 4098SOL    HW113193   6.630   2.859   1.635
 4098SOL    HW213194   6.776   2.905   1.692
 4099SOL     OW13195   3.485   4.942   1.432
 4099SOL    HW113196   3.442   4.901   1.351
 4099SOL    HW213197   3.472   4.881   1.510
 4100SOL     OW13198   0.204   0.208   4.748
 4100SOL    HW113199   0.104   0.214   4.745
 4100SOL    HW213200   0.234   0.136   4.685
 4101SOL     OW13201   6.365   1.300   6.321
 4101SOL    HW113202   6.432   1.239   6.277
 4101SOL    HW213203   6.278   1.293   6.273
 4102SOL     OW13204   0.214   1.078   0.704
 4102SOL    HW113205   0.294   1.091   0.763
 4102SOL    HW213206   0.243   1.049   0.613
 4103SOL     OW13207   0.064   6.821   0.327
 4103SOL    HW113208   0.080   6.866   0.415
 4103SOL    HW213209   6.984   6.820   0.307
 4104SOL     OW13210   6.689   4.902   3.091
 4104SOL    HW113211   6.768   4.954   3.059
 4104SOL    HW213212   6.609   4.926   3.035
 4105SOL     OW13213   5.578   0.215   1.826
 4105SOL    HW113214   5.552   0.192   1.732
 4105SOL    HW213215   5.664   0.265   1.826
 4106SOL     OW13216   6.594   3.281   3.159
 4106SOL    HW113217   6.516   3.245   3.108
 4106SOL    HW213218   6.639   3.351   3.104
 4107SOL     OW13219   1.044   5.318   0.958
 4107SOL    HW113220   1.133   5.274   0.967
 4107SOL    HW213221   1.002   5.326   1.048
 4108SOL     OW13222   6.164   5.105   5.308
 4108SOL    HW113223   6.175   5.006   5.317
 4108SOL    HW213224   6.104   5.126   5.231
 4109SOL     OW13225   6.135   6.829   4.445
 4109SOL    HW113226   6.042   6.860   4.467
 4109SOL    HW213227   6.136   6.791   4.353
 4110SOL     OW13228   4.494   3.555   6.121
 4110SOL    HW113229   4.591   3.569   6.141
 4110SOL    HW213230   4.484   3.513   6.031
 4111SOL     OW13231   5.450   3.633   6.986
 4111SOL    HW113232   5.529   3.614   0.026
 4111SOL    HW213233   5.479   3.684   6.905
 4112SOL     OW13234   5.370   6.034   4.479
 4112SOL    HW113235   5.394   5.970   4.552
 4112SOL    HW213236   5.330   5.983   4.402
 4113SOL     OW13237   5.132   6.141   4.817
 4113SOL    HW113238   5.121   6.167   4.722
 4113SOL    HW213239   5.042   6.133   4.860
 4114SOL     OW13240   3.852   2.154   4.388
 4114SOL    HW113241   3.919   2.215   4.429
 4114SOL    HW213242   3.827   2.083   4.454
 4115SOL     OW13243   3.575   5.302   1.961
 4115SOL    HW113244   3.571   5.277   1.864
 4115SOL    HW213245   3.594   5.220   2.015
 4116SOL     OW13246   3.740   1.370   2.564
 4116SOL    HW113247   3.700   1.456   2.595
 4116SOL    HW213248   3.703   1.347   2.474
 4117SOL     OW13249   1.569   3.756   2.405
 4117SOL    HW113250   1.540   3.851   2.396
 4117SOL    HW213251   1.599   3.722   2.315
 4118SOL     OW13252   4.700   5.375   0.536
 4118SOL    HW113253   4.629   5.411   0.598
 4118SOL    HW213254   4.660   5.359   0.446
 4119SOL     OW13255   3.520   1.859   3.972
 4119SOL    HW113256   3.508   1.868   3.873
 4119SOL    HW213257   3.493   1.944   4.017
 4120SOL     OW13258   3.509   0.633   6.288
 4120SOL    HW113259   3.484   0.536   6.284
 4120SOL    HW213260   3.455   0.678   6.359
 4121SOL     OW13261   6.071   0.500   4.279
 4121SOL    HW113262   6.120   0.414   4.268
 4121SOL    HW213263   6.121   0.560   4.341
 4122SOL     OW13264   1.086   6.281   4.162
 4122SOL    HW113265   1.174   6.254   4.201
 4122SOL    HW213266   1.075   6.239   4.073
 4123SOL     OW13267   4.222   4.712   5.234
 4123SOL    HW113268   4.131   4.752   5.240
 4123SOL    HW213269   4.225   4.627   5.287
 4124SOL     OW13270   6.943   6.309   0.573
 4124SOL    HW113271   6.965   6.237   0.506
 4124SOL    HW213272   6.883   6.376   0.530
 4125SOL     OW13273   4.879   1.653   1.879
 4125SOL    HW113274   4.969   1.686   1.853
 4125SOL    HW213275   4.884   1.610   1.969
 4126SOL     OW13276   1.749   3.486   3.658
 4126SOL    HW113277   1.768   3.512   3.564
 4126SOL    HW213278   1.684   3.409   3.659
 4127SOL     OW13279   5.390   4.765   5.250
 4127SOL    HW113280   5.346   4.681   5.220
 4127SOL    HW213281   5.418   4.755   5.346
 4128SOL     OW13282   0.820   2.576   1.981
 4128SOL    HW113283   0.730   2.615   2.003
 4128SOL    HW213284   0.858   2.533   2.063
 4129SOL     OW13285   3.739   0.947   6.497
 4129SOL    HW113286   3.730   0.894   6.412
 4129SOL    HW213287   3.778   1.036   6.476
 4130SOL     OW13288   6.633   3.348   0.111
 4130SOL    HW113289   6.680   3.261   0.099
 4130SOL    HW213290   6.572   3.343   0.190
 4131SOL     OW13291   0.521   1.518   3.636
 4131SOL    HW113292   0.422   1.518   3.619
 4131SOL    HW213293   0.567   1.574   3.567
 4132SOL     OW13294   5.058   4.356   3.563
 4132SOL    HW113295   5.104   4.345   3.475
 4132SOL    HW213296   5.123   4.391   3.630
 4133SOL     OW13297   3.101   5.444   0.751
 4133SOL    HW113298   3.154   5.395   0.819
 4133SOL    HW213299   3.086   5.538   0.781
 4134SOL     OW13300   2.453   4.023   0.871
 4134SOL    HW113301   2.553   4.028   0.869
 4134SOL    HW213302   2.420   3.969   0.793
 4135SOL     OW13303   1.003   1.843   2.588
 4135SOL    HW113304   1.037   1.806   2.502
 4135SOL    HW213305   1.048   1.797   2.664
 4136SOL     OW13306   1.290   2.871   3.481
 4136SOL    HW113307   1.272   2.872   3.383
 4136SOL    HW213308   1.347   2.791   3.503
 4137SOL     OW13309   1.236   4.040   1.185
 4137SOL    HW113310   1.270   3.962   1.237
 4137SOL    HW213311   1.251   4.124   1.236
 4138SOL     OW13312   4.606   5.946   2.319
 4138SOL    HW113313   4.590   5.848   2.305
 4138SOL    HW213314   4.683   5.975   2.263
 4139SOL     OW13315   2.007   1.596   5.648
 4139SOL    HW113316   2.103   1.622   5.634
 4139SOL    HW213317   2.003   1.508   5.696
 4140SOL     OW13318   3.131   0.248   5.481
 4140SOL    HW113319   3.099   0.330   5.527
 4140SOL    HW213320   3.216   0.267   5.432
 4141SOL     OW13321   5.216   6.332   0.718
 4141SOL    HW113322   5.299   6.295   0.675
 4141SOL    HW213323   5.136   6.293   0.673
 4142SOL     OW13324   6.609   4.623   1.010
 4142SOL    HW113325   6.653   4.570   0.937
 4142SOL    HW213326   6.640   4.589   1.099
 4143SOL     OW13327   5.559   1.811   0.649
 4143SOL    HW113328   5.578   1.866   0.731
 4143SOL    HW213329   5.629   1.739   0.641
 4144SOL     OW13330   5.415   2.464   0.200
 4144SOL    HW113331   5.368   2.455   0.288
 4144SOL    HW213332   5.508   2.429   0.208
 4145SOL     OW13333   0.066   6.591   1.619
 4145SOL    HW113334   0.070   6.495   1.645
 4145SOL    HW213335   0.156   6.621   1.586
 4146SOL     OW13336   6.347   0.262   3.037
 4146SOL    HW113337   6.388   0.348   3.006
 4146SOL    HW213338   6.418   0.203   3.076
 4147SOL     OW13339   4.892   4.569   6.141
 4147SOL    HW113340   4.965   4.635   6.126
 4147SOL    HW213341   4.932   4.480   6.166
 4148SOL     OW13342   1.366   0.627   4.787
 4148SOL    HW113343   1.388   0.695   4.857
 4148SOL    HW213344   1.425   0.548   4.797
 4149SOL     OW13345   0.171   3.642   1.001
 4149SOL    HW113346   0.188   3.545   1.018
 4149SOL    HW213347   0.073   3.656   0.983
 4150SOL     OW13348   1.201   0.340   5.544
 4150SOL    HW113349   1.143   0.272   5.500
 4150SOL    HW213350   1.155   0.376   5.626
 4151SOL     OW13351   3.049   6.154   5.633
 4151SOL    HW113352   3.102   6.093   5.692
 4151SOL    HW213353   3.042   6.244   5.676
 4152SOL     OW13354   4.381   5.754   0.545
 4152SOL    HW113355   4.403   5.811   0.465
 4152SOL    HW213356   4.333   5.810   0.612
 4153SOL     OW13357   5.457   5.367   0.011
 4153SOL    HW113358   5.434   5.459   6.998
 4153SOL    HW213359   5.428   5.301   6.960
 4154SOL     OW13360   0.150   5.015   3.442
 4154SOL    HW113361   0.061   4.971   3.429
 4154SOL    HW213362   0.222   4.945   3.446
 4155SOL     OW13363   1.179   1.218   2.612
 4155SOL    HW113364   1.237   1.288   2.654
 4155SOL    HW213365   1.122   1.176   2.683
 4156SOL     OW13366   5.765   5.752   4.933
 4156SOL    HW113367   5.763   5.656   4.904
 4156SOL    HW213368   5.854   5.791   4.912
 4157SOL     OW13369   4.640   5.190   3.789
 4157SOL    HW113370   4.717   5.245   3.822
 4157SOL    HW213371   4.660   5.093   3.802
 4158SOL     OW13372   0.094   4.007   1.746
 4158SOL    HW113373   0.065   3.951   1.824
 4158SOL    HW213374   0.166   3.959   1.695
 4159SOL     OW13375   2.179   3.604   3.749
 4159SOL    HW113376   2.232   3.519   3.753
 4159SOL    HW213377   2.082   3.585   3.766
 4160SOL     OW13378   6.374   1.051   0.718
 4160SOL    HW113379   6.450   0.991   0.741
 4160SOL    HW213380   6.288   1.008   0.745
 4161SOL     OW13381   1.128   1.376   1.073
 4161SOL    HW113382   1.136   1.355   1.171
 4161SOL    HW213383   1.082   1.300   1.027
 4162SOL     OW13384   6.975   5.688   6.684
 4162SOL    HW113385   6.957   5.764   6.621
 4162SOL    HW213386   6.917   5.610   6.659
 4163SOL     OW13387   4.689   6.718   3.343
 4163SOL    HW113388   4.599   6.754   3.368
 4163SOL    HW213389   4.745   6.791   3.305
 4164SOL     OW13390   1.661   6.665   5.855
 4164SOL    HW113391   1.638   6.702   5.765
 4164SOL    HW213392   1.661   6.565   5.851
 4165SOL     OW13393   4.156   7.001   5.961
 4165SOL    HW113394   4.189   0.069   6.000
 4165SOL    HW213395   4.126   6.941   6.035
 4166SOL     OW13396   5.775   2.723   0.687
 4166SOL    HW113397   5.859   2.669   0.676
 4166SOL    HW213398   5.797   2.810   0.731
 4167SOL     OW13399   1.803   3.971   0.656
 4167SOL    HW113400   1.814   4.020   0.742
 4167SOL    HW213401   1.735   3.898   0.667
 4168SOL     OW13402   6.423   4.399   1.489
 4168SOL    HW113403   6.375   4.477   1.530
 4168SOL    HW213404   6.520   4.405   1.512
 4169SOL     OW13405   5.809   4.387   4.799
 4169SOL    HW113406   5.765   4.467   4.839
 4169SOL    HW213407   5.750   4.349   4.728
 4170SOL     OW13408   4.380   4.035   6.037
 4170SOL    HW113409   4.288   4.072   6.029
 4170SOL    HW213410   4.379   3.951   6.092
 4171SOL     OW13411   6.511   5.973   0.690
 4171SOL    HW113412   6.450   5.986   0.768
 4171SOL    HW213413   6.472   5.904   0.628
 4172SOL     OW13414   1.011   2.311   5.863
 4172SOL    HW113415   0.961   2.376   5.806
 4172SOL    HW213416   0.959   2.292   5.946
 4173SOL     OW13417   5.307   4.020   5.409
 4173SOL    HW113418   5.257   3.944   5.451
 4173SOL    HW213419   5.393   4.034   5.457
 4174SOL     OW13420   5.587   0.190   3.456
 4174SOL    HW113421   5.582   0.289   3.442
 4174SOL    HW213422   5.616   0.147   3.370
 4175SOL     OW13423   1.901   5.870   4.069
 4175SOL    HW113424   1.990   5.838   4.103
 4175SOL    HW213425   1.910   5.964   4.035
 4176SOL     OW13426   3.047   5.759   2.252
 4176SOL    HW113427   3.095   5.816   2.320
 4176SOL    HW213428   2.962   5.803   2.225
 4177SOL     OW13429   6.521   4.217   5.275
 4177SOL    HW113430   6.580   4.221   5.194
 4177SOL    HW213431   6.562   4.272   5.348
 4178SOL     OW13432   4.710   0.592   3.877
 4178SOL    HW113433   4.737   0.665   3.940
 4178SOL    HW213434   4.785   0.573   3.814
 4179SOL     OW13435   4.698   2.684   3.879
 4179SOL    HW113436   4.681   2.588   3.900
 4179SOL    HW213437   4.668   2.704   3.786
 4180SOL     OW13438   5.690   4.883   0.914
 4180SOL    HW113439   5.617   4.853   0.853
 4180SOL    HW213440   5.694   4.823   0.993
 4181SOL     OW13441   2.497   1.510   0.645
 4181SOL    HW113442   2.512   1.561   0.560
 4181SOL    HW213443   2.404   1.474   0.646
 4182SOL     OW13444   0.935   6.762   3.252
 4182SOL    HW113445   1.015   6.821   3.266
 4182SOL    HW213446   0.965   6.673   3.219
 4183SOL     OW13447   3.571   1.200   0.212
 4183SOL    HW113448   3.659   1.205   0.259
 4183SOL    HW213449   3.582   1.223   0.116
 4184SOL     OW13450   4.473   5.324   1.450
 4184SOL    HW113451   4.452   5.359   1.541
 4184SOL    HW213452   4.404   5.357   1.385
 4185SOL     OW13453   0.305   5.602   2.324
 4185SOL    HW113454   0.310   5.676   2.258
 4185SOL    HW213455   0.248   5.630   2.402
 4186SOL     OW13456   2.112   5.159   6.940
 4186SOL    HW113457   2.156   5.190   0.006
 4186SOL    HW213458   2.182   5.126   6.877
 4187SOL     OW13459   3.640   3.317   5.347
 4187SOL    HW113460   3.622   3.234   5.294
 4187SOL    HW213461   3.704   3.296   5.421
 4188SOL     OW13462   4.816   6.852   4.568
 4188SOL    HW113463   4.870   6.936   4.565
 4188SOL    HW213464   4.823   6.811   4.659
 4189SOL     OW13465   3.604   5.755   5.419
 4189SOL    HW113466   3.609   5.691   5.342
 4189SOL    HW213467   3.694   5.796   5.434
 4190SOL     OW13468   0.677   0.791   0.154
 4190SOL    HW113469   0.766   0.809   0.113
 4190SOL    HW213470   0.627   0.724   0.099
 4191SOL     OW13471   4.900   3.633   3.275
 4191SOL    HW113472   4.894   3.545   3.229
 4191SOL    HW213473   4.921   3.619   3.372
 4192SOL     OW13474   1.011   1.478   4.271
 4192SOL    HW113475   1.056   1.390   4.254
 4192SOL    HW213476   0.929   1.485   4.215
 4193SOL     OW13477   1.324   0.686   2.000
 4193SOL    HW113478   1.332   0.630   1.918
 4193SOL    HW213479   1.254   0.757   1.985
 4194SOL     OW13480   5.643   0.802   4.932
 4194SOL    HW113481   5.741   0.786   4.937
 4194SOL    HW213482   5.599   0.765   5.014
 4195SOL     OW13483   3.634   6.367   1.616
 4195SOL    HW113484   3.724   6.396   1.582
 4195SOL    HW213485   3.609   6.279   1.576
 4196SOL     OW13486   5.753   1.974   2.954
 4196SOL    HW113487   5.662   1.961   2.916
 4196SOL    HW213488   5.747   1.976   3.054
 4197SOL     OW13489   5.093   5.847   5.998
 4197SOL    HW113490   5.088   5.930   6.053
 4197SOL    HW213491   5.152   5.863   5.919
 4198SOL     OW13492   5.665   2.696   0.064
 4198SOL    HW113493   5.667   2.612   0.118
 4198SOL    HW213494   5.699   2.772   0.120
 4199SOL     OW13495   2.306   3.177   5.809
 4199SOL    HW113496   2.239   3.112   5.844
 4199SOL    HW213497   2.390   3.171   5.863
 4200SOL     OW13498   3.594   6.299   6.066
 4200SOL    HW113499   3.623   6.332   6.156
 4200SOL    HW213500   3.554   6.208   6.074
 4201SOL     OW13501   5.942   6.405   3.872
 4201SOL    HW113502   5.950   6.349   3.790
 4201SOL    HW213503   5.894   6.353   3.943
 4202SOL     OW13504   4.153   4.902   5.967
 4202SOL    HW113505   4.142   4.943   6.058
 4202SOL    HW213506   4.063   4.870   5.934
 4203SOL     OW13507   4.985   4.738   0.356
 4203SOL    HW113508   5.085   4.739   0.367
 4203SOL    HW213509   4.948   4.828   0.380
 4204SOL     OW13510   3.933   3.578   2.654
 4204SOL    HW113511   4.007   3.633   2.615
 4204SOL    HW213512   3.850   3.634   2.662
 4205SOL     OW13513   3.415   5.767   3.648
 4205SOL    HW113514   3.483   5.840   3.654
 4205SOL    HW213515   3.383   5.742   3.740
 4206SOL     OW13516   6.754   6.882   6.560
 4206SOL    HW113517   6.775   6.849   6.652
 4206SOL    HW213518   6.663   6.924   6.560
 4207SOL     OW13519   1.531   1.507   1.403
 4207SOL    HW113520   1.535   1.424   1.459
 4207SOL    HW213521   1.578   1.490   1.316
 4208SOL     OW13522   1.086   3.746   6.236
 4208SOL    HW113523   1.147   3.766   6.159
 4208SOL    HW213524   0.991   3.763   6.208
 4209SOL     OW13525   0.241   1.025   5.649
 4209SOL    HW113526   0.294   0.941   5.638
 4209SOL    HW213527   0.278   1.096   5.590
 4210SOL     OW13528   3.219   3.068   2.935
 4210SOL    HW113529   3.306   3.115   2.918
 4210SOL    HW213530   3.145   3.118   2.889
 4211SOL     OW13531   4.087   5.265   5.840
 4211SOL    HW113532   4.169   5.226   5.882
 4211SOL    HW213533   4.072   5.357   5.874
 4212SOL     OW13534   5.972   2.082   2.817
 4212SOL    HW113535   5.902   2.034   2.869
 4212SOL    HW213536   5.938   2.100   2.724
 4213SOL     OW13537   2.257   1.164   1.373
 4213SOL    HW113538   2.287   1.258   1.357
 4213SOL    HW213539   2.233   1.153   1.470
 4214SOL     OW13540   1.710   4.765   5.408
 4214SOL    HW113541   1.641   4.720   5.464
 4214SOL    HW213542   1.749   4.698   5.344
 4215SOL     OW13543   6.828   6.376   4.987
 4215SOL    HW113544   6.844   6.299   4.926
 4215SOL    HW213545   6.909   6.436   4.987
 4216SOL     OW13546   1.108   1.772   2.847
 4216SOL    HW113547   1.191   1.732   2.888
 4216SOL    HW213548   1.033   1.769   2.913
 4217SOL     OW13549   0.328   0.742   2.617
 4217SOL    HW113550   0.323   0.717   2.714
 4217SOL    HW213551   0.306   0.662   2.561
 4218SOL     OW13552   4.397   1.141   1.558
 4218SOL    HW113553   4.319   1.105   1.610
 4218SOL    HW213554   4.372   1.230   1.519
 4219SOL     OW13555   2.542   5.260   3.398
 4219SOL    HW113556   2.506   5.168   3.415
 4219SOL    HW213557   2.641   5.259   3.409
 4220SOL     OW13558   5.274   2.738   3.495
 4220SOL    HW113559   5.192   2.722   3.549
 4220SOL    HW213560   5.262   2.819   3.438
 4221SOL     OW13561   6.336   5.184   6.520
 4221SOL    HW113562   6.294   5.154   6.606
 4221SOL    HW213563   6.274   5.247   6.473
 4222SOL     OW13564   5.813   1.874   3.203
 4222SOL    HW113565   5.888   1.933   3.232
 4222SOL    HW213566   5.774   1.828   3.283
 4223SOL     OW13567   3.459   4.028   5.980
 4223SOL    HW113568   3.395   4.100   5.954
 4223SOL    HW213569   3.422   3.939   5.953
 4224SOL     OW13570   4.835   3.199   3.528
 4224SOL    HW113571   4.819   3.275   3.590
 4224SOL    HW213572   4.834   3.231   3.434
 4225SOL     OW13573   3.739   1.044   5.968
 4225SOL    HW113574   3.677   0.988   6.022
 4225SOL    HW213575   3.719   1.141   5.985
 4226SOL     OW13576   1.046   0.733   2.302
 4226SOL    HW113577   0.948   0.748   2.300
 4226SOL    HW213578   1.092   0.810   2.257
 4227SOL     OW13579   4.109   4.542   6.848
 4227SOL    HW113580   4.177   4.614   6.864
 4227SOL    HW213581   4.126   4.466   6.910
 4228SOL     OW13582   0.661   3.587   4.481
 4228SOL    HW113583   0.719   3.513   4.517
 4228SOL    HW213584   0.669   3.590   4.382
 4229SOL     OW13585   4.695   5.213   5.494
 4229SOL    HW113586   4.623   5.145   5.507
 4229SOL    HW213587   4.722   5.215   5.398
 4230SOL     OW13588   1.363   0.545   4.098
 4230SOL    HW113589   1.338   0.628   4.049
 4230SOL    HW213590   1.434   0.496   4.048
 4231SOL     OW13591   5.681   6.366   5.113
 4231SOL    HW113592   5.714   6.296   5.050
 4231SOL    HW213593   5.595   6.404   5.078
 4232SOL     OW13594   0.263   4.375   2.591
 4232SOL    HW113595   0.233   4.337   2.503
 4232SOL    HW213596   0.342   4.435   2.576
 4233SOL     OW13597   6.858   0.002   0.246
 4233SOL    HW113598   6.852   7.010   0.346
 4233SOL    HW213599   6.779   6.976   0.203
 4234SOL     OW13600   2.195   7.014   5.954
 4234SOL    HW113601   2.222   0.028   5.864
 4234SOL    HW213602   2.197   6.914   5.957
 4235SOL     OW13603   5.455   3.803   6.005
 4235SOL    HW113604   5.380   3.868   5.989
 4235SOL    HW213605   5.430   3.714   5.968
 4236SOL     OW13606   0.700   3.964   3.271
 4236SOL    HW113607   0.774   3.955   3.204
 4236SOL    HW213608   0.641   3.884   3.266
 4237SOL     OW13609   6.442   5.317   3.027
 4237SOL    HW113610   6.407   5.237   3.074
 4237SOL    HW213611   6.515   5.290   2.965
 4238SOL     OW13612   3.244   4.926   2.547
 4238SOL    HW113613   3.212   5.012   2.587
 4238SOL    HW213614   3.168   4.860   2.543
 4239SOL     OW13615   5.375   1.699   3.326
 4239SOL    HW113616   5.301   1.639   3.297
 4239SOL    HW213617   5.338   1.778   3.374
 4240SOL     OW13618   2.523   0.387   0.292
 4240SOL    HW113619   2.610   0.340   0.310
 4240SOL    HW213620   2.464   0.327   0.238
 4241SOL     OW13621   5.957   0.409   1.206
 4241SOL    HW113622   6.043   0.362   1.227
 4241SOL    HW213623   5.977   0.494   1.158
 4242SOL     OW13624   1.938   0.727   3.244
 4242SOL    HW113625   1.862   0.790   3.226
 4242SOL    HW213626   1.912   0.634   3.216
 4243SOL     OW13627   5.838   4.143   3.558
 4243SOL    HW113628   5.816   4.052   3.593
 4243SOL    HW213629   5.895   4.192   3.623
 4244SOL     OW13630   5.321   4.468   1.774
 4244SOL    HW113631   5.256   4.467   1.850
 4244SOL    HW213632   5.414   4.464   1.811
 4245SOL     OW13633   6.244   0.978   6.240
 4245SOL    HW113634   6.191   1.062   6.223
 4245SOL    HW213635   6.244   0.958   6.338
 4246SOL     OW13636   6.115   3.060   3.111
 4246SOL    HW113637   6.051   2.990   3.144
 4246SOL    HW213638   6.064   3.137   3.074
 4247SOL     OW13639   2.296   4.800   3.109
 4247SOL    HW113640   2.307   4.764   3.202
 4247SOL    HW213641   2.382   4.842   3.080
 4248SOL     OW13642   1.772   1.175   3.604
 4248SOL    HW113643   1.758   1.240   3.678
 4248SOL    HW213644   1.694   1.180   3.541
 4249SOL     OW13645   5.101   1.536   3.757
 4249SOL    HW113646   5.148   1.493   3.834
 4249SOL    HW213647   5.007   1.501   3.752
 4250SOL     OW13648   6.436   6.289   4.179
 4250SOL    HW113649   6.444   6.385   4.151
 4250SOL    HW213650   6.343   6.271   4.211
 4251SOL     OW13651   6.008   3.388   1.192
 4251SOL    HW113652   5.976   3.456   1.125
 4251SOL    HW213653   6.107   3.390   1.196
 4252SOL     OW13654   6.673   6.363   6.417
 4252SOL    HW113655   6.708   6.342   6.509
 4252SOL    HW213656   6.665   6.462   6.407
 4253SOL     OW13657   3.143   6.697   1.065
 4253SOL    HW113658   3.176   6.733   1.152
 4253SOL    HW213659   3.157   6.766   0.994
 4254SOL     OW13660   1.684   3.556   1.922
 4254SOL    HW113661   1.588   3.556   1.950
 4254SOL    HW213662   1.692   3.520   1.829
 4255SOL     OW13663   6.965   4.268   4.184
 4255SOL    HW113664   6.936   4.173   4.187
 4255SOL    HW213665   0.037   4.274   4.141
 4256SOL     OW13666   1.381   6.310   0.807
 4256SOL    HW113667   1.466   6.324   0.858
 4256SOL    HW213668   1.376   6.375   0.732
 4257SOL     OW13669   3.807   1.204   4.228
 4257SOL    HW113670   3.760   1.282   4.187
 4257SOL    HW213671   3.829   1.137   4.157
 4258SOL     OW13672   3.477   5.628   1.027
 4258SOL    HW113673   3.476   5.666   1.119
 4258SOL    HW213674   3.444   5.697   0.962
 4259SOL     OW13675   1.242   0.313   1.127
 4259SOL    HW113676   1.268   0.221   1.159
 4259SOL    HW213677   1.323   0.361   1.094
 4260SOL     OW13678   5.429   0.202   2.911
 4260SOL    HW113679   5.490   0.271   2.948
 4260SOL    HW213680   5.341   0.243   2.887
 4261SOL     OW13681   2.148   0.978   2.580
 4261SOL    HW113682   2.224   0.974   2.645
 4261SOL    HW213683   2.101   0.890   2.577
 4262SOL     OW13684   0.664   3.954   6.530
 4262SOL    HW113685   0.590   3.889   6.549
 4262SOL    HW213686   0.629   4.047   6.537
 4263SOL     OW13687   2.594   0.776   3.180
 4263SOL    HW113688   2.528   0.723   3.233
 4263SOL    HW213689   2.579   0.760   3.082
 4264SOL     OW13690   6.384   1.978   4.474
 4264SOL    HW113691   6.447   2.056   4.479
 4264SOL    HW213692   6.398   1.931   4.387
 4265SOL     OW13693   3.854   1.428   0.385
 4265SOL    HW113694   3.889   1.515   0.349
 4265SOL    HW213695   3.759   1.440   0.414
 4266SOL     OW13696   1.803   6.985   6.302
 4266SOL    HW113697   1.882   7.009   6.246
 4266SOL    HW213698   1.833   6.947   6.389
 4267SOL     OW13699   2.081   3.871   4.100
 4267SOL    HW113700   1.995   3.863   4.048
 4267SOL    HW213701   2.155   3.827   4.049
 4268SOL     OW13702   1.149   5.746   6.380
 4268SOL    HW113703   1.071   5.686   6.362
 4268SOL    HW213704   1.234   5.695   6.368
 4269SOL     OW13705   2.851   6.981   2.676
 4269SOL    HW113706   2.814   6.939   2.759
 4269SOL    HW213707   2.865   6.911   2.606
 4270SOL     OW13708   4.096   3.561   2.897
 4270SOL    HW113709   4.100   3.472   2.943
 4270SOL    HW213710   4.026   3.558   2.826
 4271SOL     OW13711   6.534   0.509   0.318
 4271SOL    HW113712   6.606   0.440   0.321
 4271SOL    HW213713   6.510   0.528   0.222
 4272SOL     OW13714   6.891   2.035   4.523
 4272SOL    HW113715   6.917   1.955   4.577
 4272SOL    HW213716   6.834   2.006   4.447
 4273SOL     OW13717   4.159   6.653   4.925
 4273SOL    HW113718   4.104   6.697   4.853
 4273SOL    HW213719   4.098   6.612   4.993
 4274SOL     OW13720   1.497   0.199   1.189
 4274SOL    HW113721   1.476   0.276   1.249
 4274SOL    HW213722   1.574   0.147   1.227
 4275SOL     OW13723   6.578   2.112   4.092
 4275SOL    HW113724   6.676   2.130   4.104
 4275SOL    HW213725   6.525   2.191   4.124
 4276SOL     OW13726   2.538   4.992   3.747
 4276SOL    HW113727   2.630   5.011   3.712
 4276SOL    HW213728   2.546   4.943   3.834
 4277SOL     OW13729   6.574   4.899   3.336
 4277SOL    HW113730   6.623   4.884   3.250
 4277SOL    HW213731   6.617   4.846   3.409
 4278SOL     OW13732   0.512   0.077   4.788
 4278SOL    HW113733   0.500   0.177   4.787
 4278SOL    HW213734   0.458   0.036   4.716
 4279SOL     OW13735   3.127   1.023   3.450
 4279SOL    HW113736   3.199   1.092   3.442
 4279SOL    HW213737   3.129   0.964   3.369
 4280SOL     OW13738   5.705   6.966   5.774
 4280SOL    HW113739   5.690   6.955   5.676
 4280SOL    HW213740   5.676   0.039   5.803
 4281SOL     OW13741   6.634   4.608   3.191
 4281SOL    HW113742   6.535   4.596   3.200
 4281SOL    HW213743   6.653   4.688   3.135
 4282SOL     OW13744   3.302   4.205   0.321
 4282SOL    HW113745   3.281   4.254   0.405
 4282SOL    HW213746   3.356   4.123   0.342
 4283SOL     OW13747   2.171   0.759   3.371
 4283SOL    HW113748   2.192   0.854   3.393
 4283SOL    HW213749   2.083   0.754   3.324
 4284SOL     OW13750   3.879   3.954   1.135
 4284SOL    HW113751   3.909   3.929   1.043
 4284SOL    HW213752   3.817   3.884   1.170
 4285SOL     OW13753   2.197   0.853   5.653
 4285SOL    HW113754   2.172   0.884   5.561
 4285SOL    HW213755   2.272   0.787   5.646
 4286SOL     OW13756   5.752   6.908   6.263
 4286SOL    HW113757   5.833   6.882   6.210
 4286SOL    HW213758   5.682   6.837   6.255
 4287SOL     OW13759   4.897   0.797   6.077
 4287SOL    HW113760   4.817   0.772   6.131
 4287SOL    HW213761   4.872   0.802   5.981
 4288SOL     OW13762   0.753   5.413   3.436
 4288SOL    HW113763   0.797   5.502   3.452
 4288SOL    HW213764   0.729   5.405   3.339
 4289SOL     OW13765   6.701   2.736   5.798
 4289SOL    HW113766   6.800   2.721   5.806
 4289SOL    HW213767   6.685   2.824   5.754
 4290SOL     OW13768   1.395   6.852   3.892
 4290SOL    HW113769   1.374   6.909   3.972
 4290SOL    HW213770   1.485   6.810   3.903
 4291SOL     OW13771   4.635   3.598   0.009
 4291SOL    HW113772   4.722   3.561   0.041
 4291SOL    HW213773   4.624   3.578   6.929
 4292SOL     OW13774   6.598   3.018   0.139
 4292SOL    HW113775   6.612   2.945   0.072
 4292SOL    HW213776   6.684   3.035   0.188
 4293SOL     OW13777   2.905   3.452   6.691
 4293SOL    HW113778   2.869   3.545   6.701
 4293SOL    HW213779   2.965   3.448   6.611
 4294SOL     OW13780   2.192   2.005   6.506
 4294SOL    HW113781   2.282   2.040   6.531
 4294SOL    HW213782   2.150   1.961   6.586
 4295SOL     OW13783   4.232   5.888   4.869
 4295SOL    HW113784   4.227   5.790   4.892
 4295SOL    HW213785   4.161   5.937   4.920
 4296SOL     OW13786   3.539   6.797   0.117
 4296SOL    HW113787   3.453   6.846   0.127
 4296SOL    HW213788   3.533   6.709   0.165
 4297SOL     OW13789   6.001   0.093   1.469
 4297SOL    HW113790   5.988   0.146   1.553
 4297SOL    HW213791   5.913   0.057   1.439
 4298SOL     OW13792   4.227   5.536   0.814
 4298SOL    HW113793   4.235   5.632   0.840
 4298SOL    HW213794   4.291   5.481   0.868
 4299SOL     OW13795   1.613   3.255   6.551
 4299SOL    HW113796   1.617   3.344   6.596
 4299SOL    HW213797   1.527   3.246   6.501
 4300SOL     OW13798   2.613   6.846   0.270
 4300SOL    HW113799   2.658   6.934   0.283
 4300SOL    HW213800   2.518   6.853   0.302
 4301SOL     OW13801   4.952   0.116   1.290
 4301SOL    HW113802   4.898   0.115   1.206
 4301SOL    HW213803   4.892   0.135   1.368
 4302SOL     OW13804   6.769   6.982   5.955
 4302SOL    HW113805   6.769   6.999   5.856
 4302SOL    HW213806   6.813   0.041   6.002
 4303SOL     OW13807   6.852   4.839   4.665
 4303SOL    HW113808   6.916   4.776   4.621
 4303SOL    HW213809   6.896   4.928   4.678
 4304SOL     OW13810   3.294   2.935   2.583
 4304SOL    HW113811   3.371   2.877   2.556
 4304SOL    HW213812   3.287   2.938   2.682
 4305SOL     OW13813   1.212   6.893   5.422
 4305SOL    HW113814   1.216   6.807   5.369
 4305SOL    HW213815   1.273   6.887   5.500
 4306SOL     OW13816   4.268   5.184   4.535
 4306SOL    HW113817   4.214   5.203   4.453
 4306SOL    HW213818   4.325   5.263   4.557
 4307SOL     OW13819   6.441   4.071   5.515
 4307SOL    HW113820   6.458   4.087   5.418
 4307SOL    HW213821   6.523   4.033   5.558
 4308SOL     OW13822   6.296   5.353   1.709
 4308SOL    HW113823   6.360   5.279   1.689
 4308SOL    HW213824   6.213   5.340   1.656
 4309SOL     OW13825   1.129   1.325   1.353
 4309SOL    HW113826   1.182   1.380   1.418
 4309SOL    HW213827   1.157   1.230   1.360
 4310SOL     OW13828   1.789   2.650   1.871
 4310SOL    HW113829   1.864   2.590   1.845
 4310SOL    HW213830   1.749   2.618   1.957
 4311SOL     OW13831   1.186   6.530   2.477
 4311SOL    HW113832   1.271   6.576   2.504
 4311SOL    HW213833   1.163   6.555   2.383
 4312SOL     OW13834   1.210   6.119   1.960
 4312SOL    HW113835   1.264   6.083   2.036
 4312SOL    HW213836   1.217   6.219   1.959
 4313SOL     OW13837   4.958   1.808   0.656
 4313SOL    HW113838   4.967   1.799   0.755
 4313SOL    HW213839   4.901   1.887   0.635
 4314SOL     OW13840   5.477   1.338   4.754
 4314SOL    HW113841   5.500   1.241   4.761
 4314SOL    HW213842   5.421   1.365   4.832
 4315SOL     OW13843   2.369   0.445   3.619
 4315SOL    HW113844   2.409   0.515   3.678
 4315SOL    HW213845   2.284   0.481   3.578
 4316SOL     OW13846   5.136   1.021   1.857
 4316SOL    HW113847   5.163   1.106   1.810
 4316SOL    HW213848   5.071   0.972   1.800
 4317SOL     OW13849   5.301   2.235   5.419
 4317SOL    HW113850   5.368   2.310   5.413
 4317SOL    HW213851   5.316   2.171   5.344
 4318SOL     OW13852   0.580   2.139   5.015
 4318SOL    HW113853   0.505   2.192   4.974
 4318SOL    HW213854   0.549   2.046   5.034
 4319SOL     OW13855   1.690   1.482   1.159
 4319SOL    HW113856   1.604   1.432   1.148
 4319SOL    HW213857   1.765   1.417   1.170
 4320SOL     OW13858   4.143   4.850   0.897
 4320SOL    HW113859   4.131   4.947   0.920
 4320SOL    HW213860   4.098   4.793   0.966
 4321SOL     OW13861   0.131   5.210   5.024
 4321SOL    HW113862   0.149   5.244   5.117
 4321SOL    HW213863   0.064   5.136   5.028
 4322SOL     OW13864   6.464   2.578   6.951
 4322SOL    HW113865   6.408   2.563   6.869
 4322SOL    HW213866   6.557   2.547   6.933
 4323SOL     OW13867   4.681   4.035   0.450
 4323SOL    HW113868   4.619   4.048   0.527
 4323SOL    HW213869   4.662   3.947   0.406
 4324SOL     OW13870   5.984   4.446   5.981
 4324SOL    HW113871   5.944   4.361   6.015
 4324SOL    HW213872   6.083   4.444   5.994
 4325SOL     OW13873   3.239   1.472   2.008
 4325SOL    HW113874   3.185   1.488   1.926
 4325SOL    HW213875   3.334   1.455   1.982
 4326SOL     OW13876   4.948   4.501   2.646
 4326SOL    HW113877   4.915   4.407   2.647
 4326SOL    HW213878   4.918   4.546   2.562
 4327SOL     OW13879   5.561   5.827   1.813
 4327SOL    HW113880   5.639   5.793   1.762
 4327SOL    HW213881   5.496   5.752   1.829
 4328SOL     OW13882   4.666   4.727   5.654
 4328SOL    HW113883   4.676   4.628   5.643
 4328SOL    HW213884   4.671   4.750   5.751
 4329SOL     OW13885   4.798   2.564   5.768
 4329SOL    HW113886   4.699   2.567   5.783
 4329SOL    HW213887   4.845   2.586   5.853
 4330SOL     OW13888   1.635   6.250   4.863
 4330SOL    HW113889   1.721   6.217   4.825
 4330SOL    HW213890   1.559   6.214   4.809
 4331SOL     OW13891   5.656   1.399   1.990
 4331SOL    HW113892   5.715   1.467   2.034
 4331SOL    HW213893   5.711   1.319   1.965
 4332SOL     OW13894   5.161   2.870   2.820
 4332SOL    HW113895   5.096   2.818   2.765
 4332SOL    HW213896   5.110   2.925   2.887
 4333SOL     OW13897   4.523   1.452   5.795
 4333SOL    HW113898   4.549   1.544   5.766
 4333SOL    HW213899   4.568   1.430   5.882
 4334SOL     OW13900   2.336   2.776   2.671
 4334SOL    HW113901   2.350   2.847   2.601
 4334SOL    HW213902   2.254   2.723   2.649
 4335SOL     OW13903   3.338   3.427   2.300
 4335SOL    HW113904   3.300   3.390   2.215
 4335SOL    HW213905   3.387   3.355   2.349
 4336SOL     OW13906   3.053   6.829   5.867
 4336SOL    HW113907   3.104   6.856   5.949
 4336SOL    HW213908   2.955   6.842   5.882
 4337SOL     OW13909   1.450   4.400   0.594
 4337SOL    HW113910   1.390   4.434   0.666
 4337SOL    HW213911   1.480   4.476   0.537
 4338SOL     OW13912   6.232   0.096   6.609
 4338SOL    HW113913   6.262   0.173   6.552
 4338SOL    HW213914   6.139   0.112   6.640
 4339SOL     OW13915   4.079   3.248   5.819
 4339SOL    HW113916   4.167   3.288   5.844
 4339SOL    HW213917   4.026   3.229   5.901
 4340SOL     OW13918   6.870   3.485   1.507
 4340SOL    HW113919   6.827   3.527   1.427
 4340SOL    HW213920   6.927   3.553   1.554
 4341SOL     OW13921   1.087   5.650   1.593
 4341SOL    HW113922   1.080   5.573   1.530
 4341SOL    HW213923   1.040   5.626   1.679
 4342SOL     OW13924   5.120   4.012   3.238
 4342SOL    HW113925   5.209   4.058   3.237
 4342SOL    HW213926   5.077   4.023   3.327
 4343SOL     OW13927   3.010   5.849   4.458
 4343SOL    HW113928   2.998   5.751   4.467
 4343SOL    HW213929   2.921   5.893   4.447
 4344SOL     OW13930   0.864   4.193   2.019
 4344SOL    HW113931   0.802   4.117   2.000
 4344SOL    HW213932   0.900   4.185   2.113
 4345SOL     OW13933   3.843   4.082   5.024
 4345SOL    HW113934   3.901   4.130   4.958
 4345SOL    HW213935   3.900   4.041   5.095
 4346SOL     OW13936   1.945   3.796   3.126
 4346SOL    HW113937   1.899   3.796   3.037
 4346SOL    HW213938   1.920   3.713   3.176
 4347SOL     OW13939   5.723   6.793   2.829
 4347SOL    HW113940   5.763   6.846   2.904
 4347SOL    HW213941   5.791   6.784   2.756
 4348SOL     OW13942   0.045   5.395   4.044
 4348SOL    HW113943   6.975   5.437   4.065
 4348SOL    HW213944   0.033   5.296   4.032
 4349SOL     OW13945   6.227   2.025   2.919
 4349SOL    HW113946   6.134   2.046   2.888
 4349SOL    HW213947   6.292   2.060   2.852
 4350SOL     OW13948   3.694   1.673   3.965
 4350SOL    HW113949   3.621   1.739   3.981
 4350SOL    HW213950   3.783   1.720   3.970
 4351SOL     OW13951   1.345   6.139   1.124
 4351SOL    HW113952   1.367   6.213   1.188
 4351SOL    HW213953   1.292   6.175   1.047
 4352SOL     OW13954   6.598   3.863   2.544
 4352SOL    HW113955   6.521   3.826   2.595
 4352SOL    HW213956   6.602   3.963   2.556
 4353SOL     OW13957   3.677   2.489   6.751
 4353SOL    HW113958   3.633   2.554   6.689
 4353SOL    HW213959   3.623   2.482   6.835
 4354SOL     OW13960   1.833   1.050   6.210
 4354SOL    HW113961   1.887   1.009   6.136
 4354SOL    HW213962   1.894   1.089   6.278
 4355SOL     OW13963   2.414   6.859   2.508
 4355SOL    HW113964   2.339   6.825   2.451
 4355SOL    HW213965   2.415   6.959   2.506
 4356SOL     OW13966   5.209   3.363   6.502
 4356SOL    HW113967   5.126   3.414   6.526
 4356SOL    HW213968   5.286   3.400   6.554
 4357SOL     OW13969   6.737   0.993   1.811
 4357SOL    HW113970   6.696   0.928   1.875
 4357SOL    HW213971   6.798   1.054   1.861
 4358SOL     OW13972   6.667   1.099   0.893
 4358SOL    HW113973   6.614   1.178   0.926
 4358SOL    HW213974   6.608   1.019   0.890
 4359SOL     OW13975   0.894   1.148   6.691
 4359SOL    HW113976   0.879   1.050   6.705
 4359SOL    HW213977   0.929   1.164   6.599
 4360SOL     OW13978   1.213   3.539   3.915
 4360SOL    HW113979   1.298   3.505   3.954
 4360SOL    HW213980   1.147   3.464   3.909
 4361SOL     OW13981   2.273   3.750   1.802
 4361SOL    HW113982   2.262   3.662   1.848
 4361SOL    HW213983   2.350   3.745   1.738
 4362SOL     OW13984   6.860   5.060   3.504
 4362SOL    HW113985   6.883   4.968   3.471
 4362SOL    HW213986   6.916   5.081   3.585
 4363SOL     OW13987   4.999   2.063   0.883
 4363SOL    HW113988   5.004   2.117   0.967
 4363SOL    HW213989   4.937   1.986   0.896
 4364SOL     OW13990   3.200   4.017   3.518
 4364SOL    HW113991   3.112   3.990   3.479
 4364SOL    HW213992   3.186   4.052   3.611
 4365SOL     OW13993   3.134   0.630   2.026
 4365SOL    HW113994   3.084   0.683   1.958
 4365SOL    HW213995   3.124   0.674   2.115
 4366SOL     OW13996   6.520   0.008   6.625
 4366SOL    HW113997   6.572   0.085   6.661
 4366SOL    HW213998   6.427   0.038   6.604
 4367SOL     OW13999   2.716   4.628   3.763
 4367SOL    HW114000   2.716   4.686   3.845
 4367SOL    HW214001   2.643   4.560   3.771
 4368SOL     OW14002   3.725   5.537   1.384
 4368SOL    HW114003   3.714   5.634   1.363
 4368SOL    HW214004   3.822   5.518   1.402
 4369SOL     OW14005   4.472   4.895   2.781
 4369SOL    HW114006   4.515   4.813   2.819
 4369SOL    HW214007   4.373   4.883   2.779
 4370SOL     OW14008   3.775   4.396   1.728
 4370SOL    HW114009   3.827   4.476   1.697
 4370SOL    HW214010   3.689   4.427   1.769
 4371SOL     OW14011   1.985   1.947   2.155
 4371SOL    HW114012   1.944   2.038   2.148
 4371SOL    HW214013   1.989   1.906   2.064
 4372SOL     OW14014   2.662   2.114   4.292
 4372SOL    HW114015   2.648   2.073   4.202
 4372SOL    HW214016   2.735   2.182   4.286
 4373SOL     OW14017   4.909   1.280   6.973
 4373SOL    HW114018   4.958   1.335   6.905
 4373SOL    HW214019   4.910   1.328   0.043
 4374SOL     OW14020   1.180   1.601   1.236
 4374SOL    HW114021   1.092   1.624   1.194
 4374SOL    HW214022   1.246   1.582   1.164
 4375SOL     OW14023   4.269   6.381   3.101
 4375SOL    HW114024   4.174   6.406   3.122
 4375SOL    HW214025   4.302   6.314   3.168
 4376SOL     OW14026   6.519   0.105   2.771
 4376SOL    HW114027   6.546   0.036   2.839
 4376SOL    HW214028   6.562   0.192   2.794
 4377SOL     OW14029   5.619   5.449   6.779
 4377SOL    HW114030   5.711   5.473   6.748
 4377SOL    HW214031   5.596   5.358   6.747
 4378SOL     OW14032   1.589   3.090   2.717
 4378SOL    HW114033   1.496   3.089   2.754
 4378SOL    HW214034   1.630   3.180   2.733
 4379SOL     OW14035   2.576   2.074   2.236
 4379SOL    HW114036   2.656   2.125   2.267
 4379SOL    HW214037   2.519   2.052   2.315
 4380SOL     OW14038   1.206   6.795   3.380
 4380SOL    HW114039   1.273   6.832   3.315
 4380SOL    HW214040   1.247   6.788   3.471
 4381SOL     OW14041   2.386   4.226   5.320
 4381SOL    HW114042   2.454   4.230   5.393
 4381SOL    HW214043   2.400   4.144   5.265
 4382SOL     OW14044   6.170   3.453   6.470
 4382SOL    HW114045   6.098   3.467   6.538
 4382SOL    HW214046   6.130   3.416   6.386
 4383SOL     OW14047   0.796   2.743   5.865
 4383SOL    HW114048   0.894   2.734   5.851
 4383SOL    HW214049   0.762   2.825   5.820
 4384SOL     OW14050   5.277   1.558   6.388
 4384SOL    HW114051   5.179   1.547   6.371
 4384SOL    HW214052   5.328   1.483   6.346
 4385SOL     OW14053   6.591   2.596   5.263
 4385SOL    HW114054   6.596   2.611   5.361
 4385SOL    HW214055   6.592   2.498   5.244
 4386SOL     OW14056   2.309   3.475   6.598
 4386SOL    HW114057   2.362   3.558   6.612
 4386SOL    HW214058   2.301   3.426   6.685
 4387SOL     OW14059   0.069   0.869   1.815
 4387SOL    HW114060   0.012   0.835   1.890
 4387SOL    HW214061   0.029   0.953   1.778
 4388SOL     OW14062   5.224   1.411   6.722
 4388SOL    HW114063   5.169   1.492   6.742
 4388SOL    HW214064   5.314   1.420   6.765
 4389SOL     OW14065   6.790   3.386   0.917
 4389SOL    HW114066   6.834   3.414   0.831
 4389SOL    HW214067   6.693   3.370   0.901
 4390SOL     OW14068   3.821   1.351   1.952
 4390SOL    HW114069   3.857   1.331   2.043
 4390SOL    HW214070   3.830   1.449   1.933
 4391SOL     OW14071   1.559   5.694   6.443
 4391SOL    HW114072   1.600   5.676   6.532
 4391SOL    HW214073   1.473   5.644   6.435
 4392SOL     OW14074   0.015   3.283   5.730
 4392SOL    HW114075   6.946   3.307   5.774
 4392SOL    HW214076   0.057   3.365   5.691
 4393SOL     OW14077   6.089   6.923   2.621
 4393SOL    HW114078   6.041   6.840   2.592
 4393SOL    HW214079   6.042   7.003   2.585
 4394SOL     OW14080   5.940   5.894   2.668
 4394SOL    HW114081   5.977   5.907   2.760
 4394SOL    HW214082   5.995   5.946   2.603
 4395SOL     OW14083   3.860   0.693   1.631
 4395SOL    HW114084   3.806   0.636   1.693
 4395SOL    HW214085   3.943   0.644   1.605
 4396SOL     OW14086   2.783   2.352   4.125
 4396SOL    HW114087   2.767   2.338   4.027
 4396SOL    HW214088   2.720   2.421   4.159
 4397SOL     OW14089   0.188   1.068   4.554
 4397SOL    HW114090   0.129   0.987   4.556
 4397SOL    HW214091   0.277   1.045   4.594
 4398SOL     OW14092   0.670   4.774   5.221
 4398SOL    HW114093   0.677   4.676   5.235
 4398SOL    HW214094   0.597   4.811   5.280
 4399SOL     OW14095   1.756   1.148   1.410
 4399SOL    HW114096   1.789   1.057   1.384
 4399SOL    HW214097   1.833   1.210   1.418
 4400SOL     OW14098   3.035   6.665   5.395
 4400SOL    HW114099   2.949   6.715   5.385
 4400SOL    HW214100   3.077   6.687   5.483
 4401SOL     OW14101   5.028   0.161   6.744
 4401SOL    HW114102   4.992   0.090   6.684
 4401SOL    HW214103   5.031   0.248   6.694
 4402SOL     OW14104   2.513   6.935   1.249
 4402SOL    HW114105   2.470   6.991   1.320
 4402SOL    HW214106   2.562   6.859   1.291
 4403SOL     OW14107   0.973   0.115   3.544
 4403SOL    HW114108   0.996   0.212   3.552
 4403SOL    HW214109   0.886   0.106   3.495
 4404SOL     OW14110   0.181   4.102   5.637
 4404SOL    HW114111   0.243   4.151   5.576
 4404SOL    HW214112   0.086   4.119   5.610
 4405SOL     OW14113   1.878   4.754   1.452
 4405SOL    HW114114   1.841   4.843   1.425
 4405SOL    HW214115   1.883   4.748   1.551
 4406SOL     OW14116   6.967   4.053   0.340
 4406SOL    HW114117   0.001   4.056   0.426
 4406SOL    HW214118   6.966   3.960   0.305
 4407SOL     OW14119   0.082   4.696   0.485
 4407SOL    HW114120   0.031   4.639   0.550
 4407SOL    HW214121   0.096   4.787   0.525
 4408SOL     OW14122   3.268   1.071   1.347
 4408SOL    HW114123   3.328   1.049   1.424
 4408SOL    HW214124   3.319   1.120   1.277
 4409SOL     OW14125   4.624   6.931   1.343
 4409SOL    HW114126   4.659   6.960   1.254
 4409SOL    HW214127   4.618   7.010   1.404
 4410SOL     OW14128   1.308   5.753   6.843
 4410SOL    HW114129   1.336   5.669   6.796
 4410SOL    HW214130   1.363   5.829   6.810
 4411SOL     OW14131   3.225   4.019   3.816
 4411SOL    HW114132   3.314   3.975   3.831
 4411SOL    HW214133   3.154   3.949   3.809
 4412SOL     OW14134   3.976   6.847   4.785
 4412SOL    HW114135   3.943   6.789   4.710
 4412SOL    HW214136   3.927   6.824   4.869
 4413SOL     OW14137   5.132   5.763   4.626
 4413SOL    HW114138   5.125   5.717   4.715
 4413SOL    HW214139   5.041   5.782   4.590
 4414SOL     OW14140   3.819   4.561   1.195
 4414SOL    HW114141   3.769   4.599   1.273
 4414SOL    HW214142   3.767   4.484   1.157
 4415SOL     OW14143   3.498   3.411   0.101
 4415SOL    HW114144   3.417   3.428   0.045
 4415SOL    HW214145   3.527   3.316   0.091
 4416SOL     OW14146   2.205   0.739   3.968
 4416SOL    HW114147   2.288   0.739   3.912
 4416SOL    HW214148   2.142   0.669   3.934
 4417SOL     OW14149   5.914   4.454   3.412
 4417SOL    HW114150   5.984   4.405   3.464
 4417SOL    HW214151   5.838   4.475   3.473
 4418SOL     OW14152   5.578   1.265   2.649
 4418SOL    HW114153   5.654   1.225   2.598
 4418SOL    HW214154   5.611   1.300   2.736
 4419SOL     OW14155   5.714   5.686   0.385
 4419SOL    HW114156   5.638   5.690   0.450
 4419SOL    HW214157   5.678   5.693   0.292
 4420SOL     OW14158   5.150   1.480   1.653
 4420SOL    HW114159   5.127   1.573   1.683
 4420SOL    HW214160   5.111   1.463   1.563
 4421SOL     OW14161   1.871   0.806   4.716
 4421SOL    HW114162   1.812   0.826   4.637
 4421SOL    HW214163   1.964   0.788   4.684
 4422SOL     OW14164   3.036   4.455   5.757
 4422SOL    HW114165   3.105   4.527   5.748
 4422SOL    HW214166   3.062   4.376   5.702
 4423SOL     OW14167   1.490   2.856   5.730
 4423SOL    HW114168   1.522   2.880   5.638
 4423SOL    HW214169   1.541   2.910   5.797
 4424SOL     OW14170   5.682   0.391   4.454
 4424SOL    HW114171   5.710   0.452   4.380
 4424SOL    HW214172   5.629   0.315   4.417
 4425SOL     OW14173   3.646   5.122   0.200
 4425SOL    HW114174   3.553   5.147   0.223
 4425SOL    HW214175   3.675   5.173   0.119
 4426SOL     OW14176   6.865   1.164   4.895
 4426SOL    HW114177   6.812   1.205   4.969
 4426SOL    HW214178   6.949   1.125   4.931
 4427SOL     OW14179   0.347   6.040   2.425
 4427SOL    HW114180   0.394   5.994   2.350
 4427SOL    HW214181   0.254   6.004   2.434
 4428SOL     OW14182   2.903   6.432   1.639
 4428SOL    HW114183   2.881   6.369   1.713
 4428SOL    HW214184   2.989   6.405   1.597
 4429SOL     OW14185   3.158   0.101   2.560
 4429SOL    HW114186   3.070   0.148   2.568
 4429SOL    HW214187   3.189   0.103   2.465
 4430SOL     OW14188   4.948   3.682   4.792
 4430SOL    HW114189   5.028   3.625   4.810
 4430SOL    HW214190   4.897   3.695   4.877
 4431SOL     OW14191   2.393   0.909   2.108
 4431SOL    HW114192   2.375   0.947   2.198
 4431SOL    HW214193   2.324   0.840   2.087
 4432SOL     OW14194   3.993   3.854   4.882
 4432SOL    HW114195   4.043   3.890   4.961
 4432SOL    HW214196   3.938   3.927   4.842
 4433SOL     OW14197   5.161   0.768   4.639
 4433SOL    HW114198   5.192   0.675   4.659
 4433SOL    HW214199   5.240   0.828   4.628
 4434SOL     OW14200   4.341   1.932   3.840
 4434SOL    HW114201   4.434   1.901   3.821
 4434SOL    HW214202   4.275   1.866   3.803
 4435SOL     OW14203   4.431   3.145   1.455
 4435SOL    HW114204   4.489   3.064   1.442
 4435SOL    HW214205   4.409   3.156   1.552
 4436SOL     OW14206   3.782   1.535   0.999
 4436SOL    HW114207   3.733   1.450   0.978
 4436SOL    HW214208   3.736   1.583   1.073
 4437SOL     OW14209   5.932   1.154   3.632
 4437SOL    HW114210   6.011   1.202   3.670
 4437SOL    HW214211   5.886   1.213   3.565
 4438SOL     OW14212   5.099   0.605   0.540
 4438SOL    HW114213   5.142   0.664   0.609
 4438SOL    HW214214   5.004   0.634   0.527
 4439SOL     OW14215   0.458   5.654   1.365
 4439SOL    HW114216   0.506   5.662   1.452
 4439SOL    HW214217   0.491   5.574   1.316
 4440SOL     OW14218   2.380   5.364   0.733
 4440SOL    HW114219   2.298   5.372   0.789
 4440SOL    HW214220   2.374   5.427   0.656
 4441SOL     OW14221   6.765   1.944   2.789
 4441SOL    HW114222   6.748   1.998   2.872
 4441SOL    HW214223   6.709   1.861   2.791
 4442SOL     OW14224   2.505   5.889   4.622
 4442SOL    HW114225   2.458   5.955   4.681
 4442SOL    HW214226   2.604   5.905   4.628
 4443SOL     OW14227   0.204   2.629   0.752
 4443SOL    HW114228   0.150   2.630   0.667
 4443SOL    HW214229   0.299   2.654   0.732
 4444SOL     OW14230   3.683   5.187   6.204
 4444SOL    HW114231   3.620   5.213   6.131
 4444SOL    HW214232   3.730   5.102   6.178
 4445SOL     OW14233   0.207   0.660   1.019
 4445SOL    HW114234   0.306   0.646   1.021
 4445SOL    HW214235   0.187   0.745   0.969
 4446SOL     OW14236   5.472   1.200   1.842
 4446SOL    HW114237   5.510   1.262   1.911
 4446SOL    HW214238   5.509   1.108   1.856
 4447SOL     OW14239   5.475   4.015   6.583
 4447SOL    HW114240   5.432   3.930   6.553
 4447SOL    HW214241   5.519   4.059   6.505
 4448SOL     OW14242   2.835   3.889   1.070
 4448SOL    HW114243   2.749   3.884   1.122
 4448SOL    HW214244   2.888   3.967   1.102
 4449SOL     OW14245   5.078   0.833   5.770
 4449SOL    HW114246   5.060   0.926   5.738
 4449SOL    HW214247   5.100   0.775   5.692
 4450SOL     OW14248   3.537   2.836   3.866
 4450SOL    HW114249   3.487   2.832   3.780
 4450SOL    HW214250   3.475   2.814   3.941
 4451SOL     OW14251   5.643   4.272   4.330
 4451SOL    HW114252   5.699   4.208   4.277
 4451SOL    HW214253   5.558   4.291   4.281
 4452SOL     OW14254   5.273   6.267   4.192
 4452SOL    HW114255   5.297   6.329   4.268
 4452SOL    HW214256   5.329   6.184   4.198
 4453SOL     OW14257   0.224   2.700   1.847
 4453SOL    HW114258   0.314   2.723   1.884
 4453SOL    HW214259   0.182   2.628   1.903
 4454SOL     OW14260   0.629   1.868   6.667
 4454SOL    HW114261   0.704   1.878   6.602
 4454SOL    HW214262   0.658   1.901   6.757
 4455SOL     OW14263   3.906   6.079   6.220
 4455SOL    HW114264   3.992   6.028   6.209
 4455SOL    HW214265   3.902   6.154   6.154
 4456SOL     OW14266   3.326   5.025   1.673
 4456SOL    HW114267   3.237   5.054   1.640
 4456SOL    HW214268   3.351   4.938   1.629
 4457SOL     OW14269   4.578   1.981   0.961
 4457SOL    HW114270   4.569   2.058   1.024
 4457SOL    HW214271   4.515   1.908   0.988
 4458SOL     OW14272   1.494   3.175   6.274
 4458SOL    HW114273   1.592   3.168   6.292
 4458SOL    HW214274   1.465   3.098   6.217
 4459SOL     OW14275   4.511   0.675   4.472
 4459SOL    HW114276   4.519   0.610   4.548
 4459SOL    HW214277   4.416   0.676   4.439
 4460SOL     OW14278   3.142   2.975   5.372
 4460SOL    HW114279   3.103   2.888   5.404
 4460SOL    HW214280   3.204   3.011   5.442
 4461SOL     OW14281   1.572   1.335   1.830
 4461SOL    HW114282   1.613   1.288   1.908
 4461SOL    HW214283   1.610   1.428   1.823
 4462SOL     OW14284   6.128   4.688   2.145
 4462SOL    HW114285   6.111   4.783   2.118
 4462SOL    HW214286   6.061   4.661   2.215
 4463SOL     OW14287   4.778   1.980   6.147
 4463SOL    HW114288   4.829   1.951   6.228
 4463SOL    HW214289   4.752   2.076   6.158
 4464SOL     OW14290   0.242   4.891   0.935
 4464SOL    HW114291   0.293   4.812   0.901
 4464SOL    HW214292   0.300   4.944   0.997
 4465SOL     OW14293   2.486   5.438   1.888
 4465SOL    HW114294   2.462   5.342   1.871
 4465SOL    HW214295   2.582   5.445   1.914
 4466SOL     OW14296   2.260   1.769   3.320
 4466SOL    HW114297   2.263   1.701   3.247
 4466SOL    HW214298   2.166   1.779   3.352
 4467SOL     OW14299   2.088   6.886   2.388
 4467SOL    HW114300   2.092   6.787   2.404
 4467SOL    HW214301   2.010   6.924   2.438
 4468SOL     OW14302   2.105   2.954   1.267
 4468SOL    HW114303   2.013   2.915   1.274
 4468SOL    HW214304   2.146   2.959   1.358
 4469SOL     OW14305   4.216   0.537   1.139
 4469SOL    HW114306   4.211   0.583   1.227
 4469SOL    HW214307   4.287   0.578   1.083
 4470SOL     OW14308   5.982   2.045   2.097
 4470SOL    HW114309   5.887   2.075   2.108
 4470SOL    HW214310   6.021   2.086   2.015
 4471SOL     OW14311   0.210   1.557   6.796
 4471SOL    HW114312   0.198   1.513   6.885
 4471SOL    HW214313   0.222   1.655   6.808
 4472SOL     OW14314   1.573   2.725   3.750
 4472SOL    HW114315   1.627   2.767   3.824
 4472SOL    HW214316   1.476   2.721   3.778
 4473SOL     OW14317   6.878   2.393   4.317
 4473SOL    HW114318   6.811   2.382   4.390
 4473SOL    HW214319   6.880   2.310   4.261
 4474SOL     OW14320   3.075   1.005   1.616
 4474SOL    HW114321   3.140   1.018   1.541
 4474SOL    HW214322   3.125   0.983   1.700
 4475SOL     OW14323   1.717   4.068   2.898
 4475SOL    HW114324   1.813   4.061   2.873
 4475SOL    HW214325   1.701   4.155   2.945
 4476SOL     OW14326   3.980   6.622   3.896
 4476SOL    HW114327   3.885   6.646   3.876
 4476SOL    HW214328   3.987   6.590   3.991
 4477SOL     OW14329   1.770   0.027   5.440
 4477SOL    HW114330   1.769   0.068   5.531
 4477SOL    HW214331   1.680   7.004   5.421
 4478SOL     OW14332   3.914   6.819   2.568
 4478SOL    HW114333   3.876   6.841   2.478
 4478SOL    HW214334   4.007   6.856   2.574
 4479SOL     OW14335   1.530   0.900   1.472
 4479SOL    HW114336   1.627   0.877   1.474
 4479SOL    HW214337   1.497   0.899   1.377
 4480SOL     OW14338   2.465   3.355   6.059
 4480SOL    HW114339   2.466   3.455   6.056
 4480SOL    HW214340   2.559   3.321   6.058
 4481SOL     OW14341   2.539   6.373   5.693
 4481SOL    HW114342   2.566   6.311   5.618
 4481SOL    HW214343   2.619   6.394   5.749
 4482SOL     OW14344   1.116   4.750   4.420
 4482SOL    HW114345   1.128   4.750   4.519
 4482SOL    HW214346   1.162   4.671   4.380
 4483SOL     OW14347   4.913   3.658   2.032
 4483SOL    HW114348   4.869   3.641   1.944
 4483SOL    HW214349   4.882   3.747   2.068
 4484SOL     OW14350   3.276   2.832   6.099
 4484SOL    HW114351   3.244   2.851   6.006
 4484SOL    HW214352   3.318   2.741   6.102
 4485SOL     OW14353   5.092   1.806   5.211
 4485SOL    HW114354   5.091   1.794   5.310
 4485SOL    HW214355   5.000   1.832   5.180
 4486SOL     OW14356   5.044   4.773   4.431
 4486SOL    HW114357   5.087   4.863   4.430
 4486SOL    HW214358   4.945   4.783   4.438
 4487SOL     OW14359   2.548   2.677   6.363
 4487SOL    HW114360   2.616   2.645   6.297
 4487SOL    HW214361   2.520   2.601   6.422
 4488SOL     OW14362   6.564   3.178   6.199
 4488SOL    HW114363   6.574   3.082   6.224
 4488SOL    HW214364   6.654   3.222   6.202
 4489SOL     OW14365   6.115   5.530   4.074
 4489SOL    HW114366   6.019   5.546   4.050
 4489SOL    HW214367   6.168   5.612   4.055
 4490SOL     OW14368   6.289   2.837   3.158
 4490SOL    HW114369   6.303   2.776   3.080
 4490SOL    HW214370   6.222   2.908   3.135
 4491SOL     OW14371   0.090   2.220   4.455
 4491SOL    HW114372   0.009   2.162   4.466
 4491SOL    HW214373   0.133   2.201   4.367
 4492SOL     OW14374   5.672   4.265   2.177
 4492SOL    HW114375   5.596   4.221   2.224
 4492SOL    HW214376   5.677   4.361   2.203
 4493SOL     OW14377   4.997   5.920   5.304
 4493SOL    HW114378   5.049   5.880   5.380
 4493SOL    HW214379   5.011   6.019   5.303
 4494SOL     OW14380   6.475   1.207   5.563
 4494SOL    HW114381   6.508   1.265   5.638
 4494SOL    HW214382   6.379   1.229   5.545
 4495SOL     OW14383   3.761   6.639   4.541
 4495SOL    HW114384   3.836   6.608   4.600
 4495SOL    HW214385   3.755   6.579   4.461
 4496SOL     OW14386   5.450   5.414   1.092
 4496SOL    HW114387   5.454   5.361   1.007
 4496SOL    HW214388   5.454   5.511   1.070
 4497SOL     OW14389   4.970   0.787   6.818
 4497SOL    HW114390   4.964   0.693   6.851
 4497SOL    HW214391   4.932   0.848   6.887
 4498SOL     OW14392   6.887   3.445   6.541
 4498SOL    HW114393   6.794   3.439   6.577
 4498SOL    HW214394   6.949   3.392   6.599
 4499SOL     OW14395   6.502   3.422   4.513
 4499SOL    HW114396   6.436   3.350   4.533
 4499SOL    HW214397   6.457   3.494   4.459
 4500SOL     OW14398   2.942   3.635   3.916
 4500SOL    HW114399   2.966   3.697   3.990
 4500SOL    HW214400   2.953   3.540   3.947
 4501SOL     OW14401   0.441   3.120   4.263
 4501SOL    HW114402   0.411   3.208   4.226
 4501SOL    HW214403   0.504   3.076   4.199
 4502SOL     OW14404   0.957   2.738   6.508
 4502SOL    HW114405   0.872   2.751   6.456
 4502SOL    HW214406   0.980   2.640   6.509
 4503SOL     OW14407   3.369   6.665   1.879
 4503SOL    HW114408   3.395   6.759   1.900
 4503SOL    HW214409   3.295   6.666   1.811
 4504SOL     OW14410   6.136   1.145   4.778
 4504SOL    HW114411   6.180   1.235   4.766
 4504SOL    HW214412   6.049   1.157   4.826
 4505SOL     OW14413   6.015   5.297   2.191
 4505SOL    HW114414   6.019   5.393   2.219
 4505SOL    HW214415   6.068   5.285   2.107
 4506SOL     OW14416   4.138   2.135   3.889
 4506SOL    HW114417   4.142   2.193   3.971
 4506SOL    HW214418   4.223   2.084   3.880
 4507SOL     OW14419   5.450   5.403   2.143
 4507SOL    HW114420   5.374   5.453   2.186
 4507SOL    HW214421   5.479   5.329   2.204
 4508SOL     OW14422   0.834   4.324   6.406
 4508SOL    HW114423   0.930   4.296   6.400
 4508SOL    HW214424   0.803   4.355   6.316
 4509SOL     OW14425   4.930   2.339   2.205
 4509SOL    HW114426   5.021   2.304   2.226
 4509SOL    HW214427   4.862   2.268   2.221
 4510SOL     OW14428   4.492   0.947   4.360
 4510SOL    HW114429   4.437   0.910   4.435
 4510SOL    HW214430   4.504   0.877   4.289
 4511SOL     OW14431   0.137   3.025   6.854
 4511SOL    HW114432   0.178   2.938   6.881
 4511SOL    HW214433   0.128   3.029   6.754
 4512SOL     OW14434   2.822   0.099   4.756
 4512SOL    HW114435   2.880   0.070   4.832
 4512SOL    HW214436   2.729   0.066   4.770
 4513SOL     OW14437   6.023   5.157   0.607
 4513SOL    HW114438   6.080   5.190   0.531
 4513SOL    HW214439   6.081   5.141   0.687
 4514SOL     OW14440   4.634   1.236   6.439
 4514SOL    HW114441   4.543   1.224   6.478
 4514SOL    HW214442   4.702   1.196   6.500
 4515SOL     OW14443   0.074   2.328   5.734
 4515SOL    HW114444   0.012   2.259   5.697
 4515SOL    HW214445   0.154   2.283   5.775
 4516SOL     OW14446   1.225   0.459   6.707
 4516SOL    HW114447   1.162   0.403   6.654
 4516SOL    HW214448   1.248   0.542   6.656
 4517SOL     OW14449   3.511   1.026   6.627
 4517SOL    HW114450   3.578   0.985   6.565
 4517SOL    HW214451   3.457   0.954   6.671
 4518SOL     OW14452   0.086   0.388   2.915
 4518SOL    HW114453   0.023   0.428   2.982
 4518SOL    HW214454   0.035   0.336   2.847
 4519SOL     OW14455   6.095   0.675   1.355
 4519SOL    HW114456   6.092   0.641   1.449
 4519SOL    HW214457   6.012   0.649   1.307
 4520SOL     OW14458   4.592   6.078   4.569
 4520SOL    HW114459   4.507   6.091   4.620
 4520SOL    HW214460   4.571   6.059   4.473
 4521SOL     OW14461   6.155   1.805   4.181
 4521SOL    HW114462   6.216   1.884   4.171
 4521SOL    HW214463   6.070   1.822   4.129
 4522SOL     OW14464   6.338   6.883   3.478
 4522SOL    HW114465   6.423   6.836   3.455
 4522SOL    HW214466   6.285   6.827   3.542
 4523SOL     OW14467   1.473   4.240   0.222
 4523SOL    HW114468   1.432   4.219   0.311
 4523SOL    HW214469   1.566   4.203   0.219
 4524SOL     OW14470   5.560   2.410   3.507
 4524SOL    HW114471   5.655   2.422   3.536
 4524SOL    HW214472   5.549   2.442   3.412
 4525SOL     OW14473   4.904   1.085   4.044
 4525SOL    HW114474   4.896   1.133   4.131
 4525SOL    HW214475   4.937   1.148   3.974
 4526SOL     OW14476   6.194   0.296   1.282
 4526SOL    HW114477   6.276   0.253   1.246
 4526SOL    HW214478   6.151   0.234   1.348
 4527SOL     OW14479   4.820   1.368   3.262
 4527SOL    HW114480   4.817   1.323   3.350
 4527SOL    HW214481   4.829   1.467   3.275
 4528SOL     OW14482   4.747   0.333   0.273
 4528SOL    HW114483   4.793   0.395   0.210
 4528SOL    HW214484   4.690   0.384   0.337
 4529SOL     OW14485   3.393   1.263   5.293
 4529SOL    HW114486   3.372   1.353   5.254
 4529SOL    HW214487   3.479   1.230   5.255
 4530SOL     OW14488   1.775   3.810   6.262
 4530SOL    HW114489   1.703   3.769   6.206
 4530SOL    HW214490   1.859   3.757   6.253
 4531SOL     OW14491   0.415   3.506   4.540
 4531SOL    HW114492   0.369   3.588   4.575
 4531SOL    HW214493   0.504   3.531   4.502
 4532SOL     OW14494   6.006   2.048   3.350
 4532SOL    HW114495   6.014   1.956   3.388
 4532SOL    HW214496   6.014   2.115   3.424
 4533SOL     OW14497   1.595   1.171   2.080
 4533SOL    HW114498   1.515   1.222   2.113
 4533SOL    HW214499   1.575   1.073   2.083
 4534SOL     OW14500   4.710   4.293   4.720
 4534SOL    HW114501   4.690   4.389   4.739
 4534SOL    HW214502   4.706   4.241   4.805
 4535SOL     OW14503   4.805   0.964   2.418
 4535SOL    HW114504   4.744   0.989   2.493
 4535SOL    HW214505   4.850   1.046   2.383
 4536SOL     OW14506   4.413   1.162   3.624
 4536SOL    HW114507   4.433   1.070   3.657
 4536SOL    HW214508   4.321   1.189   3.653
 4537SOL     OW14509   3.695   2.824   6.289
 4537SOL    HW114510   3.762   2.812   6.216
 4537SOL    HW214511   3.640   2.905   6.272
 4538SOL     OW14512   2.200   0.158   4.116
 4538SOL    HW114513   2.163   0.094   4.182
 4538SOL    HW214514   2.185   0.124   4.023
 4539SOL     OW14515   2.032   0.643   5.165
 4539SOL    HW114516   1.995   0.572   5.105
 4539SOL    HW214517   1.995   0.632   5.257
 4540SOL     OW14518   3.035   2.668   5.538
 4540SOL    HW114519   2.960   2.731   5.518
 4540SOL    HW214520   3.019   2.580   5.493
 4541SOL     OW14521   6.234   1.484   0.967
 4541SOL    HW114522   6.220   1.391   0.933
 4541SOL    HW214523   6.146   1.525   0.992
 4542SOL     OW14524   6.707   1.282   2.917
 4542SOL    HW114525   6.700   1.341   2.997
 4542SOL    HW214526   6.690   1.336   2.834
 4543SOL     OW14527   4.638   2.098   1.413
 4543SOL    HW114528   4.694   2.137   1.486
 4543SOL    HW214529   4.572   2.167   1.382
 4544SOL     OW14530   2.992   6.150   6.078
 4544SOL    HW114531   2.916   6.104   6.034
 4544SOL    HW214532   2.965   6.243   6.104
 4545SOL     OW14533   5.236   3.613   4.748
 4545SOL    HW114534   5.214   3.678   4.676
 4545SOL    HW214535   5.327   3.634   4.785
 4546SOL     OW14536   1.825   1.260   5.952
 4546SOL    HW114537   1.889   1.293   6.022
 4546SOL    HW214538   1.731   1.278   5.983
 4547SOL     OW14539   5.997   2.464   3.128
 4547SOL    HW114540   6.095   2.447   3.123
 4547SOL    HW214541   5.949   2.400   3.067
 4548SOL     OW14542   1.402   4.243   4.458
 4548SOL    HW114543   1.393   4.215   4.553
 4548SOL    HW214544   1.416   4.163   4.400
 4549SOL     OW14545   6.096   4.271   1.947
 4549SOL    HW114546   6.119   4.366   1.924
 4549SOL    HW214547   6.037   4.233   1.876
 4550SOL     OW14548   1.044   5.842   3.358
 4550SOL    HW114549   1.016   5.862   3.452
 4550SOL    HW214550   1.055   5.927   3.307
 4551SOL     OW14551   6.988   1.747   5.508
 4551SOL    HW114552   0.046   1.799   5.469
 4551SOL    HW214553   6.913   1.809   5.531
 4552SOL     OW14554   6.287   2.836   0.579
 4552SOL    HW114555   6.348   2.896   0.527
 4552SOL    HW214556   6.307   2.741   0.555
 4553SOL     OW14557   3.680   4.814   6.673
 4553SOL    HW114558   3.656   4.884   6.740
 4553SOL    HW214559   3.769   4.774   6.696
 4554SOL     OW14560   5.303   0.593   1.410
 4554SOL    HW114561   5.401   0.581   1.430
 4554SOL    HW214562   5.287   0.688   1.383
 4555SOL     OW14563   3.056   1.490   5.891
 4555SOL    HW114564   3.089   1.398   5.872
 4555SOL    HW214565   2.993   1.519   5.819
 4556SOL     OW14566   4.785   2.197   4.073
 4556SOL    HW114567   4.787   2.261   4.150
 4556SOL    HW214568   4.756   2.107   4.105
 4557SOL     OW14569   5.019   6.482   5.058
 4557SOL    HW114570   4.929   6.440   5.064
 4557SOL    HW214571   5.019   6.568   5.110
 4558SOL     OW14572   0.950   3.835   4.682
 4558SOL    HW114573   0.879   3.904   4.666
 4558SOL    HW214574   0.911   3.744   4.671
 4559SOL     OW14575   0.032   3.880   1.985
 4559SOL    HW114576   7.016   3.956   2.040
 4559SOL    HW214577   0.071   3.810   2.045
 4560SOL     OW14578   5.490   5.196   2.337
 4560SOL    HW114579   5.392   5.186   2.351
 4560SOL    HW214580   5.528   5.257   2.408
 4561SOL     OW14581   2.748   1.288   1.811
 4561SOL    HW114582   2.716   1.193   1.814
 4561SOL    HW214583   2.828   1.295   1.751
 4562SOL     OW14584   3.337   6.408   4.712
 4562SOL    HW114585   3.330   6.471   4.635
 4562SOL    HW214586   3.268   6.431   4.781
 4563SOL     OW14587   0.309   3.679   1.333
 4563SOL    HW114588   0.212   3.654   1.334
 4563SOL    HW214589   0.325   3.749   1.264
 4564SOL     OW14590   6.403   6.678   0.883
 4564SOL    HW114591   6.308   6.703   0.899
 4564SOL    HW214592   6.419   6.584   0.916
 4565SOL     OW14593   0.096   1.501   5.473
 4565SOL    HW114594   0.014   1.557   5.481
 4565SOL    HW214595   0.123   1.494   5.377
 4566SOL     OW14596   6.611   2.232   1.029
 4566SOL    HW114597   6.628   2.146   1.077
 4566SOL    HW214598   6.658   2.306   1.077
 4567SOL     OW14599   6.731   0.313   0.232
 4567SOL    HW114600   6.780   0.226   0.231
 4567SOL    HW214601   6.721   0.346   0.138
 4568SOL     OW14602   2.136   4.112   5.779
 4568SOL    HW114603   2.081   4.118   5.695
 4568SOL    HW214604   2.191   4.194   5.789
 4569SOL     OW14605   1.972   1.516   3.379
 4569SOL    HW114606   1.932   1.599   3.416
 4569SOL    HW214607   2.016   1.464   3.453
 4570SOL     OW14608   0.590   6.463   3.258
 4570SOL    HW114609   0.515   6.526   3.236
 4570SOL    HW214610   0.585   6.384   3.197
 4571SOL     OW14611   4.088   3.664   5.875
 4571SOL    HW114612   4.120   3.571   5.889
 4571SOL    HW214613   4.167   3.725   5.867
 4572SOL     OW14614   1.256   6.807   6.587
 4572SOL    HW114615   1.263   6.709   6.573
 4572SOL    HW214616   1.337   6.852   6.548
 4573SOL     OW14617   6.033   6.699   0.567
 4573SOL    HW114618   6.037   6.693   0.468
 4573SOL    HW214619   6.124   6.723   0.602
 4574SOL     OW14620   6.726   3.805   1.205
 4574SOL    HW114621   6.745   3.867   1.129
 4574SOL    HW214622   6.641   3.832   1.250
 4575SOL     OW14623   6.124   1.746   6.523
 4575SOL    HW114624   6.072   1.678   6.472
 4575SOL    HW214625   6.067   1.826   6.540
 4576SOL     OW14626   2.540   6.301   6.158
 4576SOL    HW114627   2.499   6.284   6.069
 4576SOL    HW214628   2.493   6.378   6.203
 4577SOL     OW14629   1.150   1.939   4.622
 4577SOL    HW114630   1.109   1.932   4.713
 4577SOL    HW214631   1.156   1.848   4.580
 4578SOL     OW14632   0.937   3.578   4.871
 4578SOL    HW114633   0.858   3.605   4.815
 4578SOL    HW214634   1.004   3.530   4.813
 4579SOL     OW14635   4.881   2.505   3.285
 4579SOL    HW114636   4.832   2.592   3.291
 4579SOL    HW214637   4.817   2.429   3.302
 4580SOL     OW14638   4.957   4.612   0.082
 4580SOL    HW114639   4.965   4.525   0.130
 4580SOL    HW214640   4.928   4.683   0.146
 4581SOL     OW14641   2.767   4.788   2.564
 4581SOL    HW114642   2.722   4.718   2.619
 4581SOL    HW214643   2.744   4.879   2.601
 4582SOL     OW14644   6.112   6.588   4.991
 4582SOL    HW114645   6.035   6.544   5.038
 4582SOL    HW214646   6.197   6.543   5.017
 4583SOL     OW14647   2.478   2.081   5.800
 4583SOL    HW114648   2.483   1.981   5.793
 4583SOL    HW214649   2.383   2.109   5.809
 4584SOL     OW14650   0.358   5.429   6.166
 4584SOL    HW114651   0.276   5.376   6.190
 4584SOL    HW214652   0.408   5.383   6.094
 4585SOL     OW14653   2.310   6.840   2.926
 4585SOL    HW114654   2.313   6.775   3.002
 4585SOL    HW214655   2.393   6.830   2.871
 4586SOL     OW14656   3.332   4.670   0.609
 4586SOL    HW114657   3.340   4.698   0.705
 4586SOL    HW214658   3.337   4.570   0.603
 4587SOL     OW14659   3.793   3.716   2.143
 4587SOL    HW114660   3.764   3.804   2.104
 4587SOL    HW214661   3.757   3.708   2.236
 4588SOL     OW14662   3.738   3.814   5.121
 4588SOL    HW114663   3.757   3.862   5.206
 4588SOL    HW214664   3.745   3.877   5.044
 4589SOL     OW14665   6.001   0.898   2.182
 4589SOL    HW114666   5.935   0.965   2.216
 4589SOL    HW214667   5.953   0.828   2.128
 4590SOL     OW14668   5.062   5.539   0.405
 4590SOL    HW114669   4.991   5.556   0.337
 4590SOL    HW214670   5.047   5.449   0.447
 4591SOL     OW14671   0.440   6.337   4.360
 4591SOL    HW114672   0.537   6.335   4.385
 4591SOL    HW214673   0.390   6.389   4.429
 4592SOL     OW14674   3.374   1.627   1.781
 4592SOL    HW114675   3.373   1.720   1.818
 4592SOL    HW214676   3.305   1.619   1.710
 4593SOL     OW14677   4.463   5.363   3.856
 4593SOL    HW114678   4.496   5.453   3.826
 4593SOL    HW214679   4.531   5.294   3.835
 4594SOL     OW14680   3.182   1.440   2.300
 4594SOL    HW114681   3.223   1.432   2.209
 4594SOL    HW214682   3.092   1.396   2.300
 4595SOL     OW14683   4.039   2.436   6.652
 4595SOL    HW114684   4.125   2.473   6.687
 4595SOL    HW214685   4.023   2.345   6.691
 4596SOL     OW14686   6.313   6.722   2.488
 4596SOL    HW114687   6.267   6.634   2.495
 4596SOL    HW214688   6.265   6.790   2.543
 4597SOL     OW14689   4.228   4.835   6.469
 4597SOL    HW114690   4.155   4.801   6.528
 4597SOL    HW214691   4.237   4.776   6.389
 4598SOL     OW14692   2.131   5.978   0.003
 4598SOL    HW114693   2.068   6.051   6.994
 4598SOL    HW214694   2.190   5.955   6.944
 4599SOL     OW14695   0.618   5.457   0.686
 4599SOL    HW114696   0.573   5.547   0.688
 4599SOL    HW214697   0.587   5.407   0.605
 4600SOL     OW14698   1.437   4.703   5.525
 4600SOL    HW114699   1.395   4.794   5.524
 4600SOL    HW214700   1.388   4.645   5.590
 4601SOL     OW14701   1.844   0.501   5.584
 4601SOL    HW114702   1.769   0.442   5.555
 4601SOL    HW214703   1.925   0.445   5.602
 4602SOL     OW14704   1.378   5.803   1.158
 4602SOL    HW114705   1.302   5.866   1.178
 4602SOL    HW214706   1.441   5.802   1.236
 4603SOL     OW14707   3.126   5.949   0.735
 4603SOL    HW114708   3.122   5.942   0.635
 4603SOL    HW214709   3.174   6.033   0.760
 4604SOL     OW14710   4.460   0.219   1.153
 4604SOL    HW114711   4.381   0.241   1.210
 4604SOL    HW214712   4.538   0.277   1.181
 4605SOL     OW14713   3.355   0.454   3.172
 4605SOL    HW114714   3.432   0.450   3.235
 4605SOL    HW214715   3.375   0.398   3.091
 4606SOL     OW14716   1.171   0.290   2.039
 4606SOL    HW114717   1.188   0.351   2.116
 4606SOL    HW214718   1.097   0.327   1.983
 4607SOL     OW14719   2.190   2.659   1.151
 4607SOL    HW114720   2.116   2.723   1.173
 4607SOL    HW214721   2.179   2.627   1.057
 4608SOL     OW14722   0.716   5.819   3.734
 4608SOL    HW114723   0.650   5.781   3.669
 4608SOL    HW214724   0.729   5.917   3.715
 4609SOL     OW14725   4.446   4.871   6.645
 4609SOL    HW114726   4.404   4.855   6.556
 4609SOL    HW214727   4.466   4.969   6.655
 4610SOL     OW14728   5.189   3.010   0.586
 4610SOL    HW114729   5.184   2.911   0.598
 4610SOL    HW214730   5.182   3.031   0.488
 4611SOL     OW14731   6.909   6.146   5.730
 4611SOL    HW114732   6.825   6.138   5.677
 4611SOL    HW214733   6.893   6.115   5.824
 4612SOL     OW14734   1.175   6.378   7.017
 4612SOL    HW114735   1.133   6.410   0.084
 4612SOL    HW214736   1.171   6.278   7.013
 4613SOL     OW14737   2.161   5.919   1.954
 4613SOL    HW114738   2.130   6.012   1.975
 4613SOL    HW214739   2.144   5.900   1.857
 4614SOL     OW14740   6.808   3.479   4.872
 4614SOL    HW114741   6.787   3.568   4.913
 4614SOL    HW214742   6.753   3.409   4.917
 4615SOL     OW14743   1.548   0.432   0.051
 4615SOL    HW114744   1.451   0.451   0.038
 4615SOL    HW214745   1.561   0.375   0.132
 4616SOL     OW14746   6.450   0.688   5.521
 4616SOL    HW114747   6.461   0.626   5.599
 4616SOL    HW214748   6.414   0.775   5.553
 4617SOL     OW14749   0.707   2.333   2.205
 4617SOL    HW114750   0.674   2.418   2.245
 4617SOL    HW214751   0.641   2.299   2.138
 4618SOL     OW14752   2.147   3.141   4.933
 4618SOL    HW114753   2.227   3.086   4.956
 4618SOL    HW214754   2.174   3.237   4.927
 4619SOL     OW14755   3.509   6.318   3.322
 4619SOL    HW114756   3.595   6.291   3.278
 4619SOL    HW214757   3.516   6.303   3.420
 4620SOL     OW14758   2.317   4.936   0.531
 4620SOL    HW114759   2.266   4.977   0.455
 4620SOL    HW214760   2.272   4.852   0.560
 4621SOL     OW14761   5.428   1.179   2.351
 4621SOL    HW114762   5.456   1.266   2.309
 4621SOL    HW214763   5.451   1.180   2.449
 4622SOL     OW14764   2.228   4.496   0.624
 4622SOL    HW114765   2.156   4.428   0.611
 4622SOL    HW214766   2.315   4.449   0.639
 4623SOL     OW14767   5.821   0.027   0.735
 4623SOL    HW114768   5.816   7.002   0.644
 4623SOL    HW214769   5.840   6.976   0.804
 4624SOL     OW14770   5.327   0.063   3.148
 4624SOL    HW114771   5.380   6.999   3.167
 4624SOL    HW214772   5.348   0.097   3.056
 4625SOL     OW14773   1.565   3.830   0.630
 4625SOL    HW114774   1.528   3.739   0.647
 4625SOL    HW214775   1.501   3.900   0.662
 4626SOL     OW14776   5.263   5.567   2.313
 4626SOL    HW114777   5.285   5.644   2.254
 4626SOL    HW214778   5.177   5.585   2.361
 4627SOL     OW14779   2.597   4.875   4.207
 4627SOL    HW114780   2.693   4.866   4.235
 4627SOL    HW214781   2.543   4.804   4.252
 4628SOL     OW14782   6.247   4.631   4.223
 4628SOL    HW114783   6.242   4.716   4.275
 4628SOL    HW214784   6.333   4.630   4.171
 4629SOL     OW14785   1.879   5.154   5.576
 4629SOL    HW114786   1.909   5.081   5.638
 4629SOL    HW214787   1.959   5.203   5.541
 4630SOL     OW14788   3.843   5.525   2.331
 4630SOL    HW114789   3.808   5.582   2.404
 4630SOL    HW214790   3.830   5.428   2.355
 4631SOL     OW14791   2.113   6.247   2.661
 4631SOL    HW114792   2.189   6.188   2.635
 4631SOL    HW214793   2.141   6.305   2.737
 4632SOL     OW14794   3.789   5.307   2.519
 4632SOL    HW114795   3.796   5.364   2.601
 4632SOL    HW214796   3.852   5.231   2.527
 4633SOL     OW14797   5.501   1.126   4.240
 4633SOL    HW114798   5.528   1.070   4.161
 4633SOL    HW214799   5.402   1.143   4.236
 4634SOL     OW14800   2.821   5.066   6.086
 4634SOL    HW114801   2.754   5.033   6.019
 4634SOL    HW214802   2.777   5.076   6.175
 4635SOL     OW14803   5.400   3.827   1.007
 4635SOL    HW114804   5.344   3.766   1.062
 4635SOL    HW214805   5.342   3.880   0.945
 4636SOL     OW14806   1.692   4.945   0.617
 4636SOL    HW114807   1.607   4.997   0.607
 4636SOL    HW214808   1.732   4.929   0.527
 4637SOL     OW14809   0.575   6.717   0.622
 4637SOL    HW114810   0.502   6.654   0.593
 4637SOL    HW214811   0.662   6.668   0.620
 4638SOL     OW14812   5.192   3.443   6.932
 4638SOL    HW114813   5.281   3.484   6.911
 4638SOL    HW214814   5.198   3.343   6.921
 4639SOL     OW14815   2.836   4.360   5.407
 4639SOL    HW114816   2.914   4.310   5.446
 4639SOL    HW214817   2.869   4.418   5.332
 4640SOL     OW14818   4.841   4.154   3.408
 4640SOL    HW114819   4.825   4.056   3.403
 4640SOL    HW214820   4.778   4.201   3.346
 4641SOL     OW14821   2.132   6.595   5.222
 4641SOL    HW114822   2.110   6.674   5.166
 4641SOL    HW214823   2.049   6.542   5.240
 4642SOL     OW14824   0.230   5.683   4.128
 4642SOL    HW114825   0.322   5.650   4.150
 4642SOL    HW214826   0.180   5.611   4.079
 4643SOL     OW14827   5.813   3.267   1.350
 4643SOL    HW114828   5.875   3.307   1.282
 4643SOL    HW214829   5.808   3.327   1.430
 4644SOL     OW14830   6.970   4.743   5.050
 4644SOL    HW114831   0.043   4.701   5.046
 4644SOL    HW214832   6.923   4.714   5.134
 4645SOL     OW14833   0.626   1.091   4.281
 4645SOL    HW114834   0.584   1.008   4.317
 4645SOL    HW214835   0.688   1.130   4.349
 4646SOL     OW14836   1.864   5.971   3.721
 4646SOL    HW114837   1.927   5.974   3.799
 4646SOL    HW214838   1.778   5.930   3.751
 4647SOL     OW14839   1.524   1.214   3.474
 4647SOL    HW114840   1.517   1.117   3.453
 4647SOL    HW214841   1.496   1.268   3.395
 4648SOL     OW14842   4.253   1.266   2.380
 4648SOL    HW114843   4.287   1.176   2.404
 4648SOL    HW214844   4.252   1.324   2.462
 4649SOL     OW14845   5.317   0.324   6.601
 4649SOL    HW114846   5.225   0.349   6.630
 4649SOL    HW214847   5.313   0.246   6.539
 4650SOL     OW14848   4.810   5.472   3.173
 4650SOL    HW114849   4.751   5.420   3.111
 4650SOL    HW214850   4.768   5.479   3.263
 4651SOL     OW14851   0.029   2.385   0.577
 4651SOL    HW114852   0.040   2.484   0.581
 4651SOL    HW214853   6.955   2.363   0.544
 4652SOL     OW14854   6.964   0.152   4.644
 4652SOL    HW114855   6.891   0.121   4.705
 4652SOL    HW214856   6.968   0.093   4.564
 4653SOL     OW14857   5.855   4.732   0.229
 4653SOL    HW114858   5.891   4.641   0.250
 4653SOL    HW214859   5.862   4.791   0.309
 4654SOL     OW14860   1.273   6.677   7.013
 4654SOL    HW114861   1.189   6.628   6.992
 4654SOL    HW214862   1.284   6.683   0.094
 4655SOL     OW14863   5.662   4.136   1.891
 4655SOL    HW114864   5.616   4.189   1.962
 4655SOL    HW214865   5.758   4.164   1.885
 4656SOL     OW14866   1.094   0.691   3.369
 4656SOL    HW114867   1.017   0.720   3.425
 4656SOL    HW214868   1.059   0.645   3.287
 4657SOL     OW14869   5.056   6.034   1.399
 4657SOL    HW114870   5.008   6.029   1.487
 4657SOL    HW214871   5.008   5.977   1.332
 4658SOL     OW14872   4.249   0.999   2.969
 4658SOL    HW114873   4.150   0.994   2.977
 4658SOL    HW214874   4.281   1.087   3.002
 4659SOL     OW14875   3.140   4.564   5.347
 4659SOL    HW114876   3.055   4.550   5.295
 4659SOL    HW214877   3.217   4.530   5.294
 4660SOL     OW14878   1.344   4.386   6.053
 4660SOL    HW114879   1.394   4.363   6.136
 4660SOL    HW214880   1.409   4.417   5.983
 4661SOL     OW14881   3.238   4.202   5.986
 4661SOL    HW114882   3.170   4.139   5.948
 4661SOL    HW214883   3.191   4.280   6.027
 4662SOL     OW14884   3.672   6.956   5.319
 4662SOL    HW114885   3.586   6.989   5.360
 4662SOL    HW214886   3.736   6.932   5.392
 4663SOL     OW14887   0.555   1.949   2.388
 4663SOL    HW114888   0.602   1.919   2.305
 4663SOL    HW214889   0.558   1.876   2.456
 4664SOL     OW14890   1.290   1.218   0.675
 4664SOL    HW114891   1.378   1.266   0.675
 4664SOL    HW214892   1.217   1.283   0.693
 4665SOL     OW14893   3.601   6.708   6.788
 4665SOL    HW114894   3.545   6.652   6.849
 4665SOL    HW214895   3.573   6.804   6.795
 4666SOL     OW14896   1.492   1.798   0.810
 4666SOL    HW114897   1.471   1.882   0.859
 4666SOL    HW214898   1.447   1.721   0.856
 4667SOL     OW14899   5.782   3.458   2.662
 4667SOL    HW114900   5.795   3.429   2.567
 4667SOL    HW214901   5.684   3.469   2.680
 4668SOL     OW14902   5.100   1.748   2.473
 4668SOL    HW114903   5.040   1.794   2.538
 4668SOL    HW214904   5.084   1.649   2.477
 4669SOL     OW14905   4.779   6.071   6.789
 4669SOL    HW114906   4.808   6.154   6.740
 4669SOL    HW214907   4.849   6.001   6.781
 4670SOL     OW14908   3.086   2.119   5.282
 4670SOL    HW114909   3.128   2.171   5.208
 4670SOL    HW214910   3.158   2.076   5.337
 4671SOL     OW14911   6.871   2.965   2.293
 4671SOL    HW114912   6.809   2.906   2.241
 4671SOL    HW214913   6.868   2.940   2.390
 4672SOL     OW14914   3.016   4.792   6.293
 4672SOL    HW114915   3.030   4.733   6.214
 4672SOL    HW214916   2.919   4.797   6.314
 4673SOL     OW14917   5.217   6.597   1.268
 4673SOL    HW114918   5.120   6.578   1.283
 4673SOL    HW214919   5.271   6.553   1.340
 4674SOL     OW14920   4.980   0.442   6.247
 4674SOL    HW114921   4.897   0.391   6.221
 4674SOL    HW214922   5.057   0.379   6.255
 4675SOL     OW14923   0.852   1.677   6.266
 4675SOL    HW114924   0.805   1.609   6.321
 4675SOL    HW214925   0.884   1.636   6.181
 4676SOL     OW14926   0.148   6.380   3.403
 4676SOL    HW114927   0.207   6.346   3.330
 4676SOL    HW214928   0.067   6.422   3.364
 4677SOL     OW14929   2.931   1.331   6.681
 4677SOL    HW114930   2.977   1.271   6.616
 4677SOL    HW214931   2.832   1.325   6.668
 4678SOL     OW14932   1.922   4.691   3.536
 4678SOL    HW114933   2.001   4.704   3.596
 4678SOL    HW214934   1.912   4.593   3.515
 4679SOL     OW14935   3.688   0.147   0.330
 4679SOL    HW114936   3.710   0.231   0.281
 4679SOL    HW214937   3.709   0.068   0.272
 4680SOL     OW14938   2.798   1.820   6.819
 4680SOL    HW114939   2.859   1.798   6.895
 4680SOL    HW214940   2.823   1.764   6.740
 4681SOL     OW14941   5.068   5.435   0.027
 4681SOL    HW114942   5.063   5.451   0.126
 4681SOL    HW214943   5.116   5.350   0.010
 4682SOL     OW14944   4.780   4.366   5.334
 4682SOL    HW114945   4.844   4.301   5.376
 4682SOL    HW214946   4.831   4.444   5.298
 4683SOL     OW14947   5.040   4.950   2.456
 4683SOL    HW114948   5.004   4.962   2.549
 4683SOL    HW214949   5.112   5.017   2.439
 4684SOL     OW14950   5.666   0.398   5.153
 4684SOL    HW114951   5.632   0.304   5.157
 4684SOL    HW214952   5.766   0.397   5.156
 4685SOL     OW14953   1.089   5.527   5.638
 4685SOL    HW114954   1.054   5.574   5.719
 4685SOL    HW214955   1.061   5.431   5.640
 4686SOL     OW14956   4.450   4.768   0.039
 4686SOL    HW114957   4.547   4.769   0.014
 4686SOL    HW214958   4.435   4.699   0.110
 4687SOL     OW14959   5.691   3.345   4.211
 4687SOL    HW114960   5.688   3.314   4.306
 4687SOL    HW214961   5.762   3.294   4.162
 4688SOL     OW14962   5.871   4.009   4.929
 4688SOL    HW114963   5.795   3.950   4.956
 4688SOL    HW214964   5.889   3.997   4.831
 4689SOL     OW14965   4.338   0.770   0.188
 4689SOL    HW114966   4.240   0.789   0.187
 4689SOL    HW214967   4.354   0.683   0.235
 4690SOL     OW14968   0.836   0.488   6.796
 4690SOL    HW114969   0.812   0.505   6.701
 4690SOL    HW214970   0.916   0.429   6.801
 4691SOL     OW14971   2.684   4.861   1.172
 4691SOL    HW114972   2.641   4.778   1.137
 4691SOL    HW214973   2.646   4.884   1.262
 4692SOL     OW14974   5.354   5.620   1.858
 4692SOL    HW114975   5.268   5.605   1.907
 4692SOL    HW214976   5.373   5.542   1.798
 4693SOL     OW14977   1.458   2.139   3.683
 4693SOL    HW114978   1.377   2.081   3.680
 4693SOL    HW214979   1.477   2.165   3.778
 4694SOL     OW14980   1.819   0.784   0.217
 4694SOL    HW114981   1.904   0.733   0.209
 4694SOL    HW214982   1.832   0.877   0.184
 4695SOL     OW14983   0.976   3.888   2.195
 4695SOL    HW114984   0.901   3.822   2.192
 4695SOL    HW214985   0.973   3.938   2.282
 4696SOL     OW14986   0.008   3.964   6.969
 4696SOL    HW114987   0.004   4.000   6.876
 4696SOL    HW214988   0.052   4.031   0.010
 4697SOL     OW14989   1.764   3.337   0.963
 4697SOL    HW114990   1.792   3.287   1.045
 4697SOL    HW214991   1.777   3.435   0.977
 4698SOL     OW14992   4.515   5.304   2.483
 4698SOL    HW114993   4.606   5.346   2.486
 4698SOL    HW214994   4.523   5.206   2.502
 4699SOL     OW14995   1.218   6.721   1.965
 4699SOL    HW114996   1.199   6.819   1.964
 4699SOL    HW214997   1.188   6.682   2.052
 4700SOL     OW14998   0.148   0.923   3.106
 4700SOL    HW114999   0.083   0.979   3.054
 4700SOL    HW215000   0.112   0.909   3.199
 4701SOL     OW15001   2.648   2.369   0.586
 4701SOL    HW115002   2.670   2.275   0.560
 4701SOL    HW215003   2.594   2.369   0.671
 4702SOL     OW15004   4.796   4.873   0.172
 4702SOL    HW115005   4.766   4.796   0.228
 4702SOL    HW215006   4.804   4.843   0.076
 4703SOL     OW15007   0.310   1.678   2.285
 4703SOL    HW115008   0.228   1.735   2.283
 4703SOL    HW215009   0.378   1.714   2.221
 4704SOL     OW15010   0.384   6.051   6.759
 4704SOL    HW115011   0.396   6.141   6.801
 4704SOL    HW215012   0.329   5.993   6.819
 4705SOL     OW15013   3.559   2.445   1.575
 4705SOL    HW115014   3.589   2.424   1.668
 4705SOL    HW215015   3.562   2.362   1.520
 4706SOL     OW15016   2.771   6.959   0.545
 4706SOL    HW115017   2.814   6.875   0.579
 4706SOL    HW215018   2.812   6.985   0.458
 4707SOL     OW15019   1.346   6.516   0.622
 4707SOL    HW115020   1.335   6.552   0.529
 4707SOL    HW215021   1.423   6.561   0.666
 4708SOL     OW15022   1.464   2.317   6.326
 4708SOL    HW115023   1.506   2.227   6.320
 4708SOL    HW215024   1.479   2.355   6.417
 4709SOL     OW15025   4.752   5.795   5.340
 4709SOL    HW115026   4.844   5.833   5.346
 4709SOL    HW215027   4.687   5.869   5.322
 4710SOL     OW15028   4.835   0.140   5.741
 4710SOL    HW115029   4.756   0.200   5.732
 4710SOL    HW215030   4.838   0.102   5.833
 4711SOL     OW15031   5.898   1.492   1.625
 4711SOL    HW115032   5.845   1.435   1.563
 4711SOL    HW215033   5.836   1.544   1.684
 4712SOL     OW15034   3.561   4.682   6.965
 4712SOL    HW115035   3.657   4.699   6.941
 4712SOL    HW215036   3.527   4.757   0.004
 4713SOL     OW15037   3.625   4.042   0.936
 4713SOL    HW115038   3.598   3.973   0.868
 4713SOL    HW215039   3.720   4.027   0.963
 4714SOL     OW15040   1.033   2.110   6.271
 4714SOL    HW115041   1.090   2.185   6.304
 4714SOL    HW215042   0.968   2.145   6.203
 4715SOL     OW15043   6.475   3.223   2.276
 4715SOL    HW115044   6.386   3.254   2.242
 4715SOL    HW215045   6.487   3.126   2.251
 4716SOL     OW15046   4.202   6.322   6.289
 4716SOL    HW115047   4.211   6.411   6.333
 4716SOL    HW215048   4.277   6.263   6.319
 4717SOL     OW15049   6.987   6.402   4.098
 4717SOL    HW115050   7.005   6.357   4.186
 4717SOL    HW215051   0.055   6.420   4.052
 4718SOL     OW15052   5.830   2.470   1.288
 4718SOL    HW115053   5.855   2.385   1.333
 4718SOL    HW215054   5.912   2.514   1.251
 4719SOL     OW15055   4.972   3.180   1.858
 4719SOL    HW115056   4.892   3.189   1.798
 4719SOL    HW215057   4.942   3.155   1.950
 4720SOL     OW15058   2.044   5.469   6.084
 4720SOL    HW115059   2.076   5.451   6.178
 4720SOL    HW215060   1.981   5.397   6.056
 4721SOL     OW15061   6.419   2.037   2.246
 4721SOL    HW115062   6.459   1.952   2.281
 4721SOL    HW215063   6.492   2.096   2.211
 4722SOL     OW15064   1.000   6.024   6.596
 4722SOL    HW115065   0.934   6.050   6.526
 4722SOL    HW215066   0.972   5.938   6.639
 4723SOL     OW15067   2.719   3.019   6.144
 4723SOL    HW115068   2.696   3.005   6.240
 4723SOL    HW215069   2.798   3.081   6.137
 4724SOL     OW15070   6.024   6.705   3.462
 4724SOL    HW115071   5.935   6.662   3.469
 4724SOL    HW215072   6.096   6.636   3.474
 4725SOL     OW15073   6.773   5.614   0.996
 4725SOL    HW115074   6.790   5.637   1.092
 4725SOL    HW215075   6.815   5.526   0.975
 4726SOL     OW15076   1.145   3.414   6.192
 4726SOL    HW115077   1.216   3.406   6.262
 4726SOL    HW215078   1.113   3.508   6.187
 4727SOL     OW15079   1.182   6.452   1.160
 4727SOL    HW115080   1.233   6.390   1.219
 4727SOL    HW215081   1.161   6.406   1.073
 4728SOL     OW15082   5.782   1.004   1.604
 4728SOL    HW115083   5.734   1.019   1.690
 4728SOL    HW215084   5.720   1.024   1.527
 4729SOL     OW15085   3.986   1.689   0.425
 4729SOL    HW115086   3.897   1.723   0.393
 4729SOL    HW215087   3.989   1.692   0.525
 4730SOL     OW15088   3.598   5.947   5.694
 4730SOL    HW115089   3.541   5.868   5.675
 4730SOL    HW215090   3.549   6.030   5.667
 4731SOL     OW15091   3.664   0.671   0.171
 4731SOL    HW115092   3.674   0.652   0.269
 4731SOL    HW215093   3.686   0.767   0.153
 4732SOL     OW15094   1.629   4.241   5.468
 4732SOL    HW115095   1.714   4.253   5.418
 4732SOL    HW215096   1.605   4.144   5.470
 4733SOL     OW15097   1.540   4.175   4.132
 4733SOL    HW115098   1.495   4.154   4.218
 4733SOL    HW215099   1.517   4.105   4.064
 4734SOL     OW15100   4.101   3.402   6.696
 4734SOL    HW115101   4.030   3.404   6.765
 4734SOL    HW215102   4.074   3.459   6.618
 4735SOL     OW15103   6.636   4.903   4.126
 4735SOL    HW115104   6.633   4.938   4.033
 4735SOL    HW215105   6.730   4.885   4.153
 4736SOL     OW15106   5.997   1.664   5.426
 4736SOL    HW115107   5.935   1.594   5.391
 4736SOL    HW215108   5.987   1.748   5.374
 4737SOL     OW15109   2.534   4.509   1.824
 4737SOL    HW115110   2.530   4.580   1.753
 4737SOL    HW215111   2.618   4.519   1.877
 4738SOL     OW15112   1.106   6.111   3.167
 4738SOL    HW115113   1.028   6.086   3.108
 4738SOL    HW215114   1.164   6.177   3.119
 4739SOL     OW15115   4.561   1.371   2.398
 4739SOL    HW115116   4.472   1.326   2.400
 4739SOL    HW215117   4.592   1.377   2.303
 4740SOL     OW15118   0.586   1.510   1.456
 4740SOL    HW115119   0.486   1.516   1.456
 4740SOL    HW215120   0.620   1.520   1.362
 4741SOL     OW15121   5.543   3.743   0.479
 4741SOL    HW115122   5.480   3.814   0.448
 4741SOL    HW215123   5.504   3.653   0.459
 4742SOL     OW15124   2.924   6.819   6.451
 4742SOL    HW115125   2.873   6.801   6.367
 4742SOL    HW215126   2.895   6.755   6.522
 4743SOL     OW15127   1.864   3.443   4.408
 4743SOL    HW115128   1.841   3.498   4.328
 4743SOL    HW215129   1.919   3.497   4.472
 4744SOL     OW15130   2.613   4.220   6.755
 4744SOL    HW115131   2.659   4.236   6.668
 4744SOL    HW215132   2.515   4.207   6.739
 4745SOL     OW15133   3.074   5.064   6.280
 4745SOL    HW115134   3.069   4.966   6.299
 4745SOL    HW215135   3.133   5.080   6.200
 4746SOL     OW15136   5.005   6.177   2.081
 4746SOL    HW115137   4.923   6.125   2.103
 4746SOL    HW215138   5.074   6.164   2.152
 4747SOL     OW15139   2.362   4.202   6.635
 4747SOL    HW115140   2.341   4.149   6.553
 4747SOL    HW215141   2.289   4.189   6.703
 4748SOL     OW15142   0.978   5.135   0.573
 4748SOL    HW115143   0.990   5.051   0.626
 4748SOL    HW215144   1.020   5.211   0.623
 4749SOL     OW15145   2.795   6.394   5.364
 4749SOL    HW115146   2.786   6.494   5.368
 4749SOL    HW215147   2.751   6.354   5.445
 4750SOL     OW15148   0.507   4.082   4.055
 4750SOL    HW115149   0.432   4.016   4.057
 4750SOL    HW215150   0.577   4.055   4.121
 4751SOL     OW15151   3.625   1.669   1.471
 4751SOL    HW115152   3.577   1.753   1.497
 4751SOL    HW215153   3.592   1.593   1.527
 4752SOL     OW15154   3.177   0.875   6.484
 4752SOL    HW115155   3.159   0.896   6.388
 4752SOL    HW215156   3.246   0.802   6.489
 4753SOL     OW15157   5.311   0.027   4.403
 4753SOL    HW115158   5.301   6.961   4.350
 4753SOL    HW215159   5.221   0.053   4.440
 4754SOL     OW15160   5.640   0.045   5.027
 4754SOL    HW115161   5.652   6.964   5.036
 4754SOL    HW215162   5.719   0.084   4.980
 4755SOL     OW15163   2.096   0.672   1.073
 4755SOL    HW115164   2.058   0.580   1.082
 4755SOL    HW215165   2.138   0.699   1.159
 4756SOL     OW15166   5.415   2.677   0.582
 4756SOL    HW115167   5.426   2.714   0.674
 4756SOL    HW215168   5.454   2.585   0.579
 4757SOL     OW15169   2.107   1.984   0.925
 4757SOL    HW115170   2.185   2.045   0.941
 4757SOL    HW215171   2.140   1.897   0.890
 4758SOL     OW15172   2.220   6.840   4.142
 4758SOL    HW115173   2.163   6.768   4.181
 4758SOL    HW215174   2.278   6.879   4.213
 4759SOL     OW15175   5.761   4.650   5.208
 4759SOL    HW115176   5.800   4.658   5.300
 4759SOL    HW215177   5.728   4.739   5.178
 4760SOL     OW15178   1.948   1.719   0.739
 4760SOL    HW115179   1.924   1.811   0.769
 4760SOL    HW215180   2.046   1.713   0.724
 4761SOL     OW15181   0.630   6.313   6.645
 4761SOL    HW115182   0.560   6.258   6.690
 4761SOL    HW215183   0.714   6.312   6.699
 4762SOL     OW15184   0.973   5.970   2.183
 4762SOL    HW115185   0.996   6.065   2.165
 4762SOL    HW215186   1.033   5.911   2.129
 4763SOL     OW15187   6.295   6.556   3.438
 4763SOL    HW115188   6.268   6.563   3.342
 4763SOL    HW215189   6.365   6.485   3.448
 4764SOL     OW15190   4.950   3.722   4.531
 4764SOL    HW115191   4.929   3.719   4.629
 4764SOL    HW215192   5.045   3.751   4.518
 4765SOL     OW15193   4.532   0.749   4.160
 4765SOL    HW115194   4.524   0.665   4.213
 4765SOL    HW215195   4.625   0.756   4.123
 4766SOL     OW15196   5.322   6.045   3.861
 4766SOL    HW115197   5.328   6.038   3.761
 4766SOL    HW215198   5.235   6.006   3.891
 4767SOL     OW15199   3.453   5.107   5.585
 4767SOL    HW115200   3.403   5.108   5.499
 4767SOL    HW215201   3.496   5.017   5.598
 4768SOL     OW15202   4.210   1.823   5.897
 4768SOL    HW115203   4.129   1.882   5.895
 4768SOL    HW215204   4.182   1.730   5.922
 4769SOL     OW15205   5.156   3.985   6.725
 4769SOL    HW115206   5.074   3.990   6.783
 4769SOL    HW215207   5.153   4.059   6.658
 4770SOL     OW15208   1.229   0.836   4.592
 4770SOL    HW115209   1.236   0.742   4.558
 4770SOL    HW215210   1.172   0.837   4.675
 4771SOL     OW15211   3.111   6.173   4.967
 4771SOL    HW115212   3.183   6.103   4.964
 4771SOL    HW215213   3.060   6.165   5.052
 4772SOL     OW15214   3.709   4.577   1.431
 4772SOL    HW115215   3.621   4.548   1.394
 4772SOL    HW215216   3.696   4.619   1.520
 4773SOL     OW15217   0.243   5.257   3.581
 4773SOL    HW115218   0.198   5.178   3.538
 4773SOL    HW215219   0.271   5.232   3.674
 4774SOL     OW15220   1.443   3.476   2.010
 4774SOL    HW115221   1.436   3.506   2.105
 4774SOL    HW215222   1.419   3.379   2.003
 4775SOL     OW15223   5.040   6.439   2.456
 4775SOL    HW115224   5.123   6.388   2.479
 4775SOL    HW215225   4.975   6.377   2.411
 4776SOL     OW15226   1.452   6.455   5.302
 4776SOL    HW115227   1.500   6.443   5.215
 4776SOL    HW215228   1.517   6.441   5.377
 4777SOL     OW15229   2.325   5.022   1.015
 4777SOL    HW115230   2.419   5.003   0.986
 4777SOL    HW215231   2.270   5.049   0.936
 4778SOL     OW15232   6.282   2.293   3.553
 4778SOL    HW115233   6.356   2.299   3.619
 4778SOL    HW215234   6.265   2.197   3.530
 4779SOL     OW15235   6.613   6.406   2.589
 4779SOL    HW115236   6.649   6.456   2.510
 4779SOL    HW215237   6.647   6.448   2.673
 4780SOL     OW15238   5.883   1.206   6.904
 4780SOL    HW115239   5.825   1.268   6.850
 4780SOL    HW215240   5.926   1.140   6.844
 4781SOL     OW15241   2.660   5.526   2.337
 4781SOL    HW115242   2.626   5.449   2.283
 4781SOL    HW215243   2.744   5.560   2.296
 4782SOL     OW15244   4.882   5.574   0.213
 4782SOL    HW115245   4.878   5.648   0.146
 4782SOL    HW215246   4.790   5.552   0.244
 4783SOL     OW15247   4.181   3.628   6.885
 4783SOL    HW115248   4.156   3.531   6.884
 4783SOL    HW215249   4.099   3.683   6.902
 4784SOL     OW15250   6.469   3.984   6.689
 4784SOL    HW115251   6.560   4.003   6.725
 4784SOL    HW215252   6.434   4.065   6.642
 4785SOL     OW15253   0.928   6.651   2.354
 4785SOL    HW115254   0.964   6.735   2.312
 4785SOL    HW215255   0.989   6.575   2.335
 4786SOL     OW15256   2.784   1.594   0.192
 4786SOL    HW115257   2.877   1.571   0.163
 4786SOL    HW215258   2.788   1.659   0.268
 4787SOL     OW15259   4.246   1.701   2.105
 4787SOL    HW115260   4.153   1.677   2.077
 4787SOL    HW215261   4.264   1.797   2.082
 4788SOL     OW15262   0.149   5.957   5.599
 4788SOL    HW115263   0.155   5.995   5.692
 4788SOL    HW215264   0.241   5.932   5.568
 4789SOL     OW15265   5.197   1.624   0.890
 4789SOL    HW115266   5.124   1.558   0.877
 4789SOL    HW215267   5.268   1.585   0.949
 4790SOL     OW15268   6.125   2.107   5.043
 4790SOL    HW115269   6.083   2.197   5.049
 4790SOL    HW215270   6.058   2.040   5.009
 4791SOL     OW15271   6.900   2.643   1.772
 4791SOL    HW115272   6.910   2.742   1.783
 4791SOL    HW215273   6.943   2.614   1.686
 4792SOL     OW15274   1.643   4.118   3.506
 4792SOL    HW115275   1.547   4.095   3.485
 4792SOL    HW215276   1.703   4.059   3.453
 4793SOL     OW15277   1.829   3.103   5.345
 4793SOL    HW115278   1.859   3.181   5.399
 4793SOL    HW215279   1.819   3.129   5.249
 4794SOL     OW15280   4.700   0.321   3.878
 4794SOL    HW115281   4.774   0.286   3.821
 4794SOL    HW215282   4.711   0.420   3.890
 4795SOL     OW15283   5.700   2.271   3.935
 4795SOL    HW115284   5.675   2.174   3.929
 4795SOL    HW215285   5.641   2.317   4.001
 4796SOL     OW15286   4.643   1.794   5.237
 4796SOL    HW115287   4.544   1.782   5.243
 4796SOL    HW215288   4.681   1.810   5.328
 4797SOL     OW15289   0.888   6.159   5.481
 4797SOL    HW115290   0.880   6.083   5.545
 4797SOL    HW215291   0.965   6.218   5.508
 4798SOL     OW15292   0.655   3.824   5.240
 4798SOL    HW115293   0.688   3.845   5.148
 4798SOL    HW215294   0.602   3.739   5.238
 4799SOL     OW15295   4.835   1.876   0.111
 4799SOL    HW115296   4.917   1.927   0.137
 4799SOL    HW215297   4.820   1.884   0.012
 4800SOL     OW15298   3.497   2.984   6.199
 4800SOL    HW115299   3.491   3.053   6.272
 4800SOL    HW215300   3.405   2.956   6.172
 4801SOL     OW15301   2.844   2.497   6.434
 4801SOL    HW115302   2.830   2.399   6.421
 4801SOL    HW215303   2.866   2.515   6.530
 4802SOL     OW15304   1.185   7.004   2.041
 4802SOL    HW115305   1.276   0.019   2.015
 4802SOL    HW215306   1.119   0.062   2.035
 4803SOL     OW15307   0.781   5.610   1.166
 4803SOL    HW115308   0.745   5.657   1.086
 4803SOL    HW215309   0.726   5.528   1.185
 4804SOL     OW15310   5.500   5.679   0.573
 4804SOL    HW115311   5.450   5.616   0.513
 4804SOL    HW215312   5.458   5.770   0.567
 4805SOL     OW15313   5.864   2.069   2.542
 4805SOL    HW115314   5.917   2.008   2.482
 4805SOL    HW215315   5.818   2.138   2.486
 4806SOL     OW15316   1.555   4.513   2.912
 4806SOL    HW115317   1.503   4.471   2.986
 4806SOL    HW215318   1.496   4.528   2.833
 4807SOL     OW15319   0.780   5.062   0.392
 4807SOL    HW115320   0.858   5.089   0.449
 4807SOL    HW215321   0.799   5.084   0.296
 4808SOL     OW15322   5.477   4.347   0.040
 4808SOL    HW115323   5.505   4.328   0.134
 4808SOL    HW215324   5.513   4.277   6.998
 4809SOL     OW15325   4.114   4.071   0.278
 4809SOL    HW115326   4.069   4.040   0.195
 4809SOL    HW215327   4.048   4.118   0.336
 4810SOL     OW15328   1.577   4.965   2.399
 4810SOL    HW115329   1.623   4.997   2.483
 4810SOL    HW215330   1.544   5.044   2.348
 4811SOL     OW15331   2.778   3.847   1.531
 4811SOL    HW115332   2.700   3.821   1.587
 4811SOL    HW215333   2.862   3.812   1.572
 4812SOL     OW15334   6.902   5.286   2.789
 4812SOL    HW115335   6.905   5.385   2.795
 4812SOL    HW215336   6.938   5.246   2.874
 4813SOL     OW15337   5.432   2.463   0.898
 4813SOL    HW115338   5.515   2.434   0.946
 4813SOL    HW215339   5.434   2.563   0.887
 4814SOL     OW15340   6.817   3.548   1.239
 4814SOL    HW115341   6.781   3.641   1.225
 4814SOL    HW215342   6.837   3.507   1.150
 4815SOL     OW15343   5.667   4.265   2.757
 4815SOL    HW115344   5.586   4.240   2.811
 4815SOL    HW215345   5.749   4.254   2.813
 4816SOL     OW15346   2.018   4.714   0.933
 4816SOL    HW115347   1.994   4.624   0.896
 4816SOL    HW215348   1.936   4.758   0.971
 4817SOL     OW15349   1.037   1.742   6.783
 4817SOL    HW115350   1.044   1.836   6.818
 4817SOL    HW215351   1.129   1.707   6.764
 4818SOL     OW15352   0.815   6.180   3.913
 4818SOL    HW115353   0.914   6.167   3.909
 4818SOL    HW215354   0.793   6.244   3.987
 4819SOL     OW15355   1.341   1.468   0.374
 4819SOL    HW115356   1.279   1.468   0.295
 4819SOL    HW215357   1.397   1.551   0.373
 4820SOL     OW15358   6.162   2.573   2.221
 4820SOL    HW115359   6.183   2.506   2.292
 4820SOL    HW215360   6.096   2.534   2.157
 4821SOL     OW15361   1.212   6.613   2.215
 4821SOL    HW115362   1.259   6.527   2.194
 4821SOL    HW215363   1.280   6.684   2.235
 4822SOL     OW15364   1.723   2.605   4.971
 4822SOL    HW115365   1.821   2.588   4.957
 4822SOL    HW215366   1.690   2.548   5.046
 4823SOL     OW15367   1.991   0.413   4.622
 4823SOL    HW115368   2.070   0.353   4.606
 4823SOL    HW215369   1.916   0.385   4.561
 4824SOL     OW15370   5.170   1.955   4.911
 4824SOL    HW115371   5.152   2.012   4.831
 4824SOL    HW215372   5.268   1.958   4.933
 4825SOL     OW15373   1.861   3.096   4.438
 4825SOL    HW115374   1.881   3.140   4.350
 4825SOL    HW215375   1.946   3.084   4.490
 4826SOL     OW15376   5.909   1.656   6.895
 4826SOL    HW115377   5.878   1.589   6.827
 4826SOL    HW215378   5.841   1.666   6.966
 4827SOL     OW15379   6.484   1.548   0.760
 4827SOL    HW115380   6.398   1.596   0.780
 4827SOL    HW215381   6.560   1.599   0.800
 4828SOL     OW15382   5.185   2.337   0.848
 4828SOL    HW115383   5.176   2.304   0.754
 4828SOL    HW215384   5.271   2.386   0.858
 4829SOL     OW15385   3.888   6.298   6.047
 4829SOL    HW115386   3.813   6.347   6.091
 4829SOL    HW215387   3.918   6.347   5.966
 4830SOL     OW15388   4.010   6.562   4.203
 4830SOL    HW115389   3.963   6.487   4.249
 4830SOL    HW215390   3.946   6.637   4.188
 4831SOL     OW15391   0.935   4.080   6.033
 4831SOL    HW115392   0.899   4.079   6.126
 4831SOL    HW215393   0.860   4.065   5.968
 4832SOL     OW15394   3.534   3.149   4.276
 4832SOL    HW115395   3.611   3.205   4.246
 4832SOL    HW215396   3.453   3.208   4.288
 4833SOL     OW15397   4.735   2.331   2.653
 4833SOL    HW115398   4.748   2.413   2.709
 4833SOL    HW215399   4.693   2.357   2.566
 4834SOL     OW15400   3.479   6.230   0.674
 4834SOL    HW115401   3.540   6.308   0.665
 4834SOL    HW215402   3.434   6.233   0.763
 4835SOL     OW15403   6.018   1.567   0.170
 4835SOL    HW115404   5.998   1.658   0.204
 4835SOL    HW215405   5.956   1.545   0.095
 4836SOL     OW15406   5.430   2.682   4.706
 4836SOL    HW115407   5.383   2.640   4.629
 4836SOL    HW215408   5.367   2.742   4.756
 4837SOL     OW15409   6.763   4.224   3.256
 4837SOL    HW115410   6.735   4.264   3.169
 4837SOL    HW215411   6.683   4.211   3.315
 4838SOL     OW15412   1.313   5.687   0.107
 4838SOL    HW115413   1.297   5.701   0.009
 4838SOL    HW215414   1.231   5.648   0.149
 4839SOL     OW15415   1.655   3.531   6.999
 4839SOL    HW115416   1.734   3.534   6.939
 4839SOL    HW215417   1.640   3.437   0.012
 4840SOL     OW15418   6.353   4.199   6.562
 4840SOL    HW115419   6.376   4.252   6.481
 4840SOL    HW215420   6.302   4.257   6.626
 4841SOL     OW15421   2.615   5.278   2.212
 4841SOL    HW115422   2.538   5.216   2.230
 4841SOL    HW215423   2.701   5.227   2.219
 4842SOL     OW15424   3.377   5.578   2.306
 4842SOL    HW115425   3.374   5.544   2.400
 4842SOL    HW215426   3.446   5.526   2.254
 4843SOL     OW15427   0.201   3.349   1.659
 4843SOL    HW115428   0.184   3.447   1.649
 4843SOL    HW215429   0.267   3.333   1.733
 4844SOL     OW15430   0.984   3.663   6.482
 4844SOL    HW115431   0.915   3.593   6.463
 4844SOL    HW215432   1.021   3.698   6.397
 4845SOL     OW15433   5.102   5.161   0.332
 4845SOL    HW115434   5.154   5.121   0.408
 4845SOL    HW215435   5.162   5.218   0.277
 4846SOL     OW15436   6.652   2.755   3.543
 4846SOL    HW115437   6.587   2.745   3.619
 4846SOL    HW215438   6.622   2.698   3.466
 4847SOL     OW15439   2.114   0.625   6.380
 4847SOL    HW115440   2.042   0.557   6.396
 4847SOL    HW215441   2.200   0.578   6.361
 4848SOL     OW15442   1.597   1.208   4.502
 4848SOL    HW115443   1.545   1.293   4.491
 4848SOL    HW215444   1.536   1.130   4.492
 4849SOL     OW15445   0.769   6.090   6.475
 4849SOL    HW115446   0.750   6.185   6.453
 4849SOL    HW215447   0.737   6.070   6.568
 4850SOL     OW15448   3.989   1.152   1.753
 4850SOL    HW115449   4.011   1.214   1.828
 4850SOL    HW215450   4.007   1.058   1.781
 4851SOL     OW15451   3.751   6.597   5.744
 4851SOL    HW115452   3.805   6.513   5.751
 4851SOL    HW215453   3.713   6.619   5.834
 4852SOL     OW15454   1.613   5.777   4.842
 4852SOL    HW115455   1.611   5.681   4.817
 4852SOL    HW215456   1.695   5.820   4.803
 4853SOL     OW15457   3.289   0.715   3.075
 4853SOL    HW115458   3.358   0.744   3.010
 4853SOL    HW215459   3.302   0.619   3.098
 4854SOL     OW15460   4.389   6.356   1.252
 4854SOL    HW115461   4.403   6.423   1.179
 4854SOL    HW215462   4.459   6.285   1.246
 4855SOL     OW15463   6.195   2.419   4.280
 4855SOL    HW115464   6.170   2.324   4.299
 4855SOL    HW215465   6.118   2.478   4.305
 4856SOL     OW15466   1.429   2.832   3.233
 4856SOL    HW115467   1.392   2.754   3.284
 4856SOL    HW215468   1.528   2.835   3.243
 4857SOL     OW15469   3.703   2.131   3.895
 4857SOL    HW115470   3.774   2.162   3.957
 4857SOL    HW215471   3.620   2.111   3.947
 4858SOL     OW15472   0.500   0.346   4.764
 4858SOL    HW115473   0.562   0.417   4.798
 4858SOL    HW215474   0.410   0.387   4.747
 4859SOL     OW15475   0.963   6.026   3.550
 4859SOL    HW115476   0.878   6.029   3.601
 4859SOL    HW215477   0.962   6.096   3.478
 4860SOL     OW15478   4.619   4.512   1.103
 4860SOL    HW115479   4.604   4.544   1.009
 4860SOL    HW215480   4.716   4.498   1.119
 4861SOL     OW15481   6.020   5.272   0.294
 4861SOL    HW115482   6.061   5.182   0.282
 4861SOL    HW215483   5.926   5.261   0.327
 4862SOL     OW15484   2.331   4.565   4.963
 4862SOL    HW115485   2.337   4.558   4.863
 4862SOL    HW215486   2.418   4.538   5.004
 4863SOL     OW15487   4.804   3.943   1.407
 4863SOL    HW115488   4.793   4.024   1.465
 4863SOL    HW215489   4.834   3.866   1.462
 4864SOL     OW15490   3.967   1.600   2.138
 4864SOL    HW115491   3.963   1.698   2.155
 4864SOL    HW215492   3.906   1.553   2.202
 4865SOL     OW15493   2.361   6.902   4.378
 4865SOL    HW115494   2.458   6.902   4.353
 4865SOL    HW215495   2.352   6.901   4.477
 4866SOL     OW15496   6.452   4.300   1.130
 4866SOL    HW115497   6.418   4.235   1.062
 4866SOL    HW215498   6.374   4.344   1.175
 4867SOL     OW15499   4.967   5.356   2.322
 4867SOL    HW115500   5.021   5.295   2.263
 4867SOL    HW215501   4.966   5.319   2.415
 4868SOL     OW15502   6.928   5.064   2.616
 4868SOL    HW115503   7.010   5.045   2.669
 4868SOL    HW215504   6.878   5.140   2.657
 4869SOL     OW15505   0.205   1.289   1.572
 4869SOL    HW115506   0.249   1.360   1.516
 4869SOL    HW215507   0.268   1.257   1.642
 4870SOL     OW15508   6.948   6.098   1.889
 4870SOL    HW115509   6.910   6.064   1.974
 4870SOL    HW215510   6.896   6.179   1.859
 4871SOL     OW15511   0.869   1.518   4.989
 4871SOL    HW115512   0.917   1.502   4.903
 4871SOL    HW215513   0.781   1.470   4.987
 4872SOL     OW15514   6.763   5.408   4.352
 4872SOL    HW115515   6.668   5.435   4.342
 4872SOL    HW215516   6.778   5.371   4.445
 4873SOL     OW15517   6.866   4.617   3.666
 4873SOL    HW115518   6.965   4.613   3.676
 4873SOL    HW215519   6.824   4.634   3.756
 4874SOL     OW15520   6.003   3.135   3.390
 4874SOL    HW115521   5.943   3.215   3.399
 4874SOL    HW215522   5.955   3.063   3.339
 4875SOL     OW15523   5.884   3.395   1.825
 4875SOL    HW115524   5.872   3.351   1.914
 4875SOL    HW215525   5.801   3.383   1.770
 4876SOL     OW15526   5.421   1.516   4.159
 4876SOL    HW115527   5.401   1.571   4.078
 4876SOL    HW215528   5.347   1.527   4.225
 4877SOL     OW15529   0.530   1.764   0.580
 4877SOL    HW115530   0.570   1.829   0.516
 4877SOL    HW215531   0.441   1.734   0.547
 4878SOL     OW15532   5.978   0.719   3.079
 4878SOL    HW115533   5.899   0.687   3.027
 4878SOL    HW215534   6.050   0.649   3.078
 4879SOL     OW15535   4.197   5.408   3.097
 4879SOL    HW115536   4.138   5.349   3.152
 4879SOL    HW215537   4.156   5.421   3.006
 4880SOL     OW15538   6.399   2.839   6.902
 4880SOL    HW115539   6.399   2.745   6.936
 4880SOL    HW215540   6.307   2.864   6.873
 4881SOL     OW15541   1.950   0.415   6.434
 4881SOL    HW115542   1.879   0.366   6.384
 4881SOL    HW215543   1.957   0.379   6.527
 4882SOL     OW15544   5.210   1.578   4.309
 4882SOL    HW115545   5.121   1.543   4.336
 4882SOL    HW215546   5.257   1.616   4.388
 4883SOL     OW15547   5.280   4.811   2.292
 4883SOL    HW115548   5.228   4.856   2.364
 4883SOL    HW215549   5.318   4.880   2.230
 4884SOL     OW15550   3.845   0.508   1.300
 4884SOL    HW115551   3.757   0.509   1.349
 4884SOL    HW215552   3.908   0.571   1.344
 4885SOL     OW15553   1.685   5.558   2.445
 4885SOL    HW115554   1.641   5.639   2.484
 4885SOL    HW215555   1.771   5.585   2.402
 4886SOL     OW15556   0.222   6.147   1.269
 4886SOL    HW115557   0.179   6.183   1.185
 4886SOL    HW215558   0.168   6.071   1.303
 4887SOL     OW15559   0.652   0.337   2.881
 4887SOL    HW115560   0.581   0.366   2.946
 4887SOL    HW215561   0.616   0.268   2.820
 4888SOL     OW15562   2.136   6.524   4.707
 4888SOL    HW115563   2.211   6.590   4.709
 4888SOL    HW215564   2.152   6.459   4.632
 4889SOL     OW15565   6.239   0.960   6.752
 4889SOL    HW115566   6.194   0.963   6.841
 4889SOL    HW215567   6.302   1.037   6.744
 4890SOL     OW15568   0.922   1.982   5.984
 4890SOL    HW115569   1.020   1.979   6.002
 4890SOL    HW215570   0.901   1.925   5.905
 4891SOL     OW15571   1.747   5.264   0.504
 4891SOL    HW115572   1.825   5.277   0.443
 4891SOL    HW215573   1.693   5.186   0.473
 4892SOL     OW15574   3.481   5.877   1.822
 4892SOL    HW115575   3.479   5.943   1.897
 4892SOL    HW215576   3.438   5.792   1.851
 4893SOL     OW15577   0.133   4.451   1.519
 4893SOL    HW115578   0.153   4.545   1.546
 4893SOL    HW215579   0.187   4.387   1.575
 4894SOL     OW15580   2.407   2.037   2.457
 4894SOL    HW115581   2.432   2.080   2.544
 4894SOL    HW215582   2.313   2.062   2.434
 4895SOL     OW15583   0.857   5.569   2.762
 4895SOL    HW115584   0.807   5.506   2.702
 4895SOL    HW215585   0.946   5.531   2.784
 4896SOL     OW15586   2.091   5.432   1.675
 4896SOL    HW115587   2.117   5.347   1.630
 4896SOL    HW215588   2.174   5.479   1.707
 4897SOL     OW15589   2.502   4.618   5.895
 4897SOL    HW115590   2.557   4.536   5.911
 4897SOL    HW215591   2.546   4.697   5.937
 4898SOL     OW15592   3.925   1.836   4.022
 4898SOL    HW115593   3.915   1.918   4.078
 4898SOL    HW215594   4.019   1.803   4.028
 4899SOL     OW15595   6.316   5.758   3.467
 4899SOL    HW115596   6.316   5.785   3.563
 4899SOL    HW215597   6.376   5.820   3.416
 4900SOL     OW15598   2.094   5.484   4.842
 4900SOL    HW115599   2.089   5.387   4.867
 4900SOL    HW215600   2.153   5.495   4.762
 4901SOL     OW15601   3.139   6.723   5.641
 4901SOL    HW115602   3.107   6.761   5.728
 4901SOL    HW215603   3.214   6.659   5.658
 4902SOL     OW15604   2.410   2.076   4.337
 4902SOL    HW115605   2.501   2.101   4.304
 4902SOL    HW215606   2.418   2.013   4.414
 4903SOL     OW15607   3.099   6.005   0.082
 4903SOL    HW115608   3.013   5.994   0.032
 4903SOL    HW215609   3.104   5.937   0.154
 4904SOL     OW15610   1.094   0.608   4.376
 4904SOL    HW115611   1.188   0.596   4.410
 4904SOL    HW215612   1.097   0.654   4.288
 4905SOL     OW15613   4.267   1.402   2.129
 4905SOL    HW115614   4.291   1.499   2.134
 4905SOL    HW215615   4.246   1.368   2.221
 4906SOL     OW15616   4.299   2.186   6.539
 4906SOL    HW115617   4.217   2.200   6.482
 4906SOL    HW215618   4.354   2.112   6.500
 4907SOL     OW15619   4.551   5.596   0.912
 4907SOL    HW115620   4.601   5.658   0.852
 4907SOL    HW215621   4.519   5.645   0.992
 4908SOL     OW15622   5.098   5.067   6.062
 4908SOL    HW115623   5.160   5.141   6.085
 4908SOL    HW215624   5.123   4.985   6.114
 4909SOL     OW15625   6.440   6.912   4.871
 4909SOL    HW115626   6.381   6.909   4.791
 4909SOL    HW215627   6.491   6.826   4.878
 4910SOL     OW15628   5.344   6.447   4.382
 4910SOL    HW115629   5.403   6.526   4.368
 4910SOL    HW215630   5.263   6.475   4.434
 4911SOL     OW15631   0.570   3.474   4.886
 4911SOL    HW115632   0.588   3.503   4.980
 4911SOL    HW215633   0.552   3.376   4.884
 4912SOL     OW15634   5.470   2.407   0.614
 4912SOL    HW115635   5.480   2.373   0.708
 4912SOL    HW215636   5.408   2.347   0.563
 4913SOL     OW15637   3.634   3.794   4.175
 4913SOL    HW115638   3.638   3.700   4.206
 4913SOL    HW215639   3.701   3.849   4.226
 4914SOL     OW15640   3.398   6.774   5.462
 4914SOL    HW115641   3.380   6.726   5.548
 4914SOL    HW215642   3.495   6.766   5.441
 4915SOL     OW15643   4.261   0.687   4.388
 4915SOL    HW115644   4.200   0.754   4.347
 4915SOL    HW215645   4.212   0.635   4.458
 4916SOL     OW15646   1.834   1.451   4.107
 4916SOL    HW115647   1.805   1.368   4.156
 4916SOL    HW215648   1.921   1.433   4.061
 4917SOL     OW15649   1.995   5.121   0.913
 4917SOL    HW115650   2.049   5.121   0.829
 4917SOL    HW215651   1.941   5.205   0.918
 4918SOL     OW15652   3.751   6.578   2.385
 4918SOL    HW115653   3.751   6.479   2.395
 4918SOL    HW215654   3.794   6.619   2.466
 4919SOL     OW15655   2.313   2.265   6.884
 4919SOL    HW115656   2.250   2.275   6.807
 4919SOL    HW215657   2.262   2.270   6.969
 4920SOL     OW15658   5.029   0.623   5.572
 4920SOL    HW115659   4.977   0.538   5.578
 4920SOL    HW215660   4.992   0.680   5.498
 4921SOL     OW15661   2.054   4.279   0.666
 4921SOL    HW115662   2.009   4.258   0.579
 4921SOL    HW215663   2.138   4.226   0.674
 4922SOL     OW15664   1.789   2.920   4.901
 4922SOL    HW115665   1.871   2.923   4.843
 4922SOL    HW215666   1.787   2.833   4.951
 4923SOL     OW15667   3.604   1.463   0.449
 4923SOL    HW115668   3.575   1.518   0.528
 4923SOL    HW215669   3.572   1.505   0.365
 4924SOL     OW15670   2.092   1.787   5.398
 4924SOL    HW115671   2.131   1.877   5.417
 4924SOL    HW215672   1.998   1.797   5.366
 4925SOL     OW15673   5.557   6.902   2.032
 4925SOL    HW115674   5.559   6.909   2.132
 4925SOL    HW215675   5.473   6.946   1.997
 4926SOL     OW15676   5.112   2.354   0.356
 4926SOL    HW115677   5.123   2.341   0.258
 4926SOL    HW215678   5.066   2.442   0.373
 4927SOL     OW15679   4.129   3.363   4.074
 4927SOL    HW115680   4.215   3.313   4.065
 4927SOL    HW215681   4.057   3.301   4.106
 4928SOL     OW15682   0.446   0.121   6.450
 4928SOL    HW115683   0.400   0.129   6.362
 4928SOL    HW215684   0.515   0.193   6.460
 4929SOL     OW15685   1.427   4.777   4.820
 4929SOL    HW115686   1.432   4.691   4.871
 4929SOL    HW215687   1.456   4.762   4.726
 4930SOL     OW15688   4.531   0.975   2.268
 4930SOL    HW115689   4.630   0.968   2.283
 4930SOL    HW215690   4.513   1.038   2.192
 4931SOL     OW15691   6.400   0.159   1.207
 4931SOL    HW115692   6.488   0.176   1.249
 4931SOL    HW215693   6.412   0.103   1.125
 4932SOL     OW15694   2.210   3.251   1.733
 4932SOL    HW115695   2.120   3.296   1.727
 4932SOL    HW215696   2.268   3.300   1.798
 4933SOL     OW15697   1.913   0.206   3.263
 4933SOL    HW115698   1.819   0.239   3.270
 4933SOL    HW215699   1.972   0.281   3.232
 4934SOL     OW15700   2.044   4.814   2.742
 4934SOL    HW115701   1.962   4.767   2.710
 4934SOL    HW215702   2.046   4.813   2.842
 4935SOL     OW15703   1.184   1.407   6.574
 4935SOL    HW115704   1.095   1.446   6.601
 4935SOL    HW215705   1.217   1.347   6.647
 4936SOL     OW15706   1.560   4.868   0.924
 4936SOL    HW115707   1.648   4.887   0.881
 4936SOL    HW215708   1.573   4.851   1.022
 4937SOL     OW15709   6.899   2.665   6.028
 4937SOL    HW115710   6.980   2.614   5.996
 4937SOL    HW215711   6.899   2.669   6.128
 4938SOL     OW15712   2.532   5.752   6.532
 4938SOL    HW115713   2.480   5.670   6.556
 4938SOL    HW215714   2.619   5.725   6.491
 4939SOL     OW15715   0.384   1.483   3.993
 4939SOL    HW115716   0.467   1.480   3.936
 4939SOL    HW215717   0.410   1.492   4.089
 4940SOL     OW15718   0.655   1.756   5.253
 4940SOL    HW115719   0.615   1.714   5.335
 4940SOL    HW215720   0.741   1.711   5.231
 4941SOL     OW15721   4.717   2.886   5.367
 4941SOL    HW115722   4.654   2.963   5.371
 4941SOL    HW215723   4.731   2.849   5.459
 4942SOL     OW15724   5.545   2.518   5.801
 4942SOL    HW115725   5.490   2.447   5.845
 4942SOL    HW215726   5.568   2.489   5.708
 4943SOL     OW15727   4.974   4.363   6.359
 4943SOL    HW115728   4.883   4.325   6.338
 4943SOL    HW215729   5.037   4.339   6.286
 4944SOL     OW15730   2.517   4.259   1.703
 4944SOL    HW115731   2.538   4.353   1.729
 4944SOL    HW215732   2.583   4.228   1.634
 4945SOL     OW15733   1.313   0.037   4.155
 4945SOL    HW115734   1.223   0.079   4.165
 4945SOL    HW215735   1.362   0.080   4.079
 4946SOL     OW15736   0.838   5.311   6.975
 4946SOL    HW115737   0.757   5.298   6.917
 4946SOL    HW215738   0.920   5.316   6.917
 4947SOL     OW15739   2.348   0.476   0.492
 4947SOL    HW115740   2.405   0.558   0.497
 4947SOL    HW215741   2.391   0.409   0.432
 4948SOL     OW15742   2.125   3.149   2.891
 4948SOL    HW115743   2.142   3.196   2.805
 4948SOL    HW215744   2.028   3.129   2.900
 4949SOL     OW15745   5.963   4.873   5.886
 4949SOL    HW115746   6.015   4.796   5.849
 4949SOL    HW215747   5.982   4.955   5.832
 4950SOL     OW15748   2.130   4.658   4.582
 4950SOL    HW115749   2.182   4.724   4.528
 4950SOL    HW215750   2.109   4.697   4.671
 4951SOL     OW15751   5.733   1.108   4.397
 4951SOL    HW115752   5.653   1.129   4.341
 4951SOL    HW215753   5.729   1.161   4.482
 4952SOL     OW15754   6.905   6.996   6.377
 4952SOL    HW115755   6.858   6.941   6.447
 4952SOL    HW215756   6.864   0.069   6.373
 4953SOL     OW15757   1.856   6.945   3.287
 4953SOL    HW115758   1.867   0.026   3.284
 4953SOL    HW215759   1.777   6.918   3.232
 4954SOL     OW15760   2.839   3.383   0.480
 4954SOL    HW115761   2.899   3.376   0.400
 4954SOL    HW215762   2.865   3.464   0.533
 4955SOL     OW15763   3.293   6.469   0.260
 4955SOL    HW115764   3.311   6.417   0.344
 4955SOL    HW215765   3.354   6.547   0.256
 4956SOL     OW15766   2.718   0.368   5.363
 4956SOL    HW115767   2.637   0.310   5.354
 4956SOL    HW215768   2.718   0.412   5.453
 4957SOL     OW15769   5.690   2.845   1.883
 4957SOL    HW115770   5.764   2.785   1.914
 4957SOL    HW215771   5.629   2.793   1.823
 4958SOL     OW15772   0.421   5.512   5.456
 4958SOL    HW115773   0.329   5.493   5.489
 4958SOL    HW215774   0.420   5.519   5.356
 4959SOL     OW15775   6.171   1.941   0.993
 4959SOL    HW115776   6.220   1.996   1.061
 4959SOL    HW215777   6.083   1.983   0.972
 4960SOL     OW15778   3.831   4.859   3.528
 4960SOL    HW115779   3.786   4.918   3.461
 4960SOL    HW215780   3.905   4.808   3.485
 4961SOL     OW15781   4.067   0.886   5.563
 4961SOL    HW115782   4.133   0.940   5.511
 4961SOL    HW215783   4.017   0.825   5.501
 4962SOL     OW15784   5.413   2.635   6.985
 4962SOL    HW115785   5.508   2.656   7.010
 4962SOL    HW215786   5.378   2.563   0.027
 4963SOL     OW15787   0.313   6.159   0.806
 4963SOL    HW115788   0.239   6.223   0.785
 4963SOL    HW215789   0.286   6.066   0.780
 4964SOL     OW15790   2.837   0.505   4.446
 4964SOL    HW115791   2.817   0.437   4.516
 4964SOL    HW215792   2.934   0.530   4.450
 4965SOL     OW15793   0.311   0.729   2.228
 4965SOL    HW115794   0.397   0.690   2.195
 4965SOL    HW215795   0.324   0.826   2.250
 4966SOL     OW15796   2.476   6.550   5.004
 4966SOL    HW115797   2.434   6.467   4.967
 4966SOL    HW215798   2.448   6.563   5.099
 4967SOL     OW15799   3.705   5.039   4.872
 4967SOL    HW115800   3.747   4.973   4.935
 4967SOL    HW215801   3.668   5.115   4.925
 4968SOL     OW15802   0.249   1.546   3.602
 4968SOL    HW115803   0.266   1.628   3.547
 4968SOL    HW215804   0.206   1.572   3.688
 4969SOL     OW15805   2.149   5.529   3.194
 4969SOL    HW115806   2.227   5.498   3.248
 4969SOL    HW215807   2.064   5.496   3.235
 4970SOL     OW15808   2.497   2.454   2.274
 4970SOL    HW115809   2.570   2.426   2.335
 4970SOL    HW215810   2.409   2.450   2.323
 4971SOL     OW15811   5.560   5.751   3.329
 4971SOL    HW115812   5.491   5.703   3.383
 4971SOL    HW215813   5.625   5.796   3.391
 4972SOL     OW15814   1.092   3.591   0.863
 4972SOL    HW115815   1.006   3.628   0.828
 4972SOL    HW215816   1.099   3.494   0.841
 4973SOL     OW15817   1.499   0.377   2.116
 4973SOL    HW115818   1.404   0.395   2.140
 4973SOL    HW215819   1.547   0.340   2.196
 4974SOL     OW15820   6.681   4.444   1.229
 4974SOL    HW115821   6.701   4.419   1.324
 4974SOL    HW215822   6.598   4.397   1.199
 4975SOL     OW15823   6.358   4.131   6.003
 4975SOL    HW115824   6.318   4.040   6.005
 4975SOL    HW215825   6.349   4.169   5.911
 4976SOL     OW15826   2.497   1.312   3.649
 4976SOL    HW115827   2.485   1.305   3.550
 4976SOL    HW215828   2.520   1.406   3.673
 4977SOL     OW15829   4.117   4.052   6.646
 4977SOL    HW115830   4.200   4.092   6.609
 4977SOL    HW215831   4.128   3.952   6.652
 4978SOL     OW15832   6.644   4.359   5.484
 4978SOL    HW115833   6.619   4.427   5.553
 4978SOL    HW215834   6.743   4.350   5.480
 4979SOL     OW15835   6.935   6.700   6.369
 4979SOL    HW115836   6.844   6.684   6.409
 4979SOL    HW215837   6.925   6.746   6.281
 4980SOL     OW15838   5.164   6.298   3.208
 4980SOL    HW115839   5.143   6.284   3.111
 4980SOL    HW215840   5.244   6.357   3.216
 4981SOL     OW15841   4.267   4.873   0.458
 4981SOL    HW115842   4.212   4.947   0.419
 4981SOL    HW215843   4.362   4.885   0.431
 4982SOL     OW15844   3.178   1.108   5.234
 4982SOL    HW115845   3.258   1.167   5.243
 4982SOL    HW215846   3.095   1.163   5.245
 4983SOL     OW15847   5.933   3.917   5.664
 4983SOL    HW115848   6.015   3.883   5.617
 4983SOL    HW215849   5.960   3.976   5.740
 4984SOL     OW15850   5.269   4.338   3.065
 4984SOL    HW115851   5.298   4.431   3.085
 4984SOL    HW215852   5.274   4.282   3.147
 4985SOL     OW15853   5.463   0.055   3.655
 4985SOL    HW115854   5.495   0.105   3.574
 4985SOL    HW215855   5.477   6.975   3.641
 4986SOL     OW15856   0.140   4.530   1.262
 4986SOL    HW115857   0.098   4.453   1.215
 4986SOL    HW215858   0.162   4.505   1.356
 4987SOL     OW15859   1.271   0.431   2.255
 4987SOL    HW115860   1.199   0.413   2.323
 4987SOL    HW215861   1.330   0.504   2.288
 4988SOL     OW15862   5.536   0.907   2.244
 4988SOL    HW115863   5.523   0.810   2.263
 4988SOL    HW215864   5.448   0.953   2.245
 4989SOL     OW15865   5.119   6.930   1.585
 4989SOL    HW115866   5.193   6.866   1.605
 4989SOL    HW215867   5.121   6.954   1.488
 4990SOL     OW15868   2.637   2.193   5.590
 4990SOL    HW115869   2.602   2.165   5.679
 4990SOL    HW215870   2.585   2.272   5.558
 4991SOL     OW15871   6.155   5.382   3.621
 4991SOL    HW115872   6.111   5.380   3.532
 4991SOL    HW215873   6.226   5.312   3.625
 4992SOL     OW15874   4.649   0.803   2.782
 4992SOL    HW115875   4.601   0.737   2.839
 4992SOL    HW215876   4.738   0.765   2.756
 4993SOL     OW15877   3.418   6.104   4.428
 4993SOL    HW115878   3.356   6.026   4.429
 4993SOL    HW215879   3.451   6.123   4.520
 4994SOL     OW15880   1.720   0.694   3.742
 4994SOL    HW115881   1.791   0.727   3.680
 4994SOL    HW215882   1.664   0.771   3.773
 4995SOL     OW15883   0.391   2.743   5.399
 4995SOL    HW115884   0.300   2.739   5.358
 4995SOL    HW215885   0.411   2.656   5.444
 4996SOL     OW15886   0.801   1.318   2.842
 4996SOL    HW115887   0.708   1.336   2.874
 4996SOL    HW215888   0.802   1.314   2.742
 4997SOL     OW15889   4.978   2.597   2.663
 4997SOL    HW115890   5.064   2.594   2.613
 4997SOL    HW215891   4.903   2.617   2.600
 4998SOL     OW15892   2.295   4.250   4.797
 4998SOL    HW115893   2.306   4.158   4.836
 4998SOL    HW215894   2.245   4.308   4.861
 4999SOL     OW15895   6.344   4.068   0.317
 4999SOL    HW115896   6.413   4.118   0.265
 4999SOL    HW215897   6.267   4.046   0.257
 5000SOL     OW15898   3.570   6.617   3.371
 5000SOL    HW115899   3.493   6.649   3.315
 5000SOL    HW215900   3.535   6.580   3.458
 5001SOL     OW15901   6.914   4.204   1.736
 5001SOL    HW115902   6.895   4.236   1.643
 5001SOL    HW215903   6.982   4.131   1.733
 5002SOL     OW15904   0.389   3.215   2.617
 5002SOL    HW115905   0.409   3.307   2.652
 5002SOL    HW215906   0.409   3.213   2.519
 5003SOL     OW15907   2.922   5.739   2.569
 5003SOL    HW115908   3.018   5.762   2.588
 5003SOL    HW215909   2.912   5.640   2.563
 5004SOL     OW15910   2.739   5.327   5.720
 5004SOL    HW115911   2.701   5.268   5.649
 5004SOL    HW215912   2.793   5.272   5.783
 5005SOL     OW15913   2.948   2.801   0.571
 5005SOL    HW115914   2.923   2.769   0.663
 5005SOL    HW215915   3.043   2.832   0.572
 5006SOL     OW15916   4.741   0.546   0.676
 5006SOL    HW115917   4.785   0.619   0.624
 5006SOL    HW215918   4.805   0.471   0.690
 5007SOL     OW15919   0.811   6.777   0.441
 5007SOL    HW115920   0.848   6.843   0.507
 5007SOL    HW215921   0.755   6.826   0.374
 5008SOL     OW15922   5.732   6.710   1.994
 5008SOL    HW115923   5.673   6.790   1.980
 5008SOL    HW215924   5.707   6.639   1.928
 5009SOL     OW15925   0.796   0.604   0.899
 5009SOL    HW115926   0.889   0.569   0.884
 5009SOL    HW215927   0.755   0.627   0.811
 5010SOL     OW15928   4.155   3.428   2.549
 5010SOL    HW115929   4.073   3.394   2.595
 5010SOL    HW215930   4.225   3.448   2.617
 5011SOL     OW15931   2.031   4.184   2.061
 5011SOL    HW115932   2.018   4.149   1.968
 5011SOL    HW215933   2.065   4.110   2.120
 5012SOL     OW15934   6.142   3.937   6.261
 5012SOL    HW115935   6.165   3.901   6.351
 5012SOL    HW215936   6.130   4.036   6.267
 5013SOL     OW15937   4.722   1.002   0.175
 5013SOL    HW115938   4.646   1.066   0.164
 5013SOL    HW215939   4.699   0.934   0.244
 5014SOL     OW15940   6.876   4.561   0.585
 5014SOL    HW115941   6.919   4.521   0.504
 5014SOL    HW215942   6.805   4.500   0.618
 5015SOL     OW15943   4.425   2.096   4.730
 5015SOL    HW115944   4.382   2.033   4.794
 5015SOL    HW215945   4.499   2.145   4.775
 5016SOL     OW15946   1.529   2.718   0.314
 5016SOL    HW115947   1.552   2.815   0.302
 5016SOL    HW215948   1.550   2.691   0.408
 5017SOL     OW15949   1.783   2.878   0.575
 5017SOL    HW115950   1.766   2.948   0.644
 5017SOL    HW215951   1.823   2.921   0.494
 5018SOL     OW15952   0.350   4.004   2.675
 5018SOL    HW115953   0.291   4.021   2.596
 5018SOL    HW215954   0.442   3.980   2.644
 5019SOL     OW15955   1.127   4.550   6.145
 5019SOL    HW115956   1.198   4.486   6.116
 5019SOL    HW215957   1.058   4.557   6.073
 5020SOL     OW15958   5.385   0.631   6.302
 5020SOL    HW115959   5.424   0.583   6.381
 5020SOL    HW215960   5.450   0.701   6.271
 5021SOL     OW15961   0.869   0.858   6.741
 5021SOL    HW115962   0.771   0.838   6.748
 5021SOL    HW215963   0.918   0.813   6.816
 5022SOL     OW15964   0.943   1.508   6.671
 5022SOL    HW115965   0.921   1.464   6.758
 5022SOL    HW215966   0.962   1.605   6.686
 5023SOL     OW15967   6.730   2.965   1.343
 5023SOL    HW115968   6.731   2.942   1.440
 5023SOL    HW215969   6.813   2.929   1.300
 5024SOL     OW15970   6.391   5.103   1.654
 5024SOL    HW115971   6.311   5.069   1.606
 5024SOL    HW215972   6.387   5.075   1.750
 5025SOL     OW15973   3.217   1.748   2.284
 5025SOL    HW115974   3.167   1.748   2.371
 5025SOL    HW215975   3.240   1.654   2.259
 5026SOL     OW15976   6.248   6.100   5.949
 5026SOL    HW115977   6.337   6.075   5.910
 5026SOL    HW215978   6.244   6.200   5.960
 5027SOL     OW15979   6.978   6.506   2.104
 5027SOL    HW115980   7.014   6.586   2.057
 5027SOL    HW215981   0.022   6.429   2.091
 5028SOL     OW15982   0.243   1.961   2.383
 5028SOL    HW115983   0.220   2.059   2.376
 5028SOL    HW215984   0.335   1.951   2.421
 5029SOL     OW15985   6.596   2.605   2.320
 5029SOL    HW115986   6.655   2.638   2.246
 5029SOL    HW215987   6.613   2.508   2.336
 5030SOL     OW15988   6.548   6.736   0.655
 5030SOL    HW115989   6.637   6.691   0.660
 5030SOL    HW215990   6.491   6.706   0.732
 5031SOL     OW15991   5.624   6.860   5.527
 5031SOL    HW115992   5.572   6.875   5.442
 5031SOL    HW215993   5.589   6.779   5.574
 5032SOL     OW15994   1.944   2.033   0.683
 5032SOL    HW115995   1.898   2.070   0.764
 5032SOL    HW215996   2.037   2.069   0.678
 5033SOL     OW15997   2.374   0.041   5.426
 5033SOL    HW115998   2.285   0.086   5.413
 5033SOL    HW215999   2.395   7.004   5.345
 5034SOL     OW16000   5.583   0.447   3.282
 5034SOL    HW116001   5.682   0.455   3.295
 5034SOL    HW216002   5.536   0.518   3.335
 5035SOL     OW16003   1.122   4.087   0.364
 5035SOL    HW116004   1.181   4.145   0.420
 5035SOL    HW216005   1.154   4.089   0.269
 5036SOL     OW16006   0.895   4.800   6.891
 5036SOL    HW116007   0.978   4.791   6.946
 5036SOL    HW216008   0.865   4.710   6.860
 5037SOL     OW16009   4.920   3.938   2.203
 5037SOL    HW116010   5.020   3.944   2.207
 5037SOL    HW216011   4.882   3.963   2.292
 5038SOL     OW16012   3.009   3.887   5.949
 5038SOL    HW116013   2.929   3.946   5.935
 5038SOL    HW216014   3.060   3.919   6.029
 5039SOL     OW16015   3.225   4.818   5.480
 5039SOL    HW116016   3.219   4.722   5.451
 5039SOL    HW216017   3.314   4.834   5.522
 5040SOL     OW16018   1.513   6.055   5.826
 5040SOL    HW116019   1.523   6.154   5.813
 5040SOL    HW216020   1.569   6.007   5.759
 5041SOL     OW16021   1.840   1.523   2.520
 5041SOL    HW116022   1.753   1.485   2.489
 5041SOL    HW216023   1.909   1.511   2.448
 5042SOL     OW16024   6.788   2.786   0.227
 5042SOL    HW116025   6.763   2.765   0.133
 5042SOL    HW216026   6.886   2.769   0.239
 5043SOL     OW16027   3.703   0.257   5.965
 5043SOL    HW116028   3.754   0.316   6.026
 5043SOL    HW216029   3.605   0.267   5.982
 5044SOL     OW16030   0.739   6.583   0.046
 5044SOL    HW116031   0.685   6.663   0.023
 5044SOL    HW216032   0.800   6.560   6.987
 5045SOL     OW16033   5.093   1.183   6.709
 5045SOL    HW116034   5.167   1.130   6.667
 5045SOL    HW216035   5.132   1.267   6.748
 5046SOL     OW16036   3.306   4.085   2.928
 5046SOL    HW116037   3.402   4.098   2.952
 5046SOL    HW216038   3.250   4.086   3.011
 5047SOL     OW16039   0.344   3.863   2.274
 5047SOL    HW116040   0.248   3.837   2.263
 5047SOL    HW216041   0.350   3.946   2.329
 5048SOL     OW16042   0.534   1.607   1.922
 5048SOL    HW116043   0.537   1.692   1.976
 5048SOL    HW216044   0.439   1.578   1.911
 5049SOL     OW16045   5.733   1.989   6.074
 5049SOL    HW116046   5.687   2.045   6.006
 5049SOL    HW216047   5.774   2.049   6.144
 5050SOL     OW16048   1.461   1.190   1.373
 5050SOL    HW116049   1.417   1.222   1.457
 5050SOL    HW216050   1.552   1.155   1.395
 5051SOL     OW16051   4.909   4.745   0.866
 5051SOL    HW116052   4.888   4.787   0.954
 5051SOL    HW216053   4.840   4.772   0.799
 5052SOL     OW16054   2.367   0.561   6.223
 5052SOL    HW116055   2.369   0.471   6.180
 5052SOL    HW216056   2.433   0.564   6.297
 5053SOL     OW16057   2.185   4.122   2.944
 5053SOL    HW116058   2.236   4.180   3.008
 5053SOL    HW216059   2.187   4.027   2.976
 5054SOL     OW16060   3.492   6.131   5.000
 5054SOL    HW116061   3.545   6.169   5.076
 5054SOL    HW216062   3.412   6.083   5.035
 5055SOL     OW16063   1.745   1.402   5.564
 5055SOL    HW116064   1.741   1.493   5.522
 5055SOL    HW216065   1.832   1.392   5.613
 5056SOL     OW16066   6.510   4.546   0.059
 5056SOL    HW116067   6.420   4.586   0.074
 5056SOL    HW216068   6.575   4.617   0.033
 5057SOL     OW16069   0.237   6.091   4.622
 5057SOL    HW116070   0.211   6.110   4.528
 5057SOL    HW216071   0.335   6.107   4.634
 5058SOL     OW16072   3.268   3.337   5.383
 5058SOL    HW116073   3.281   3.255   5.439
 5058SOL    HW216074   3.187   3.386   5.415
 5059SOL     OW16075   5.898   1.596   3.533
 5059SOL    HW116076   5.954   1.680   3.531
 5059SOL    HW216077   5.909   1.551   3.621
 5060SOL     OW16078   0.803   2.059   5.666
 5060SOL    HW116079   0.764   1.967   5.669
 5060SOL    HW216080   0.891   2.056   5.618
 5061SOL     OW16081   4.113   3.153   1.856
 5061SOL    HW116082   4.057   3.110   1.927
 5061SOL    HW216083   4.058   3.217   1.803
 5062SOL     OW16084   5.115   0.940   3.144
 5062SOL    HW116085   5.032   0.949   3.199
 5062SOL    HW216086   5.115   0.851   3.097
 5063SOL     OW16087   1.376   6.840   2.259
 5063SOL    HW116088   1.381   6.935   2.231
 5063SOL    HW216089   1.457   6.817   2.314
 5064SOL     OW16090   5.005   4.290   1.620
 5064SOL    HW116091   5.045   4.234   1.547
 5064SOL    HW216092   4.941   4.356   1.581
 5065SOL     OW16093   1.577   1.641   3.642
 5065SOL    HW116094   1.566   1.722   3.699
 5065SOL    HW216095   1.536   1.658   3.552
 5066SOL     OW16096   4.216   4.623   1.669
 5066SOL    HW116097   4.265   4.666   1.745
 5066SOL    HW216098   4.222   4.681   1.588
 5067SOL     OW16099   4.207   0.833   1.636
 5067SOL    HW116100   4.275   0.812   1.707
 5067SOL    HW216101   4.116   0.833   1.676
 5068SOL     OW16102   2.634   4.743   6.609
 5068SOL    HW116103   2.667   4.665   6.663
 5068SOL    HW216104   2.541   4.725   6.579
 5069SOL     OW16105   2.216   2.962   5.570
 5069SOL    HW116106   2.229   2.934   5.475
 5069SOL    HW216107   2.261   3.050   5.586
 5070SOL     OW16108   4.473   4.530   3.780
 5070SOL    HW116109   4.425   4.534   3.868
 5070SOL    HW216110   4.572   4.533   3.796
 5071SOL     OW16111   4.195   1.602   3.197
 5071SOL    HW116112   4.180   1.504   3.185
 5071SOL    HW216113   4.140   1.636   3.273
 5072SOL     OW16114   1.347   0.534   1.777
 5072SOL    HW116115   1.354   0.583   1.690
 5072SOL    HW216116   1.332   0.437   1.759
 5073SOL     OW16117   0.432   5.835   1.800
 5073SOL    HW116118   0.338   5.822   1.832
 5073SOL    HW216119   0.495   5.827   1.877
 5074SOL     OW16120   3.273   2.835   1.195
 5074SOL    HW116121   3.337   2.788   1.135
 5074SOL    HW216122   3.311   2.841   1.287
 5075SOL     OW16123   1.145   2.245   6.744
 5075SOL    HW116124   1.230   2.282   6.706
 5075SOL    HW216125   1.095   2.318   6.791
 5076SOL     OW16126   4.138   0.477   0.546
 5076SOL    HW116127   4.117   0.468   0.644
 5076SOL    HW216128   4.167   0.389   0.510
 5077SOL     OW16129   2.182   4.339   5.540
 5077SOL    HW116130   2.273   4.372   5.566
 5077SOL    HW216131   2.178   4.328   5.441
 5078SOL     OW16132   0.420   1.140   3.688
 5078SOL    HW116133   0.433   1.240   3.689
 5078SOL    HW216134   0.434   1.103   3.779
 5079SOL     OW16135   1.938   3.328   5.465
 5079SOL    HW116136   1.962   3.333   5.562
 5079SOL    HW216137   2.019   3.347   5.410
 5080SOL     OW16138   6.051   6.669   6.716
 5080SOL    HW116139   5.969   6.680   6.660
 5080SOL    HW216140   6.024   6.653   6.811
 5081SOL     OW16141   3.060   3.104   4.919
 5081SOL    HW116142   2.979   3.122   4.975
 5081SOL    HW216143   3.033   3.056   4.836
 5082SOL     OW16144   5.143   5.743   0.733
 5082SOL    HW116145   5.212   5.702   0.674
 5082SOL    HW216146   5.115   5.832   0.695
 5083SOL     OW16147   2.371   6.482   2.357
 5083SOL    HW116148   2.434   6.407   2.338
 5083SOL    HW216149   2.386   6.557   2.293
 5084SOL     OW16150   0.187   4.397   4.050
 5084SOL    HW116151   0.251   4.467   4.081
 5084SOL    HW216152   0.235   4.328   3.997
 5085SOL     OW16153   5.896   2.584   6.711
 5085SOL    HW116154   5.841   2.502   6.727
 5085SOL    HW216155   5.865   2.657   6.772
 5086SOL     OW16156   1.049   5.724   3.106
 5086SOL    HW116157   1.047   5.756   3.201
 5086SOL    HW216158   1.129   5.763   3.060
 5087SOL     OW16159   1.579   5.381   2.613
 5087SOL    HW116160   1.637   5.313   2.658
 5087SOL    HW216161   1.634   5.437   2.552
 5088SOL     OW16162   6.573   0.732   4.581
 5088SOL    HW116163   6.552   0.638   4.553
 5088SOL    HW216164   6.627   0.730   4.665
 5089SOL     OW16165   5.033   4.204   4.315
 5089SOL    HW116166   5.050   4.179   4.220
 5089SOL    HW216167   4.980   4.132   4.360
 5090SOL     OW16168   1.824   4.023   2.328
 5090SOL    HW116169   1.921   4.024   2.302
 5090SOL    HW216170   1.815   3.986   2.421
 5091SOL     OW16171   0.774   0.852   2.177
 5091SOL    HW116172   0.862   0.838   2.131
 5091SOL    HW216173   0.721   0.920   2.128
 5092SOL     OW16174   3.249   3.572   2.548
 5092SOL    HW116175   3.276   3.516   2.470
 5092SOL    HW216176   3.150   3.584   2.548
 5093SOL     OW16177   2.710   1.412   1.002
 5093SOL    HW116178   2.717   1.432   0.904
 5093SOL    HW216179   2.674   1.320   1.015
 5094SOL     OW16180   2.265   5.144   5.894
 5094SOL    HW116181   2.282   5.186   5.805
 5094SOL    HW216182   2.172   5.165   5.924
 5095SOL     OW16183   5.944   2.411   3.876
 5095SOL    HW116184   6.035   2.372   3.887
 5095SOL    HW216185   5.876   2.348   3.914
 5096SOL     OW16186   3.929   4.482   0.525
 5096SOL    HW116187   3.911   4.424   0.445
 5096SOL    HW216188   4.025   4.476   0.549
 5097SOL     OW16189   1.403   0.280   6.596
 5097SOL    HW116190   1.362   0.348   6.658
 5097SOL    HW216191   1.340   0.262   6.521
 5098SOL     OW16192   2.539   0.533   1.772
 5098SOL    HW116193   2.599   0.528   1.692
 5098SOL    HW216194   2.514   0.441   1.801
 5099SOL     OW16195   0.806   6.813   6.802
 5099SOL    HW116196   0.906   6.810   6.797
 5099SOL    HW216197   0.767   6.779   6.717
 5100SOL     OW16198   3.413   5.421   4.913
 5100SOL    HW116199   3.398   5.467   4.826
 5100SOL    HW216200   3.328   5.417   4.965
 5101SOL     OW16201   5.259   7.010   6.798
 5101SOL    HW116202   5.166   0.024   6.784
 5101SOL    HW216203   5.321   0.070   6.807
 5102SOL     OW16204   5.538   6.635   4.346
 5102SOL    HW116205   5.635   6.642   4.321
 5102SOL    HW216206   5.518   6.700   4.419
 5103SOL     OW16207   6.914   0.779   3.986
 5103SOL    HW116208   6.819   0.801   3.962
 5103SOL    HW216209   6.971   0.785   3.905
 5104SOL     OW16210   1.770   6.766   2.757
 5104SOL    HW116211   1.672   6.786   2.761
 5104SOL    HW216212   1.803   6.780   2.663
 5105SOL     OW16213   3.576   3.074   0.749
 5105SOL    HW116214   3.500   3.095   0.811
 5105SOL    HW216215   3.586   3.147   0.681
 5106SOL     OW16216   4.317   1.426   0.401
 5106SOL    HW116217   4.261   1.381   0.471
 5106SOL    HW216218   4.381   1.488   0.446
 5107SOL     OW16219   3.081   1.268   0.350
 5107SOL    HW116220   3.179   1.278   0.336
 5107SOL    HW216221   3.042   1.356   0.378
 5108SOL     OW16222   3.274   2.869   5.098
 5108SOL    HW116223   3.238   2.912   5.181
 5108SOL    HW216224   3.372   2.853   5.110
 5109SOL     OW16225   1.312   0.716   0.687
 5109SOL    HW116226   1.395   0.711   0.741
 5109SOL    HW216227   1.233   0.731   0.747
 5110SOL     OW16228   0.033   0.355   5.975
 5110SOL    HW116229   0.081   0.320   5.894
 5110SOL    HW216230   6.989   0.428   5.948
 5111SOL     OW16231   1.930   1.621   5.156
 5111SOL    HW116232   1.981   1.562   5.218
 5111SOL    HW216233   1.930   1.714   5.192
 5112SOL     OW16234   1.876   0.914   2.827
 5112SOL    HW116235   1.823   0.845   2.877
 5112SOL    HW216236   1.912   0.874   2.743
 5113SOL     OW16237   2.002   0.041   1.007
 5113SOL    HW116238   1.910   0.003   0.997
 5113SOL    HW216239   2.065   6.986   1.033
 5114SOL     OW16240   2.835   1.153   6.978
 5114SOL    HW116241   2.769   1.089   6.937
 5114SOL    HW216242   2.803   1.247   6.965
 5115SOL     OW16243   1.860   5.209   4.361
 5115SOL    HW116244   1.917   5.287   4.333
 5115SOL    HW216245   1.891   5.127   4.313
 5116SOL     OW16246   6.688   0.170   6.314
 5116SOL    HW116247   6.589   0.183   6.319
 5116SOL    HW216248   6.728   0.238   6.253
 5117SOL     OW16249   2.365   4.377   4.323
 5117SOL    HW116250   2.348   4.329   4.238
 5117SOL    HW216251   2.335   4.321   4.400
 5118SOL     OW16252   5.229   0.428   0.048
 5118SOL    HW116253   5.181   0.428   0.136
 5118SOL    HW216254   5.275   0.516   0.036
 5119SOL     OW16255   4.870   0.874   2.051
 5119SOL    HW116256   4.964   0.847   2.070
 5119SOL    HW216257   4.867   0.971   2.028
 5120SOL     OW16258   3.837   1.045   4.001
 5120SOL    HW116259   3.772   1.066   3.928
 5120SOL    HW216260   3.794   0.984   4.068
 5121SOL     OW16261   2.748   2.096   6.843
 5121SOL    HW116262   2.668   2.101   6.903
 5121SOL    HW216263   2.753   2.006   6.800
 5122SOL     OW16264   3.377   6.656   2.958
 5122SOL    HW116265   3.321   6.581   2.993
 5122SOL    HW216266   3.427   6.626   2.877
 5123SOL     OW16267   4.502   2.106   5.076
 5123SOL    HW116268   4.468   2.198   5.096
 5123SOL    HW216269   4.566   2.110   4.999
 5124SOL     OW16270   3.019   5.193   5.196
 5124SOL    HW116271   2.928   5.195   5.237
 5124SOL    HW216272   3.061   5.104   5.214
 5125SOL     OW16273   6.233   3.314   4.498
 5125SOL    HW116274   6.163   3.253   4.460
 5125SOL    HW216275   6.214   3.331   4.595
 5126SOL     OW16276   6.692   5.121   5.081
 5126SOL    HW116277   6.690   5.153   5.176
 5126SOL    HW216278   6.618   5.163   5.030
 5127SOL     OW16279   0.911   3.390   6.982
 5127SOL    HW116280   0.995   3.427   6.941
 5127SOL    HW216281   0.896   3.433   0.053
 5128SOL     OW16282   6.445   0.562   6.521
 5128SOL    HW116283   6.488   0.645   6.485
 5128SOL    HW216284   6.386   0.586   6.598
 5129SOL     OW16285   5.146   0.137   2.832
 5129SOL    HW116286   5.185   0.063   2.777
 5129SOL    HW216287   5.073   0.100   2.889
 5130SOL     OW16288   1.587   5.859   3.744
 5130SOL    HW116289   1.539   5.938   3.784
 5130SOL    HW216290   1.540   5.775   3.772
 5131SOL     OW16291   2.794   5.095   3.667
 5131SOL    HW116292   2.836   5.005   3.656
 5131SOL    HW216293   2.785   5.139   3.577
 5132SOL     OW16294   3.159   2.538   5.777
 5132SOL    HW116295   3.165   2.625   5.729
 5132SOL    HW216296   3.084   2.484   5.740
 5133SOL     OW16297   1.429   5.526   6.671
 5133SOL    HW116298   1.524   5.535   6.642
 5133SOL    HW216299   1.403   5.429   6.669
 5134SOL     OW16300   6.375   1.227   2.346
 5134SOL    HW116301   6.425   1.198   2.265
 5134SOL    HW216302   6.432   1.287   2.401
 5135SOL     OW16303   5.322   3.353   4.347
 5135SOL    HW116304   5.288   3.302   4.268
 5135SOL    HW216305   5.292   3.309   4.431
 5136SOL     OW16306   5.477   1.011   6.675
 5136SOL    HW116307   5.391   1.019   6.625
 5136SOL    HW216308   5.464   1.044   6.769
 5137SOL     OW16309   4.339   3.684   5.719
 5137SOL    HW116310   4.332   3.584   5.726
 5137SOL    HW216311   4.435   3.709   5.706
 5138SOL     OW16312   3.852   2.999   4.855
 5138SOL    HW116313   3.756   2.973   4.847
 5138SOL    HW216314   3.858   3.091   4.894
 5139SOL     OW16315   0.956   0.700   3.628
 5139SOL    HW116316   1.026   0.739   3.688
 5139SOL    HW216317   0.865   0.724   3.663
 5140SOL     OW16318   3.944   2.465   5.518
 5140SOL    HW116319   4.005   2.521   5.575
 5140SOL    HW216320   3.849   2.480   5.547
 5141SOL     OW16321   6.166   3.672   0.623
 5141SOL    HW116322   6.235   3.737   0.653
 5141SOL    HW216323   6.096   3.661   0.693
 5142SOL     OW16324   5.719   6.156   2.843
 5142SOL    HW116325   5.814   6.189   2.837
 5142SOL    HW216326   5.712   6.088   2.916
 5143SOL     OW16327   6.419   4.289   4.345
 5143SOL    HW116328   6.483   4.315   4.273
 5143SOL    HW216329   6.458   4.314   4.434
 5144SOL     OW16330   0.877   4.945   5.302
 5144SOL    HW116331   0.867   4.983   5.394
 5144SOL    HW216332   0.799   4.885   5.282
 5145SOL     OW16333   3.872   5.988   6.661
 5145SOL    HW116334   3.958   5.982   6.611
 5145SOL    HW216335   3.885   5.954   6.754
 5146SOL     OW16336   3.177   3.679   5.304
 5146SOL    HW116337   3.156   3.772   5.274
 5146SOL    HW216338   3.125   3.614   5.249
 5147SOL     OW16339   6.444   5.796   3.145
 5147SOL    HW116340   6.369   5.851   3.110
 5147SOL    HW216341   6.495   5.848   3.213
 5148SOL     OW16342   6.881   0.951   1.595
 5148SOL    HW116343   6.888   0.851   1.593
 5148SOL    HW216344   6.816   0.978   1.666
 5149SOL     OW16345   6.684   5.756   3.405
 5149SOL    HW116346   6.655   5.661   3.396
 5149SOL    HW216347   6.735   5.784   3.324
 5150SOL     OW16348   2.351   5.458   3.445
 5150SOL    HW116349   2.412   5.381   3.422
 5150SOL    HW216350   2.291   5.431   3.521
 5151SOL     OW16351   6.814   4.067   2.351
 5151SOL    HW116352   6.771   4.100   2.436
 5151SOL    HW216353   6.817   3.967   2.352
 5152SOL     OW16354   1.544   5.243   0.106
 5152SOL    HW116355   1.493   5.321   0.142
 5152SOL    HW216356   1.600   5.271   0.028
 5153SOL     OW16357   1.107   1.496   0.184
 5153SOL    HW116358   1.023   1.443   0.193
 5153SOL    HW216359   1.086   1.591   0.162
 5154SOL     OW16360   1.098   3.180   6.008
 5154SOL    HW116361   1.109   3.198   5.910
 5154SOL    HW216362   1.152   3.245   6.060
 5155SOL     OW16363   4.387   6.661   1.937
 5155SOL    HW116364   4.447   6.738   1.918
 5155SOL    HW216365   4.413   6.583   1.879
 5156SOL     OW16366   5.612   4.270   6.098
 5156SOL    HW116367   5.621   4.352   6.155
 5156SOL    HW216368   5.701   4.248   6.057
 5157SOL     OW16369   3.834   2.099   3.350
 5157SOL    HW116370   3.766   2.027   3.334
 5157SOL    HW216371   3.822   2.137   3.441
 5158SOL     OW16372   3.695   1.948   1.191
 5158SOL    HW116373   3.748   2.023   1.150
 5158SOL    HW216374   3.624   1.987   1.250
 5159SOL     OW16375   5.949   3.567   5.632
 5159SOL    HW116376   5.920   3.476   5.603
 5159SOL    HW216377   5.873   3.614   5.675
 5160SOL     OW16378   0.412   5.112   3.320
 5160SOL    HW116379   0.409   5.039   3.388
 5160SOL    HW216380   0.437   5.198   3.363
 5161SOL     OW16381   1.778   3.839   6.773
 5161SOL    HW116382   1.737   3.861   6.861
 5161SOL    HW216383   1.862   3.892   6.762
 5162SOL     OW16384   0.937   6.010   2.501
 5162SOL    HW116385   0.977   6.074   2.437
 5162SOL    HW216386   0.979   5.920   2.490
 5163SOL     OW16387   2.678   6.651   0.479
 5163SOL    HW116388   2.667   6.718   0.405
 5163SOL    HW216389   2.709   6.697   0.562
 5164SOL     OW16390   4.004   2.165   6.695
 5164SOL    HW116391   3.935   2.113   6.745
 5164SOL    HW216392   4.095   2.127   6.714
 5165SOL     OW16393   0.109   4.485   5.894
 5165SOL    HW116394   0.156   4.567   5.862
 5165SOL    HW216395   0.169   4.433   5.955
 5166SOL     OW16396   1.081   6.251   2.425
 5166SOL    HW116397   1.146   6.325   2.446
 5166SOL    HW216398   1.040   6.268   2.335
 5167SOL     OW16399   6.431   5.195   5.600
 5167SOL    HW116400   6.520   5.238   5.582
 5167SOL    HW216401   6.359   5.250   5.558
 5168SOL     OW16402   5.111   3.550   1.835
 5168SOL    HW116403   5.042   3.586   1.898
 5168SOL    HW216404   5.134   3.456   1.862
 5169SOL     OW16405   4.366   1.921   4.258
 5169SOL    HW116406   4.280   1.903   4.306
 5169SOL    HW216407   4.407   1.834   4.231
 5170SOL     OW16408   1.398   3.986   4.903
 5170SOL    HW116409   1.318   3.997   4.843
 5170SOL    HW216410   1.413   4.071   4.954
 5171SOL     OW16411   0.847   4.176   5.426
 5171SOL    HW116412   0.896   4.181   5.513
 5171SOL    HW216413   0.858   4.262   5.376
 5172SOL     OW16414   1.364   3.568   2.735
 5172SOL    HW116415   1.349   3.549   2.832
 5172SOL    HW216416   1.308   3.505   2.681
 5173SOL     OW16417   4.796   5.225   4.962
 5173SOL    HW116418   4.827   5.319   4.947
 5173SOL    HW216419   4.775   5.182   4.875
 5174SOL     OW16420   2.507   4.966   3.467
 5174SOL    HW116421   2.414   4.971   3.431
 5174SOL    HW216422   2.504   4.963   3.567
 5175SOL     OW16423   2.931   4.054   6.409
 5175SOL    HW116424   2.833   4.032   6.417
 5175SOL    HW216425   2.962   4.096   6.494
 5176SOL     OW16426   5.497   3.252   6.981
 5176SOL    HW116427   5.586   3.231   0.004
 5176SOL    HW216428   5.486   3.351   6.974
 5177SOL     OW16429   5.669   0.354   0.476
 5177SOL    HW116430   5.574   0.365   0.507
 5177SOL    HW216431   5.731   0.391   0.545
 5178SOL     OW16432   0.518   3.655   2.958
 5178SOL    HW116433   0.515   3.562   2.996
 5178SOL    HW216434   0.591   3.661   2.890
 5179SOL     OW16435   4.622   4.833   4.170
 5179SOL    HW116436   4.668   4.921   4.159
 5179SOL    HW216437   4.551   4.841   4.240
 5180SOL     OW16438   2.756   2.113   0.995
 5180SOL    HW116439   2.823   2.173   1.041
 5180SOL    HW216440   2.671   2.163   0.981
 5181SOL     OW16441   5.046   0.813   2.751
 5181SOL    HW116442   5.071   0.750   2.825
 5181SOL    HW216443   4.973   0.773   2.696
 5182SOL     OW16444   4.189   4.391   1.546
 5182SOL    HW116445   4.175   4.479   1.592
 5182SOL    HW216446   4.152   4.395   1.454
 5183SOL     OW16447   4.104   1.839   2.537
 5183SOL    HW116448   4.103   1.846   2.637
 5183SOL    HW216449   4.078   1.927   2.497
 5184SOL     OW16450   0.696   1.853   3.808
 5184SOL    HW116451   0.599   1.829   3.809
 5184SOL    HW216452   0.729   1.855   3.713
 5185SOL     OW16453   5.295   0.671   2.645
 5185SOL    HW116454   5.393   0.682   2.661
 5185SOL    HW216455   5.255   0.758   2.617
 5186SOL     OW16456   6.866   2.181   0.045
 5186SOL    HW116457   6.923   2.211   6.986
 5186SOL    HW216458   6.775   2.219   0.035
 5187SOL     OW16459   1.328   6.149   4.249
 5187SOL    HW116460   1.402   6.189   4.194
 5187SOL    HW216461   1.363   6.126   4.340
 5188SOL     OW16462   0.211   5.714   1.602
 5188SOL    HW116463   0.191   5.737   1.698
 5188SOL    HW216464   0.212   5.798   1.548
 5189SOL     OW16465   4.052   4.874   0.604
 5189SOL    HW116466   4.133   4.849   0.551
 5189SOL    HW216467   4.055   4.829   0.693
 5190SOL     OW16468   0.587   2.066   4.302
 5190SOL    HW116469   0.598   2.080   4.401
 5190SOL    HW216470   0.677   2.056   4.259
 5191SOL     OW16471   4.024   6.788   1.869
 5191SOL    HW116472   4.018   6.688   1.869
 5191SOL    HW216473   4.057   6.820   1.781
 5192SOL     OW16474   2.360   5.575   1.389
 5192SOL    HW116475   2.312   5.496   1.351
 5192SOL    HW216476   2.297   5.631   1.443
 5193SOL     OW16477   5.567   5.120   4.669
 5193SOL    HW116478   5.494   5.157   4.611
 5193SOL    HW216479   5.529   5.091   4.756
 5194SOL     OW16480   4.180   1.788   0.009
 5194SOL    HW116481   4.099   1.750   6.983
 5194SOL    HW216482   4.186   1.754   0.103
 5195SOL     OW16483   6.998   6.972   4.452
 5195SOL    HW116484   0.058   6.973   4.390
 5195SOL    HW216485   6.983   6.878   4.485
 5196SOL     OW16486   3.881   6.603   1.086
 5196SOL    HW116487   3.880   6.523   1.147
 5196SOL    HW216488   3.794   6.652   1.094
 5197SOL     OW16489   2.799   4.080   5.959
 5197SOL    HW116490   2.710   4.090   6.004
 5197SOL    HW216491   2.785   4.061   5.862
 5198SOL     OW16492   4.674   5.904   2.949
 5198SOL    HW116493   4.720   5.984   2.910
 5198SOL    HW216494   4.575   5.917   2.944
 5199SOL     OW16495   1.073   6.618   0.465
 5199SOL    HW116496   1.038   6.543   0.521
 5199SOL    HW216497   1.005   6.691   0.461
 5200SOL     OW16498   0.797   3.636   5.362
 5200SOL    HW116499   0.735   3.715   5.354
 5200SOL    HW216500   0.767   3.565   5.298
 5201SOL     OW16501   0.261   0.315   3.103
 5201SOL    HW116502   0.211   0.326   3.016
 5201SOL    HW216503   0.250   0.222   3.136
 5202SOL     OW16504   5.977   3.176   6.239
 5202SOL    HW116505   5.986   3.269   6.203
 5202SOL    HW216506   6.046   3.161   6.309
 5203SOL     OW16507   2.124   2.881   0.256
 5203SOL    HW116508   2.151   2.975   0.276
 5203SOL    HW216509   2.169   2.819   0.320
 5204SOL     OW16510   4.116   5.064   6.731
 5204SOL    HW116511   4.180   5.130   6.692
 5204SOL    HW216512   4.108   5.079   6.829
 5205SOL     OW16513   0.534   6.170   0.634
 5205SOL    HW116514   0.569   6.260   0.608
 5205SOL    HW216515   0.449   6.180   0.685
 5206SOL     OW16516   0.718   4.435   5.771
 5206SOL    HW116517   0.657   4.376   5.719
 5206SOL    HW216518   0.812   4.424   5.736
 5207SOL     OW16519   1.333   6.252   3.763
 5207SOL    HW116520   1.287   6.330   3.720
 5207SOL    HW216521   1.414   6.229   3.710
 5208SOL     OW16522   4.178   2.831   6.063
 5208SOL    HW116523   4.140   2.846   6.155
 5208SOL    HW216524   4.273   2.801   6.070
 5209SOL     OW16525   5.764   6.003   3.060
 5209SOL    HW116526   5.709   5.920   3.058
 5209SOL    HW216527   5.857   5.981   3.091
 5210SOL     OW16528   4.243   3.077   6.361
 5210SOL    HW116529   4.180   3.122   6.425
 5210SOL    HW216530   4.205   2.988   6.335
 5211SOL     OW16531   3.548   3.169   5.100
 5211SOL    HW116532   3.520   3.147   5.007
 5211SOL    HW216533   3.498   3.250   5.131
 5212SOL     OW16534   0.182   2.578   1.038
 5212SOL    HW116535   0.193   2.591   0.940
 5212SOL    HW216536   0.112   2.509   1.055
 5213SOL     OW16537   4.787   3.538   6.552
 5213SOL    HW116538   4.845   3.519   6.632
 5213SOL    HW216539   4.824   3.491   6.472
 5214SOL     OW16540   4.475   1.876   5.883
 5214SOL    HW116541   4.491   1.975   5.887
 5214SOL    HW216542   4.382   1.856   5.914
 5215SOL     OW16543   6.731   4.652   3.903
 5215SOL    HW116544   6.760   4.586   3.972
 5215SOL    HW216545   6.631   4.649   3.895
 5216SOL     OW16546   5.260   4.845   1.523
 5216SOL    HW116547   5.338   4.783   1.518
 5216SOL    HW216548   5.222   4.842   1.615
 5217SOL     OW16549   3.930   5.443   4.708
 5217SOL    HW116550   4.024   5.428   4.738
 5217SOL    HW216551   3.868   5.433   4.786
 5218SOL     OW16552   0.756   1.159   3.540
 5218SOL    HW116553   0.710   1.145   3.627
 5218SOL    HW216554   0.730   1.086   3.476
 5219SOL     OW16555   4.272   1.478   5.695
 5219SOL    HW116556   4.202   1.483   5.766
 5219SOL    HW216557   4.363   1.484   5.737
 5220SOL     OW16558   1.264   5.859   2.968
 5220SOL    HW116559   1.356   5.895   2.982
 5220SOL    HW216560   1.203   5.934   2.939
 5221SOL     OW16561   5.836   2.449   3.626
 5221SOL    HW116562   5.863   2.458   3.722
 5221SOL    HW216563   5.845   2.537   3.581
 5222SOL     OW16564   3.904   5.820   3.370
 5222SOL    HW116565   3.861   5.730   3.366
 5222SOL    HW216566   3.941   5.843   3.279
 5223SOL     OW16567   6.360   2.806   1.154
 5223SOL    HW116568   6.440   2.864   1.170
 5223SOL    HW216569   6.278   2.863   1.148
 5224SOL     OW16570   0.327   2.383   4.424
 5224SOL    HW116571   0.248   2.325   4.446
 5224SOL    HW216572   0.330   2.399   4.326
 5225SOL     OW16573   0.743   0.101   3.395
 5225SOL    HW116574   0.698   0.012   3.385
 5225SOL    HW216575   0.746   0.147   3.307
 5226SOL     OW16576   0.174   5.942   4.858
 5226SOL    HW116577   0.170   5.972   4.763
 5226SOL    HW216578   0.103   5.873   4.875
 5227SOL     OW16579   0.862   3.147   4.434
 5227SOL    HW116580   0.780   3.197   4.461
 5227SOL    HW216581   0.902   3.102   4.514
 5228SOL     OW16582   6.134   2.985   1.182
 5228SOL    HW116583   6.070   2.929   1.129
 5228SOL    HW216584   6.144   3.075   1.139
 5229SOL     OW16585   1.690   5.872   0.012
 5229SOL    HW116586   1.722   5.892   6.938
 5229SOL    HW216587   1.763   5.828   0.064
 5230SOL     OW16588   0.409   6.431   1.760
 5230SOL    HW116589   0.355   6.359   1.805
 5230SOL    HW216590   0.472   6.389   1.695
 5231SOL     OW16591   4.531   3.074   5.395
 5231SOL    HW116592   4.439   3.079   5.433
 5231SOL    HW216593   4.573   3.165   5.397
 5232SOL     OW16594   3.488   2.431   5.972
 5232SOL    HW116595   3.494   2.524   5.938
 5232SOL    HW216596   3.464   2.369   5.897
 5233SOL     OW16597   5.034   0.783   2.401
 5233SOL    HW116598   4.948   0.833   2.398
 5233SOL    HW216599   5.106   0.842   2.437
 5234SOL     OW16600   2.218   1.179   6.822
 5234SOL    HW116601   2.267   1.111   6.768
 5234SOL    HW216602   2.197   1.142   6.912
 5235SOL     OW16603   1.579   2.791   1.026
 5235SOL    HW116604   1.657   2.853   1.036
 5235SOL    HW216605   1.558   2.750   1.115
 5236SOL     OW16606   5.460   4.205   2.935
 5236SOL    HW116607   5.428   4.112   2.914
 5236SOL    HW216608   5.384   4.259   2.971
 5237SOL     OW16609   1.719   0.979   5.116
 5237SOL    HW116610   1.631   1.027   5.110
 5237SOL    HW216611   1.757   0.967   5.024
 5238SOL     OW16612   0.618   4.483   0.379
 5238SOL    HW116613   0.617   4.489   0.479
 5238SOL    HW216614   0.593   4.571   0.340
 5239SOL     OW16615   3.485   3.290   3.873
 5239SOL    HW116616   3.428   3.215   3.907
 5239SOL    HW216617   3.518   3.345   3.949
 5240SOL     OW16618   2.802   1.436   6.126
 5240SOL    HW116619   2.793   1.498   6.048
 5240SOL    HW216620   2.711   1.413   6.161
 5241SOL     OW16621   1.184   5.164   5.399
 5241SOL    HW116622   1.098   5.198   5.437
 5241SOL    HW216623   1.228   5.236   5.346
 5242SOL     OW16624   0.626   6.551   6.221
 5242SOL    HW116625   0.543   6.535   6.274
 5242SOL    HW216626   0.630   6.647   6.193
 5243SOL     OW16627   0.938   5.486   1.814
 5243SOL    HW116628   1.026   5.505   1.858
 5243SOL    HW216629   0.920   5.388   1.819
 5244SOL     OW16630   3.633   5.024   6.853
 5244SOL    HW116631   3.666   5.106   6.898
 5244SOL    HW216632   3.589   4.964   6.919
 5245SOL     OW16633   4.271   3.705   0.663
 5245SOL    HW116634   4.237   3.774   0.598
 5245SOL    HW216635   4.255   3.614   0.625
 5246SOL     OW16636   5.720   3.960   2.448
 5246SOL    HW116637   5.765   3.912   2.373
 5246SOL    HW216638   5.698   3.895   2.521
 5247SOL     OW16639   0.640   0.558   0.053
 5247SOL    HW116640   0.670   0.471   0.093
 5247SOL    HW216641   0.677   0.566   6.979
 5248SOL     OW16642   5.892   0.870   4.168
 5248SOL    HW116643   5.980   0.897   4.206
 5248SOL    HW216644   5.853   0.796   4.222
 5249SOL     OW16645   6.880   5.063   5.364
 5249SOL    HW116646   6.825   5.028   5.440
 5249SOL    HW216647   6.902   5.159   5.380
 5250SOL     OW16648   1.501   6.799   5.290
 5250SOL    HW116649   1.412   6.755   5.283
 5250SOL    HW216650   1.489   6.897   5.302
 5251SOL     OW16651   0.394   3.176   0.507
 5251SOL    HW116652   0.469   3.228   0.468
 5251SOL    HW216653   0.424   3.082   0.525
 5252SOL     OW16654   2.319   6.209   0.452
 5252SOL    HW116655   2.356   6.127   0.495
 5252SOL    HW216656   2.349   6.212   0.356
 5253SOL     OW16657   5.451   4.479   4.204
 5253SOL    HW116658   5.450   4.539   4.125
 5253SOL    HW216659   5.389   4.515   4.274
 5254SOL     OW16660   4.607   1.268   3.147
 5254SOL    HW116661   4.695   1.314   3.165
 5254SOL    HW216662   4.621   1.169   3.145
 5255SOL     OW16663   4.841   1.163   6.624
 5255SOL    HW116664   4.938   1.174   6.648
 5255SOL    HW216665   4.829   1.079   6.571
 5256SOL     OW16666   4.770   1.003   3.155
 5256SOL    HW116667   4.771   0.997   3.055
 5256SOL    HW216668   4.731   0.919   3.193
 5257SOL     OW16669   5.082   6.134   1.764
 5257SOL    HW116670   5.014   6.071   1.725
 5257SOL    HW216671   5.071   6.136   1.863
 5258SOL     OW16672   6.098   3.530   1.875
 5258SOL    HW116673   6.007   3.490   1.868
 5258SOL    HW216674   6.120   3.578   1.791
 5259SOL     OW16675   5.167   6.363   0.096
 5259SOL    HW116676   5.130   6.289   0.151
 5259SOL    HW216677   5.097   6.433   0.083
 5260SOL     OW16678   5.650   3.918   1.105
 5260SOL    HW116679   5.564   3.870   1.086
 5260SOL    HW216680   5.719   3.851   1.136
 5261SOL     OW16681   1.055   3.758   6.965
 5261SOL    HW116682   1.019   3.705   6.888
 5261SOL    HW216683   1.125   3.822   6.932
 5262SOL     OW16684   2.537   0.095   2.772
 5262SOL    HW116685   2.518   0.192   2.784
 5262SOL    HW216686   2.584   0.081   2.685
 5263SOL     OW16687   2.055   1.788   4.804
 5263SOL    HW116688   1.955   1.788   4.795
 5263SOL    HW216689   2.087   1.882   4.819
 5264SOL     OW16690   6.053   1.368   2.082
 5264SOL    HW116691   5.963   1.408   2.101
 5264SOL    HW216692   6.120   1.442   2.071
 5265SOL     OW16693   5.586   3.730   4.481
 5265SOL    HW116694   5.610   3.826   4.495
 5265SOL    HW216695   5.669   3.674   4.482
 5266SOL     OW16696   2.635   6.289   1.216
 5266SOL    HW116697   2.627   6.190   1.208
 5266SOL    HW216698   2.611   6.316   1.310
 5267SOL     OW16699   4.899   4.062   5.239
 5267SOL    HW116700   4.844   4.111   5.171
 5267SOL    HW216701   4.883   3.964   5.230
 5268SOL     OW16702   5.986   0.605   6.556
 5268SOL    HW116703   5.936   0.686   6.587
 5268SOL    HW216704   6.022   0.621   6.464
 5269SOL     OW16705   1.915   6.867   3.561
 5269SOL    HW116706   1.911   6.926   3.480
 5269SOL    HW216707   1.840   6.801   3.558
 5270SOL     OW16708   5.375   1.627   1.374
 5270SOL    HW116709   5.329   1.715   1.386
 5270SOL    HW216710   5.391   1.585   1.463
 5271SOL     OW16711   5.977   5.734   4.503
 5271SOL    HW116712   5.942   5.812   4.556
 5271SOL    HW216713   5.902   5.693   4.451
 5272SOL     OW16714   2.701   5.212   1.851
 5272SOL    HW116715   2.751   5.212   1.937
 5272SOL    HW216716   2.611   5.169   1.865
 5273SOL     OW16717   6.551   3.098   3.615
 5273SOL    HW116718   6.538   3.116   3.517
 5273SOL    HW216719   6.482   3.032   3.646
 5274SOL     OW16720   6.465   6.283   1.762
 5274SOL    HW116721   6.483   6.203   1.704
 5274SOL    HW216722   6.449   6.253   1.856
 5275SOL     OW16723   3.329   1.703   6.864
 5275SOL    HW116724   3.248   1.726   6.809
 5275SOL    HW216725   3.402   1.768   6.845
 5276SOL     OW16726   1.092   0.259   0.439
 5276SOL    HW116727   1.163   0.302   0.384
 5276SOL    HW216728   1.015   0.323   0.450
 5277SOL     OW16729   1.779   2.054   3.011
 5277SOL    HW116730   1.850   2.012   2.954
 5277SOL    HW216731   1.709   2.093   2.952
 5278SOL     OW16732   5.042   0.422   4.003
 5278SOL    HW116733   5.017   0.328   3.983
 5278SOL    HW216734   5.112   0.424   4.075
 5279SOL     OW16735   1.355   5.269   6.814
 5279SOL    HW116736   1.381   5.175   6.794
 5279SOL    HW216737   1.427   5.313   6.867
 5280SOL     OW16738   3.641   6.611   5.128
 5280SOL    HW116739   3.546   6.605   5.161
 5280SOL    HW216740   3.656   6.541   5.058
 5281SOL     OW16741   0.778   2.143   2.416
 5281SOL    HW116742   0.768   2.053   2.373
 5281SOL    HW216743   0.737   2.213   2.357
 5282SOL     OW16744   2.704   1.507   3.268
 5282SOL    HW116745   2.685   1.595   3.225
 5282SOL    HW216746   2.761   1.452   3.206
 5283SOL     OW16747   4.402   6.757   1.371
 5283SOL    HW116748   4.423   6.754   1.469
 5283SOL    HW216749   4.457   6.829   1.328
 5284SOL     OW16750   5.257   3.366   3.636
 5284SOL    HW116751   5.329   3.301   3.611
 5284SOL    HW216752   5.168   3.322   3.628
 5285SOL     OW16753   2.102   4.320   3.780
 5285SOL    HW116754   2.055   4.405   3.805
 5285SOL    HW216755   2.036   4.245   3.781
 5286SOL     OW16756   1.084   3.522   1.812
 5286SOL    HW116757   1.041   3.608   1.787
 5286SOL    HW216758   1.149   3.496   1.741
 5287SOL     OW16759   1.658   6.425   1.354
 5287SOL    HW116760   1.700   6.337   1.330
 5287SOL    HW216761   1.705   6.463   1.434
 5288SOL     OW16762   3.956   0.281   1.761
 5288SOL    HW116763   3.971   0.380   1.774
 5288SOL    HW216764   3.865   0.266   1.722
 5289SOL     OW16765   1.674   5.389   6.160
 5289SOL    HW116766   1.709   5.467   6.107
 5289SOL    HW216767   1.575   5.384   6.150
 5290SOL     OW16768   1.790   4.760   5.671
 5290SOL    HW116769   1.786   4.790   5.576
 5290SOL    HW216770   1.860   4.689   5.681
 5291SOL     OW16771   2.790   5.205   5.331
 5291SOL    HW116772   2.754   5.113   5.342
 5291SOL    HW216773   2.720   5.271   5.359
 5292SOL     OW16774   6.919   3.781   0.197
 5292SOL    HW116775   6.883   3.689   0.180
 5292SOL    HW216776   0.000   3.776   0.209
 5293SOL     OW16777   0.964   0.900   3.847
 5293SOL    HW116778   1.028   0.855   3.910
 5293SOL    HW216779   0.870   0.884   3.877
 5294SOL     OW16780   4.996   3.573   5.558
 5294SOL    HW116781   5.040   3.536   5.475
 5294SOL    HW216782   4.913   3.622   5.532
 5295SOL     OW16783   4.627   0.082   2.381
 5295SOL    HW116784   4.583   0.171   2.398
 5295SOL    HW216785   4.687   0.089   2.302
 5296SOL     OW16786   1.874   5.392   0.726
 5296SOL    HW116787   1.928   5.464   0.681
 5296SOL    HW216788   1.829   5.336   0.656
 5297SOL     OW16789   2.954   1.722   1.389
 5297SOL    HW116790   2.902   1.776   1.323
 5297SOL    HW216791   2.936   1.756   1.481
 5298SOL     OW16792   1.575   5.983   6.319
 5298SOL    HW116793   1.580   5.907   6.384
 5298SOL    HW216794   1.666   6.003   6.284
 5299SOL     OW16795   2.990   2.513   0.723
 5299SOL    HW116796   3.077   2.506   0.675
 5299SOL    HW216797   3.001   2.571   0.804
 5300SOL     OW16798   0.117   6.274   2.039
 5300SOL    HW116799   0.046   6.207   2.061
 5300SOL    HW216800   0.194   6.263   2.101
 5301SOL     OW16801   4.144   2.664   0.644
 5301SOL    HW116802   4.237   2.692   0.625
 5301SOL    HW216803   4.085   2.744   0.654
 5302SOL     OW16804   6.345   4.587   3.244
 5302SOL    HW116805   6.304   4.676   3.267
 5302SOL    HW216806   6.282   4.535   3.187
 5303SOL     OW16807   6.939   5.793   2.696
 5303SOL    HW116808   6.964   5.714   2.752
 5303SOL    HW216809   6.968   5.877   2.742
 5304SOL     OW16810   6.123   1.417   6.848
 5304SOL    HW116811   6.141   1.506   6.889
 5304SOL    HW216812   6.098   1.352   6.920
 5305SOL     OW16813   1.358   5.703   4.233
 5305SOL    HW116814   1.384   5.618   4.188
 5305SOL    HW216815   1.396   5.781   4.183
 5306SOL     OW16816   0.323   5.030   4.943
 5306SOL    HW116817   0.367   5.044   5.032
 5306SOL    HW216818   0.242   5.088   4.936
 5307SOL     OW16819   4.188   0.189   0.170
 5307SOL    HW116820   4.181   0.259   0.099
 5307SOL    HW216821   4.158   0.101   0.133
 5308SOL     OW16822   1.193   5.871   3.887
 5308SOL    HW116823   1.224   5.894   3.795
 5308SOL    HW216824   1.116   5.807   3.882
 5309SOL     OW16825   3.953   4.191   1.664
 5309SOL    HW116826   3.898   4.271   1.689
 5309SOL    HW216827   4.028   4.219   1.604
 5310SOL     OW16828   6.109   3.237   1.757
 5310SOL    HW116829   6.029   3.277   1.802
 5310SOL    HW216830   6.080   3.188   1.675
 5311SOL     OW16831   0.049   6.229   1.056
 5311SOL    HW116832   0.107   6.278   0.991
 5311SOL    HW216833   6.971   6.247   1.034
 5312SOL     OW16834   0.658   4.006   2.031
 5312SOL    HW116835   0.618   4.045   2.114
 5312SOL    HW216836   0.585   3.967   1.974
 5313SOL     OW16837   1.054   4.105   6.457
 5313SOL    HW116838   1.116   4.128   6.382
 5313SOL    HW216839   0.961   4.097   6.423
 5314SOL     OW16840   3.555   6.575   0.281
 5314SOL    HW116841   3.591   6.636   0.352
 5314SOL    HW216842   3.621   6.502   0.263
 5315SOL     OW16843   3.975   3.635   1.731
 5315SOL    HW116844   3.917   3.635   1.649
 5315SOL    HW216845   4.059   3.687   1.712
 5316SOL     OW16846   0.076   4.252   4.932
 5316SOL    HW116847   0.147   4.183   4.923
 5316SOL    HW216848   0.038   4.273   4.842
 5317SOL     OW16849   0.282   0.568   4.688
 5317SOL    HW116850   0.217   0.523   4.627
 5317SOL    HW216851   0.370   0.576   4.642
 5318SOL     OW16852   0.290   1.863   6.117
 5318SOL    HW116853   0.198   1.901   6.105
 5318SOL    HW216854   0.296   1.817   6.205
 5319SOL     OW16855   4.530   6.321   6.535
 5319SOL    HW116856   4.562   6.319   6.441
 5319SOL    HW216857   4.549   6.410   6.576
 5320SOL     OW16858   5.566   5.145   6.802
 5320SOL    HW116859   5.469   5.167   6.796
 5320SOL    HW216860   5.577   5.059   6.852
 5321SOL     OW16861   1.027   4.005   2.955
 5321SOL    HW116862   1.079   3.960   2.883
 5321SOL    HW216863   1.038   4.104   2.948
 5322SOL     OW16864   3.543   5.876   6.443
 5322SOL    HW116865   3.528   5.793   6.498
 5322SOL    HW216866   3.637   5.876   6.408
 5323SOL     OW16867   4.035   3.068   6.816
 5323SOL    HW116868   4.031   3.129   6.737
 5323SOL    HW216869   4.131   3.045   6.835
 5324SOL     OW16870   3.882   2.319   1.729
 5324SOL    HW116871   3.804   2.322   1.792
 5324SOL    HW216872   3.919   2.411   1.718
 5325SOL     OW16873   5.336   0.020   3.878
 5325SOL    HW116874   5.394   0.042   3.957
 5325SOL    HW216875   5.380   0.050   3.794
 5326SOL     OW16876   0.234   5.550   3.551
 5326SOL    HW116877   0.220   5.578   3.456
 5326SOL    HW216878   0.223   5.451   3.559
 5327SOL     OW16879   5.679   4.579   4.941
 5327SOL    HW116880   5.585   4.608   4.920
 5327SOL    HW216881   5.700   4.604   5.036
 5328SOL     OW16882   4.518   2.935   5.857
 5328SOL    HW116883   4.479   2.860   5.802
 5328SOL    HW216884   4.603   2.967   5.814
 5329SOL     OW16885   0.070   4.069   0.595
 5329SOL    HW116886   0.160   4.026   0.589
 5329SOL    HW216887   0.002   4.001   0.622
 5330SOL     OW16888   3.742   3.941   5.967
 5330SOL    HW116889   3.777   3.853   6.000
 5330SOL    HW216890   3.643   3.945   5.980
 5331SOL     OW16891   5.826   0.714   1.691
 5331SOL    HW116892   5.897   0.784   1.682
 5331SOL    HW216893   5.761   0.722   1.615
 5332SOL     OW16894   0.423   3.888   0.202
 5332SOL    HW116895   0.461   3.968   0.156
 5332SOL    HW216896   0.493   3.848   0.262
 5333SOL     OW16897   0.875   0.416   3.273
 5333SOL    HW116898   0.807   0.489   3.262
 5333SOL    HW216899   0.841   0.333   3.230
 5334SOL     OW16900   3.794   5.974   5.407
 5334SOL    HW116901   3.813   6.071   5.393
 5334SOL    HW216902   3.867   5.934   5.463
 5335SOL     OW16903   0.514   5.036   2.633
 5335SOL    HW116904   0.435   5.019   2.574
 5335SOL    HW216905   0.525   4.960   2.697
 5336SOL     OW16906   2.689   1.782   3.633
 5336SOL    HW116907   2.645   1.760   3.546
 5336SOL    HW216908   2.657   1.870   3.666
 5337SOL     OW16909   5.325   5.184   1.923
 5337SOL    HW116910   5.248   5.184   1.860
 5337SOL    HW216911   5.403   5.231   1.881
 5338SOL     OW16912   6.025   0.768   5.908
 5338SOL    HW116913   5.942   0.724   5.940
 5338SOL    HW216914   6.002   0.851   5.858
 5339SOL     OW16915   5.693   1.405   3.104
 5339SOL    HW116916   5.647   1.401   3.193
 5339SOL    HW216917   5.639   1.460   3.041
 5340SOL     OW16918   6.031   3.762   1.235
 5340SOL    HW116919   5.993   3.828   1.170
 5340SOL    HW216920   5.975   3.679   1.234
 5341SOL     OW16921   3.339   5.378   5.263
 5341SOL    HW116922   3.274   5.443   5.223
 5341SOL    HW216923   3.426   5.424   5.279
 5342SOL     OW16924   4.892   6.864   4.853
 5342SOL    HW116925   4.958   6.795   4.822
 5342SOL    HW216926   4.821   6.820   4.908
 5343SOL     OW16927   4.152   3.623   4.843
 5343SOL    HW116928   4.164   3.587   4.936
 5343SOL    HW216929   4.109   3.714   4.849
 5344SOL     OW16930   1.487   2.248   1.522
 5344SOL    HW116931   1.569   2.303   1.505
 5344SOL    HW216932   1.407   2.296   1.485
 5345SOL     OW16933   4.968   6.589   0.110
 5345SOL    HW116934   4.952   6.559   0.204
 5345SOL    HW216935   4.881   6.608   0.065
 5346SOL     OW16936   2.564   5.537   3.668
 5346SOL    HW116937   2.619   5.613   3.633
 5346SOL    HW216938   2.501   5.507   3.596
 5347SOL     OW16939   0.496   3.079   2.939
 5347SOL    HW116940   0.404   3.120   2.941
 5347SOL    HW216941   0.513   3.031   3.025
 5348SOL     OW16942   6.947   1.031   0.221
 5348SOL    HW116943   6.889   1.094   0.273
 5348SOL    HW216944   6.948   0.942   0.267
 5349SOL     OW16945   2.121   3.704   6.942
 5349SOL    HW116946   2.125   3.685   0.022
 5349SOL    HW216947   2.044   3.655   6.902
 5350SOL     OW16948   1.803   0.040   4.388
 5350SOL    HW116949   1.839   6.964   4.387
 5350SOL    HW216950   1.803   0.077   4.295
 5351SOL     OW16951   7.001   5.469   2.120
 5351SOL    HW116952   6.968   5.534   2.052
 5351SOL    HW216953   0.077   5.443   2.098
 5352SOL     OW16954   2.199   4.541   2.992
 5352SOL    HW116955   2.247   4.460   3.025
 5352SOL    HW216956   2.239   4.623   3.035
 5353SOL     OW16957   3.809   5.502   4.341
 5353SOL    HW116958   3.838   5.570   4.275
 5353SOL    HW216959   3.789   5.546   4.429
 5354SOL     OW16960   2.191   4.530   1.483
 5354SOL    HW116961   2.217   4.613   1.533
 5354SOL    HW216962   2.228   4.535   1.390
 5355SOL     OW16963   5.802   4.963   4.363
 5355SOL    HW116964   5.828   5.038   4.302
 5355SOL    HW216965   5.864   4.961   4.442
 5356SOL     OW16966   6.269   3.369   2.854
 5356SOL    HW116967   6.175   3.392   2.830
 5356SOL    HW216968   6.326   3.374   2.772
 5357SOL     OW16969   2.818   5.440   0.626
 5357SOL    HW116970   2.767   5.356   0.646
 5357SOL    HW216971   2.873   5.465   0.706
 5358SOL     OW16972   4.309   1.857   0.441
 5358SOL    HW116973   4.398   1.870   0.485
 5358SOL    HW216974   4.298   1.761   0.416
 5359SOL     OW16975   2.760   1.367   6.427
 5359SOL    HW116976   2.798   1.307   6.357
 5359SOL    HW216977   2.687   1.318   6.476
 5360SOL     OW16978   3.791   6.254   3.546
 5360SOL    HW116979   3.805   6.341   3.498
 5360SOL    HW216980   3.704   6.258   3.595
 5361SOL     OW16981   2.167   6.878   4.824
 5361SOL    HW116982   2.241   6.884   4.757
 5361SOL    HW216983   2.117   6.965   4.827
 5362SOL     OW16984   6.579   6.507   2.208
 5362SOL    HW116985   6.649   6.527   2.277
 5362SOL    HW216986   6.504   6.456   2.250
 5363SOL     OW16987   6.510   6.100   5.790
 5363SOL    HW116988   6.522   6.040   5.869
 5363SOL    HW216989   6.533   6.194   5.815
 5364SOL     OW16990   6.140   6.959   1.926
 5364SOL    HW116991   6.092   6.895   1.987
 5364SOL    HW216992   6.163   0.024   1.977
 5365SOL     OW16993   3.694   3.098   1.695
 5365SOL    HW116994   3.691   3.008   1.739
 5365SOL    HW216995   3.767   3.099   1.627
 5366SOL     OW16996   6.023   6.376   1.186
 5366SOL    HW116997   6.110   6.401   1.228
 5366SOL    HW216998   5.974   6.313   1.247
 5367SOL     OW16999   0.308   7.013   1.597
 5367SOL    HW117000   0.317   6.919   1.567
 5367SOL    HW217001   0.377   0.014   1.668
 5368SOL     OW17002   5.621   0.113   2.729
 5368SOL    HW117003   5.574   0.149   2.810
 5368SOL    HW217004   5.720   0.124   2.741
 5369SOL     OW17005   2.568   6.659   0.883
 5369SOL    HW117006   2.666   6.641   0.895
 5369SOL    HW217007   2.517   6.621   0.960
 5370SOL     OW17008   4.839   3.264   0.784
 5370SOL    HW117009   4.912   3.324   0.752
 5370SOL    HW217010   4.874   3.171   0.796
 5371SOL     OW17011   0.975   4.264   5.674
 5371SOL    HW117012   0.968   4.352   5.626
 5371SOL    HW217013   1.069   4.250   5.703
 5372SOL     OW17014   1.148   6.118   2.829
 5372SOL    HW117015   1.181   6.202   2.872
 5372SOL    HW217016   1.058   6.134   2.789
 5373SOL     OW17017   4.044   6.217   5.445
 5373SOL    HW117018   4.081   6.142   5.499
 5373SOL    HW217019   4.074   6.304   5.484
 5374SOL     OW17020   2.543   4.657   1.048
 5374SOL    HW117021   2.574   4.567   1.017
 5374SOL    HW217022   2.447   4.670   1.023
 5375SOL     OW17023   0.425   5.857   4.964
 5375SOL    HW117024   0.398   5.841   5.059
 5375SOL    HW217025   0.347   5.893   4.912
 5376SOL     OW17026   1.215   2.374   1.596
 5376SOL    HW117027   1.157   2.446   1.558
 5376SOL    HW217028   1.191   2.286   1.554
 5377SOL     OW17029   0.540   0.158   2.085
 5377SOL    HW117030   0.636   0.130   2.081
 5377SOL    HW217031   0.523   0.225   2.012
 5378SOL     OW17032   6.851   7.001   2.694
 5378SOL    HW117033   6.929   6.950   2.733
 5378SOL    HW217034   6.870   0.003   2.598
 5379SOL     OW17035   1.130   3.892   4.860
 5379SOL    HW117036   1.054   3.859   4.803
 5379SOL    HW217037   1.171   3.815   4.909
 5380SOL     OW17038   3.552   6.789   2.311
 5380SOL    HW117039   3.547   6.691   2.331
 5380SOL    HW217040   3.642   6.824   2.338
 5381SOL     OW17041   6.630   5.795   2.307
 5381SOL    HW117042   6.564   5.721   2.295
 5381SOL    HW217043   6.665   5.794   2.400
 5382SOL     OW17044   3.028   1.931   1.782
 5382SOL    HW117045   3.114   1.974   1.809
 5382SOL    HW217046   2.952   1.970   1.835
 5383SOL     OW17047   1.576   2.628   4.704
 5383SOL    HW117048   1.555   2.726   4.705
 5383SOL    HW217049   1.619   2.602   4.790
 5384SOL     OW17050   5.467   0.105   5.294
 5384SOL    HW117051   5.506   0.015   5.274
 5384SOL    HW217052   5.446   0.152   5.208
 5385SOL     OW17053   3.984   3.504   5.092
 5385SOL    HW117054   3.886   3.518   5.082
 5385SOL    HW217055   4.032   3.591   5.079
 5386SOL     OW17056   4.846   1.404   3.727
 5386SOL    HW117057   4.919   1.340   3.752
 5386SOL    HW217058   4.761   1.376   3.771
 5387SOL     OW17059   2.069   6.590   2.731
 5387SOL    HW117060   2.074   6.687   2.754
 5387SOL    HW217061   2.073   6.536   2.815
 5388SOL     OW17062   1.016   1.152   2.817
 5388SOL    HW117063   1.053   1.069   2.858
 5388SOL    HW217064   0.916   1.146   2.814
 5389SOL     OW17065   4.112   1.146   3.584
 5389SOL    HW117066   4.090   1.240   3.610
 5389SOL    HW217067   4.168   1.146   3.501
 5390SOL     OW17068   5.035   4.105   4.059
 5390SOL    HW117069   4.940   4.075   4.057
 5390SOL    HW217070   5.092   4.040   4.008
 5391SOL     OW17071   2.229   1.421   0.575
 5391SOL    HW117072   2.188   1.488   0.512
 5391SOL    HW217073   2.217   1.329   0.538
 5392SOL     OW17074   5.947   3.611   0.875
 5392SOL    HW117075   5.876   3.625   0.806
 5392SOL    HW217076   5.979   3.517   0.873
 5393SOL     OW17077   4.536   0.929   5.189
 5393SOL    HW117078   4.544   0.829   5.194
 5393SOL    HW217079   4.541   0.968   5.280
 5394SOL     OW17080   0.344   5.842   1.192
 5394SOL    HW117081   0.378   5.778   1.260
 5394SOL    HW217082   0.255   5.810   1.159
 5395SOL     OW17083   5.000   0.387   1.067
 5395SOL    HW117084   5.013   0.468   1.011
 5395SOL    HW217085   5.067   0.317   1.042
 5396SOL     OW17086   5.619   4.738   1.249
 5396SOL    HW117087   5.627   4.681   1.166
 5396SOL    HW217088   5.533   4.788   1.247
 5397SOL     OW17089   0.422   2.274   1.025
 5397SOL    HW117090   0.359   2.281   0.948
 5397SOL    HW217091   0.459   2.181   1.029
 5398SOL     OW17092   2.904   2.048   3.779
 5398SOL    HW117093   2.994   2.005   3.776
 5398SOL    HW217094   2.849   2.005   3.850
 5399SOL     OW17095   2.742   6.624   6.590
 5399SOL    HW117096   2.704   6.596   6.678
 5399SOL    HW217097   2.788   6.546   6.547
 5400SOL     OW17098   3.043   3.697   6.574
 5400SOL    HW117099   2.967   3.691   6.509
 5400SOL    HW217100   3.012   3.740   6.659
 5401SOL     OW17101   6.121   4.440   2.693
 5401SOL    HW117102   6.037   4.401   2.656
 5401SOL    HW217103   6.109   4.539   2.704
 5402SOL     OW17104   2.963   5.855   1.559
 5402SOL    HW117105   2.921   5.826   1.473
 5402SOL    HW217106   3.000   5.776   1.607
 5403SOL     OW17107   4.911   3.384   6.270
 5403SOL    HW117108   4.895   3.395   6.172
 5403SOL    HW217109   4.975   3.454   6.302
 5404SOL     OW17110   0.687   0.681   2.362
 5404SOL    HW117111   0.734   0.726   2.286
 5404SOL    HW217112   0.613   0.624   2.327
 5405SOL     OW17113   5.720   5.389   0.084
 5405SOL    HW117114   5.766   5.338   0.156
 5405SOL    HW217115   5.628   5.353   0.069
 5406SOL     OW17116   1.649   0.573   5.165
 5406SOL    HW117117   1.583   0.648   5.157
 5406SOL    HW217118   1.694   0.559   5.076
 5407SOL     OW17119   3.206   1.977   1.119
 5407SOL    HW117120   3.197   2.040   1.042
 5407SOL    HW217121   3.118   1.934   1.138
 5408SOL     OW17122   3.871   0.138   5.198
 5408SOL    HW117123   3.930   0.182   5.130
 5408SOL    HW217124   3.805   0.080   5.151
 5409SOL     OW17125   6.568   1.741   3.032
 5409SOL    HW117126   6.468   1.743   3.037
 5409SOL    HW217127   6.596   1.660   2.979
 5410SOL     OW17128   1.036   2.448   6.471
 5410SOL    HW117129   1.113   2.450   6.534
 5410SOL    HW217130   1.069   2.421   6.380
 5411SOL     OW17131   5.979   5.432   5.885
 5411SOL    HW117132   5.915   5.378   5.830
 5411SOL    HW217133   5.935   5.519   5.911
 5412SOL     OW17134   3.378   1.463   6.965
 5412SOL    HW117135   3.352   1.556   6.939
 5412SOL    HW217136   3.297   1.404   6.960
 5413SOL     OW17137   6.888   0.532   0.098
 5413SOL    HW117138   6.896   0.466   0.023
 5413SOL    HW217139   6.832   0.610   0.068
 5414SOL     OW17140   6.053   4.176   5.063
 5414SOL    HW117141   5.993   4.107   5.023
 5414SOL    HW217142   6.002   4.262   5.075
 5415SOL     OW17143   1.817   6.604   1.726
 5415SOL    HW117144   1.834   6.579   1.630
 5415SOL    HW217145   1.828   6.702   1.737
 5416SOL     OW17146   3.008   4.934   5.618
 5416SOL    HW117147   3.054   4.969   5.699
 5416SOL    HW217148   3.075   4.894   5.556
 5417SOL     OW17149   4.506   6.401   4.988
 5417SOL    HW117150   4.418   6.373   5.025
 5417SOL    HW217151   4.515   6.501   4.995
 5418SOL     OW17152   5.416   0.189   5.025
 5418SOL    HW117153   5.492   0.125   5.014
 5418SOL    HW217154   5.391   0.227   4.936
 5419SOL     OW17155   3.080   5.371   0.453
 5419SOL    HW117156   3.062   5.411   0.543
 5419SOL    HW217157   3.050   5.276   0.451
 5420SOL     OW17158   2.247   2.446   1.417
 5420SOL    HW117159   2.280   2.512   1.349
 5420SOL    HW217160   2.151   2.463   1.437
 5421SOL     OW17161   2.947   5.231   3.086
 5421SOL    HW117162   2.943   5.164   3.160
 5421SOL    HW217163   3.041   5.240   3.053
 5422SOL     OW17164   0.282   5.317   4.190
 5422SOL    HW117165   0.315   5.236   4.142
 5422SOL    HW217166   0.185   5.332   4.169
 5423SOL     OW17167   5.556   4.872   0.302
 5423SOL    HW117168   5.594   4.856   0.393
 5423SOL    HW217169   5.622   4.842   0.233
 5424SOL     OW17170   5.735   4.002   4.483
 5424SOL    HW117171   5.742   4.036   4.389
 5424SOL    HW217172   5.787   4.061   4.544
 5425SOL     OW17173   5.127   2.115   4.662
 5425SOL    HW117174   5.058   2.187   4.669
 5425SOL    HW217175   5.198   2.143   4.598
 5426SOL     OW17176   5.991   5.768   3.100
 5426SOL    HW117177   6.039   5.754   3.013
 5426SOL    HW217178   5.908   5.712   3.101
 5427SOL     OW17179   5.366   3.959   0.459
 5427SOL    HW117180   5.271   3.943   0.486
 5427SOL    HW217181   5.369   4.023   0.382
 5428SOL     OW17182   5.820   6.945   2.305
 5428SOL    HW117183   5.862   7.015   2.363
 5428SOL    HW217184   5.887   6.913   2.238
 5429SOL     OW17185   2.381   0.836   6.237
 5429SOL    HW117186   2.360   0.739   6.224
 5429SOL    HW217187   2.429   0.848   6.324
 5430SOL     OW17188   2.128   2.869   6.004
 5430SOL    HW117189   2.079   2.953   5.982
 5430SOL    HW217190   2.197   2.851   5.934
 5431SOL     OW17191   3.248   4.231   6.515
 5431SOL    HW117192   3.281   4.206   6.424
 5431SOL    HW217193   3.265   4.328   6.531
 5432SOL     OW17194   3.222   5.306   6.490
 5432SOL    HW117195   3.283   5.234   6.457
 5432SOL    HW217196   3.255   5.395   6.458
 5433SOL     OW17197   0.827   0.926   2.600
 5433SOL    HW117198   0.749   0.871   2.627
 5433SOL    HW217199   0.906   0.903   2.656
 5434SOL     OW17200   3.947   0.625   4.192
 5434SOL    HW117201   3.877   0.627   4.120
 5434SOL    HW217202   4.017   0.695   4.172
 5435SOL     OW17203   6.340   2.333   1.008
 5435SOL    HW117204   6.340   2.422   1.054
 5435SOL    HW217205   6.434   2.301   0.997
 5436SOL     OW17206   5.772   4.641   3.966
 5436SOL    HW117207   5.773   4.735   4.000
 5436SOL    HW217208   5.789   4.577   4.041
 5437SOL     OW17209   2.609   5.629   5.356
 5437SOL    HW117210   2.543   5.704   5.347
 5437SOL    HW217211   2.678   5.638   5.285
 5438SOL     OW17212   6.084   3.038   2.116
 5438SOL    HW117213   6.125   3.016   2.027
 5438SOL    HW217214   6.135   2.992   2.188
 5439SOL     OW17215   0.640   2.394   0.286
 5439SOL    HW117216   0.593   2.309   0.261
 5439SOL    HW217217   0.575   2.456   0.330
 5440SOL     OW17218   6.618   6.546   3.575
 5440SOL    HW117219   6.706   6.500   3.567
 5440SOL    HW217220   6.564   6.502   3.648
 5441SOL     OW17221   4.862   2.924   3.461
 5441SOL    HW117222   4.926   2.885   3.527
 5441SOL    HW217223   4.857   3.023   3.474
 5442SOL     OW17224   4.209   6.890   2.531
 5442SOL    HW117225   4.237   6.795   2.547
 5442SOL    HW217226   4.262   6.928   2.456
 5443SOL     OW17227   3.530   5.293   3.638
 5443SOL    HW117228   3.539   5.391   3.619
 5443SOL    HW217229   3.620   5.251   3.639
 5444SOL     OW17230   0.164   0.540   3.280
 5444SOL    HW117231   0.203   0.477   3.212
 5444SOL    HW217232   0.071   0.564   3.253
 5445SOL     OW17233   6.534   3.992   4.226
 5445SOL    HW117234   6.474   4.070   4.209
 5445SOL    HW217235   6.596   3.980   4.149
 5446SOL     OW17236   5.785   5.244   4.743
 5446SOL    HW117237   5.710   5.185   4.715
 5446SOL    HW217238   5.856   5.190   4.788
 5447SOL     OW17239   1.523   1.253   0.397
 5447SOL    HW117240   1.603   1.301   0.432
 5447SOL    HW217241   1.449   1.318   0.381
 5448SOL     OW17242   5.094   4.779   4.114
 5448SOL    HW117243   5.112   4.874   4.089
 5448SOL    HW217244   5.027   4.776   4.189
 5449SOL     OW17245   2.134   1.620   1.014
 5449SOL    HW117246   2.193   1.548   0.977
 5449SOL    HW217247   2.039   1.599   0.992
 5450SOL     OW17248   3.037   0.383   0.858
 5450SOL    HW117249   2.994   0.339   0.937
 5450SOL    HW217250   3.016   0.330   0.776
 5451SOL     OW17251   2.489   6.285   3.628
 5451SOL    HW117252   2.458   6.357   3.565
 5451SOL    HW217253   2.448   6.299   3.717
 5452SOL     OW17254   2.521   4.096   0.291
 5452SOL    HW117255   2.457   4.027   0.257
 5452SOL    HW217256   2.488   4.187   0.267
 5453SOL     OW17257   5.321   4.295   2.626
 5453SOL    HW117258   5.259   4.289   2.704
 5453SOL    HW217259   5.404   4.344   2.654
 5454SOL     OW17260   4.963   5.898   0.054
 5454SOL    HW117261   5.025   5.819   0.059
 5454SOL    HW217262   4.959   5.931   6.978
 5455SOL     OW17263   0.422   2.611   3.713
 5455SOL    HW117264   0.325   2.610   3.690
 5455SOL    HW217265   0.438   2.676   3.787
 5456SOL     OW17266   3.342   0.485   0.239
 5456SOL    HW117267   3.258   0.507   0.189
 5456SOL    HW217268   3.414   0.549   0.213
 5457SOL     OW17269   6.239   2.210   1.379
 5457SOL    HW117270   6.191   2.277   1.436
 5457SOL    HW217271   6.221   2.118   1.413
 5458SOL     OW17272   0.749   5.082   0.114
 5458SOL    HW117273   0.654   5.100   0.137
 5458SOL    HW217274   0.787   5.161   0.066
 5459SOL     OW17275   3.051   3.968   5.655
 5459SOL    HW117276   2.974   3.906   5.642
 5459SOL    HW217277   3.107   3.936   5.732
 5460SOL     OW17278   3.689   6.841   2.801
 5460SOL    HW117279   3.640   6.907   2.859
 5460SOL    HW217280   3.656   6.848   2.707
 5461SOL     OW17281   0.590   0.527   4.943
 5461SOL    HW117282   0.677   0.577   4.947
 5461SOL    HW217283   0.586   0.461   5.018
 5462SOL     OW17284   5.626   6.502   0.027
 5462SOL    HW117285   5.571   6.464   6.971
 5462SOL    HW217286   5.662   6.592   0.000
 5463SOL     OW17287   0.475   1.719   6.966
 5463SOL    HW117288   0.518   1.649   6.910
 5463SOL    HW217289   0.399   1.761   6.916
 5464SOL     OW17290   6.220   0.009   5.006
 5464SOL    HW117291   6.306   0.043   4.968
 5464SOL    HW217292   6.237   6.987   5.096
 5465SOL     OW17293   5.247   0.711   3.997
 5465SOL    HW117294   5.174   0.642   4.002
 5465SOL    HW217295   5.212   0.792   3.950
 5466SOL     OW17296   5.129   2.839   5.758
 5466SOL    HW117297   5.089   2.825   5.849
 5466SOL    HW217298   5.121   2.935   5.733
 5467SOL     OW17299   5.189   3.731   3.754
 5467SOL    HW117300   5.239   3.807   3.795
 5467SOL    HW217301   5.237   3.645   3.772
 5468SOL     OW17302   6.129   1.997   4.568
 5468SOL    HW117303   6.127   1.952   4.657
 5468SOL    HW217304   6.224   2.007   4.538
 5469SOL     OW17305   3.504   6.190   5.605
 5469SOL    HW117306   3.452   6.194   5.519
 5469SOL    HW217307   3.443   6.211   5.681
 5470SOL     OW17308   3.526   5.547   3.542
 5470SOL    HW117309   3.478   5.631   3.567
 5470SOL    HW217310   3.528   5.538   3.443
 5471SOL     OW17311   6.516   0.434   3.604
 5471SOL    HW117312   6.514   0.362   3.535
 5471SOL    HW217313   6.479   0.398   3.690
 5472SOL     OW17314   2.906   3.646   6.135
 5472SOL    HW117315   2.881   3.684   6.046
 5472SOL    HW217316   3.005   3.630   6.138
 5473SOL     OW17317   1.244   3.489   1.607
 5473SOL    HW117318   1.321   3.491   1.543
 5473SOL    HW217319   1.158   3.494   1.556
 5474SOL     OW17320   1.368   4.541   4.624
 5474SOL    HW117321   1.335   4.524   4.531
 5474SOL    HW217322   1.432   4.469   4.651
 5475SOL     OW17323   1.922   2.381   1.141
 5475SOL    HW117324   1.952   2.476   1.153
 5475SOL    HW217325   1.959   2.325   1.216
 5476SOL     OW17326   2.341   4.508   4.690
 5476SOL    HW117327   2.251   4.547   4.670
 5476SOL    HW217328   2.334   4.408   4.693
 5477SOL     OW17329   2.222   4.113   2.472
 5477SOL    HW117330   2.279   4.188   2.507
 5477SOL    HW217331   2.148   4.096   2.538
 5478SOL     OW17332   3.793   6.601   5.380
 5478SOL    HW117333   3.770   6.621   5.284
 5478SOL    HW217334   3.714   6.561   5.426
 5479SOL     OW17335   5.603   1.833   5.508
 5479SOL    HW117336   5.530   1.891   5.543
 5479SOL    HW217337   5.656   1.796   5.584
 5480SOL     OW17338   6.029   5.939   3.950
 5480SOL    HW117339   5.975   6.002   3.895
 5480SOL    HW217340   5.975   5.909   4.029
 5481SOL     OW17341   4.456   0.876   4.664
 5481SOL    HW117342   4.362   0.842   4.661
 5481SOL    HW217343   4.516   0.812   4.615
 5482SOL     OW17344   3.616   3.911   1.671
 5482SOL    HW117345   3.698   3.906   1.615
 5482SOL    HW217346   3.639   3.892   1.767
 5483SOL     OW17347   0.127   2.660   5.242
 5483SOL    HW117348   0.050   2.692   5.298
 5483SOL    HW217349   0.101   2.576   5.195
 5484SOL     OW17350   4.508   0.578   3.695
 5484SOL    HW117351   4.569   0.578   3.775
 5484SOL    HW217352   4.541   0.511   3.628
 5485SOL     OW17353   3.683   0.011   5.069
 5485SOL    HW117354   3.600   0.041   5.022
 5485SOL    HW217355   3.660   6.998   5.161
 5486SOL     OW17356   1.568   5.781   5.300
 5486SOL    HW117357   1.563   5.730   5.214
 5486SOL    HW217358   1.645   5.747   5.355
 5487SOL     OW17359   5.179   3.098   6.411
 5487SOL    HW117360   5.263   3.043   6.406
 5487SOL    HW217361   5.201   3.188   6.449
 5488SOL     OW17362   6.278   0.816   1.017
 5488SOL    HW117363   6.254   0.721   1.035
 5488SOL    HW217364   6.375   0.830   1.035
 5489SOL     OW17365   1.138   4.135   0.940
 5489SOL    HW117366   1.157   4.069   1.013
 5489SOL    HW217367   1.070   4.201   0.972
 5490SOL     OW17368   2.660   0.173   0.941
 5490SOL    HW117369   2.758   0.154   0.945
 5490SOL    HW217370   2.609   0.088   0.936
 5491SOL     OW17371   1.886   4.073   0.918
 5491SOL    HW117372   1.860   4.091   1.013
 5491SOL    HW217373   1.948   4.145   0.887
 5492SOL     OW17374   0.099   2.541   5.897
 5492SOL    HW117375   0.085   2.453   5.851
 5492SOL    HW217376   0.139   2.606   5.832
 5493SOL     OW17377   3.880   3.965   4.038
 5493SOL    HW117378   3.921   3.997   3.953
 5493SOL    HW217379   3.782   3.988   4.038
 5494SOL     OW17380   6.324   2.508   6.192
 5494SOL    HW117381   6.305   2.439   6.122
 5494SOL    HW217382   6.320   2.599   6.151
 5495SOL     OW17383   3.253   1.962   0.620
 5495SOL    HW117384   3.237   1.881   0.564
 5495SOL    HW217385   3.186   1.966   0.693
 5496SOL     OW17386   3.551   0.354   3.340
 5496SOL    HW117387   3.544   0.382   3.436
 5496SOL    HW217388   3.617   0.278   3.333
 5497SOL     OW17389   0.810   1.855   4.060
 5497SOL    HW117390   0.773   1.865   3.967
 5497SOL    HW217391   0.772   1.773   4.102
 5498SOL     OW17392   5.870   6.098   1.001
 5498SOL    HW117393   5.898   6.086   0.906
 5498SOL    HW217394   5.774   6.073   1.011
 5499SOL     OW17395   0.812   0.518   4.583
 5499SOL    HW117396   0.817   0.456   4.661
 5499SOL    HW217397   0.716   0.533   4.559
 5500SOL     OW17398   0.907   0.643   0.516
 5500SOL    HW117399   0.902   0.565   0.578
 5500SOL    HW217400   0.987   0.699   0.538
 5501SOL     OW17401   3.806   6.704   0.050
 5501SOL    HW117402   3.847   6.697   0.141
 5501SOL    HW217403   3.720   6.754   0.055
 5502SOL     OW17404   5.579   3.199   0.387
 5502SOL    HW117405   5.507   3.150   0.338
 5502SOL    HW217406   5.652   3.134   0.412
 5503SOL     OW17407   0.599   4.828   2.175
 5503SOL    HW117408   0.530   4.766   2.212
 5503SOL    HW217409   0.627   4.893   2.246
 5504SOL     OW17410   3.744   1.086   5.006
 5504SOL    HW117411   3.697   1.118   5.088
 5504SOL    HW217412   3.828   1.138   4.992
 5505SOL     OW17413   1.652   5.218   4.535
 5505SOL    HW117414   1.710   5.218   4.454
 5505SOL    HW217415   1.684   5.150   4.599
 5506SOL     OW17416   1.198   2.334   6.267
 5506SOL    HW117417   1.294   2.332   6.293
 5506SOL    HW217418   1.190   2.370   6.174
 5507SOL     OW17419   3.641   0.886   4.113
 5507SOL    HW117420   3.614   0.871   4.208
 5507SOL    HW217421   3.676   0.800   4.074
 5508SOL     OW17422   1.551   0.885   5.955
 5508SOL    HW117423   1.586   0.811   6.012
 5508SOL    HW217424   1.546   0.970   6.008
 5509SOL     OW17425   0.213   6.475   6.920
 5509SOL    HW117426   0.132   6.506   6.970
 5509SOL    HW217427   0.211   6.512   6.827
 5510SOL     OW17428   5.409   5.206   0.600
 5510SOL    HW117429   5.354   5.273   0.650
 5510SOL    HW217430   5.498   5.196   0.644
 5511SOL     OW17431   1.887   1.709   4.147
 5511SOL    HW117432   1.857   1.622   4.110
 5511SOL    HW217433   1.970   1.739   4.101
 5512SOL     OW17434   5.889   2.274   1.504
 5512SOL    HW117435   5.882   2.254   1.601
 5512SOL    HW217436   5.874   2.190   1.452
 5513SOL     OW17437   4.267   4.763   6.855
 5513SOL    HW117438   4.297   4.823   6.780
 5513SOL    HW217439   4.333   4.768   6.930
 5514SOL     OW17440   4.263   6.686   4.148
 5514SOL    HW117441   4.221   6.602   4.181
 5514SOL    HW217442   4.309   6.668   4.061
 5515SOL     OW17443   0.659   5.502   1.801
 5515SOL    HW117444   0.759   5.507   1.809
 5515SOL    HW217445   0.631   5.533   1.710
 5516SOL     OW17446   1.914   4.167   6.490
 5516SOL    HW117447   1.931   4.083   6.542
 5516SOL    HW217448   1.969   4.167   6.407
 5517SOL     OW17449   2.086   3.341   2.065
 5517SOL    HW117450   2.148   3.388   2.002
 5517SOL    HW217451   2.086   3.387   2.153
 5518SOL     OW17452   5.886   6.091   6.355
 5518SOL    HW117453   5.955   6.069   6.287
 5518SOL    HW217454   5.921   6.071   6.447
 5519SOL     OW17455   5.516   3.605   3.584
 5519SOL    HW117456   5.527   3.697   3.621
 5519SOL    HW217457   5.452   3.553   3.641
 5520SOL     OW17458   6.011   5.983   2.122
 5520SOL    HW117459   6.064   5.921   2.178
 5520SOL    HW217460   5.924   6.004   2.168
 5521SOL     OW17461   5.340   6.458   1.486
 5521SOL    HW117462   5.317   6.534   1.547
 5521SOL    HW217463   5.341   6.373   1.538
 5522SOL     OW17464   0.589   5.356   0.402
 5522SOL    HW117465   0.627   5.269   0.434
 5522SOL    HW217466   0.499   5.340   0.361
 5523SOL     OW17467   4.115   0.508   2.240
 5523SOL    HW117468   4.102   0.576   2.167
 5523SOL    HW217469   4.087   0.418   2.207
 5524SOL     OW17470   5.524   6.871   5.251
 5524SOL    HW117471   5.610   6.824   5.231
 5524SOL    HW217472   5.448   6.809   5.235
 5525SOL     OW17473   0.499   1.964   1.109
 5525SOL    HW117474   0.485   1.874   1.150
 5525SOL    HW217475   0.448   1.970   1.023
 5526SOL     OW17476   4.874   5.379   3.617
 5526SOL    HW117477   4.973   5.375   3.607
 5526SOL    HW217478   4.833   5.297   3.577
 5527SOL     OW17479   5.231   3.911   4.002
 5527SOL    HW117480   5.296   3.950   4.067
 5527SOL    HW217481   5.171   3.846   4.049
 5528SOL     OW17482   1.340   1.053   6.288
 5528SOL    HW117483   1.332   1.124   6.359
 5528SOL    HW217484   1.412   1.079   6.224
 5529SOL     OW17485   3.023   0.170   3.306
 5529SOL    HW117486   3.070   0.165   3.218
 5529SOL    HW217487   3.082   0.217   3.372
 5530SOL     OW17488   5.874   2.248   1.777
 5530SOL    HW117489   5.960   2.200   1.790
 5530SOL    HW217490   5.800   2.183   1.760
 5531SOL     OW17491   3.030   3.052   2.445
 5531SOL    HW117492   3.038   3.006   2.357
 5531SOL    HW217493   3.098   3.016   2.508
 5532SOL     OW17494   1.373   2.694   0.586
 5532SOL    HW117495   1.364   2.597   0.610
 5532SOL    HW217496   1.451   2.733   0.634
 5533SOL     OW17497   3.871   1.839   3.162
 5533SOL    HW117498   3.929   1.818   3.241
 5533SOL    HW217499   3.787   1.883   3.193
 5534SOL     OW17500   0.382   1.526   6.147
 5534SOL    HW117501   0.395   1.563   6.055
 5534SOL    HW217502   0.467   1.485   6.179
 5535SOL     OW17503   6.549   2.646   3.318
 5535SOL    HW117504   6.572   2.717   3.252
 5535SOL    HW217505   6.451   2.625   3.313
 5536SOL     OW17506   3.550   1.090   3.949
 5536SOL    HW117507   3.523   1.181   3.982
 5536SOL    HW217508   3.570   1.031   4.027
 5537SOL     OW17509   3.033   0.578   2.534
 5537SOL    HW117510   3.111   0.600   2.474
 5537SOL    HW217511   3.058   0.598   2.629
 5538SOL     OW17512   2.426   6.194   5.877
 5538SOL    HW117513   2.415   6.094   5.880
 5538SOL    HW217514   2.462   6.221   5.788
 5539SOL     OW17515   1.410   2.892   1.337
 5539SOL    HW117516   1.413   2.980   1.384
 5539SOL    HW217517   1.386   2.820   1.402
 5540SOL     OW17518   4.987   4.273   3.850
 5540SOL    HW117519   5.064   4.334   3.830
 5540SOL    HW217520   5.012   4.212   3.925
 5541SOL     OW17521   6.094   0.360   6.600
 5541SOL    HW117522   6.064   0.454   6.584
 5541SOL    HW217523   6.104   0.344   6.698
 5542SOL     OW17524   5.677   3.956   5.959
 5542SOL    HW117525   5.629   4.006   5.887
 5542SOL    HW217526   5.620   3.879   5.989
 5543SOL     OW17527   3.920   5.040   5.399
 5543SOL    HW117528   3.917   5.098   5.480
 5543SOL    HW217529   4.014   5.038   5.363
 5544SOL     OW17530   5.140   6.372   6.634
 5544SOL    HW117531   5.237   6.361   6.616
 5544SOL    HW217532   5.127   6.438   6.709
 5545SOL     OW17533   3.685   1.182   1.810
 5545SOL    HW117534   3.750   1.234   1.866
 5545SOL    HW217535   3.661   1.234   1.728
 5546SOL     OW17536   0.793   5.060   4.896
 5546SOL    HW117537   0.750   5.140   4.855
 5546SOL    HW217538   0.738   4.979   4.877
 5547SOL     OW17539   2.275   0.120   4.769
 5547SOL    HW117540   2.183   0.118   4.728
 5547SOL    HW217541   2.284   0.202   4.825
 5548SOL     OW17542   5.289   3.211   5.603
 5548SOL    HW117543   5.295   3.242   5.508
 5548SOL    HW217544   5.375   3.166   5.629
 5549SOL     OW17545   4.210   3.793   6.355
 5549SOL    HW117546   4.153   3.772   6.435
 5549SOL    HW217547   4.153   3.835   6.284
 5550SOL     OW17548   2.253   4.406   1.929
 5550SOL    HW117549   2.284   4.333   1.990
 5550SOL    HW217550   2.323   4.422   1.859
 5551SOL     OW17551   2.106   0.514   3.516
 5551SOL    HW117552   2.120   0.603   3.473
 5551SOL    HW217553   2.016   0.479   3.490
 5552SOL     OW17554   6.730   0.789   0.026
 5552SOL    HW117555   6.726   0.879   0.070
 5552SOL    HW217556   6.753   0.800   6.947
 5553SOL     OW17557   4.722   6.507   6.980
 5553SOL    HW117558   4.792   6.529   6.912
 5553SOL    HW217559   4.705   6.408   6.979
 5554SOL     OW17560   3.898   1.784   5.443
 5554SOL    HW117561   3.937   1.695   5.420
 5554SOL    HW217562   3.972   1.849   5.463
 5555SOL     OW17563   1.934   4.656   4.298
 5555SOL    HW117564   1.973   4.624   4.212
 5555SOL    HW217565   1.940   4.584   4.367
 5556SOL     OW17566   6.910   1.998   3.838
 5556SOL    HW117567   6.987   1.934   3.836
 5556SOL    HW217568   6.827   1.951   3.807
 5557SOL     OW17569   3.865   6.569   2.655
 5557SOL    HW117570   3.879   6.668   2.653
 5557SOL    HW217571   3.836   6.541   2.746
 5558SOL     OW17572   4.636   3.217   6.045
 5558SOL    HW117573   4.684   3.275   6.111
 5558SOL    HW217574   4.565   3.164   6.092
 5559SOL     OW17575   3.172   6.896   1.999
 5559SOL    HW117576   3.239   6.895   2.072
 5559SOL    HW217577   3.106   6.969   2.015
 5560SOL     OW17578   1.016   6.653   3.598
 5560SOL    HW117579   1.045   6.658   3.503
 5560SOL    HW217580   0.917   6.645   3.603
 5561SOL     OW17581   2.140   2.634   4.048
 5561SOL    HW117582   2.120   2.703   4.118
 5561SOL    HW217583   2.075   2.559   4.057
 5562SOL     OW17584   2.725   2.354   0.135
 5562SOL    HW117585   2.654   2.361   0.065
 5562SOL    HW217586   2.709   2.271   0.190
 5563SOL     OW17587   4.307   5.813   2.408
 5563SOL    HW117588   4.237   5.854   2.350
 5563SOL    HW217589   4.375   5.767   2.351
 5564SOL     OW17590   4.816   1.147   2.037
 5564SOL    HW117591   4.820   1.187   1.945
 5564SOL    HW217592   4.729   1.171   2.080
 5565SOL     OW17593   4.826   1.898   6.847
 5565SOL    HW117594   4.766   1.938   6.777
 5565SOL    HW217595   4.919   1.931   6.833
 5566SOL     OW17596   1.946   5.767   0.128
 5566SOL    HW117597   1.958   5.813   0.216
 5566SOL    HW217598   1.913   5.674   0.143
 5567SOL     OW17599   0.203   4.676   2.092
 5567SOL    HW117600   0.191   4.689   2.191
 5567SOL    HW217601   0.114   4.680   2.047
 5568SOL     OW17602   4.442   2.364   3.293
 5568SOL    HW117603   4.400   2.278   3.322
 5568SOL    HW217604   4.406   2.390   3.204
 5569SOL     OW17605   2.721   1.548   2.190
 5569SOL    HW117606   2.789   1.621   2.199
 5569SOL    HW217607   2.729   1.506   2.100
 5570SOL     OW17608   5.418   5.074   4.898
 5570SOL    HW117609   5.444   5.093   4.992
 5570SOL    HW217610   5.330   5.117   4.878
 5571SOL     OW17611   0.114   6.388   0.749
 5571SOL    HW117612   0.028   6.369   0.702
 5571SOL    HW217613   0.158   6.468   0.706
 5572SOL     OW17614   1.382   2.419   4.737
 5572SOL    HW117615   1.389   2.377   4.647
 5572SOL    HW217616   1.430   2.507   4.738
 5573SOL     OW17617   1.967   3.261   6.800
 5573SOL    HW117618   2.009   3.258   6.709
 5573SOL    HW217619   1.875   3.221   6.795
 5574SOL     OW17620   6.234   1.670   3.893
 5574SOL    HW117621   6.279   1.710   3.813
 5574SOL    HW217622   6.297   1.668   3.970
 5575SOL     OW17623   0.149   1.539   1.957
 5575SOL    HW117624   0.190   1.630   1.967
 5575SOL    HW217625   0.213   1.478   1.910
 5576SOL     OW17626   0.538   6.336   2.229
 5576SOL    HW117627   0.567   6.282   2.151
 5576SOL    HW217628   0.577   6.428   2.223
 5577SOL     OW17629   2.907   2.722   5.871
 5577SOL    HW117630   2.814   2.749   5.846
 5577SOL    HW217631   2.956   2.692   5.789
 5578SOL     OW17632   4.145   3.883   0.494
 5578SOL    HW117633   4.149   3.947   0.417
 5578SOL    HW217634   4.050   3.855   0.509
 5579SOL     OW17635   6.691   3.761   6.223
 5579SOL    HW117636   6.645   3.814   6.293
 5579SOL    HW217637   6.786   3.744   6.250
 5580SOL     OW17638   4.191   2.405   6.056
 5580SOL    HW117639   4.286   2.427   6.077
 5580SOL    HW217640   4.149   2.481   6.007
 5581SOL     OW17641   2.478   6.464   2.087
 5581SOL    HW117642   2.524   6.447   2.000
 5581SOL    HW217643   2.499   6.556   2.118
 5582SOL     OW17644   3.838   3.380   3.533
 5582SOL    HW117645   3.814   3.434   3.453
 5582SOL    HW217646   3.760   3.325   3.562
 5583SOL     OW17647   4.414   7.016   2.691
 5583SOL    HW117648   4.347   7.007   2.618
 5583SOL    HW217649   4.473   0.077   2.673
 5584SOL     OW17650   5.409   4.013   4.590
 5584SOL    HW117651   5.474   4.024   4.514
 5584SOL    HW217652   5.393   4.102   4.632
 5585SOL     OW17653   4.739   6.570   4.080
 5585SOL    HW117654   4.826   6.602   4.040
 5585SOL    HW217655   4.689   6.518   4.011
 5586SOL     OW17656   0.794   2.387   6.631
 5586SOL    HW117657   0.809   2.294   6.662
 5586SOL    HW217658   0.857   2.408   6.556
 5587SOL     OW17659   4.566   6.205   2.389
 5587SOL    HW117660   4.532   6.239   2.302
 5587SOL    HW217661   4.597   6.111   2.379
 5588SOL     OW17662   1.360   6.971   3.212
 5588SOL    HW117663   1.316   0.038   3.242
 5588SOL    HW217664   1.362   6.968   3.112
 5589SOL     OW17665   6.089   2.908   6.849
 5589SOL    HW117666   6.018   2.839   6.865
 5589SOL    HW217667   6.047   2.998   6.843
 5590SOL     OW17668   0.183   5.597   3.289
 5590SOL    HW117669   0.245   5.656   3.237
 5590SOL    HW217670   0.102   5.576   3.235
 5591SOL     OW17671   6.015   1.077   6.644
 5591SOL    HW117672   6.031   1.171   6.614
 5591SOL    HW217673   6.103   1.032   6.660
 5592SOL     OW17674   1.305   4.255   2.810
 5592SOL    HW117675   1.310   4.171   2.757
 5592SOL    HW217676   1.338   4.332   2.754
 5593SOL     OW17677   6.551   2.110   5.905
 5593SOL    HW117678   6.648   2.116   5.884
 5593SOL    HW217679   6.531   2.020   5.945
 5594SOL     OW17680   2.641   1.249   6.683
 5594SOL    HW117681   2.641   1.177   6.752
 5594SOL    HW217682   2.605   1.333   6.724
 5595SOL     OW17683   6.109   0.888   5.109
 5595SOL    HW117684   6.055   0.830   5.049
 5595SOL    HW217685   6.191   0.838   5.138
 5596SOL     OW17686   4.913   0.301   2.246
 5596SOL    HW117687   5.000   0.253   2.252
 5596SOL    HW217688   4.927   0.399   2.258
 5597SOL     OW17689   5.423   1.993   4.949
 5597SOL    HW117690   5.473   2.039   4.876
 5597SOL    HW217691   5.465   1.904   4.968
 5598SOL     OW17692   5.130   2.172   3.718
 5598SOL    HW117693   5.050   2.112   3.724
 5598SOL    HW217694   5.125   2.226   3.634
 5599SOL     OW17695   6.751   3.304   2.209
 5599SOL    HW117696   6.771   3.242   2.133
 5599SOL    HW217697   6.661   3.283   2.247
 5600SOL     OW17698   2.030   0.613   2.268
 5600SOL    HW117699   1.937   0.590   2.238
 5600SOL    HW217700   2.064   0.541   2.328
 5601SOL     OW17701   4.121   1.799   6.313
 5601SOL    HW117702   4.186   1.761   6.379
 5601SOL    HW217703   4.038   1.827   6.361
 5602SOL     OW17704   0.629   0.834   3.079
 5602SOL    HW117705   0.592   0.904   3.140
 5602SOL    HW217706   0.559   0.806   3.014
 5603SOL     OW17707   5.029   2.228   5.503
 5603SOL    HW117708   5.031   2.165   5.581
 5603SOL    HW217709   5.122   2.245   5.471
 5604SOL     OW17710   0.242   2.065   4.709
 5604SOL    HW117711   0.183   2.123   4.653
 5604SOL    HW217712   0.337   2.078   4.681
 5605SOL     OW17713   1.534   6.680   4.669
 5605SOL    HW117714   1.601   6.609   4.689
 5605SOL    HW217715   1.581   6.763   4.638
 5606SOL     OW17716   4.368   0.587   0.439
 5606SOL    HW117717   4.282   0.555   0.480
 5606SOL    HW217718   4.438   0.516   0.449
 5607SOL     OW17719   5.259   1.906   3.506
 5607SOL    HW117720   5.188   1.882   3.572
 5607SOL    HW217721   5.274   2.005   3.507
 5608SOL     OW17722   5.866   1.335   3.432
 5608SOL    HW117723   5.831   1.426   3.458
 5608SOL    HW217724   5.939   1.346   3.365
 5609SOL     OW17725   4.948   5.597   0.804
 5609SOL    HW117726   4.884   5.601   0.727
 5609SOL    HW217727   5.033   5.642   0.779
 5610SOL     OW17728   6.020   3.770   1.717
 5610SOL    HW117729   6.047   3.866   1.703
 5610SOL    HW217730   5.937   3.767   1.772
 5611SOL     OW17731   0.570   5.548   2.253
 5611SOL    HW117732   0.585   5.469   2.194
 5611SOL    HW217733   0.474   5.553   2.280
 5612SOL     OW17734   3.598   2.826   0.640
 5612SOL    HW117735   3.639   2.911   0.675
 5612SOL    HW217736   3.607   2.822   0.541
 5613SOL     OW17737   6.439   4.646   5.470
 5613SOL    HW117738   6.516   4.685   5.520
 5613SOL    HW217739   6.372   4.717   5.451
 5614SOL     OW17740   5.892   3.119   5.084
 5614SOL    HW117741   5.915   3.143   5.178
 5614SOL    HW217742   5.972   3.079   5.039
 5615SOL     OW17743   6.998   1.490   3.045
 5615SOL    HW117744   0.073   1.518   3.068
 5615SOL    HW217745   6.970   1.535   2.960
 5616SOL     OW17746   2.329   2.776   4.876
 5616SOL    HW117747   2.303   2.721   4.955
 5616SOL    HW217748   2.348   2.870   4.906
 5617SOL     OW17749   1.393   3.552   4.783
 5617SOL    HW117750   1.367   3.629   4.841
 5617SOL    HW217751   1.439   3.586   4.701
 5618SOL     OW17752   6.949   4.792   3.474
 5618SOL    HW117753   6.919   4.768   3.566
 5618SOL    HW217754   6.917   4.723   3.409
 5619SOL     OW17755   3.404   3.545   3.365
 5619SOL    HW117756   3.374   3.479   3.433
 5619SOL    HW217757   3.462   3.614   3.409
 5620SOL     OW17758   4.907   3.866   6.508
 5620SOL    HW117759   4.956   3.947   6.477
 5620SOL    HW217760   4.812   3.890   6.530
 5621SOL     OW17761   1.757   3.439   5.932
 5621SOL    HW117762   1.682   3.375   5.952
 5621SOL    HW217763   1.820   3.441   6.009
 5622SOL     OW17764   4.992   6.729   5.824
 5622SOL    HW117765   5.035   6.648   5.784
 5622SOL    HW217766   4.992   6.803   5.758
 5623SOL     OW17767   4.501   5.974   5.029
 5623SOL    HW117768   4.428   6.014   4.973
 5623SOL    HW217769   4.567   5.928   4.969
 5624SOL     OW17770   0.256   5.390   3.863
 5624SOL    HW117771   0.273   5.294   3.841
 5624SOL    HW217772   0.174   5.398   3.919
 5625SOL     OW17773   6.928   5.329   5.489
 5625SOL    HW117774   6.921   5.408   5.429
 5625SOL    HW217775   6.837   5.297   5.513
 5626SOL     OW17776   2.536   5.670   4.200
 5626SOL    HW117777   2.598   5.609   4.249
 5626SOL    HW217778   2.505   5.625   4.116
 5627SOL     OW17779   6.877   5.232   6.478
 5627SOL    HW117780   6.781   5.219   6.454
 5627SOL    HW217781   6.907   5.323   6.448
 5628SOL     OW17782   2.743   2.483   0.975
 5628SOL    HW117783   2.815   2.430   1.020
 5628SOL    HW217784   2.703   2.548   1.040
 5629SOL     OW17785   5.058   2.663   1.905
 5629SOL    HW117786   4.992   2.739   1.902
 5629SOL    HW217787   5.036   2.603   1.982
 5630SOL     OW17788   2.075   4.306   6.712
 5630SOL    HW117789   2.040   4.400   6.713
 5630SOL    HW217790   2.016   4.250   6.653
 5631SOL     OW17791   5.666   1.462   1.031
 5631SOL    HW117792   5.666   1.378   1.086
 5631SOL    HW217793   5.662   1.439   0.934
 5632SOL     OW17794   4.371   1.805   5.231
 5632SOL    HW117795   4.312   1.762   5.162
 5632SOL    HW217796   4.349   1.767   5.321
 5633SOL     OW17797   6.010   4.841   4.515
 5633SOL    HW117798   6.008   4.745   4.543
 5633SOL    HW217799   6.083   4.855   4.448
 5634SOL     OW17800   2.106   4.793   3.726
 5634SOL    HW117801   2.204   4.773   3.728
 5634SOL    HW217802   2.091   4.883   3.685
 5635SOL     OW17803   2.387   6.268   6.491
 5635SOL    HW117804   2.398   6.219   6.578
 5635SOL    HW217805   2.331   6.213   6.429
 5636SOL     OW17806   5.855   0.764   5.567
 5636SOL    HW117807   5.918   0.690   5.541
 5636SOL    HW217808   5.801   0.791   5.487
 5637SOL     OW17809   3.772   6.918   3.762
 5637SOL    HW117810   3.778   6.838   3.821
 5637SOL    HW217811   3.730   6.993   3.812
 5638SOL     OW17812   6.254   4.990   1.147
 5638SOL    HW117813   6.181   4.929   1.177
 5638SOL    HW217814   6.332   4.935   1.116
 5639SOL     OW17815   2.934   0.477   1.740
 5639SOL    HW117816   2.960   0.513   1.651
 5639SOL    HW217817   2.841   0.441   1.736
 5640SOL     OW17818   2.677   0.359   2.581
 5640SOL    HW117819   2.729   0.375   2.666
 5640SOL    HW217820   2.726   0.400   2.504
 5641SOL     OW17821   0.007   4.918   5.972
 5641SOL    HW117822   6.992   5.012   5.960
 5641SOL    HW217823   0.103   4.911   5.945
 5642SOL     OW17824   0.961   5.281   5.041
 5642SOL    HW117825   1.037   5.253   5.099
 5642SOL    HW217826   0.963   5.231   4.955
 5643SOL     OW17827   3.587   0.821   4.386
 5643SOL    HW117828   3.541   0.747   4.435
 5643SOL    HW217829   3.585   0.904   4.442
 5644SOL     OW17830   3.510   0.441   3.755
 5644SOL    HW117831   3.483   0.517   3.695
 5644SOL    HW217832   3.609   0.430   3.752
 5645SOL     OW17833   6.112   4.060   3.394
 5645SOL    HW117834   6.194   4.051   3.337
 5645SOL    HW217835   6.047   4.122   3.349
 5646SOL     OW17836   1.787   6.112   3.235
 5646SOL    HW117837   1.750   6.203   3.252
 5646SOL    HW217838   1.774   6.088   3.139
 5647SOL     OW17839   6.269   6.861   0.173
 5647SOL    HW117840   6.330   6.913   0.112
 5647SOL    HW217841   6.225   6.924   0.237
 5648SOL     OW17842   2.235   1.524   2.741
 5648SOL    HW117843   2.284   1.445   2.777
 5648SOL    HW217844   2.210   1.585   2.816
 5649SOL     OW17845   0.064   6.774   5.220
 5649SOL    HW117846   0.003   6.851   5.240
 5649SOL    HW217847   0.019   6.711   5.157
 5650SOL     OW17848   0.577   5.954   1.327
 5650SOL    HW117849   0.636   5.982   1.252
 5650SOL    HW217850   0.492   5.917   1.290
 5651SOL     OW17851   0.370   0.969   1.538
 5651SOL    HW117852   0.347   0.920   1.622
 5651SOL    HW217853   0.304   0.945   1.467
 5652SOL     OW17854   6.134   6.269   2.243
 5652SOL    HW117855   6.069   6.194   2.234
 5652SOL    HW217856   6.171   6.293   2.153
 5653SOL     OW17857   0.335   6.125   6.510
 5653SOL    HW117858   0.353   6.076   6.595
 5653SOL    HW217859   0.247   6.172   6.516
 5654SOL     OW17860   6.233   6.786   5.848
 5654SOL    HW117861   6.312   6.829   5.892
 5654SOL    HW217862   6.175   6.858   5.809
 5655SOL     OW17863   1.430   2.984   4.740
 5655SOL    HW117864   1.495   3.013   4.811
 5655SOL    HW217865   1.338   3.015   4.764
 5656SOL     OW17866   0.705   3.089   0.701
 5656SOL    HW117867   0.722   3.153   0.626
 5656SOL    HW217868   0.776   3.099   0.770
 5657SOL     OW17869   5.575   0.632   0.571
 5657SOL    HW117870   5.491   0.579   0.555
 5657SOL    HW217871   5.645   0.572   0.610
 5658SOL     OW17872   3.481   5.383   5.717
 5658SOL    HW117873   3.568   5.349   5.682
 5658SOL    HW217874   3.408   5.357   5.654
 5659SOL     OW17875   4.074   3.658   3.431
 5659SOL    HW117876   4.092   3.668   3.333
 5659SOL    HW217877   4.064   3.748   3.473
 5660SOL     OW17878   5.705   0.203   5.416
 5660SOL    HW117879   5.621   0.148   5.423
 5660SOL    HW217880   5.784   0.142   5.408
 5661SOL     OW17881   0.847   4.152   5.091
 5661SOL    HW117882   0.773   4.207   5.131
 5661SOL    HW217883   0.901   4.209   5.029
 5662SOL     OW17884   2.598   5.607   3.296
 5662SOL    HW117885   2.551   5.520   3.308
 5662SOL    HW217886   2.561   5.674   3.361
 5663SOL     OW17887   2.212   3.013   6.594
 5663SOL    HW117888   2.265   3.006   6.678
 5663SOL    HW217889   2.154   2.932   6.584
 5664SOL     OW17890   7.013   4.204   5.189
 5664SOL    HW117891   0.011   4.229   5.094
 5664SOL    HW217892   0.055   4.128   5.215
 5665SOL     OW17893   1.241   1.952   6.749
 5665SOL    HW117894   1.294   2.037   6.751
 5665SOL    HW217895   1.284   1.888   6.685
 5666SOL     OW17896   6.106   5.930   1.083
 5666SOL    HW117897   6.142   5.940   1.176
 5666SOL    HW217898   6.024   5.986   1.073
 5667SOL     OW17899   1.135   4.335   3.677
 5667SOL    HW117900   1.122   4.401   3.602
 5667SOL    HW217901   1.107   4.377   3.763
 5668SOL     OW17902   4.932   2.107   5.100
 5668SOL    HW117903   4.951   2.165   5.021
 5668SOL    HW217904   4.900   2.017   5.068
 5669SOL     OW17905   0.704   2.816   6.804
 5669SOL    HW117906   0.760   2.742   6.768
 5669SOL    HW217907   0.723   2.900   6.754
 5670SOL     OW17908   6.532   3.183   3.971
 5670SOL    HW117909   6.520   3.084   3.983
 5670SOL    HW217910   6.444   3.225   3.948
 5671SOL     OW17911   0.729   5.763   6.631
 5671SOL    HW117912   0.828   5.765   6.645
 5671SOL    HW217913   0.686   5.836   6.684
 5672SOL     OW17914   4.075   4.436   6.595
 5672SOL    HW117915   3.993   4.472   6.640
 5672SOL    HW217916   4.150   4.431   6.661
 5673SOL     OW17917   0.738   6.643   1.920
 5673SOL    HW117918   0.768   6.722   1.866
 5673SOL    HW217919   0.639   6.630   1.906
 5674SOL     OW17920   6.527   4.430   4.561
 5674SOL    HW117921   6.531   4.504   4.494
 5674SOL    HW217922   6.509   4.469   4.652
 5675SOL     OW17923   4.785   2.226   5.796
 5675SOL    HW117924   4.797   2.270   5.707
 5675SOL    HW217925   4.822   2.286   5.868
 5676SOL     OW17926   2.127   2.430   2.433
 5676SOL    HW117927   2.132   2.444   2.532
 5676SOL    HW217928   2.063   2.495   2.393
 5677SOL     OW17929   0.449   1.736   2.964
 5677SOL    HW117930   0.446   1.818   2.907
 5677SOL    HW217931   0.541   1.726   3.003
 5678SOL     OW17932   3.549   6.410   2.632
 5678SOL    HW117933   3.595   6.433   2.717
 5678SOL    HW217934   3.576   6.318   2.603
 5679SOL     OW17935   0.950   1.209   4.097
 5679SOL    HW117936   0.949   1.266   4.014
 5679SOL    HW217937   0.911   1.120   4.076
 5680SOL     OW17938   1.408   5.679   0.529
 5680SOL    HW117939   1.442   5.586   0.515
 5680SOL    HW217940   1.450   5.741   0.463
 5681SOL     OW17941   0.385   3.720   6.643
 5681SOL    HW117942   0.374   3.797   6.580
 5681SOL    HW217943   0.411   3.754   6.734
 5682SOL     OW17944   2.387   4.290   6.118
 5682SOL    HW117945   2.455   4.354   6.155
 5682SOL    HW217946   2.366   4.314   6.024
 5683SOL     OW17947   3.743   0.615   0.436
 5683SOL    HW117948   3.833   0.659   0.430
 5683SOL    HW217949   3.693   0.652   0.514
 5684SOL     OW17950   3.567   2.884   4.491
 5684SOL    HW117951   3.635   2.955   4.473
 5684SOL    HW217952   3.587   2.841   4.579
 5685SOL     OW17953   1.825   3.234   2.533
 5685SOL    HW117954   1.825   3.141   2.496
 5685SOL    HW217955   1.763   3.291   2.479
 5686SOL     OW17956   2.761   6.839   6.208
 5686SOL    HW117957   2.706   6.914   6.244
 5686SOL    HW217958   2.722   6.752   6.236
 5687SOL     OW17959   0.936   4.426   5.954
 5687SOL    HW117960   0.917   4.465   5.864
 5687SOL    HW217961   0.955   4.328   5.945
 5688SOL     OW17962   0.036   1.927   6.999
 5688SOL    HW117963   6.981   1.996   6.994
 5688SOL    HW217964   7.016   1.838   6.975
 5689SOL     OW17965   4.117   0.763   0.708
 5689SOL    HW117966   4.111   0.665   0.724
 5689SOL    HW217967   4.191   0.801   0.764
 5690SOL     OW17968   2.331   5.960   0.808
 5690SOL    HW117969   2.306   5.865   0.830
 5690SOL    HW217970   2.356   5.965   0.711
 5691SOL     OW17971   2.806   6.524   1.949
 5691SOL    HW117972   2.893   6.531   1.901
 5691SOL    HW217973   2.817   6.557   2.043
 5692SOL     OW17974   6.834   3.267   6.254
 5692SOL    HW117975   6.913   3.326   6.269
 5692SOL    HW217976   6.863   3.187   6.201
 5693SOL     OW17977   5.568   2.463   2.507
 5693SOL    HW117978   5.596   2.441   2.601
 5693SOL    HW217979   5.590   2.558   2.487
 5694SOL     OW17980   1.249   2.403   3.771
 5694SOL    HW117981   1.186   2.334   3.806
 5694SOL    HW217982   1.296   2.447   3.848
 5695SOL     OW17983   1.424   2.609   3.422
 5695SOL    HW117984   1.519   2.611   3.453
 5695SOL    HW217985   1.384   2.520   3.444
 5696SOL     OW17986   1.711   0.861   3.167
 5696SOL    HW117987   1.726   0.955   3.136
 5696SOL    HW217988   1.614   0.847   3.183
 5697SOL     OW17989   6.093   2.898   1.447
 5697SOL    HW117990   6.041   2.962   1.503
 5697SOL    HW217991   6.090   2.928   1.351
 5698SOL     OW17992   0.309   3.298   3.151
 5698SOL    HW117993   0.276   3.228   3.088
 5698SOL    HW217994   0.252   3.380   3.144
 5699SOL     OW17995   6.446   2.525   2.796
 5699SOL    HW117996   6.440   2.529   2.697
 5699SOL    HW217997   6.541   2.506   2.823
 5700SOL     OW17998   6.575   6.771   4.371
 5700SOL    HW117999   6.612   6.785   4.463
 5700SOL    HW218000   6.514   6.692   4.371
 5701SOL     OW18001   1.500   6.593   3.038
 5701SOL    HW118002   1.537   6.639   3.119
 5701SOL    HW218003   1.431   6.527   3.066
 5702SOL     OW18004   2.388   6.639   5.301
 5702SOL    HW118005   2.291   6.630   5.279
 5702SOL    HW218006   2.411   6.579   5.377
 5703SOL     OW18007   5.903   4.520   1.987
 5703SOL    HW118008   5.990   4.564   2.009
 5703SOL    HW218009   5.840   4.530   2.064
 5704SOL     OW18010   3.908   5.658   2.114
 5704SOL    HW118011   3.900   5.608   2.200
 5704SOL    HW218012   3.817   5.683   2.082
 5705SOL     OW18013   4.722   1.211   1.424
 5705SOL    HW118014   4.673   1.153   1.490
 5705SOL    HW218015   4.748   1.296   1.469
 5706SOL     OW18016   0.262   2.830   0.339
 5706SOL    HW118017   0.281   2.741   0.381
 5706SOL    HW218018   0.338   2.855   0.279
 5707SOL     OW18019   6.895   6.738   0.587
 5707SOL    HW118020   6.855   6.680   0.658
 5707SOL    HW218021   6.995   6.731   0.590
 5708SOL     OW18022   4.881   6.026   1.163
 5708SOL    HW118023   4.894   6.120   1.193
 5708SOL    HW218024   4.970   5.984   1.144
 5709SOL     OW18025   1.732   0.493   3.174
 5709SOL    HW118026   1.741   0.491   3.075
 5709SOL    HW218027   1.647   0.447   3.201
 5710SOL     OW18028   2.356   3.225   6.446
 5710SOL    HW118029   2.325   3.314   6.480
 5710SOL    HW218030   2.292   3.154   6.475
 5711SOL     OW18031   5.150   1.267   2.719
 5711SOL    HW118032   5.242   1.302   2.732
 5711SOL    HW218033   5.123   1.214   2.800
 5712SOL     OW18034   0.828   5.868   6.276
 5712SOL    HW118035   0.770   5.920   6.337
 5712SOL    HW218036   0.908   5.922   6.251
 5713SOL     OW18037   2.448   2.776   1.529
 5713SOL    HW118038   2.534   2.809   1.567
 5713SOL    HW218039   2.404   2.713   1.593
 5714SOL     OW18040   0.593   5.705   6.284
 5714SOL    HW118041   0.676   5.757   6.301
 5714SOL    HW218042   0.550   5.679   6.370
 5715SOL     OW18043   0.950   6.459   2.960
 5715SOL    HW118044   0.962   6.471   2.862
 5715SOL    HW218045   1.039   6.439   3.002
 5716SOL     OW18046   1.500   4.522   0.126
 5716SOL    HW118047   1.479   4.429   0.157
 5716SOL    HW218048   1.570   4.561   0.185
 5717SOL     OW18049   1.613   6.363   0.935
 5717SOL    HW118050   1.666   6.281   0.957
 5717SOL    HW218051   1.647   6.403   0.850
 5718SOL     OW18052   1.335   3.272   5.843
 5718SOL    HW118053   1.299   3.209   5.774
 5718SOL    HW218054   1.369   3.354   5.799
 5719SOL     OW18055   2.844   1.169   6.178
 5719SOL    HW118056   2.827   1.261   6.143
 5719SOL    HW218057   2.846   1.104   6.101
 5720SOL     OW18058   0.860   5.132   4.139
 5720SOL    HW118059   0.922   5.197   4.183
 5720SOL    HW218060   0.800   5.180   4.075
 5721SOL     OW18061   0.178   4.215   0.813
 5721SOL    HW118062   0.140   4.304   0.839
 5721SOL    HW218063   0.117   4.172   0.746
 5722SOL     OW18064   5.811   1.477   5.233
 5722SOL    HW118065   5.858   1.462   5.146
 5722SOL    HW218066   5.746   1.552   5.223
 5723SOL     OW18067   4.599   3.543   6.772
 5723SOL    HW118068   4.676   3.553   6.709
 5723SOL    HW218069   4.521   3.505   6.722
 5724SOL     OW18070   4.289   2.725   5.328
 5724SOL    HW118071   4.222   2.785   5.372
 5724SOL    HW218072   4.242   2.661   5.268
 5725SOL     OW18073   5.881   5.846   3.690
 5725SOL    HW118074   5.811   5.906   3.728
 5725SOL    HW218075   5.953   5.901   3.648
 5726SOL     OW18076   6.951   4.425   4.704
 5726SOL    HW118077   6.885   4.352   4.686
 5726SOL    HW218078   6.910   4.493   4.765
 5727SOL     OW18079   0.769   2.373   3.672
 5727SOL    HW118080   0.856   2.343   3.709
 5727SOL    HW218081   0.784   2.445   3.604
 5728SOL     OW18082   4.358   1.524   6.713
 5728SOL    HW118083   4.454   1.547   6.728
 5728SOL    HW218084   4.311   1.518   6.801
 5729SOL     OW18085   0.900   1.650   0.526
 5729SOL    HW118086   0.941   1.739   0.544
 5729SOL    HW218087   0.814   1.642   0.576
 5730SOL     OW18088   4.354   5.191   5.682
 5730SOL    HW118089   4.369   5.197   5.781
 5730SOL    HW218090   4.347   5.283   5.644
 5731SOL     OW18091   1.467   6.755   3.494
 5731SOL    HW118092   1.486   6.853   3.492
 5731SOL    HW218093   1.385   6.738   3.548
 5732SOL     OW18094   6.534   4.867   5.182
 5732SOL    HW118095   6.449   4.916   5.204
 5732SOL    HW218096   6.600   4.931   5.143
 5733SOL     OW18097   3.354   0.342   5.332
 5733SOL    HW118098   3.372   0.364   5.236
 5733SOL    HW218099   3.356   0.426   5.387
 5734SOL     OW18100   1.086   5.901   6.136
 5734SOL    HW118101   1.122   5.850   6.215
 5734SOL    HW218102   1.103   5.849   6.052
 5735SOL     OW18103   3.890   1.752   2.385
 5735SOL    HW118104   3.921   1.793   2.300
 5735SOL    HW218105   3.962   1.760   2.454
 5736SOL     OW18106   6.035   4.509   0.904
 5736SOL    HW118107   6.130   4.481   0.914
 5736SOL    HW218108   5.997   4.531   0.994
 5737SOL     OW18109   4.688   5.352   6.581
 5737SOL    HW118110   4.710   5.364   6.484
 5737SOL    HW218111   4.771   5.367   6.636
 5738SOL     OW18112   2.757   2.611   6.209
 5738SOL    HW118113   2.797   2.698   6.238
 5738SOL    HW218114   2.779   2.541   6.276
 5739SOL     OW18115   0.920   6.843   5.422
 5739SOL    HW118116   1.015   6.861   5.396
 5739SOL    HW218117   0.887   6.917   5.481
 5740SOL     OW18118   4.225   3.478   0.930
 5740SOL    HW118119   4.180   3.540   0.994
 5740SOL    HW218120   4.302   3.525   0.886
 5741SOL     OW18121   6.154   4.302   4.706
 5741SOL    HW118122   6.177   4.367   4.634
 5741SOL    HW218123   6.198   4.328   4.791
 5742SOL     OW18124   4.709   6.652   2.330
 5742SOL    HW118125   4.670   6.672   2.420
 5742SOL    HW218126   4.635   6.643   2.263
 5743SOL     OW18127   2.632   5.855   5.120
 5743SOL    HW118128   2.629   5.792   5.041
 5743SOL    HW218129   2.715   5.838   5.173
 5744SOL     OW18130   4.930   0.997   1.103
 5744SOL    HW118131   5.013   0.952   1.071
 5744SOL    HW218132   4.936   1.095   1.085
 5745SOL     OW18133   1.959   1.494   3.734
 5745SOL    HW118134   2.033   1.454   3.788
 5745SOL    HW218135   1.873   1.449   3.757
 5746SOL     OW18136   5.412   6.915   1.266
 5746SOL    HW118137   5.350   6.993   1.277
 5746SOL    HW218138   5.359   6.833   1.244
 5747SOL     OW18139   0.681   4.989   2.347
 5747SOL    HW118140   0.772   5.024   2.369
 5747SOL    HW218141   0.614   5.035   2.405
 5748SOL     OW18142   1.113   7.013   0.424
 5748SOL    HW118143   1.169   6.989   0.344
 5748SOL    HW218144   1.104   0.095   0.428
 5749SOL     OW18145   1.426   6.188   4.689
 5749SOL    HW118146   1.413   6.109   4.749
 5749SOL    HW218147   1.340   6.241   4.685
 5750SOL     OW18148   6.331   6.225   4.643
 5750SOL    HW118149   6.309   6.209   4.740
 5750SOL    HW218150   6.323   6.140   4.593
 5751SOL     OW18151   2.280   2.825   4.591
 5751SOL    HW118152   2.249   2.730   4.581
 5751SOL    HW218153   2.307   2.841   4.686
 5752SOL     OW18154   6.390   0.331   0.472
 5752SOL    HW118155   6.473   0.295   0.515
 5752SOL    HW218156   6.415   0.403   0.408
 5753SOL     OW18157   3.655   3.566   4.312
 5753SOL    HW118158   3.688   3.471   4.311
 5753SOL    HW218159   3.679   3.608   4.400
 5754SOL     OW18160   0.020   4.927   1.936
 5754SOL    HW118161   6.994   4.859   1.996
 5754SOL    HW218162   0.118   4.912   1.935
 5755SOL     OW18163   2.447   2.485   6.558
 5755SOL    HW118164   2.487   2.422   6.625
 5755SOL    HW218165   2.398   2.557   6.606
 5756SOL     OW18166   6.152   0.493   3.112
 5756SOL    HW118167   6.192   0.583   3.130
 5756SOL    HW218168   6.225   0.426   3.102
 5757SOL     OW18169   6.965   6.593   3.324
 5757SOL    HW118170   6.876   6.548   3.313
 5757SOL    HW218171   7.008   6.607   3.235
 5758SOL     OW18172   2.178   0.907   4.700
 5758SOL    HW118173   2.268   0.865   4.714
 5758SOL    HW218174   2.126   0.854   4.632
 5759SOL     OW18175   4.934   1.531   6.817
 5759SOL    HW118176   4.876   1.548   6.897
 5759SOL    HW218177   4.886   1.560   6.734
 5760SOL     OW18178   6.906   3.704   0.912
 5760SOL    HW118179   6.808   3.688   0.919
 5760SOL    HW218180   6.934   3.699   0.816
 5761SOL     OW18181   5.827   5.731   6.761
 5761SOL    HW118182   5.926   5.741   6.763
 5761SOL    HW218183   5.795   5.696   6.848
 5762SOL     OW18184   4.830   4.105   0.237
 5762SOL    HW118185   4.784   4.087   0.324
 5762SOL    HW218186   4.774   4.071   0.162
 5763SOL     OW18187   6.300   6.452   0.439
 5763SOL    HW118188   6.315   6.551   0.430
 5763SOL    HW218189   6.276   6.431   0.534
 5764SOL     OW18190   5.649   5.061   5.361
 5764SOL    HW118191   5.573   5.108   5.407
 5764SOL    HW218192   5.726   5.053   5.425
 5765SOL     OW18193   6.355   2.574   0.526
 5765SOL    HW118194   6.358   2.547   0.430
 5765SOL    HW218195   6.362   2.493   0.585
 5766SOL     OW18196   1.952   2.070   6.873
 5766SOL    HW118197   1.958   2.153   6.817
 5766SOL    HW218198   1.862   2.065   6.916
 5767SOL     OW18199   1.147   0.888   0.236
 5767SOL    HW118200   1.216   0.833   0.283
 5767SOL    HW218201   1.179   0.983   0.232
 5768SOL     OW18202   1.795   6.500   3.766
 5768SOL    HW118203   1.777   6.563   3.690
 5768SOL    HW218204   1.847   6.421   3.733
 5769SOL     OW18205   2.746   5.952   4.470
 5769SOL    HW118206   2.697   5.911   4.393
 5769SOL    HW218207   2.720   6.048   4.480
 5770SOL     OW18208   6.201   6.019   0.443
 5770SOL    HW118209   6.113   5.973   0.448
 5770SOL    HW218210   6.273   5.950   0.428
 5771SOL     OW18211   1.594   0.024   3.755
 5771SOL    HW118212   1.555   6.959   3.796
 5771SOL    HW218213   1.689   0.033   3.784
 5772SOL     OW18214   5.782   2.027   1.432
 5772SOL    HW118215   5.853   2.004   1.366
 5772SOL    HW218216   5.692   2.015   1.390
 5773SOL     OW18217   4.149   0.501   3.055
 5773SOL    HW118218   4.225   0.447   3.019
 5773SOL    HW218219   4.183   0.586   3.094
 5774SOL     OW18220   2.547   6.145   3.342
 5774SOL    HW118221   2.449   6.164   3.336
 5774SOL    HW218222   2.572   6.133   3.438
 5775SOL     OW18223   1.548   0.919   2.353
 5775SOL    HW118224   1.590   1.006   2.380
 5775SOL    HW218225   1.613   0.867   2.298
 5776SOL     OW18226   0.050   0.834   4.580
 5776SOL    HW118227   0.005   0.840   4.669
 5776SOL    HW218228   7.003   0.796   4.513
 5777SOL     OW18229   6.714   6.912   5.321
 5777SOL    HW118230   6.729   6.813   5.329
 5777SOL    HW218231   6.802   6.959   5.323
 5778SOL     OW18232   1.756   0.579   1.345
 5778SOL    HW118233   1.704   0.594   1.261
 5778SOL    HW218234   1.713   0.506   1.398
 5779SOL     OW18235   4.346   3.001   0.830
 5779SOL    HW118236   4.364   2.908   0.797
 5779SOL    HW218237   4.388   3.014   0.919
 5780SOL     OW18238   6.079   5.628   3.504
 5780SOL    HW118239   6.102   5.565   3.578
 5780SOL    HW218240   6.162   5.674   3.473
 5781SOL     OW18241   0.190   4.484   4.579
 5781SOL    HW118242   0.103   4.437   4.590
 5781SOL    HW218243   0.237   4.450   4.497
 5782SOL     OW18244   1.145   1.480   0.565
 5782SOL    HW118245   1.215   1.491   0.494
 5782SOL    HW218246   1.063   1.532   0.539
 5783SOL     OW18247   2.304   0.423   1.587
 5783SOL    HW118248   2.209   0.444   1.609
 5783SOL    HW218249   2.361   0.503   1.604
 5784SOL     OW18250   6.957   5.876   0.224
 5784SOL    HW118251   6.928   5.860   0.130
 5784SOL    HW218252   6.893   5.831   0.286
 5785SOL     OW18253   1.697   1.609   0.618
 5785SOL    HW118254   1.781   1.644   0.659
 5785SOL    HW218255   1.679   1.658   0.533
 5786SOL     OW18256   0.212   4.436   0.631
 5786SOL    HW118257   0.209   4.471   0.537
 5786SOL    HW218258   0.242   4.340   0.630
 5787SOL     OW18259   3.967   1.295   5.042
 5787SOL    HW118260   3.910   1.372   5.071
 5787SOL    HW218261   4.039   1.328   4.980
 5788SOL     OW18262   3.296   1.706   1.459
 5788SOL    HW118263   3.210   1.726   1.411
 5788SOL    HW218264   3.362   1.669   1.394
 5789SOL     OW18265   3.095   4.406   0.398
 5789SOL    HW118266   3.073   4.332   0.462
 5789SOL    HW218267   3.062   4.382   0.307
 5790SOL     OW18268   0.683   4.802   4.956
 5790SOL    HW118269   0.666   4.798   5.054
 5790SOL    HW218270   0.771   4.761   4.935
 5791SOL     OW18271   3.281   1.337   2.591
 5791SOL    HW118272   3.231   1.338   2.505
 5791SOL    HW218273   3.221   1.365   2.666
 5792SOL     OW18274   5.891   3.086   2.424
 5792SOL    HW118275   5.943   3.105   2.508
 5792SOL    HW218276   5.872   2.989   2.417
 5793SOL     OW18277   5.028   0.870   3.844
 5793SOL    HW118278   4.952   0.918   3.888
 5793SOL    HW218279   5.014   0.771   3.851
 5794SOL     OW18280   2.187   1.033   0.041
 5794SOL    HW118281   2.093   1.005   0.062
 5794SOL    HW218282   2.230   1.071   0.123
 5795SOL     OW18283   6.676   6.762   7.015
 5795SOL    HW118284   6.758   6.747   6.960
 5795SOL    HW218285   6.701   6.766   0.093
 5796SOL     OW18286   4.748   0.978   5.841
 5796SOL    HW118287   4.764   1.061   5.788
 5796SOL    HW218288   4.695   1.000   5.923
 5797SOL     OW18289   4.482   2.423   0.286
 5797SOL    HW118290   4.459   2.510   0.241
 5797SOL    HW218291   4.464   2.347   0.224
 5798SOL     OW18292   0.068   5.355   4.489
 5798SOL    HW118293   0.042   5.440   4.534
 5798SOL    HW218294   0.128   5.302   4.548
 5799SOL     OW18295   0.414   0.819   3.345
 5799SOL    HW118296   0.398   0.825   3.444
 5799SOL    HW218297   0.338   0.770   3.302
 5800SOL     OW18298   5.673   6.468   1.556
 5800SOL    HW118299   5.646   6.478   1.460
 5800SOL    HW218300   5.702   6.374   1.572
 5801SOL     OW18301   1.678   2.841   3.302
 5801SOL    HW118302   1.680   2.883   3.393
 5801SOL    HW218303   1.712   2.747   3.307
 5802SOL     OW18304   0.017   3.454   2.666
 5802SOL    HW118305   6.985   3.454   2.753
 5802SOL    HW218306   0.023   3.548   2.631
 5803SOL     OW18307   1.862   5.725   2.075
 5803SOL    HW118308   1.949   5.695   2.035
 5803SOL    HW218309   1.878   5.756   2.169
 5804SOL     OW18310   0.433   4.869   3.439
 5804SOL    HW118311   0.491   4.822   3.372
 5804SOL    HW218312   0.375   4.802   3.485
 5805SOL     OW18313   2.101   3.576   0.366
 5805SOL    HW118314   2.047   3.547   0.287
 5805SOL    HW218315   2.040   3.605   0.439
 5806SOL     OW18316   6.309   4.923   4.771
 5806SOL    HW118317   6.283   4.844   4.827
 5806SOL    HW218318   6.352   4.891   4.686
 5807SOL     OW18319   0.685   4.254   1.105
 5807SOL    HW118320   0.612   4.191   1.131
 5807SOL    HW218321   0.770   4.228   1.152
 5808SOL     OW18322   6.363   5.291   4.147
 5808SOL    HW118323   6.291   5.227   4.121
 5808SOL    HW218324   6.403   5.332   4.065
 5809SOL     OW18325   6.600   2.117   4.969
 5809SOL    HW118326   6.583   2.065   4.885
 5809SOL    HW218327   6.553   2.073   5.045
 5810SOL     OW18328   4.537   1.417   5.251
 5810SOL    HW118329   4.552   1.442   5.155
 5810SOL    HW218330   4.623   1.426   5.302
 5811SOL     OW18331   3.095   0.682   5.116
 5811SOL    HW118332   3.042   0.599   5.133
 5811SOL    HW218333   3.163   0.664   5.045
 5812SOL     OW18334   5.646   3.227   4.963
 5812SOL    HW118335   5.737   3.198   4.994
 5812SOL    HW218336   5.636   3.325   4.979
 5813SOL     OW18337   1.769   1.900   1.606
 5813SOL    HW118338   1.824   1.870   1.684
 5813SOL    HW218339   1.796   1.850   1.524
 5814SOL     OW18340   6.381   3.986   2.105
 5814SOL    HW118341   6.423   3.941   2.183
 5814SOL    HW218342   6.413   3.944   2.020
 5815SOL     OW18343   4.087   1.646   4.174
 5815SOL    HW118344   4.092   1.571   4.240
 5815SOL    HW218345   4.178   1.687   4.163
 5816SOL     OW18346   5.102   4.479   0.444
 5816SOL    HW118347   5.189   4.493   0.398
 5816SOL    HW218348   5.104   4.522   0.534
 5817SOL     OW18349   6.048   4.106   5.845
 5817SOL    HW118350   6.092   4.038   5.903
 5817SOL    HW218351   6.118   4.165   5.804
 5818SOL     OW18352   6.624   5.286   5.297
 5818SOL    HW118353   6.638   5.382   5.324
 5818SOL    HW218354   6.540   5.279   5.242
 5819SOL     OW18355   3.638   0.476   6.973
 5819SOL    HW118356   3.557   0.516   6.930
 5819SOL    HW218357   3.647   0.511   0.048
 5820SOL     OW18358   4.609   4.568   3.387
 5820SOL    HW118359   4.532   4.544   3.446
 5820SOL    HW218360   4.692   4.523   3.420
 5821SOL     OW18361   0.065   0.622   2.086
 5821SOL    HW118362   0.003   0.700   2.080
 5821SOL    HW218363   0.156   0.653   2.111
 5822SOL     OW18364   1.269   2.678   1.469
 5822SOL    HW118365   1.191   2.673   1.407
 5822SOL    HW218366   1.241   2.651   1.561
 5823SOL     OW18367   2.766   0.376   4.684
 5823SOL    HW118368   2.695   0.380   4.754
 5823SOL    HW218369   2.809   0.286   4.685
 5824SOL     OW18370   6.742   5.677   2.536
 5824SOL    HW118371   6.820   5.632   2.493
 5824SOL    HW218372   6.771   5.763   2.577
 5825SOL     OW18373   6.914   0.522   4.796
 5825SOL    HW118374   6.819   0.502   4.771
 5825SOL    HW218375   6.973   0.506   4.717
 5826SOL     OW18376   0.720   5.104   5.931
 5826SOL    HW118377   0.690   5.114   5.836
 5826SOL    HW218378   0.690   5.016   5.967
 5827SOL     OW18379   1.703   3.913   5.156
 5827SOL    HW118380   1.795   3.884   5.184
 5827SOL    HW218381   1.701   4.013   5.150
 5828SOL     OW18382   6.122   2.112   1.805
 5828SOL    HW118383   6.138   2.023   1.762
 5828SOL    HW218384   6.207   2.164   1.806
 5829SOL     OW18385   1.157   0.401   3.901
 5829SOL    HW118386   1.194   0.309   3.897
 5829SOL    HW218387   1.064   0.402   3.866
 5830SOL     OW18388   5.435   6.902   5.802
 5830SOL    HW118389   5.522   6.873   5.843
 5830SOL    HW218390   5.366   6.912   5.874
 5831SOL     OW18391   1.081   1.173   5.533
 5831SOL    HW118392   1.146   1.185   5.609
 5831SOL    HW218393   0.994   1.216   5.557
 5832SOL     OW18394   3.190   5.308   6.928
 5832SOL    HW118395   3.155   5.316   6.835
 5832SOL    HW218396   3.275   5.359   6.937
 5833SOL     OW18397   3.569   4.345   5.267
 5833SOL    HW118398   3.527   4.435   5.260
 5833SOL    HW218399   3.569   4.301   5.178
 5834SOL     OW18400   0.023   2.716   0.236
 5834SOL    HW118401   0.048   2.646   0.170
 5834SOL    HW218402   0.100   2.778   0.251
 5835SOL     OW18403   5.614   2.936   3.300
 5835SOL    HW118404   5.561   2.924   3.216
 5835SOL    HW218405   5.560   2.905   3.379
 5836SOL     OW18406   2.715   0.123   1.956
 5836SOL    HW118407   2.666   0.161   1.878
 5836SOL    HW218408   2.710   0.023   1.954
 5837SOL     OW18409   3.076   3.820   0.102
 5837SOL    HW118410   3.088   3.902   0.158
 5837SOL    HW218411   3.143   3.821   0.027
 5838SOL     OW18412   3.013   1.814   0.935
 5838SOL    HW118413   3.109   1.787   0.941
 5838SOL    HW218414   3.005   1.901   0.886
 5839SOL     OW18415   1.072   2.160   2.317
 5839SOL    HW118416   1.084   2.078   2.260
 5839SOL    HW218417   0.993   2.148   2.376
 5840SOL     OW18418   0.975   4.820   6.520
 5840SOL    HW118419   0.946   4.728   6.547
 5840SOL    HW218420   1.056   4.813   6.462
 5841SOL     OW18421   5.257   1.703   2.244
 5841SOL    HW118422   5.226   1.612   2.216
 5841SOL    HW218423   5.220   1.725   2.334
 5842SOL     OW18424   5.205   3.313   1.443
 5842SOL    HW118425   5.206   3.253   1.523
 5842SOL    HW218426   5.215   3.408   1.472
 5843SOL     OW18427   1.636   4.411   2.516
 5843SOL    HW118428   1.718   4.440   2.468
 5843SOL    HW218429   1.600   4.327   2.474
 5844SOL     OW18430   1.833   5.895   5.920
 5844SOL    HW118431   1.919   5.922   5.877
 5844SOL    HW218432   1.848   5.810   5.972
 5845SOL     OW18433   0.306   0.283   2.524
 5845SOL    HW118434   0.302   0.196   2.573
 5845SOL    HW218435   0.323   0.266   2.427
 5846SOL     OW18436   6.076   3.218   5.853
 5846SOL    HW118437   6.092   3.241   5.949
 5846SOL    HW218438   5.980   3.193   5.840
 5847SOL     OW18439   2.828   2.114   1.906
 5847SOL    HW118440   2.844   2.176   1.983
 5847SOL    HW218441   2.823   2.167   1.821
 5848SOL     OW18442   1.236   5.576   2.862
 5848SOL    HW118443   1.223   5.674   2.878
 5848SOL    HW218444   1.333   5.556   2.853
 5849SOL     OW18445   0.948   0.510   5.388
 5849SOL    HW118446   0.934   0.443   5.316
 5849SOL    HW218447   0.967   0.463   5.474
 5850SOL     OW18448   6.699   3.601   1.802
 5850SOL    HW118449   6.734   3.695   1.809
 5850SOL    HW218450   6.610   3.595   1.848
 5851SOL     OW18451   5.190   3.156   2.703
 5851SOL    HW118452   5.237   3.173   2.790
 5851SOL    HW218453   5.203   3.061   2.677
 5852SOL     OW18454   5.566   6.098   3.292
 5852SOL    HW118455   5.611   6.072   3.206
 5852SOL    HW218456   5.610   6.051   3.368
 5853SOL     OW18457   3.291   5.602   4.743
 5853SOL    HW118458   3.304   5.602   4.644
 5853SOL    HW218459   3.290   5.696   4.777
 5854SOL     OW18460   4.276   4.206   6.448
 5854SOL    HW118461   4.179   4.225   6.436
 5854SOL    HW218462   4.324   4.219   6.361
 5855SOL     OW18463   0.700   1.183   4.868
 5855SOL    HW118464   0.666   1.266   4.912
 5855SOL    HW218465   0.733   1.206   4.776
 5856SOL     OW18466   1.968   6.277   3.747
 5856SOL    HW118467   1.954   6.213   3.671
 5856SOL    HW218468   2.040   6.343   3.723
 5857SOL     OW18469   6.062   2.113   5.993
 5857SOL    HW118470   5.969   2.142   6.015
 5857SOL    HW218471   6.078   2.121   5.895
 5858SOL     OW18472   2.725   2.247   2.691
 5858SOL    HW118473   2.684   2.310   2.757
 5858SOL    HW218474   2.697   2.154   2.713
 5859SOL     OW18475   6.031   6.273   1.898
 5859SOL    HW118476   6.125   6.292   1.926
 5859SOL    HW218477   5.969   6.340   1.939
 5860SOL     OW18478   0.295   3.628   2.490
 5860SOL    HW118479   0.388   3.614   2.455
 5860SOL    HW218480   0.231   3.573   2.436
 5861SOL     OW18481   4.614   1.574   4.472
 5861SOL    HW118482   4.608   1.673   4.485
 5861SOL    HW218483   4.697   1.539   4.514
 5862SOL     OW18484   5.916   5.668   1.092
 5862SOL    HW118485   5.862   5.735   1.041
 5862SOL    HW218486   5.880   5.660   1.185
 5863SOL     OW18487   3.320   2.076   4.951
 5863SOL    HW118488   3.412   2.111   4.930
 5863SOL    HW218489   3.264   2.150   4.987
 5864SOL     OW18490   4.052   3.655   2.362
 5864SOL    HW118491   4.047   3.733   2.424
 5864SOL    HW218492   4.103   3.581   2.406
 5865SOL     OW18493   5.992   0.139   5.069
 5865SOL    HW118494   5.946   0.127   4.981
 5865SOL    HW218495   6.080   0.090   5.066
 5866SOL     OW18496   3.910   4.211   0.412
 5866SOL    HW118497   3.845   4.203   0.488
 5866SOL    HW218498   3.867   4.261   0.337
 5867SOL     OW18499   2.057   3.334   1.037
 5867SOL    HW118500   2.082   3.419   0.990
 5867SOL    HW218501   2.025   3.267   0.970
 5868SOL     OW18502   0.808   1.326   5.561
 5868SOL    HW118503   0.813   1.328   5.461
 5868SOL    HW218504   0.862   1.401   5.599
 5869SOL     OW18505   2.085   6.683   3.115
 5869SOL    HW118506   2.152   6.612   3.140
 5869SOL    HW218507   2.132   6.771   3.107
 5870SOL     OW18508   4.487   6.322   4.725
 5870SOL    HW118509   4.443   6.232   4.733
 5870SOL    HW218510   4.524   6.348   4.814
 5871SOL     OW18511   3.126   3.313   1.304
 5871SOL    HW118512   3.042   3.335   1.355
 5871SOL    HW218513   3.129   3.215   1.287
 5872SOL     OW18514   4.698   6.291   1.265
 5872SOL    HW118515   4.706   6.272   1.363
 5872SOL    HW218516   4.772   6.350   1.236
 5873SOL     OW18517   3.563   1.590   2.168
 5873SOL    HW118518   3.604   1.669   2.121
 5873SOL    HW218519   3.562   1.606   2.266
 5874SOL     OW18520   3.073   4.710   6.535
 5874SOL    HW118521   3.074   4.726   6.436
 5874SOL    HW218522   3.032   4.789   6.580
 5875SOL     OW18523   4.311   0.962   6.801
 5875SOL    HW118524   4.343   1.027   6.732
 5875SOL    HW218525   4.355   0.873   6.785
 5876SOL     OW18526   4.114   2.793   0.382
 5876SOL    HW118527   4.102   2.712   0.326
 5876SOL    HW218528   4.176   2.857   0.336
 5877SOL     OW18529   0.818   0.446   1.730
 5877SOL    HW118530   0.795   0.538   1.700
 5877SOL    HW218531   0.794   0.380   1.659
 5878SOL     OW18532   5.969   5.299   3.791
 5878SOL    HW118533   5.940   5.373   3.852
 5878SOL    HW218534   6.050   5.327   3.740
 5879SOL     OW18535   1.774   4.468   6.860
 5879SOL    HW118536   1.764   4.417   6.774
 5879SOL    HW218537   1.705   4.541   6.863
 5880SOL     OW18538   4.674   4.378   6.050
 5880SOL    HW118539   4.591   4.377   5.994
 5880SOL    HW218540   4.754   4.363   5.993
 5881SOL     OW18541   0.570   0.037   2.394
 5881SOL    HW118542   0.482   7.009   2.385
 5881SOL    HW218543   0.555   0.136   2.403
 5882SOL     OW18544   6.986   5.403   0.707
 5882SOL    HW118545   0.057   5.358   0.713
 5882SOL    HW218546   7.000   5.502   0.705
 5883SOL     OW18547   1.171   1.536   6.345
 5883SOL    HW118548   1.227   1.473   6.290
 5883SOL    HW218549   1.162   1.499   6.438
 5884SOL     OW18550   4.300   1.184   4.028
 5884SOL    HW118551   4.293   1.191   4.127
 5884SOL    HW218552   4.216   1.144   3.991
 5885SOL     OW18553   0.486   6.720   2.406
 5885SOL    HW118554   0.580   6.686   2.412
 5885SOL    HW218555   0.422   6.643   2.408
 5886SOL     OW18556   6.915   2.263   3.872
 5886SOL    HW118557   6.882   2.172   3.845
 5886SOL    HW218558   7.015   2.263   3.871
 5887SOL     OW18559   2.643   1.915   1.995
 5887SOL    HW118560   2.731   1.941   1.956
 5887SOL    HW218561   2.603   1.993   2.043
 5888SOL     OW18562   2.669   0.682   1.148
 5888SOL    HW118563   2.735   0.755   1.169
 5888SOL    HW218564   2.631   0.696   1.057
 5889SOL     OW18565   0.192   0.499   0.490
 5889SOL    HW118566   0.152   0.464   0.406
 5889SOL    HW218567   0.290   0.517   0.476
 5890SOL     OW18568   2.261   1.024   3.282
 5890SOL    HW118569   2.356   1.048   3.266
 5890SOL    HW218570   2.206   1.044   3.201
 5891SOL     OW18571   2.904   3.157   6.820
 5891SOL    HW118572   2.947   3.242   6.790
 5891SOL    HW218573   2.826   3.178   6.880
 5892SOL     OW18574   0.999   5.325   2.256
 5892SOL    HW118575   0.927   5.341   2.188
 5892SOL    HW218576   1.089   5.336   2.212
 5893SOL     OW18577   2.322   4.124   3.611
 5893SOL    HW118578   2.323   4.028   3.639
 5893SOL    HW218579   2.267   4.177   3.676
 5894SOL     OW18580   0.083   5.835   4.545
 5894SOL    HW118581   0.080   5.773   4.466
 5894SOL    HW218582   0.151   5.801   4.610
 5895SOL     OW18583   5.193   3.508   4.045
 5895SOL    HW118584   5.264   3.490   3.977
 5895SOL    HW218585   5.208   3.599   4.084
 5896SOL     OW18586   3.546   0.766   0.588
 5896SOL    HW118587   3.583   0.774   0.680
 5896SOL    HW218588   3.572   0.845   0.533
 5897SOL     OW18589   4.252   7.010   1.146
 5897SOL    HW118590   4.347   6.978   1.134
 5897SOL    HW218591   4.189   6.935   1.125
 5898SOL     OW18592   2.521   0.479   3.894
 5898SOL    HW118593   2.473   0.392   3.896
 5898SOL    HW218594   2.619   0.463   3.906
 5899SOL     OW18595   6.447   5.432   0.354
 5899SOL    HW118596   6.451   5.342   0.310
 5899SOL    HW218597   6.475   5.503   0.289
 5900SOL     OW18598   6.352   4.991   3.807
 5900SOL    HW118599   6.350   5.082   3.765
 5900SOL    HW218600   6.348   4.921   3.735
 5901SOL     OW18601   2.277   1.350   0.220
 5901SOL    HW118602   2.375   1.367   0.219
 5901SOL    HW218603   2.258   1.272   0.280
 5902SOL     OW18604   5.808   2.141   4.895
 5902SOL    HW118605   5.779   2.193   4.814
 5902SOL    HW218606   5.847   2.053   4.866
 5903SOL     OW18607   5.021   3.518   6.703
 5903SOL    HW118608   5.089   3.591   6.710
 5903SOL    HW218609   5.049   3.441   6.759
 5904SOL     OW18610   0.931   4.500   1.271
 5904SOL    HW118611   0.948   4.476   1.175
 5904SOL    HW218612   0.837   4.479   1.295
 5905SOL     OW18613   5.996   6.768   3.786
 5905SOL    HW118614   6.091   6.745   3.768
 5905SOL    HW218615   5.965   6.719   3.868
 5906SOL     OW18616   3.770   2.148   3.630
 5906SOL    HW118617   3.736   2.124   3.721
 5906SOL    HW218618   3.843   2.216   3.639
 5907SOL     OW18619   0.967   5.331   0.323
 5907SOL    HW118620   0.967   5.303   0.419
 5907SOL    HW218621   0.886   5.387   0.305
 5908SOL     OW18622   0.352   3.176   0.211
 5908SOL    HW118623   0.307   3.179   0.300
 5908SOL    HW218624   0.289   3.206   0.140
 5909SOL     OW18625   0.244   5.331   0.735
 5909SOL    HW118626   0.261   5.417   0.686
 5909SOL    HW218627   0.279   5.254   0.681
 5910SOL     OW18628   0.802   3.987   3.881
 5910SOL    HW118629   0.800   3.898   3.928
 5910SOL    HW218630   0.835   4.057   3.945
 5911SOL     OW18631   0.051   5.075   6.332
 5911SOL    HW118632   7.011   5.147   6.372
 5911SOL    HW218633   0.056   5.089   6.233
 5912SOL     OW18634   5.995   2.012   6.785
 5912SOL    HW118635   6.044   2.094   6.753
 5912SOL    HW218636   5.952   1.967   6.707
 5913SOL     OW18637   5.109   2.845   6.034
 5913SOL    HW118638   5.180   2.832   6.103
 5913SOL    HW218639   5.052   2.923   6.058
 5914SOL     OW18640   1.750   5.396   6.424
 5914SOL    HW118641   1.724   5.400   6.328
 5914SOL    HW218642   1.770   5.489   6.457
 5915SOL     OW18643   4.688   5.357   1.285
 5915SOL    HW118644   4.743   5.403   1.355
 5915SOL    HW218645   4.592   5.356   1.312
 5916SOL     OW18646   4.871   6.263   4.121
 5916SOL    HW118647   4.855   6.171   4.086
 5916SOL    HW218648   4.954   6.301   4.079
 5917SOL     OW18649   3.217   3.541   4.141
 5917SOL    HW118650   3.156   3.474   4.100
 5917SOL    HW218651   3.263   3.593   4.069
 5918SOL     OW18652   1.967   3.631   6.126
 5918SOL    HW118653   1.996   3.675   6.041
 5918SOL    HW218654   1.998   3.536   6.127
 5919SOL     OW18655   3.544   3.122   2.061
 5919SOL    HW118656   3.574   3.069   1.982
 5919SOL    HW218657   3.524   3.061   2.138
 5920SOL     OW18658   4.231   0.702   6.622
 5920SOL    HW118659   4.239   0.758   6.540
 5920SOL    HW218660   4.137   0.670   6.632
 5921SOL     OW18661   3.680   5.416   6.586
 5921SOL    HW118662   3.694   5.445   6.491
 5921SOL    HW218663   3.768   5.388   6.625
 5922SOL     OW18664   6.106   5.192   2.812
 5922SOL    HW118665   6.072   5.251   2.739
 5922SOL    HW218666   6.142   5.248   2.886
 5923SOL     OW18667   6.154   0.968   1.424
 5923SOL    HW118668   6.252   0.979   1.434
 5923SOL    HW218669   6.134   0.882   1.378
 5924SOL     OW18670   6.776   1.061   3.337
 5924SOL    HW118671   6.728   0.975   3.317
 5924SOL    HW218672   6.831   1.088   3.258
 5925SOL     OW18673   4.099   6.099   1.619
 5925SOL    HW118674   4.031   6.158   1.663
 5925SOL    HW218675   4.166   6.157   1.570
 5926SOL     OW18676   3.989   5.547   1.414
 5926SOL    HW118677   4.023   5.595   1.495
 5926SOL    HW218678   3.979   5.611   1.339
 5927SOL     OW18679   1.409   4.499   2.636
 5927SOL    HW118680   1.496   4.455   2.617
 5927SOL    HW218681   1.417   4.598   2.620
 5928SOL     OW18682   3.600   0.182   1.225
 5928SOL    HW118683   3.643   0.140   1.146
 5928SOL    HW218684   3.670   0.214   1.289
 5929SOL     OW18685   0.662   6.743   6.551
 5929SOL    HW118686   0.727   6.696   6.493
 5929SOL    HW218687   0.570   6.735   6.512
 5930SOL     OW18688   6.233   3.379   3.572
 5930SOL    HW118689   6.253   3.357   3.477
 5930SOL    HW218690   6.319   3.389   3.622
 5931SOL     OW18691   6.769   5.550   3.093
 5931SOL    HW118692   6.749   5.571   2.998
 5931SOL    HW218693   6.685   5.552   3.147
 5932SOL     OW18694   2.737   0.276   0.424
 5932SOL    HW118695   2.754   0.365   0.465
 5932SOL    HW218696   2.669   0.227   0.479
 5933SOL     OW18697   6.874   6.204   3.309
 5933SOL    HW118698   6.891   6.169   3.400
 5933SOL    HW218699   6.832   6.295   3.316
 5934SOL     OW18700   3.515   2.891   4.226
 5934SOL    HW118701   3.525   2.859   4.320
 5934SOL    HW218702   3.508   2.991   4.225
 5935SOL     OW18703   5.197   5.097   6.359
 5935SOL    HW118704   5.189   5.003   6.326
 5935SOL    HW218705   5.217   5.158   6.281
 5936SOL     OW18706   3.746   2.983   1.329
 5936SOL    HW118707   3.721   3.063   1.383
 5936SOL    HW218708   3.698   2.986   1.241
 5937SOL     OW18709   0.937   4.527   2.930
 5937SOL    HW118710   0.840   4.505   2.920
 5937SOL    HW218711   0.958   4.541   3.027
 5938SOL     OW18712   0.770   5.151   3.541
 5938SOL    HW118713   0.867   5.149   3.566
 5938SOL    HW218714   0.748   5.239   3.498
 5939SOL     OW18715   2.714   6.779   2.895
 5939SOL    HW118716   2.773   6.698   2.892
 5939SOL    HW218717   2.635   6.765   2.835
 5940SOL     OW18718   5.215   5.412   0.729
 5940SOL    HW118719   5.201   5.427   0.827
 5940SOL    HW218720   5.130   5.382   0.687
 5941SOL     OW18721   6.228   3.256   2.194
 5941SOL    HW118722   6.170   3.182   2.161
 5941SOL    HW218723   6.191   3.344   2.162
 5942SOL     OW18724   4.927   3.390   0.209
 5942SOL    HW118725   4.962   3.445   0.285
 5942SOL    HW218726   4.935   3.441   0.124
 5943SOL     OW18727   3.445   4.919   0.023
 5943SOL    HW118728   3.363   4.869   0.050
 5943SOL    HW218729   3.455   5.000   0.081
 5944SOL     OW18730   6.485   3.263   1.093
 5944SOL    HW118731   6.558   3.327   1.112
 5944SOL    HW218732   6.521   3.169   1.095
 5945SOL     OW18733   6.085   5.348   4.880
 5945SOL    HW118734   6.116   5.440   4.857
 5945SOL    HW218735   6.148   5.281   4.840
 5946SOL     OW18736   3.726   3.044   6.567
 5946SOL    HW118737   3.638   3.054   6.520
 5946SOL    HW218738   3.715   2.988   6.648
 5947SOL     OW18739   3.847   3.412   2.136
 5947SOL    HW118740   3.760   3.410   2.185
 5947SOL    HW218741   3.836   3.371   2.045
 5948SOL     OW18742   4.352   5.147   3.410
 5948SOL    HW118743   4.422   5.208   3.447
 5948SOL    HW218744   4.344   5.066   3.468
 5949SOL     OW18745   5.171   3.898   1.872
 5949SOL    HW118746   5.242   3.902   1.943
 5949SOL    HW218747   5.200   3.836   1.800
 5950SOL     OW18748   4.259   2.015   6.125
 5950SOL    HW118749   4.208   1.943   6.171
 5950SOL    HW218750   4.262   1.997   6.027
 5951SOL     OW18751   1.388   5.936   4.072
 5951SOL    HW118752   1.335   5.976   4.147
 5951SOL    HW218753   1.326   5.906   4.000
 5952SOL     OW18754   5.965   4.853   3.518
 5952SOL    HW118755   5.895   4.901   3.465
 5952SOL    HW218756   5.978   4.899   3.606
 5953SOL     OW18757   6.058   2.599   5.393
 5953SOL    HW118758   5.988   2.573   5.460
 5953SOL    HW218759   6.138   2.634   5.441
 5954SOL     OW18760   6.992   4.632   6.314
 5954SOL    HW118761   6.944   4.566   6.372
 5954SOL    HW218762   6.972   4.613   6.218
 5955SOL     OW18763   5.105   6.309   2.958
 5955SOL    HW118764   5.180   6.338   2.898
 5955SOL    HW218765   5.018   6.337   2.918
 5956SOL     OW18766   4.474   1.203   5.943
 5956SOL    HW118767   4.519   1.259   5.873
 5956SOL    HW218768   4.382   1.179   5.912
 5957SOL     OW18769   3.937   0.591   5.013
 5957SOL    HW118770   4.015   0.645   4.982
 5957SOL    HW218771   3.852   0.630   4.976
 5958SOL     OW18772   5.674   0.104   3.202
 5958SOL    HW118773   5.727   0.033   3.155
 5958SOL    HW218774   5.684   0.191   3.153
 5959SOL     OW18775   3.976   2.712   5.304
 5959SOL    HW118776   3.939   2.772   5.232
 5959SOL    HW218777   4.037   2.645   5.262
 5960SOL     OW18778   3.156   5.180   4.559
 5960SOL    HW118779   3.152   5.080   4.552
 5960SOL    HW218780   3.116   5.209   4.645
 5961SOL     OW18781   5.370   1.401   2.879
 5961SOL    HW118782   5.298   1.440   2.937
 5961SOL    HW218783   5.433   1.474   2.851
 5962SOL     OW18784   5.756   6.296   0.289
 5962SOL    HW118785   5.836   6.334   0.243
 5962SOL    HW218786   5.673   6.342   0.257
 5963SOL     OW18787   3.814   3.539   5.534
 5963SOL    HW118788   3.786   3.633   5.556
 5963SOL    HW218789   3.742   3.495   5.481
 5964SOL     OW18790   0.213   5.342   5.305
 5964SOL    HW118791   0.193   5.352   5.403
 5964SOL    HW218792   0.270   5.419   5.275
 5965SOL     OW18793   1.516   2.393   6.577
 5965SOL    HW118794   1.435   2.428   6.625
 5965SOL    HW218795   1.571   2.339   6.640
 5966SOL     OW18796   2.883   5.739   5.584
 5966SOL    HW118797   2.908   5.692   5.669
 5966SOL    HW218798   2.817   5.811   5.604
 5967SOL     OW18799   4.293   6.601   6.364
 5967SOL    HW118800   4.205   6.620   6.406
 5967SOL    HW218801   4.360   6.577   6.434
 5968SOL     OW18802   4.872   1.599   1.003
 5968SOL    HW118803   4.946   1.638   1.058
 5968SOL    HW218804   4.788   1.596   1.058
 5969SOL     OW18805   0.079   6.809   5.997
 5969SOL    HW118806   7.003   6.817   6.030
 5969SOL    HW218807   0.115   6.900   5.975
 5970SOL     OW18808   0.352   4.263   2.082
 5970SOL    HW118809   0.374   4.325   2.006
 5970SOL    HW218810   0.437   4.224   2.118
 5971SOL     OW18811   1.143   1.164   2.317
 5971SOL    HW118812   1.144   1.161   2.417
 5971SOL    HW218813   1.146   1.071   2.281
 5972SOL     OW18814   5.420   5.408   6.454
 5972SOL    HW118815   5.369   5.361   6.382
 5972SOL    HW218816   5.360   5.424   6.532
 5973SOL     OW18817   1.599   3.709   2.684
 5973SOL    HW118818   1.522   3.650   2.708
 5973SOL    HW218819   1.588   3.742   2.591
 5974SOL     OW18820   5.287   5.266   6.148
 5974SOL    HW118821   5.381   5.255   6.116
 5974SOL    HW218822   5.245   5.344   6.101
 5975SOL     OW18823   3.709   0.979   0.469
 5975SOL    HW118824   3.721   0.975   0.370
 5975SOL    HW218825   3.797   0.962   0.514
 5976SOL     OW18826   3.259   3.139   5.586
 5976SOL    HW118827   3.344   3.133   5.639
 5976SOL    HW218828   3.181   3.145   5.649
 5977SOL     OW18829   2.446   5.002   6.939
 5977SOL    HW118830   2.382   4.947   6.884
 5977SOL    HW218831   2.536   5.002   6.896
 5978SOL     OW18832   5.044   5.399   2.953
 5978SOL    HW118833   5.038   5.317   2.896
 5978SOL    HW218834   4.967   5.400   3.017
 5979SOL     OW18835   5.799   0.646   2.913
 5979SOL    HW118836   5.811   0.548   2.899
 5979SOL    HW218837   5.831   0.696   2.833
 5980SOL     OW18838   3.761   4.143   1.282
 5980SOL    HW118839   3.802   4.069   1.228
 5980SOL    HW218840   3.831   4.213   1.300
 5981SOL     OW18841   5.598   2.647   1.313
 5981SOL    HW118842   5.681   2.592   1.306
 5981SOL    HW218843   5.606   2.710   1.391
 5982SOL     OW18844   6.714   3.623   2.494
 5982SOL    HW118845   6.665   3.539   2.520
 5982SOL    HW218846   6.648   3.697   2.485
 5983SOL     OW18847   1.278   1.869   4.269
 5983SOL    HW118848   1.338   1.825   4.203
 5983SOL    HW218849   1.291   1.826   4.359
 5984SOL     OW18850   6.561   5.404   3.469
 5984SOL    HW118851   6.573   5.306   3.457
 5984SOL    HW218852   6.562   5.449   3.379
 5985SOL     OW18853   0.134   2.925   4.453
 5985SOL    HW118854   0.135   2.848   4.389
 5985SOL    HW218855   0.059   2.986   4.430
 5986SOL     OW18856   2.881   3.563   4.418
 5986SOL    HW118857   2.872   3.557   4.518
 5986SOL    HW218858   2.864   3.472   4.378
 5987SOL     OW18859   4.576   0.247   4.107
 5987SOL    HW118860   4.540   0.333   4.144
 5987SOL    HW218861   4.635   0.268   4.028
 5988SOL     OW18862   4.830   6.891   5.411
 5988SOL    HW118863   4.757   6.960   5.404
 5988SOL    HW218864   4.914   6.928   5.373
 5989SOL     OW18865   2.744   6.279   6.349
 5989SOL    HW118866   2.824   6.315   6.301
 5989SOL    HW218867   2.663   6.291   6.292
 5990SOL     OW18868   3.678   4.400   6.976
 5990SOL    HW118869   3.628   4.487   6.974
 5990SOL    HW218870   3.661   4.351   6.891
 5991SOL     OW18871   3.060   5.047   7.014
 5991SOL    HW118872   3.024   5.087   0.081
 5991SOL    HW218873   3.130   5.109   6.977
 5992SOL     OW18874   4.019   0.181   2.443
 5992SOL    HW118875   4.057   0.194   2.352
 5992SOL    HW218876   3.936   0.127   2.438
 5993SOL     OW18877   3.223   6.231   6.846
 5993SOL    HW118878   3.284   6.221   6.925
 5993SOL    HW218879   3.149   6.164   6.852
 5994SOL     OW18880   5.617   2.757   2.369
 5994SOL    HW118881   5.575   2.831   2.422
 5994SOL    HW218882   5.554   2.727   2.297
 5995SOL     OW18883   4.760   4.123   3.022
 5995SOL    HW118884   4.710   4.136   3.108
 5995SOL    HW218885   4.707   4.163   2.947
 5996SOL     OW18886   0.932   6.425   0.600
 5996SOL    HW118887   0.951   6.333   0.565
 5996SOL    HW218888   0.836   6.432   0.626
 5997SOL     OW18889   0.313   5.530   2.876
 5997SOL    HW118890   0.379   5.574   2.816
 5997SOL    HW218891   0.333   5.432   2.882
 5998SOL     OW18892   5.807   1.058   3.306
 5998SOL    HW118893   5.799   1.156   3.326
 5998SOL    HW218894   5.742   1.008   3.362
 5999SOL     OW18895   1.521   1.737   2.433
 5999SOL    HW118896   1.617   1.743   2.405
 5999SOL    HW218897   1.470   1.813   2.394
 6000SOL     OW18898   4.473   6.877   1.028
 6000SOL    HW118899   4.506   6.793   1.072
 6000SOL    HW218900   4.401   6.853   0.962
 6001SOL     OW18901   1.332   3.875   6.804
 6001SOL    HW118902   1.398   3.878   6.729
 6001SOL    HW218903   1.243   3.905   6.771
 6002SOL     OW18904   5.940   0.678   0.787
 6002SOL    HW118905   6.024   0.653   0.740
 6002SOL    HW218906   5.920   0.775   0.769
 6003SOL     OW18907   6.091   2.239   4.750
 6003SOL    HW118908   6.049   2.163   4.699
 6003SOL    HW218909   6.037   2.322   4.737
 6004SOL     OW18910   0.304   3.777   2.816
 6004SOL    HW118911   0.325   3.868   2.780
 6004SOL    HW218912   0.374   3.750   2.882
 6005SOL     OW18913   4.747   5.582   4.172
 6005SOL    HW118914   4.693   5.498   4.178
 6005SOL    HW218915   4.789   5.589   4.082
 6006SOL     OW18916   2.600   0.866   5.774
 6006SOL    HW118917   2.530   0.795   5.772
 6006SOL    HW218918   2.568   0.946   5.723
 6007SOL     OW18919   5.063   3.616   5.813
 6007SOL    HW118920   5.054   3.594   5.715
 6007SOL    HW218921   4.978   3.656   5.846
 6008SOL     OW18922   2.301   4.647   5.306
 6008SOL    HW118923   2.262   4.653   5.398
 6008SOL    HW218924   2.231   4.613   5.243
 6009SOL     OW18925   3.199   0.265   3.481
 6009SOL    HW118926   3.292   0.256   3.516
 6009SOL    HW218927   3.188   0.355   3.439
 6010SOL     OW18928   1.713   4.183   4.455
 6010SOL    HW118929   1.785   4.131   4.407
 6010SOL    HW218930   1.710   4.276   4.419
 6011SOL     OW18931   4.892   3.330   2.631
 6011SOL    HW118932   4.988   3.303   2.623
 6011SOL    HW218933   4.881   3.423   2.594
 6012SOL     OW18934   4.928   1.403   0.225
 6012SOL    HW118935   4.859   1.475   0.227
 6012SOL    HW218936   4.980   1.404   0.310
 6013SOL     OW18937   4.857   1.915   2.565
 6013SOL    HW118938   4.786   1.974   2.604
 6013SOL    HW218939   4.814   1.841   2.514
 6014SOL     OW18940   3.782   3.295   1.872
 6014SOL    HW118941   3.739   3.217   1.826
 6014SOL    HW218942   3.871   3.314   1.830
 6015SOL     OW18943   5.589   3.242   4.439
 6015SOL    HW118944   5.502   3.261   4.394
 6015SOL    HW218945   5.579   3.250   4.538
 6016SOL     OW18946   6.421   1.886   6.010
 6016SOL    HW118947   6.350   1.882   6.080
 6016SOL    HW218948   6.501   1.834   6.040
 6017SOL     OW18949   6.580   4.246   3.470
 6017SOL    HW118950   6.549   4.340   3.457
 6017SOL    HW218951   6.662   4.245   3.528
 6018SOL     OW18952   3.414   0.585   6.786
 6018SOL    HW118953   3.324   0.560   6.819
 6018SOL    HW218954   3.436   0.678   6.817
 6019SOL     OW18955   6.951   1.864   4.192
 6019SOL    HW118956   6.957   1.782   4.135
 6019SOL    HW218957   0.025   1.899   4.209
 6020SOL     OW18958   0.954   4.753   0.794
 6020SOL    HW118959   0.863   4.772   0.831
 6020SOL    HW218960   1.017   4.825   0.821
 6021SOL     OW18961   4.791   0.352   2.511
 6021SOL    HW118962   4.695   0.361   2.481
 6021SOL    HW218963   4.844   0.308   2.439
 6022SOL     OW18964   4.441   2.158   4.044
 6022SOL    HW118965   4.386   2.075   4.047
 6022SOL    HW218966   4.538   2.134   4.055
 6023SOL     OW18967   6.146   0.207   2.247
 6023SOL    HW118968   6.162   0.268   2.325
 6023SOL    HW218969   6.166   0.113   2.273
 6024SOL     OW18970   1.291   4.815   3.176
 6024SOL    HW118971   1.342   4.800   3.261
 6024SOL    HW218972   1.284   4.728   3.126
 6025SOL     OW18973   3.821   1.668   2.942
 6025SOL    HW118974   3.857   1.746   2.992
 6025SOL    HW218975   3.834   1.682   2.844
 6026SOL     OW18976   0.162   4.497   5.435
 6026SOL    HW118977   0.108   4.580   5.426
 6026SOL    HW218978   0.222   4.487   5.356
 6027SOL     OW18979   1.460   4.267   6.588
 6027SOL    HW118980   1.398   4.340   6.561
 6027SOL    HW218981   1.430   4.180   6.547
 6028SOL     OW18982   0.503   4.460   6.925
 6028SOL    HW118983   0.568   4.410   6.868
 6028SOL    HW218984   0.486   4.550   6.885
 6029SOL     OW18985   2.605   6.116   5.240
 6029SOL    HW118986   2.626   6.188   5.173
 6029SOL    HW218987   2.639   6.028   5.206
 6030SOL     OW18988   3.806   5.882   2.821
 6030SOL    HW118989   3.880   5.943   2.793
 6030SOL    HW218990   3.719   5.933   2.821
 6031SOL     OW18991   2.977   5.432   3.348
 6031SOL    HW118992   3.049   5.490   3.386
 6031SOL    HW218993   2.927   5.483   3.278
 6032SOL     OW18994   2.281   4.266   2.696
 6032SOL    HW118995   2.226   4.238   2.775
 6032SOL    HW218996   2.359   4.320   2.728
 6033SOL     OW18997   3.088   2.142   3.039
 6033SOL    HW118998   3.159   2.097   3.093
 6033SOL    HW218999   3.097   2.114   2.943
 6034SOL     OW19000   1.534   5.496   4.780
 6034SOL    HW119001   1.614   5.499   4.721
 6034SOL    HW219002   1.560   5.464   4.871
 6035SOL     OW19003   0.077   0.790   2.530
 6035SOL    HW119004   0.150   0.827   2.587
 6035SOL    HW219005   0.104   0.701   2.493
 6036SOL     OW19006   5.352   5.471   3.489
 6036SOL    HW119007   5.382   5.557   3.530
 6036SOL    HW219008   5.264   5.485   3.442
 6037SOL     OW19009   4.473   5.151   6.624
 6037SOL    HW119010   4.549   5.210   6.598
 6037SOL    HW219011   4.398   5.162   6.558
 6038SOL     OW19012   1.412   2.158   6.044
 6038SOL    HW119013   1.508   2.162   6.018
 6038SOL    HW219014   1.366   2.242   6.017
 6039SOL     OW19015   2.989   3.557   2.562
 6039SOL    HW119016   2.933   3.629   2.602
 6039SOL    HW219017   2.954   3.468   2.591
 6040SOL     OW19018   0.790   1.724   6.908
 6040SOL    HW119019   0.883   1.732   6.871
 6040SOL    HW219020   0.730   1.685   6.837
 6041SOL     OW19021   2.681   0.723   4.944
 6041SOL    HW119022   2.702   0.669   5.026
 6041SOL    HW219023   2.765   0.739   4.893
 6042SOL     OW19024   5.113   5.808   1.953
 6042SOL    HW119025   5.022   5.784   1.988
 6042SOL    HW219026   5.107   5.821   1.854
 6043SOL     OW19027   0.981   4.550   5.598
 6043SOL    HW119028   0.913   4.620   5.575
 6043SOL    HW219029   1.051   4.547   5.526
 6044SOL     OW19030   1.154   2.062   1.720
 6044SOL    HW119031   1.059   2.044   1.694
 6044SOL    HW219032   1.155   2.124   1.799
 6045SOL     OW19033   6.051   5.028   2.318
 6045SOL    HW119034   6.079   4.964   2.389
 6045SOL    HW219035   5.958   5.059   2.337
 6046SOL     OW19036   3.762   1.740   0.168
 6046SOL    HW119037   3.786   1.752   0.071
 6046SOL    HW219038   3.703   1.815   0.197
 6047SOL     OW19039   5.115   2.289   1.566
 6047SOL    HW119040   5.199   2.312   1.615
 6047SOL    HW219041   5.037   2.293   1.629
 6048SOL     OW19042   4.519   5.425   4.930
 6048SOL    HW119043   4.607   5.473   4.923
 6048SOL    HW219044   4.479   5.442   5.020
 6049SOL     OW19045   5.799   3.523   6.398
 6049SOL    HW119046   5.760   3.507   6.308
 6049SOL    HW219047   5.810   3.621   6.413
 6050SOL     OW19048   3.667   6.285   4.496
 6050SOL    HW119049   3.711   6.196   4.486
 6050SOL    HW219050   3.612   6.285   4.580
 6051SOL     OW19051   2.469   0.494   4.262
 6051SOL    HW119052   2.390   0.433   4.255
 6051SOL    HW219053   2.552   0.444   4.237
 6052SOL     OW19054   6.155   0.684   0.615
 6052SOL    HW119055   6.240   0.650   0.577
 6052SOL    HW219056   6.166   0.780   0.642
 6053SOL     OW19057   4.173   1.346   6.604
 6053SOL    HW119058   4.134   1.409   6.538
 6053SOL    HW219059   4.212   1.398   6.681
 6054SOL     OW19060   2.618   3.532   0.705
 6054SOL    HW119061   2.710   3.534   0.666
 6054SOL    HW219062   2.551   3.554   0.634
 6055SOL     OW19063   4.488   0.667   5.183
 6055SOL    HW119064   4.440   0.639   5.266
 6055SOL    HW219065   4.462   0.608   5.107
 6056SOL     OW19066   4.761   2.879   4.631
 6056SOL    HW119067   4.821   2.953   4.602
 6056SOL    HW219068   4.713   2.906   4.715
 6057SOL     OW19069   5.437   2.840   3.868
 6057SOL    HW119070   5.472   2.879   3.954
 6057SOL    HW219071   5.406   2.746   3.885
 6058SOL     OW19072   5.076   2.873   1.265
 6058SOL    HW119073   5.030   2.961   1.279
 6058SOL    HW219074   5.134   2.854   1.343
 6059SOL     OW19075   5.063   4.840   5.145
 6059SOL    HW119076   5.112   4.823   5.060
 6059SOL    HW219077   4.976   4.885   5.125
 6060SOL     OW19078   2.741   4.217   0.363
 6060SOL    HW119079   2.673   4.163   0.313
 6060SOL    HW219080   2.734   4.313   0.334
 6061SOL     OW19081   3.390   2.135   1.252
 6061SOL    HW119082   3.456   2.188   1.198
 6061SOL    HW219083   3.342   2.070   1.193
 6062SOL     OW19084   2.673   1.728   4.731
 6062SOL    HW119085   2.751   1.695   4.677
 6062SOL    HW219086   2.621   1.649   4.765
 6063SOL     OW19087   3.354   1.953   6.225
 6063SOL    HW119088   3.342   1.862   6.185
 6063SOL    HW219089   3.279   2.012   6.196
 6064SOL     OW19090   1.816   5.876   0.740
 6064SOL    HW119091   1.737   5.882   0.680
 6064SOL    HW219092   1.853   5.967   0.756
 6065SOL     OW19093   6.983   6.946   1.935
 6065SOL    HW119094   0.025   6.994   1.999
 6065SOL    HW219095   6.996   6.984   1.843
 6066SOL     OW19096   4.582   1.819   6.315
 6066SOL    HW119097   4.679   1.840   6.327
 6066SOL    HW219098   4.569   1.720   6.310
 6067SOL     OW19099   5.436   1.600   5.833
 6067SOL    HW119100   5.374   1.627   5.906
 6067SOL    HW219101   5.510   1.668   5.825
 6068SOL     OW19102   5.223   2.958   4.646
 6068SOL    HW119103   5.234   2.887   4.715
 6068SOL    HW219104   5.189   3.042   4.689
 6069SOL     OW19105   6.768   3.085   4.762
 6069SOL    HW119106   6.842   3.140   4.723
 6069SOL    HW219107   6.723   3.137   4.835
 6070SOL     OW19108   2.053   3.154   0.652
 6070SOL    HW119109   2.141   3.125   0.692
 6070SOL    HW219110   2.061   3.248   0.619
 6071SOL     OW19111   5.601   5.456   4.162
 6071SOL    HW119112   5.578   5.400   4.242
 6071SOL    HW219113   5.542   5.430   4.085
 6072SOL     OW19114   0.454   0.307   1.869
 6072SOL    HW119115   0.382   0.349   1.925
 6072SOL    HW219116   0.435   0.323   1.773
 6073SOL     OW19117   6.034   3.719   0.233
 6073SOL    HW119118   6.117   3.723   0.289
 6073SOL    HW219119   6.038   3.639   0.173
 6074SOL     OW19120   1.229   6.535   4.483
 6074SOL    HW119121   1.244   6.604   4.554
 6074SOL    HW219122   1.139   6.548   4.443
 6075SOL     OW19123   6.816   1.648   6.571
 6075SOL    HW119124   6.825   1.554   6.539
 6075SOL    HW219125   6.727   1.661   6.616
 6076SOL     OW19126   2.351   5.441   4.312
 6076SOL    HW119127   2.407   5.498   4.371
 6076SOL    HW219128   2.409   5.400   4.241
 6077SOL     OW19129   5.908   5.901   1.538
 6077SOL    HW119130   5.925   5.954   1.455
 6077SOL    HW219131   5.937   5.953   1.618
 6078SOL     OW19132   3.979   4.321   0.791
 6078SOL    HW119133   3.998   4.389   0.861
 6078SOL    HW219134   4.053   4.321   0.724
 6079SOL     OW19135   3.916   3.220   6.032
 6079SOL    HW119136   3.947   3.264   6.117
 6079SOL    HW219137   3.822   3.248   6.012
 6080SOL     OW19138   6.843   1.422   1.563
 6080SOL    HW119139   6.820   1.337   1.515
 6080SOL    HW219140   6.899   1.400   1.643
 6081SOL     OW19141   6.469   3.382   5.961
 6081SOL    HW119142   6.425   3.406   5.874
 6081SOL    HW219143   6.457   3.284   5.978
 6082SOL     OW19144   2.132   2.171   3.760
 6082SOL    HW119145   2.228   2.180   3.732
 6082SOL    HW219146   2.108   2.074   3.765
 6083SOL     OW19147   0.042   4.875   6.962
 6083SOL    HW119148   0.039   4.817   0.026
 6083SOL    HW219149   0.029   4.971   6.989
 6084SOL     OW19150   0.740   6.644   3.613
 6084SOL    HW119151   0.682   6.718   3.578
 6084SOL    HW219152   0.683   6.565   3.634
 6085SOL     OW19153   0.872   4.397   0.538
 6085SOL    HW119154   0.816   4.409   0.620
 6085SOL    HW219155   0.969   4.399   0.563
 6086SOL     OW19156   3.483   1.102   6.107
 6086SOL    HW119157   3.535   1.187   6.104
 6086SOL    HW219158   3.416   1.106   6.181
 6087SOL     OW19159   4.099   5.124   0.974
 6087SOL    HW119160   4.195   5.128   1.001
 6087SOL    HW219161   4.075   5.208   0.924
 6088SOL     OW19162   5.800   5.602   3.732
 6088SOL    HW119163   5.774   5.565   3.643
 6088SOL    HW219164   5.842   5.692   3.720
 6089SOL     OW19165   6.322   3.383   0.616
 6089SOL    HW119166   6.264   3.458   0.586
 6089SOL    HW219167   6.265   3.304   0.638
 6090SOL     OW19168   2.159   5.772   6.221
 6090SOL    HW119169   2.158   5.714   6.303
 6090SOL    HW219170   2.070   5.768   6.176
 6091SOL     OW19171   1.901   1.300   1.129
 6091SOL    HW119172   1.976   1.267   1.071
 6091SOL    HW219173   1.908   1.258   1.220
 6092SOL     OW19174   3.898   6.707   3.041
 6092SOL    HW119175   3.941   6.773   2.979
 6092SOL    HW219176   3.812   6.675   3.001
 6093SOL     OW19177   1.846   3.587   2.725
 6093SOL    HW119178   1.877   3.517   2.661
 6093SOL    HW219179   1.748   3.604   2.711
 6094SOL     OW19180   3.869   0.573   2.022
 6094SOL    HW119181   3.849   0.488   2.071
 6094SOL    HW219182   3.967   0.583   2.013
 6095SOL     OW19183   4.658   3.359   0.255
 6095SOL    HW119184   4.666   3.332   0.351
 6095SOL    HW219185   4.749   3.362   0.214
 6096SOL     OW19186   0.035   0.215   3.531
 6096SOL    HW119187   0.009   0.283   3.461
 6096SOL    HW219188   0.043   0.125   3.488
 6097SOL     OW19189   2.440   6.941   2.101
 6097SOL    HW119190   2.457   0.018   2.128
 6097SOL    HW219191   2.391   6.940   2.014
 6098SOL     OW19192   1.712   2.699   5.821
 6098SOL    HW119193   1.791   2.693   5.760
 6098SOL    HW219194   1.650   2.771   5.789
 6099SOL     OW19195   6.763   6.040   0.832
 6099SOL    HW119196   6.776   6.138   0.840
 6099SOL    HW219197   6.678   6.022   0.781
 6100SOL     OW19198   4.004   4.026   7.015
 6100SOL    HW119199   3.982   3.933   6.985
 6100SOL    HW219200   3.923   4.085   7.003
 6101SOL     OW19201   6.412   2.518   4.741
 6101SOL    HW119202   6.480   2.569   4.793
 6101SOL    HW219203   6.373   2.446   4.799
 6102SOL     OW19204   3.259   6.450   3.278
 6102SOL    HW119205   3.344   6.397   3.274
 6102SOL    HW219206   3.208   6.424   3.359
 6103SOL     OW19207   6.681   2.801   2.124
 6103SOL    HW119208   6.604   2.763   2.072
 6103SOL    HW219209   6.766   2.780   2.076
 6104SOL     OW19210   5.704   1.277   5.626
 6104SOL    HW119211   5.709   1.252   5.530
 6104SOL    HW219212   5.619   1.326   5.643
 6105SOL     OW19213   2.590   6.968   5.829
 6105SOL    HW119214   2.593   6.909   5.748
 6105SOL    HW219215   2.517   6.937   5.890
 6106SOL     OW19216   2.659   4.361   5.887
 6106SOL    HW119217   2.649   4.262   5.895
 6106SOL    HW219218   2.694   4.384   5.796
 6107SOL     OW19219   2.574   4.665   4.617
 6107SOL    HW119220   2.623   4.632   4.536
 6107SOL    HW219221   2.505   4.598   4.644
 6108SOL     OW19222   0.473   2.253   2.066
 6108SOL    HW119223   0.467   2.238   2.165
 6108SOL    HW219224   0.391   2.301   2.034
 6109SOL     OW19225   5.472   2.589   5.473
 6109SOL    HW119226   5.466   2.599   5.374
 6109SOL    HW219227   5.485   2.679   5.515
 6110SOL     OW19228   4.447   3.549   0.297
 6110SOL    HW119229   4.515   3.479   0.275
 6110SOL    HW219230   4.405   3.583   0.213
 6111SOL     OW19231   2.263   4.272   2.191
 6111SOL    HW119232   2.288   4.182   2.228
 6111SOL    HW219233   2.181   4.264   2.135
 6112SOL     OW19234   4.072   0.114   2.694
 6112SOL    HW119235   4.060   0.181   2.620
 6112SOL    HW219236   4.167   0.115   2.725
 6113SOL     OW19237   1.783   0.959   6.479
 6113SOL    HW119238   1.868   1.011   6.466
 6113SOL    HW219239   1.743   0.938   6.390
 6114SOL     OW19240   4.910   5.615   1.310
 6114SOL    HW119241   4.955   5.539   1.358
 6114SOL    HW219242   4.885   5.586   1.218
 6115SOL     OW19243   5.095   0.146   3.898
 6115SOL    HW119244   5.051   0.092   3.971
 6115SOL    HW219245   5.189   0.114   3.886
 6116SOL     OW19246   3.051   0.227   6.608
 6116SOL    HW119247   3.009   0.186   6.527
 6116SOL    HW219248   3.090   0.155   6.665
 6117SOL     OW19249   0.851   1.125   5.098
 6117SOL    HW119250   0.792   1.132   5.017
 6117SOL    HW219251   0.802   1.076   5.170
 6118SOL     OW19252   6.697   0.545   2.344
 6118SOL    HW119253   6.598   0.549   2.359
 6118SOL    HW219254   6.720   0.458   2.301
 6119SOL     OW19255   1.908   3.309   5.756
 6119SOL    HW119256   1.992   3.360   5.735
 6119SOL    HW219257   1.844   3.369   5.804
 6120SOL     OW19258   3.645   6.736   4.759
 6120SOL    HW119259   3.703   6.748   4.840
 6120SOL    HW219260   3.698   6.692   4.686
 6121SOL     OW19261   1.094   2.636   5.595
 6121SOL    HW119262   1.189   2.628   5.625
 6121SOL    HW219263   1.060   2.546   5.568
 6122SOL     OW19264   4.269   6.488   0.903
 6122SOL    HW119265   4.316   6.496   0.815
 6122SOL    HW219266   4.269   6.393   0.932
 6123SOL     OW19267   6.436   0.329   6.692
 6123SOL    HW119268   6.429   0.366   6.600
 6123SOL    HW219269   6.353   0.279   6.715
 6124SOL     OW19270   2.219   1.130   5.938
 6124SOL    HW119271   2.292   1.159   5.876
 6124SOL    HW219272   2.161   1.208   5.960
 6125SOL     OW19273   1.196   6.078   0.007
 6125SOL    HW119274   1.179   6.021   0.088
 6125SOL    HW219275   1.270   6.037   6.971
 6126SOL     OW19276   0.696   0.725   3.703
 6126SOL    HW119277   0.633   0.794   3.667
 6126SOL    HW219278   0.676   0.637   3.661
 6127SOL     OW19279   3.690   0.279   1.656
 6127SOL    HW119280   3.662   0.345   1.587
 6127SOL    HW219281   3.683   0.186   1.618
 6128SOL     OW19282   6.428   3.194   6.757
 6128SOL    HW119283   6.522   3.172   6.731
 6128SOL    HW219284   6.418   3.188   6.857
 6129SOL     OW19285   6.042   3.858   3.583
 6129SOL    HW119286   6.057   3.940   3.527
 6129SOL    HW219287   6.130   3.818   3.607
 6130SOL     OW19288   5.930   1.921   3.768
 6130SOL    HW119289   6.023   1.924   3.730
 6130SOL    HW219290   5.864   1.930   3.694
 6131SOL     OW19291   6.667   1.010   5.149
 6131SOL    HW119292   6.637   1.029   5.055
 6131SOL    HW219293   6.670   0.911   5.164
 6132SOL     OW19294   4.545   1.895   0.568
 6132SOL    HW119295   4.605   1.862   0.494
 6132SOL    HW219296   4.595   1.959   0.626
 6133SOL     OW19297   1.192   2.409   2.431
 6133SOL    HW119298   1.168   2.402   2.528
 6133SOL    HW219299   1.148   2.334   2.380
 6134SOL     OW19300   3.686   4.543   6.352
 6134SOL    HW119301   3.689   4.449   6.319
 6134SOL    HW219302   3.730   4.603   6.285
 6135SOL     OW19303   0.641   0.518   1.966
 6135SOL    HW119304   0.610   0.434   1.921
 6135SOL    HW219305   0.739   0.512   1.985
 6136SOL     OW19306   0.843   2.867   2.551
 6136SOL    HW119307   0.879   2.950   2.508
 6136SOL    HW219308   0.812   2.804   2.481
 6137SOL     OW19309   6.306   2.459   3.856
 6137SOL    HW119310   6.371   2.517   3.808
 6137SOL    HW219311   6.262   2.513   3.929
 6138SOL     OW19312   4.869   6.395   2.892
 6138SOL    HW119313   4.878   6.422   2.796
 6138SOL    HW219314   4.788   6.439   2.931
 6139SOL     OW19315   1.441   1.584   5.971
 6139SOL    HW119316   1.356   1.620   6.011
 6139SOL    HW219317   1.504   1.660   5.955
 6140SOL     OW19318   0.338   6.722   1.578
 6140SOL    HW119319   0.387   6.679   1.502
 6140SOL    HW219320   0.390   6.709   1.662
 6141SOL     OW19321   6.329   5.647   5.982
 6141SOL    HW119322   6.381   5.635   6.066
 6141SOL    HW219323   6.233   5.663   6.004
 6142SOL     OW19324   1.092   5.928   0.934
 6142SOL    HW119325   1.086   5.828   0.936
 6142SOL    HW219326   1.100   5.963   1.028
 6143SOL     OW19327   6.852   3.994   0.975
 6143SOL    HW119328   6.874   3.903   0.939
 6143SOL    HW219329   6.796   4.043   0.908
 6144SOL     OW19330   5.942   4.235   3.233
 6144SOL    HW119331   5.909   4.328   3.245
 6144SOL    HW219332   5.868   4.170   3.252
 6145SOL     OW19333   4.782   5.581   3.466
 6145SOL    HW119334   4.837   5.511   3.510
 6145SOL    HW219335   4.757   5.652   3.533
 6146SOL     OW19336   2.868   6.438   3.716
 6146SOL    HW119337   2.927   6.470   3.790
 6146SOL    HW219338   2.845   6.342   3.731
 6147SOL     OW19339   1.552   3.211   4.176
 6147SOL    HW119340   1.516   3.238   4.265
 6147SOL    HW219341   1.652   3.209   4.179
 6148SOL     OW19342   6.924   0.185   4.296
 6148SOL    HW119343   6.939   0.094   4.334
 6148SOL    HW219344   6.959   0.189   4.202
 6149SOL     OW19345   3.248   5.590   1.523
 6149SOL    HW119346   3.213   5.613   1.614
 6149SOL    HW219347   3.267   5.492   1.518
 6150SOL     OW19348   4.705   4.844   6.928
 6150SOL    HW119349   4.685   4.791   6.845
 6150SOL    HW219350   4.693   4.942   6.909
 6151SOL     OW19351   5.796   4.635   5.913
 6151SOL    HW119352   5.871   4.584   5.953
 6151SOL    HW219353   5.828   4.725   5.883
 6152SOL     OW19354   6.786   5.632   4.840
 6152SOL    HW119355   6.828   5.557   4.892
 6152SOL    HW219356   6.709   5.596   4.787
 6153SOL     OW19357   5.600   3.909   1.474
 6153SOL    HW119358   5.615   3.818   1.513
 6153SOL    HW219359   5.688   3.954   1.457
 6154SOL     OW19360   6.209   2.110   2.414
 6154SOL    HW119361   6.166   2.028   2.377
 6154SOL    HW219362   6.293   2.130   2.363
 6155SOL     OW19363   1.978   1.960   4.399
 6155SOL    HW119364   2.050   1.900   4.433
 6155SOL    HW219365   1.964   2.035   4.463
 6156SOL     OW19366   3.942   4.607   1.683
 6156SOL    HW119367   3.907   4.701   1.674
 6156SOL    HW219368   4.042   4.609   1.681
 6157SOL     OW19369   1.379   1.016   3.877
 6157SOL    HW119370   1.462   1.019   3.823
 6157SOL    HW219371   1.369   0.926   3.919
 6158SOL     OW19372   4.312   1.424   6.107
 6158SOL    HW119373   4.399   1.425   6.059
 6158SOL    HW219374   4.327   1.412   6.205
 6159SOL     OW19375   4.913   2.630   1.453
 6159SOL    HW119376   4.880   2.613   1.546
 6159SOL    HW219377   5.000   2.582   1.439
 6160SOL     OW19378   5.036   0.810   6.552
 6160SOL    HW119379   5.074   0.728   6.508
 6160SOL    HW219380   5.020   0.792   6.649
 6161SOL     OW19381   4.848   1.498   4.784
 6161SOL    HW119382   4.901   1.510   4.869
 6161SOL    HW219383   4.790   1.417   4.793
 6162SOL     OW19384   1.460   6.535   3.319
 6162SOL    HW119385   1.404   6.465   3.364
 6162SOL    HW219386   1.469   6.614   3.379
 6163SOL     OW19387   6.492   6.347   0.765
 6163SOL    HW119388   6.536   6.355   0.855
 6163SOL    HW219389   6.548   6.288   0.706
 6164SOL     OW19390   3.329   2.696   1.777
 6164SOL    HW119391   3.229   2.685   1.776
 6164SOL    HW219392   3.352   2.781   1.825
 6165SOL     OW19393   4.468   0.548   6.591
 6165SOL    HW119394   4.491   0.554   6.494
 6165SOL    HW219395   4.381   0.595   6.607
 6166SOL     OW19396   4.367   0.840   6.369
 6166SOL    HW119397   4.301   0.775   6.333
 6166SOL    HW219398   4.348   0.931   6.331
 6167SOL     OW19399   0.999   4.674   3.693
 6167SOL    HW119400   1.061   4.753   3.694
 6167SOL    HW219401   1.005   4.629   3.604
 6168SOL     OW19402   0.737   3.610   1.118
 6168SOL    HW119403   0.672   3.606   1.042
 6168SOL    HW219404   0.687   3.606   1.205
 6169SOL     OW19405   1.410   2.448   0.896
 6169SOL    HW119406   1.447   2.391   0.969
 6169SOL    HW219407   1.481   2.467   0.828
 6170SOL     OW19408   1.165   3.908   5.411
 6170SOL    HW119409   1.091   3.883   5.474
 6170SOL    HW219410   1.125   3.935   5.323
 6171SOL     OW19411   0.655   3.291   0.929
 6171SOL    HW119412   0.727   3.221   0.935
 6171SOL    HW219413   0.659   3.349   1.011
 6172SOL     OW19414   2.194   2.859   2.242
 6172SOL    HW119415   2.139   2.904   2.171
 6172SOL    HW219416   2.273   2.815   2.199
 6173SOL     OW19417   6.963   5.675   1.949
 6173SOL    HW119418   6.908   5.742   2.000
 6173SOL    HW219419   6.922   5.660   1.859
 6174SOL     OW19420   4.403   5.652   3.610
 6174SOL    HW119421   4.372   5.614   3.523
 6174SOL    HW219422   4.443   5.743   3.595
 6175SOL     OW19423   4.532   0.078   3.570
 6175SOL    HW119424   4.492   0.101   3.658
 6175SOL    HW219425   4.513   7.000   3.549
 6176SOL     OW19426   4.946   4.621   5.290
 6176SOL    HW119427   4.937   4.694   5.357
 6176SOL    HW219428   5.000   4.653   5.212
 6177SOL     OW19429   5.734   1.407   1.407
 6177SOL    HW119430   5.768   1.346   1.336
 6177SOL    HW219431   5.637   1.386   1.425
 6178SOL     OW19432   4.683   4.212   2.398
 6178SOL    HW119433   4.711   4.196   2.304
 6178SOL    HW219434   4.611   4.281   2.400
 6179SOL     OW19435   6.502   4.641   4.101
 6179SOL    HW119436   6.479   4.649   4.004
 6179SOL    HW219437   6.566   4.713   4.127
 6180SOL     OW19438   2.867   4.056   0.544
 6180SOL    HW119439   2.824   4.133   0.495
 6180SOL    HW219440   2.801   4.016   0.607
 6181SOL     OW19441   4.955   6.685   6.123
 6181SOL    HW119442   4.966   6.763   6.183
 6181SOL    HW219443   4.977   6.711   6.029
 6182SOL     OW19444   4.800   3.063   5.140
 6182SOL    HW119445   4.794   2.978   5.191
 6182SOL    HW219446   4.774   3.140   5.199
 6183SOL     OW19447   1.356   2.374   3.535
 6183SOL    HW119448   1.311   2.384   3.623
 6183SOL    HW219449   1.444   2.329   3.548
 6184SOL     OW19450   2.783   6.377   6.878
 6184SOL    HW119451   2.791   6.338   6.786
 6184SOL    HW219452   2.755   6.473   6.871
 6185SOL     OW19453   0.343   3.897   6.435
 6185SOL    HW119454   0.376   3.959   6.364
 6185SOL    HW219455   0.301   3.817   6.392
 6186SOL     OW19456   0.191   0.862   0.325
 6186SOL    HW119457   0.246   0.935   0.284
 6186SOL    HW219458   0.135   0.819   0.255
 6187SOL     OW19459   5.202   4.437   3.803
 6187SOL    HW119460   5.270   4.384   3.853
 6187SOL    HW219461   5.211   4.533   3.827
 6188SOL     OW19462   2.082   1.882   6.726
 6188SOL    HW119463   2.003   1.938   6.751
 6188SOL    HW219464   2.051   1.789   6.705
 6189SOL     OW19465   4.573   4.488   2.629
 6189SOL    HW119466   4.481   4.528   2.631
 6189SOL    HW219467   4.596   4.462   2.535
 6190SOL     OW19468   0.652   3.995   5.456
 6190SOL    HW119469   0.653   3.937   5.374
 6190SOL    HW219470   0.708   4.076   5.440
 6191SOL     OW19471   2.875   2.537   6.694
 6191SOL    HW119472   2.817   2.598   6.748
 6191SOL    HW219473   2.885   2.450   6.744
 6192SOL     OW19474   2.951   2.364   5.689
 6192SOL    HW119475   2.953   2.300   5.766
 6192SOL    HW219476   2.939   2.313   5.604
 6193SOL     OW19477   4.312   6.271   1.765
 6193SOL    HW119478   4.255   6.261   1.846
 6193SOL    HW219479   4.363   6.187   1.749
 6194SOL     OW19480   0.350   0.557   0.196
 6194SOL    HW119481   0.368   0.575   0.293
 6194SOL    HW219482   0.433   0.577   0.143
 6195SOL     OW19483   4.155   6.094   4.522
 6195SOL    HW119484   4.163   6.016   4.459
 6195SOL    HW219485   4.147   6.179   4.470
 6196SOL     OW19486   5.700   3.671   2.158
 6196SOL    HW119487   5.618   3.636   2.203
 6196SOL    HW219488   5.687   3.767   2.135
 6197SOL     OW19489   3.673   4.990   0.873
 6197SOL    HW119490   3.743   4.933   0.829
 6197SOL    HW219491   3.712   5.032   0.955
 6198SOL     OW19492   4.162   6.603   1.423
 6198SOL    HW119493   4.165   6.551   1.508
 6198SOL    HW219494   4.245   6.659   1.415
 6199SOL     OW19495   0.891   1.284   0.241
 6199SOL    HW119496   0.917   1.210   0.303
 6199SOL    HW219497   0.893   1.251   0.146
 6200SOL     OW19498   0.982   1.504   5.666
 6200SOL    HW119499   0.935   1.587   5.697
 6200SOL    HW219500   1.081   1.516   5.675
 6201SOL     OW19501   0.537   4.262   5.676
 6201SOL    HW119502   0.474   4.238   5.750
 6201SOL    HW219503   0.572   4.179   5.633
 6202SOL     OW19504   5.027   1.504   1.399
 6202SOL    HW119505   4.931   1.491   1.425
 6202SOL    HW219506   5.033   1.567   1.322
 6203SOL     OW19507   6.398   5.522   2.284
 6203SOL    HW119508   6.439   5.525   2.375
 6203SOL    HW219509   6.465   5.486   2.219
 6204SOL     OW19510   0.076   5.611   4.369
 6204SOL    HW119511   0.127   5.632   4.286
 6204SOL    HW219512   0.067   5.512   4.378
 6205SOL     OW19513   6.712   5.905   1.649
 6205SOL    HW119514   6.759   5.825   1.686
 6205SOL    HW219515   6.778   5.960   1.597
 6206SOL     OW19516   5.996   1.753   2.658
 6206SOL    HW119517   6.090   1.759   2.691
 6206SOL    HW219518   5.987   1.803   2.571
 6207SOL     OW19519   1.451   5.609   5.579
 6207SOL    HW119520   1.368   5.645   5.537
 6207SOL    HW219521   1.480   5.670   5.653
 6208SOL     OW19522   4.397   2.844   5.645
 6208SOL    HW119523   4.406   2.840   5.546
 6208SOL    HW219524   4.313   2.894   5.669
 6209SOL     OW19525   3.315   6.182   0.071
 6209SOL    HW119526   3.267   6.097   0.051
 6209SOL    HW219527   3.255   6.243   0.122
 6210SOL     OW19528   4.859   3.252   3.922
 6210SOL    HW119529   4.861   3.333   3.980
 6210SOL    HW219530   4.886   3.172   3.975
 6211SOL     OW19531   2.755   6.094   5.942
 6211SOL    HW119532   2.766   6.005   5.898
 6211SOL    HW219533   2.678   6.091   6.006
 6212SOL     OW19534   2.772   4.795   4.817
 6212SOL    HW119535   2.808   4.742   4.894
 6212SOL    HW219536   2.689   4.752   4.783
 6213SOL     OW19537   5.681   0.512   0.231
 6213SOL    HW119538   5.745   0.588   0.236
 6213SOL    HW219539   5.691   0.454   0.312
 6214SOL     OW19540   5.474   5.527   4.775
 6214SOL    HW119541   5.441   5.609   4.822
 6214SOL    HW219542   5.402   5.457   4.776
 6215SOL     OW19543   3.732   2.128   6.467
 6215SOL    HW119544   3.640   2.106   6.434
 6215SOL    HW219545   3.728   2.160   6.561
 6216SOL     OW19546   6.172   2.337   2.844
 6216SOL    HW119547   6.160   2.382   2.755
 6216SOL    HW219548   6.107   2.262   2.852
 6217SOL     OW19549   0.873   3.190   1.907
 6217SOL    HW119550   0.965   3.188   1.868
 6217SOL    HW219551   0.875   3.157   2.001
 6218SOL     OW19552   3.728   6.419   6.270
 6218SOL    HW119553   3.703   6.508   6.307
 6218SOL    HW219554   3.814   6.388   6.312
 6219SOL     OW19555   1.021   1.943   4.849
 6219SOL    HW119556   1.085   1.896   4.909
 6219SOL    HW219557   0.958   1.998   4.903
 6220SOL     OW19558   2.297   1.427   5.308
 6220SOL    HW119559   2.270   1.337   5.275
 6220SOL    HW219560   2.334   1.480   5.232
 6221SOL     OW19561   5.500   6.523   0.276
 6221SOL    HW119562   5.560   6.526   0.196
 6221SOL    HW219563   5.405   6.521   0.247
 6222SOL     OW19564   1.453   6.966   1.535
 6222SOL    HW119565   1.425   6.884   1.586
 6222SOL    HW219566   1.427   6.956   1.439
 6223SOL     OW19567   1.589   5.427   3.236
 6223SOL    HW119568   1.508   5.477   3.205
 6223SOL    HW219569   1.575   5.396   3.330
 6224SOL     OW19570   3.672   1.295   6.024
 6224SOL    HW119571   3.703   1.345   6.105
 6224SOL    HW219572   3.693   1.347   5.942
 6225SOL     OW19573   3.885   2.797   6.488
 6225SOL    HW119574   3.804   2.856   6.484
 6225SOL    HW219575   3.865   2.712   6.439
 6226SOL     OW19576   0.825   1.297   4.668
 6226SOL    HW119577   0.745   1.330   4.618
 6226SOL    HW219578   0.895   1.369   4.672
 6227SOL     OW19579   3.151   4.950   5.255
 6227SOL    HW119580   3.136   4.892   5.175
 6227SOL    HW219581   3.151   4.893   5.338
 6228SOL     OW19582   0.541   3.111   2.374
 6228SOL    HW119583   0.632   3.136   2.407
 6228SOL    HW219584   0.516   3.021   2.409
 6229SOL     OW19585   0.289   2.310   5.194
 6229SOL    HW119586   0.222   2.368   5.148
 6229SOL    HW219587   0.376   2.315   5.145
 6230SOL     OW19588   0.841   2.076   4.212
 6230SOL    HW119589   0.897   2.082   4.295
 6230SOL    HW219590   0.858   1.988   4.167
 6231SOL     OW19591   6.388   5.796   0.490
 6231SOL    HW119592   6.428   5.708   0.463
 6231SOL    HW219593   6.308   5.780   0.548
 6232SOL     OW19594   6.660   1.254   1.164
 6232SOL    HW119595   6.714   1.170   1.156
 6232SOL    HW219596   6.606   1.268   1.080
 6233SOL     OW19597   6.650   3.226   1.331
 6233SOL    HW119598   6.708   3.145   1.333
 6233SOL    HW219599   6.562   3.205   1.373
 6234SOL     OW19600   0.283   0.108   5.353
 6234SOL    HW119601   0.354   0.065   5.409
 6234SOL    HW219602   0.312   0.109   5.258
 6235SOL     OW19603   6.898   0.620   1.512
 6235SOL    HW119604   6.816   0.609   1.456
 6235SOL    HW219605   6.977   0.635   1.453
 6236SOL     OW19606   0.560   4.457   0.897
 6236SOL    HW119607   0.505   4.378   0.922
 6236SOL    HW219608   0.651   4.427   0.869
 6237SOL     OW19609   3.811   6.856   6.464
 6237SOL    HW119610   3.764   6.926   6.409
 6237SOL    HW219611   3.833   6.778   6.406
 6238SOL     OW19612   5.374   5.725   2.845
 6238SOL    HW119613   5.370   5.812   2.795
 6238SOL    HW219614   5.299   5.721   2.911
 6239SOL     OW19615   4.129   1.919   1.477
 6239SOL    HW119616   4.147   1.832   1.523
 6239SOL    HW219617   4.033   1.923   1.450
 6240SOL     OW19618   2.596   3.690   5.416
 6240SOL    HW119619   2.687   3.652   5.401
 6240SOL    HW219620   2.589   3.780   5.373
 6241SOL     OW19621   3.814   0.708   2.370
 6241SOL    HW119622   3.894   0.650   2.385
 6241SOL    HW219623   3.844   0.798   2.338
 6242SOL     OW19624   4.302   6.952   3.000
 6242SOL    HW119625   4.288   6.889   2.924
 6242SOL    HW219626   4.257   6.916   3.082
 6243SOL     OW19627   0.411   6.518   5.378
 6243SOL    HW119628   0.336   6.581   5.398
 6243SOL    HW219629   0.496   6.569   5.367
 6244SOL     OW19630   5.448   3.218   3.541
 6244SOL    HW119631   5.453   3.130   3.588
 6244SOL    HW219632   5.524   3.225   3.475
 6245SOL     OW19633   1.400   3.409   1.367
 6245SOL    HW119634   1.494   3.442   1.362
 6245SOL    HW219635   1.351   3.432   1.283
 6246SOL     OW19636   0.746   1.992   5.245
 6246SOL    HW119637   0.720   1.896   5.233
 6246SOL    HW219638   0.776   2.029   5.157
 6247SOL     OW19639   0.979   5.726   3.810
 6247SOL    HW119640   0.880   5.737   3.813
 6247SOL    HW219641   1.003   5.661   3.738
 6248SOL     OW19642   3.872   3.786   0.167
 6248SOL    HW119643   3.823   3.834   0.240
 6248SOL    HW219644   3.947   3.733   0.206
 6249SOL     OW19645   6.953   3.444   0.662
 6249SOL    HW119646   0.028   3.469   0.688
 6249SOL    HW219647   6.944   3.447   0.562
 6250SOL     OW19648   6.577   6.543   1.457
 6250SOL    HW119649   6.646   6.602   1.499
 6250SOL    HW219650   6.496   6.541   1.515
 6251SOL     OW19651   4.245   5.697   5.317
 6251SOL    HW119652   4.274   5.710   5.412
 6251SOL    HW219653   4.227   5.786   5.275
 6252SOL     OW19654   3.049   5.629   6.581
 6252SOL    HW119655   3.099   5.697   6.635
 6252SOL    HW219656   3.101   5.607   6.498
 6253SOL     OW19657   2.811   5.215   4.271
 6253SOL    HW119658   2.909   5.219   4.292
 6253SOL    HW219659   2.798   5.193   4.175
 6254SOL     OW19660   6.384   1.112   1.243
 6254SOL    HW119661   6.355   1.208   1.242
 6254SOL    HW219662   6.419   1.089   1.334
 6255SOL     OW19663   2.435   1.253   0.909
 6255SOL    HW119664   2.453   1.199   0.828
 6255SOL    HW219665   2.484   1.214   0.987
 6256SOL     OW19666   3.955   5.148   2.191
 6256SOL    HW119667   3.962   5.130   2.289
 6256SOL    HW219668   3.926   5.065   2.144
 6257SOL     OW19669   4.245   2.838   0.029
 6257SOL    HW119670   4.253   2.908   0.099
 6257SOL    HW219671   4.283   2.752   0.063
 6258SOL     OW19672   2.974   7.006   3.910
 6258SOL    HW119673   2.997   0.036   3.825
 6258SOL    HW219674   2.910   6.932   3.890
 6259SOL     OW19675   2.168   0.789   6.719
 6259SOL    HW119676   2.134   0.803   6.626
 6259SOL    HW219677   2.091   0.787   6.783
 6260SOL     OW19678   3.569   6.315   0.146
 6260SOL    HW119679   3.473   6.287   0.138
 6260SOL    HW219680   3.597   6.363   0.063
 6261SOL     OW19681   5.560   0.586   6.827
 6261SOL    HW119682   5.508   0.633   6.898
 6261SOL    HW219683   5.620   0.517   6.869
 6262SOL     OW19684   2.315   6.120   1.417
 6262SOL    HW119685   2.289   6.058   1.343
 6262SOL    HW219686   2.333   6.066   1.500
 6263SOL     OW19687   0.930   6.732   4.690
 6263SOL    HW119688   0.997   6.695   4.755
 6263SOL    HW219689   0.925   6.831   4.701
 6264SOL     OW19690   1.971   0.487   1.852
 6264SOL    HW119691   2.025   0.571   1.846
 6264SOL    HW219692   1.879   0.510   1.886
 6265SOL     OW19693   4.080   3.360   0.127
 6265SOL    HW119694   4.170   3.333   0.093
 6265SOL    HW219695   4.020   3.381   0.050
 6266SOL     OW19696   4.895   0.241   3.678
 6266SOL    HW119697   4.958   0.222   3.753
 6266SOL    HW219698   4.877   0.157   3.627
 6267SOL     OW19699   2.604   6.866   4.943
 6267SOL    HW119700   2.518   6.870   4.891
 6267SOL    HW219701   2.626   6.957   4.979
 6268SOL     OW19702   3.147   0.768   2.322
 6268SOL    HW119703   3.079   0.799   2.389
 6268SOL    HW219704   3.137   0.820   2.238
 6269SOL     OW19705   6.982   0.235   2.726
 6269SOL    HW119706   7.018   0.257   2.635
 6269SOL    HW219707   6.945   0.142   2.725
 6270SOL     OW19708   0.178   0.051   6.013
 6270SOL    HW119709   0.161   0.109   5.933
 6270SOL    HW219710   0.257   0.087   6.063
 6271SOL     OW19711   5.736   2.344   5.925
 6271SOL    HW119712   5.771   2.315   6.014
 6271SOL    HW219713   5.636   2.341   5.926
 6272SOL     OW19714   0.640   2.322   0.636
 6272SOL    HW119715   0.580   2.399   0.615
 6272SOL    HW219716   0.708   2.312   0.563
 6273SOL     OW19717   0.702   6.338   2.681
 6273SOL    HW119718   0.655   6.380   2.758
 6273SOL    HW219719   0.635   6.298   2.619
 6274SOL     OW19720   3.296   0.060   4.581
 6274SOL    HW119721   3.198   0.041   4.581
 6274SOL    HW219722   3.343   7.010   4.638
 6275SOL     OW19723   2.397   6.250   0.175
 6275SOL    HW119724   2.349   6.278   0.092
 6275SOL    HW219725   2.483   6.207   0.151
 6276SOL     OW19726   1.850   5.512   3.282
 6276SOL    HW119727   1.878   5.608   3.271
 6276SOL    HW219728   1.756   5.501   3.249
 6277SOL     OW19729   4.487   3.072   1.052
 6277SOL    HW119730   4.574   3.120   1.043
 6277SOL    HW219731   4.413   3.138   1.064
 6278SOL     OW19732   4.521   6.976   4.847
 6278SOL    HW119733   4.499   6.967   4.750
 6278SOL    HW219734   4.460   6.918   4.901
 6279SOL     OW19735   3.275   6.291   0.453
 6279SOL    HW119736   3.340   6.345   0.507
 6279SOL    HW219737   3.276   6.196   0.485
 6280SOL     OW19738   0.180   0.719   6.386
 6280SOL    HW119739   0.097   0.670   6.359
 6280SOL    HW219740   0.230   0.665   6.454
 6281SOL     OW19741   6.886   4.900   4.240
 6281SOL    HW119742   6.954   4.835   4.204
 6281SOL    HW219743   6.928   4.956   4.311
 6282SOL     OW19744   6.370   4.948   5.741
 6282SOL    HW119745   6.397   5.040   5.714
 6282SOL    HW219746   6.288   4.953   5.798
 6283SOL     OW19747   0.207   3.925   4.257
 6283SOL    HW119748   0.176   3.851   4.197
 6283SOL    HW219749   0.274   3.890   4.322
 6284SOL     OW19750   2.219   4.930   5.277
 6284SOL    HW119751   2.295   4.970   5.226
 6284SOL    HW219752   2.234   4.831   5.287
 6285SOL     OW19753   0.791   3.201   3.497
 6285SOL    HW119754   0.772   3.296   3.520
 6285SOL    HW219755   0.806   3.193   3.399
 6286SOL     OW19756   6.863   2.153   4.130
 6286SOL    HW119757   6.875   2.056   4.151
 6286SOL    HW219758   6.903   2.173   4.040
 6287SOL     OW19759   3.253   4.889   4.892
 6287SOL    HW119760   3.172   4.836   4.915
 6287SOL    HW219761   3.227   4.985   4.877
 6288SOL     OW19762   5.140   4.466   2.014
 6288SOL    HW119763   5.097   4.531   2.076
 6288SOL    HW219764   5.071   4.402   1.979
 6289SOL     OW19765   1.625   5.353   6.893
 6289SOL    HW119766   1.639   5.446   6.926
 6289SOL    HW219767   1.690   5.333   6.820
 6290SOL     OW19768   5.976   4.964   6.261
 6290SOL    HW119769   5.879   4.972   6.282
 6290SOL    HW219770   5.994   4.877   6.215
 6291SOL     OW19771   4.017   3.868   3.574
 6291SOL    HW119772   4.025   3.967   3.587
 6291SOL    HW219773   4.042   3.820   3.658
 6292SOL     OW19774   2.219   2.417   5.360
 6292SOL    HW119775   2.146   2.396   5.295
 6292SOL    HW219776   2.232   2.516   5.365
 6293SOL     OW19777   4.296   2.118   0.807
 6293SOL    HW119778   4.351   2.162   0.735
 6293SOL    HW219779   4.228   2.183   0.841
 6294SOL     OW19780   4.141   0.532   3.400
 6294SOL    HW119781   4.232   0.567   3.379
 6294SOL    HW219782   4.117   0.558   3.494
 6295SOL     OW19783   5.277   4.680   4.315
 6295SOL    HW119784   5.179   4.699   4.306
 6295SOL    HW219785   5.329   4.745   4.259
 6296SOL     OW19786   6.532   4.726   6.359
 6296SOL    HW119787   6.562   4.812   6.317
 6296SOL    HW219788   6.480   4.747   6.442
 6297SOL     OW19789   5.726   0.489   5.468
 6297SOL    HW119790   5.660   0.550   5.424
 6297SOL    HW219791   5.708   0.395   5.438
 6298SOL     OW19792   1.376   3.408   6.370
 6298SOL    HW119793   1.423   3.496   6.367
 6298SOL    HW219794   1.431   3.340   6.321
 6299SOL     OW19795   5.866   2.665   1.978
 6299SOL    HW119796   5.846   2.705   2.068
 6299SOL    HW219797   5.861   2.566   1.984
 6300SOL     OW19798   6.173   0.970   0.016
 6300SOL    HW119799   6.262   0.938   0.050
 6300SOL    HW219800   6.101   0.907   0.046
 6301SOL     OW19801   2.981   6.690   6.964
 6301SOL    HW119802   3.023   6.629   0.013
 6301SOL    HW219803   2.883   6.697   6.982
 6302SOL     OW19804   1.944   2.105   5.093
 6302SOL    HW119805   1.898   2.048   5.025
 6302SOL    HW219806   2.028   2.143   5.053
 6303SOL     OW19807   0.360   0.771   5.589
 6303SOL    HW119808   0.419   0.707   5.639
 6303SOL    HW219809   0.292   0.721   5.536
 6304SOL     OW19810   4.006   0.849   1.840
 6304SOL    HW119811   4.048   0.807   1.921
 6304SOL    HW219812   3.907   0.838   1.844
 6305SOL     OW19813   5.748   6.304   0.588
 6305SOL    HW119814   5.700   6.310   0.500
 6305SOL    HW219815   5.846   6.318   0.574
 6306SOL     OW19816   6.885   4.000   4.227
 6306SOL    HW119817   6.788   3.987   4.206
 6306SOL    HW219818   6.922   3.916   4.265
 6307SOL     OW19819   3.515   3.725   3.591
 6307SOL    HW119820   3.426   3.698   3.626
 6307SOL    HW219821   3.583   3.655   3.615
 6308SOL     OW19822   1.915   2.445   4.596
 6308SOL    HW119823   1.862   2.521   4.558
 6308SOL    HW219824   1.950   2.470   4.686
 6309SOL     OW19825   0.042   6.597   4.389
 6309SOL    HW119826   6.968   6.610   4.351
 6309SOL    HW219827   0.043   6.626   4.484
 6310SOL     OW19828   1.442   6.660   2.563
 6310SOL    HW119829   1.532   6.639   2.527
 6310SOL    HW219830   1.450   6.686   2.659
 6311SOL     OW19831   4.572   1.704   5.682
 6311SOL    HW119832   4.653   1.746   5.641
 6311SOL    HW219833   4.537   1.764   5.755
 6312SOL     OW19834   0.492   0.345   5.165
 6312SOL    HW119835   0.403   0.311   5.136
 6312SOL    HW219836   0.480   0.421   5.229
 6313SOL     OW19837   6.360   5.906   3.717
 6313SOL    HW119838   6.391   5.825   3.767
 6313SOL    HW219839   6.438   5.963   3.695
 6314SOL     OW19840   3.613   6.582   1.822
 6314SOL    HW119841   3.520   6.607   1.849
 6314SOL    HW219842   3.610   6.508   1.755
 6315SOL     OW19843   3.117   2.086   6.103
 6315SOL    HW119844   3.049   2.147   6.062
 6315SOL    HW219845   3.143   2.016   6.036
 6316SOL     OW19846   5.024   2.063   5.724
 6316SOL    HW119847   5.013   1.967   5.702
 6316SOL    HW219848   4.939   2.097   5.766
 6317SOL     OW19849   4.842   4.631   1.825
 6317SOL    HW119850   4.869   4.727   1.838
 6317SOL    HW219851   4.860   4.603   1.731
 6318SOL     OW19852   4.332   6.905   6.274
 6318SOL    HW119853   4.309   6.881   6.179
 6318SOL    HW219854   4.255   6.953   6.316
 6319SOL     OW19855   6.215   2.338   5.541
 6319SOL    HW119856   6.127   2.385   5.538
 6319SOL    HW219857   6.261   2.347   5.452
 6320SOL     OW19858   0.059   6.689   4.641
 6320SOL    HW119859   0.009   6.702   4.726
 6320SOL    HW219860   0.158   6.688   4.661
 6321SOL     OW19861   4.472   3.064   0.425
 6321SOL    HW119862   4.542   3.136   0.421
 6321SOL    HW219863   4.411   3.082   0.502
 6322SOL     OW19864   2.266   2.430   0.751
 6322SOL    HW119865   2.230   2.406   0.841
 6322SOL    HW219866   2.205   2.496   0.706
 6323SOL     OW19867   0.969   2.319   2.111
 6323SOL    HW119868   1.038   2.284   2.175
 6323SOL    HW219869   0.878   2.309   2.151
 6324SOL     OW19870   3.958   1.186   0.787
 6324SOL    HW119871   3.873   1.153   0.745
 6324SOL    HW219872   3.949   1.284   0.808
 6325SOL     OW19873   2.087   3.244   2.629
 6325SOL    HW119874   1.991   3.237   2.603
 6325SOL    HW219875   2.126   3.328   2.591
 6326SOL     OW19876   5.316   5.322   0.242
 6326SOL    HW119877   5.349   5.234   0.276
 6326SOL    HW219878   5.356   5.340   0.152
 6327SOL     OW19879   0.105   1.672   4.564
 6327SOL    HW119880   0.034   1.602   4.561
 6327SOL    HW219881   0.078   1.743   4.629
 6328SOL     OW19882   4.374   3.637   0.043
 6328SOL    HW119883   4.307   3.663   6.991
 6328SOL    HW219884   4.466   3.656   0.011
 6329SOL     OW19885   1.478   2.860   4.327
 6329SOL    HW119886   1.490   2.928   4.399
 6329SOL    HW219887   1.559   2.801   4.323
 6330SOL     OW19888   5.891   6.459   2.042
 6330SOL    HW119889   5.800   6.462   2.084
 6330SOL    HW219890   5.958   6.495   2.107
 6331SOL     OW19891   0.034   3.525   5.036
 6331SOL    HW119892   0.047   3.623   5.050
 6331SOL    HW219893   6.960   3.508   5.000
 6332SOL     OW19894   0.582   2.320   1.687
 6332SOL    HW119895   0.579   2.417   1.713
 6332SOL    HW219896   0.671   2.282   1.710
 6333SOL     OW19897   4.978   0.365   5.639
 6333SOL    HW119898   4.984   0.411   5.728
 6333SOL    HW219899   4.952   0.269   5.653
 6334SOL     OW19900   3.538   0.957   2.566
 6334SOL    HW119901   3.567   1.014   2.643
 6334SOL    HW219902   3.525   1.014   2.485
 6335SOL     OW19903   3.550   6.988   0.630
 6335SOL    HW119904   3.519   0.065   0.638
 6335SOL    HW219905   3.493   6.929   0.687
 6336SOL     OW19906   0.848   1.968   6.473
 6336SOL    HW119907   0.877   2.050   6.522
 6336SOL    HW219908   0.926   1.906   6.462
 6337SOL     OW19909   3.982   5.271   5.113
 6337SOL    HW119910   4.017   5.338   5.179
 6337SOL    HW219911   4.058   5.219   5.075
 6338SOL     OW19912   2.964   2.221   4.250
 6338SOL    HW119913   2.913   2.287   4.194
 6338SOL    HW219914   3.005   2.268   4.328
 6339SOL     OW19915   0.899   3.240   3.916
 6339SOL    HW119916   0.800   3.253   3.905
 6339SOL    HW219917   0.946   3.272   3.834
 6340SOL     OW19918   2.281   4.723   1.018
 6340SOL    HW119919   2.278   4.820   0.993
 6340SOL    HW219920   2.188   4.690   1.034
 6341SOL     OW19921   6.774   3.422   4.606
 6341SOL    HW119922   6.676   3.414   4.591
 6341SOL    HW219923   6.791   3.462   4.696
 6342SOL     OW19924   2.538   1.534   1.168
 6342SOL    HW119925   2.596   1.497   1.096
 6342SOL    HW219926   2.465   1.590   1.128
 6343SOL     OW19927   4.114   0.670   6.311
 6343SOL    HW119928   4.078   0.582   6.341
 6343SOL    HW219929   4.078   0.742   6.371
 6344SOL     OW19930   4.916   2.625   4.327
 6344SOL    HW119931   4.984   2.558   4.355
 6344SOL    HW219932   4.859   2.650   4.406
 6345SOL     OW19933   5.168   2.854   2.118
 6345SOL    HW119934   5.105   2.826   2.046
 6345SOL    HW219935   5.187   2.952   2.111
 6346SOL     OW19936   6.468   5.352   4.391
 6346SOL    HW119937   6.480   5.274   4.452
 6346SOL    HW219938   6.444   5.320   4.300
 6347SOL     OW19939   1.964   1.140   0.414
 6347SOL    HW119940   1.951   1.050   0.456
 6347SOL    HW219941   1.923   1.210   0.472
 6348SOL     OW19942   1.789   2.438   6.979
 6348SOL    HW119943   1.735   2.396   6.907
 6348SOL    HW219944   1.728   2.484   0.026
 6349SOL     OW19945   1.658   0.905   0.934
 6349SOL    HW119946   1.603   0.965   0.992
 6349SOL    HW219947   1.754   0.913   0.961
 6350SOL     OW19948   0.281   5.036   4.165
 6350SOL    HW119949   0.369   5.019   4.121
 6350SOL    HW219950   0.295   5.078   4.254
 6351SOL     OW19951   5.992   3.536   3.779
 6351SOL    HW119952   5.925   3.518   3.707
 6351SOL    HW219953   6.081   3.501   3.751
 6352SOL     OW19954   3.019   6.951   4.868
 6352SOL    HW119955   3.068   0.011   4.905
 6352SOL    HW219956   3.021   6.876   4.934
 6353SOL     OW19957   0.841   6.002   5.710
 6353SOL    HW119958   0.941   6.003   5.700
 6353SOL    HW219959   0.817   5.963   5.799
 6354SOL     OW19960   3.624   5.415   3.291
 6354SOL    HW119961   3.718   5.448   3.278
 6354SOL    HW219962   3.612   5.331   3.239
 6355SOL     OW19963   2.470   5.468   6.582
 6355SOL    HW119964   2.417   5.401   6.530
 6355SOL    HW219965   2.561   5.432   6.601
 6356SOL     OW19966   4.972   5.121   0.989
 6356SOL    HW119967   4.912   5.201   0.994
 6356SOL    HW219968   4.933   5.046   1.043
 6357SOL     OW19969   6.028   3.382   3.130
 6357SOL    HW119970   5.956   3.440   3.092
 6357SOL    HW219971   6.048   3.410   3.224
 6358SOL     OW19972   0.708   1.964   6.162
 6358SOL    HW119973   0.784   1.957   6.097
 6358SOL    HW219974   0.741   1.943   6.254
 6359SOL     OW19975   6.380   0.283   0.129
 6359SOL    HW119976   6.395   0.377   0.098
 6359SOL    HW219977   6.337   0.230   0.055
 6360SOL     OW19978   1.247   3.683   5.019
 6360SOL    HW119979   1.153   3.661   5.046
 6360SOL    HW219980   1.307   3.677   5.099
 6361SOL     OW19981   1.044   0.486   0.907
 6361SOL    HW119982   1.127   0.436   0.880
 6361SOL    HW219983   1.010   0.451   0.994
 6362SOL     OW19984   0.402   5.479   5.829
 6362SOL    HW119985   0.475   5.467   5.897
 6362SOL    HW219986   0.325   5.525   5.873
 6363SOL     OW19987   2.352   5.750   3.494
 6363SOL    HW119988   2.330   5.806   3.415
 6363SOL    HW219989   2.337   5.654   3.473
 6364SOL     OW19990   2.851   1.961   5.607
 6364SOL    HW119991   2.808   1.917   5.528
 6364SOL    HW219992   2.829   2.059   5.607
 6365SOL     OW19993   5.071   6.696   4.111
 6365SOL    HW119994   5.114   6.606   4.100
 6365SOL    HW219995   5.001   6.690   4.183
 6366SOL     OW19996   0.922   5.545   5.137
 6366SOL    HW119997   1.001   5.555   5.197
 6366SOL    HW219998   0.905   5.447   5.119
 6367SOL     OW19999   4.173   1.396   3.715
 6367SOL    HW120000   4.206   1.478   3.669
 6367SOL    HW220001   4.126   1.421   3.800
 6368SOL     OW20002   3.758   4.870   3.942
 6368SOL    HW120003   3.819   4.921   3.882
 6368SOL    HW220004   3.801   4.783   3.967
 6369SOL     OW20005   1.786   0.600   4.923
 6369SOL    HW120006   1.851   0.524   4.932
 6369SOL    HW220007   1.808   0.653   4.842
 6370SOL     OW20008   5.349   3.513   3.822
 6370SOL    HW120009   5.435   3.467   3.843
 6370SOL    HW220010   5.299   3.461   3.752
 6371SOL     OW20011   5.542   4.785   3.303
 6371SOL    HW120012   5.638   4.801   3.325
 6371SOL    HW220013   5.494   4.751   3.385
 6372SOL     OW20014   1.309   1.450   1.879
 6372SOL    HW120015   1.359   1.365   1.862
 6372SOL    HW220016   1.347   1.522   1.820
 6373SOL     OW20017   5.147   4.328   2.828
 6373SOL    HW120018   5.061   4.376   2.839
 6373SOL    HW220019   5.196   4.325   2.915
 6374SOL     OW20020   4.177   3.048   1.510
 6374SOL    HW120021   4.231   3.100   1.576
 6374SOL    HW220022   4.185   3.091   1.420
 6375SOL     OW20023   0.042   2.204   2.394
 6375SOL    HW120024   6.973   2.193   2.346
 6375SOL    HW220025   0.049   2.135   2.466
 6376SOL     OW20026   4.925   2.351   6.466
 6376SOL    HW120027   4.831   2.317   6.468
 6376SOL    HW220028   4.925   2.451   6.472
 6377SOL     OW20029   6.550   1.295   5.258
 6377SOL    HW120030   6.528   1.260   5.349
 6377SOL    HW220031   6.648   1.284   5.241
 6378SOL     OW20032   4.732   4.523   3.837
 6378SOL    HW120033   4.710   4.620   3.831
 6378SOL    HW220034   4.801   4.509   3.908
 6379SOL     OW20035   0.459   4.058   5.172
 6379SOL    HW120036   0.534   3.992   5.170
 6379SOL    HW220037   0.485   4.141   5.123
 6380SOL     OW20038   6.872   1.710   4.908
 6380SOL    HW120039   6.863   1.699   5.007
 6380SOL    HW220040   6.861   1.620   4.864
 6381SOL     OW20041   4.365   2.877   1.222
 6381SOL    HW120042   4.418   2.950   1.178
 6381SOL    HW220043   4.398   2.863   1.315
 6382SOL     OW20044   3.503   1.634   0.629
 6382SOL    HW120045   3.556   1.661   0.709
 6382SOL    HW220046   3.406   1.635   0.651
 6383SOL     OW20047   2.505   2.401   2.940
 6383SOL    HW120048   2.434   2.443   2.997
 6383SOL    HW220049   2.522   2.459   2.860
 6384SOL     OW20050   5.872   3.931   3.031
 6384SOL    HW120051   5.783   3.899   2.999
 6384SOL    HW220052   5.873   4.031   3.033
 6385SOL     OW20053   6.809   3.417   3.850
 6385SOL    HW120054   6.871   3.406   3.927
 6385SOL    HW220055   6.724   3.368   3.868
 6386SOL     OW20056   3.151   3.319   6.477
 6386SOL    HW120057   3.219   3.253   6.508
 6386SOL    HW220058   3.059   3.282   6.491
 6387SOL     OW20059   6.989   1.669   6.921
 6387SOL    HW120060   0.046   1.640   6.862
 6387SOL    HW220061   6.919   1.597   6.925
 6388SOL     OW20062   4.634   6.250   1.536
 6388SOL    HW120063   4.713   6.293   1.579
 6388SOL    HW220064   4.593   6.184   1.599
 6389SOL     OW20065   0.493   6.462   0.501
 6389SOL    HW120066   0.534   6.476   0.411
 6389SOL    HW220067   0.394   6.478   0.496
 6390SOL     OW20068   7.000   0.453   5.310
 6390SOL    HW120069   0.008   0.371   5.361
 6390SOL    HW220070   6.902   0.469   5.321
 6391SOL     OW20071   1.528   0.677   6.146
 6391SOL    HW120072   1.471   0.650   6.068
 6391SOL    HW220073   1.469   0.703   6.223
 6392SOL     OW20074   2.860   4.993   2.905
 6392SOL    HW120075   2.921   4.944   2.967
 6392SOL    HW220076   2.776   5.017   2.953
 6393SOL     OW20077   0.300   6.275   2.316
 6393SOL    HW120078   0.378   6.305   2.262
 6393SOL    HW220079   0.323   6.190   2.364
 6394SOL     OW20080   1.647   5.949   0.478
 6394SOL    HW120081   1.601   5.958   0.567
 6394SOL    HW220082   1.594   5.888   0.419
 6395SOL     OW20083   0.220   2.983   1.748
 6395SOL    HW120084   0.174   3.026   1.670
 6395SOL    HW220085   0.217   2.884   1.737
 6396SOL     OW20086   6.265   3.008   6.637
 6396SOL    HW120087   6.180   2.996   6.689
 6396SOL    HW220088   6.326   3.071   6.687
 6397SOL     OW20089   5.567   0.947   1.434
 6397SOL    HW120090   5.484   0.966   1.487
 6397SOL    HW220091   5.563   0.996   1.347
 6398SOL     OW20092   2.871   6.656   2.190
 6398SOL    HW120093   2.827   6.742   2.216
 6398SOL    HW220094   2.955   6.644   2.244
 6399SOL     OW20095   1.706   0.320   6.822
 6399SOL    HW120096   1.650   0.359   6.896
 6399SOL    HW220097   1.716   0.222   6.836
 6400SOL     OW20098   2.141   5.036   2.579
 6400SOL    HW120099   2.169   5.111   2.638
 6400SOL    HW220100   2.085   4.971   2.631
 6401SOL     OW20101   5.582   5.792   3.063
 6401SOL    HW120102   5.563   5.788   3.161
 6401SOL    HW220103   5.506   5.752   3.012
 6402SOL     OW20104   2.104   3.198   3.782
 6402SOL    HW120105   2.025   3.187   3.841
 6402SOL    HW220106   2.102   3.289   3.740
 6403SOL     OW20107   5.860   5.681   5.892
 6403SOL    HW120108   5.830   5.680   5.797
 6403SOL    HW220109   5.785   5.651   5.951
 6404SOL     OW20110   4.245   1.409   2.605
 6404SOL    HW120111   4.292   1.427   2.691
 6404SOL    HW220112   4.148   1.390   2.624
 6405SOL     OW20113   4.044   0.766   3.786
 6405SOL    HW120114   4.060   0.845   3.845
 6405SOL    HW220115   3.946   0.751   3.776
 6406SOL     OW20116   0.477   2.377   2.880
 6406SOL    HW120117   0.503   2.474   2.880
 6406SOL    HW220118   0.380   2.368   2.858
 6407SOL     OW20119   2.451   0.198   4.516
 6407SOL    HW120120   2.512   0.119   4.520
 6407SOL    HW220121   2.430   0.218   4.420
 6408SOL     OW20122   5.294   1.132   0.954
 6408SOL    HW120123   5.376   1.186   0.936
 6408SOL    HW220124   5.212   1.187   0.935
 6409SOL     OW20125   6.614   4.375   4.139
 6409SOL    HW120126   6.713   4.380   4.154
 6409SOL    HW220127   6.576   4.467   4.129
 6410SOL     OW20128   1.824   1.542   5.976
 6410SOL    HW120129   1.824   1.469   5.907
 6410SOL    HW220130   1.796   1.628   5.933
 6411SOL     OW20131   0.501   2.854   3.120
 6411SOL    HW120132   0.519   2.757   3.137
 6411SOL    HW220133   0.403   2.867   3.102
 6412SOL     OW20134   1.858   1.209   5.339
 6412SOL    HW120135   1.932   1.267   5.375
 6412SOL    HW220136   1.794   1.264   5.286
 6413SOL     OW20137   3.925   4.937   3.748
 6413SOL    HW120138   3.899   4.913   3.654
 6413SOL    HW220139   3.935   5.037   3.755
 6414SOL     OW20140   5.208   1.051   0.295
 6414SOL    HW120141   5.112   1.077   0.285
 6414SOL    HW220142   5.214   0.962   0.341
 6415SOL     OW20143   1.333   3.251   3.838
 6415SOL    HW120144   1.251   3.284   3.791
 6415SOL    HW220145   1.329   3.151   3.845
 6416SOL     OW20146   2.065   6.965   6.445
 6416SOL    HW120147   2.109   0.012   6.384
 6416SOL    HW220148   2.133   6.899   6.478
 6417SOL     OW20149   5.589   4.650   0.104
 6417SOL    HW120150   5.683   4.622   0.086
 6417SOL    HW220151   5.568   4.635   0.201
 6418SOL     OW20152   4.981   3.991   3.007
 6418SOL    HW120153   5.034   3.978   3.091
 6418SOL    HW220154   4.906   4.054   3.024
 6419SOL     OW20155   1.106   5.173   3.047
 6419SOL    HW120156   1.093   5.248   3.111
 6419SOL    HW220157   1.106   5.086   3.096
 6420SOL     OW20158   2.424   0.205   4.258
 6420SOL    HW120159   2.497   0.188   4.192
 6420SOL    HW220160   2.340   0.229   4.210
 6421SOL     OW20161   4.743   0.706   1.882
 6421SOL    HW120162   4.787   0.725   1.794
 6421SOL    HW220163   4.779   0.768   1.951
 6422SOL     OW20164   6.630   0.433   5.090
 6422SOL    HW120165   6.726   0.402   5.097
 6422SOL    HW220166   6.621   0.498   5.015
 6423SOL     OW20167   4.810   5.387   3.879
 6423SOL    HW120168   4.888   5.413   3.936
 6423SOL    HW220169   4.824   5.422   3.786
 6424SOL     OW20170   0.731   4.023   4.651
 6424SOL    HW120171   0.678   4.091   4.701
 6424SOL    HW220172   0.671   3.975   4.586
 6425SOL     OW20173   6.619   6.562   2.852
 6425SOL    HW120174   6.712   6.588   2.824
 6425SOL    HW220175   6.553   6.618   2.803
 6426SOL     OW20176   0.618   5.249   3.122
 6426SOL    HW120177   0.615   5.189   3.203
 6426SOL    HW220178   0.527   5.284   3.103
 6427SOL     OW20179   3.836   4.035   3.748
 6427SOL    HW120180   3.753   4.091   3.743
 6427SOL    HW220181   3.812   3.939   3.761
 6428SOL     OW20182   5.869   3.290   6.982
 6428SOL    HW120183   5.939   3.247   6.925
 6428SOL    HW220184   5.803   3.337   6.923
 6429SOL     OW20185   0.010   1.068   6.081
 6429SOL    HW120186   0.050   1.146   6.128
 6429SOL    HW220187   0.021   1.079   5.982
 6430SOL     OW20188   6.338   1.279   3.931
 6430SOL    HW120189   6.357   1.348   3.862
 6430SOL    HW220190   6.296   1.321   4.011
 6431SOL     OW20191   4.070   6.040   3.745
 6431SOL    HW120192   4.008   5.994   3.681
 6431SOL    HW220193   4.027   6.125   3.777
 6432SOL     OW20194   4.706   4.660   5.914
 6432SOL    HW120195   4.761   4.635   5.993
 6432SOL    HW220196   4.609   4.660   5.939
 6433SOL     OW20197   1.993   5.167   6.036
 6433SOL    HW120198   1.951   5.156   6.126
 6433SOL    HW220199   1.960   5.096   5.974
 6434SOL     OW20200   2.932   6.405   6.210
 6434SOL    HW120201   2.850   6.462   6.215
 6434SOL    HW220202   2.996   6.433   6.281
 6435SOL     OW20203   5.803   6.845   0.282
 6435SOL    HW120204   5.777   6.836   0.378
 6435SOL    HW220205   5.801   6.942   0.256
 6436SOL     OW20206   1.394   3.241   2.351
 6436SOL    HW120207   1.370   3.205   2.261
 6436SOL    HW220208   1.370   3.173   2.421
 6437SOL     OW20209   1.592   2.548   0.129
 6437SOL    HW120210   1.585   2.615   0.202
 6437SOL    HW220211   1.551   2.462   0.158
 6438SOL     OW20212   0.302   4.222   5.422
 6438SOL    HW120213   0.272   4.315   5.447
 6438SOL    HW220214   0.319   4.218   5.324
 6439SOL     OW20215   5.239   1.024   2.270
 6439SOL    HW120216   5.218   0.981   2.357
 6439SOL    HW220217   5.300   1.102   2.285
 6440SOL     OW20218   2.510   1.392   5.850
 6440SOL    HW120219   2.590   1.399   5.790
 6440SOL    HW220220   2.539   1.352   5.938
 6441SOL     OW20221   0.582   0.545   1.360
 6441SOL    HW120222   0.624   0.500   1.282
 6441SOL    HW220223   0.483   0.546   1.348
 6442SOL     OW20224   2.519   1.869   5.151
 6442SOL    HW120225   2.544   1.965   5.157
 6442SOL    HW220226   2.574   1.825   5.080
 6443SOL     OW20227   3.429   2.873   5.520
 6443SOL    HW120228   3.514   2.900   5.477
 6443SOL    HW220229   3.416   2.774   5.511
 6444SOL     OW20230   5.315   3.071   5.029
 6444SOL    HW120231   5.222   3.088   5.063
 6444SOL    HW220232   5.355   3.157   5.000
 6445SOL     OW20233   4.013   3.740   4.090
 6445SOL    HW120234   4.032   3.710   4.183
 6445SOL    HW220235   3.968   3.829   4.092
 6446SOL     OW20236   0.840   1.409   6.920
 6446SOL    HW120237   0.874   1.321   6.952
 6446SOL    HW220238   0.776   1.447   6.986
 6447SOL     OW20239   6.757   4.721   2.825
 6447SOL    HW120240   6.842   4.755   2.865
 6447SOL    HW220241   6.754   4.746   2.728
 6448SOL     OW20242   5.016   5.385   1.431
 6448SOL    HW120243   4.978   5.295   1.411
 6448SOL    HW220244   5.103   5.396   1.383
 6449SOL     OW20245   3.718   5.811   1.347
 6449SOL    HW120246   3.628   5.814   1.304
 6449SOL    HW220247   3.768   5.895   1.325
 6450SOL     OW20248   1.602   2.556   0.756
 6450SOL    HW120249   1.644   2.571   0.667
 6450SOL    HW220250   1.572   2.643   0.794
 6451SOL     OW20251   2.158   0.505   5.952
 6451SOL    HW120252   2.195   0.435   6.014
 6451SOL    HW220253   2.234   0.554   5.909
 6452SOL     OW20254   4.621   4.337   2.855
 6452SOL    HW120255   4.551   4.323   2.924
 6452SOL    HW220256   4.585   4.392   2.780
 6453SOL     OW20257   2.211   6.996   1.545
 6453SOL    HW120258   2.143   0.049   1.529
 6453SOL    HW220259   2.303   0.019   1.541
 6454SOL     OW20260   0.977   1.496   2.954
 6454SOL    HW120261   1.072   1.497   2.921
 6454SOL    HW220262   0.924   1.432   2.898
 6455SOL     OW20263   6.995   3.153   4.384
 6455SOL    HW120264   0.046   3.198   4.328
 6455SOL    HW220265   6.905   3.169   4.345
 6456SOL     OW20266   1.488   1.466   3.321
 6456SOL    HW120267   1.522   1.560   3.331
 6456SOL    HW220268   1.389   1.468   3.311
 6457SOL     OW20269   4.818   0.750   1.620
 6457SOL    HW120270   4.847   0.845   1.625
 6457SOL    HW220271   4.728   0.745   1.576
 6458SOL     OW20272   0.888   5.528   4.289
 6458SOL    HW120273   0.827   5.455   4.321
 6458SOL    HW220274   0.853   5.616   4.319
 6459SOL     OW20275   6.337   3.347   1.896
 6459SOL    HW120276   6.244   3.339   1.860
 6459SOL    HW220277   6.366   3.443   1.892
 6460SOL     OW20278   6.028   6.020   6.572
 6460SOL    HW120279   6.115   6.024   6.622
 6460SOL    HW220280   5.957   5.984   6.633
 6461SOL     OW20281   2.365   4.347   0.228
 6461SOL    HW120282   2.327   4.434   0.199
 6461SOL    HW220283   2.337   4.327   0.322
 6462SOL     OW20284   2.040   2.931   4.816
 6462SOL    HW120285   2.079   3.022   4.833
 6462SOL    HW220286   2.083   2.891   4.735
 6463SOL     OW20287   5.829   1.343   0.294
 6463SOL    HW120288   5.915   1.394   0.290
 6463SOL    HW220289   5.793   1.347   0.387
 6464SOL     OW20290   1.660   5.301   5.331
 6464SOL    HW120291   1.574   5.254   5.352
 6464SOL    HW220292   1.660   5.330   5.236
 6465SOL     OW20293   6.658   3.168   2.679
 6465SOL    HW120294   6.661   3.121   2.767
 6465SOL    HW220295   6.750   3.175   2.641
 6466SOL     OW20296   6.287   1.488   6.010
 6466SOL    HW120297   6.272   1.524   5.918
 6466SOL    HW220298   6.292   1.388   6.006
 6467SOL     OW20299   3.896   0.210   0.506
 6467SOL    HW120300   3.825   0.161   0.456
 6467SOL    HW220301   3.938   0.279   0.445
 6468SOL     OW20302   3.164   5.880   1.206
 6468SOL    HW120303   3.087   5.930   1.165
 6468SOL    HW220304   3.189   5.923   1.293
 6469SOL     OW20305   4.371   2.423   3.599
 6469SOL    HW120306   4.469   2.405   3.597
 6469SOL    HW220307   4.352   2.511   3.555
 6470SOL     OW20308   5.690   3.012   1.001
 6470SOL    HW120309   5.714   2.917   1.017
 6470SOL    HW220310   5.591   3.024   1.012
 6471SOL     OW20311   0.287   6.239   5.618
 6471SOL    HW120312   0.208   6.299   5.626
 6471SOL    HW220313   0.301   6.214   5.522
 6472SOL     OW20314   0.155   5.840   1.827
 6472SOL    HW120315   0.139   5.938   1.841
 6472SOL    HW220316   0.090   5.788   1.881
 6473SOL     OW20317   3.002   1.876   4.871
 6473SOL    HW120318   2.968   1.914   4.957
 6473SOL    HW220319   3.000   1.777   4.876
 6474SOL     OW20320   3.849   5.480   6.300
 6474SOL    HW120321   3.866   5.577   6.285
 6474SOL    HW220322   3.752   5.461   6.284
 6475SOL     OW20323   6.086   4.842   3.934
 6475SOL    HW120324   6.043   4.791   4.008
 6475SOL    HW220325   6.176   4.874   3.964
 6476SOL     OW20326   5.085   3.426   0.776
 6476SOL    HW120327   5.169   3.422   0.831
 6476SOL    HW220328   5.099   3.374   0.691
 6477SOL     OW20329   6.450   5.022   0.446
 6477SOL    HW120330   6.537   4.973   0.438
 6477SOL    HW220331   6.452   5.080   0.528
 6478SOL     OW20332   3.904   6.583   2.148
 6478SOL    HW120333   3.847   6.599   2.229
 6478SOL    HW220334   3.987   6.640   2.154
 6479SOL     OW20335   4.190   5.729   3.894
 6479SOL    HW120336   4.228   5.748   3.803
 6479SOL    HW220337   4.214   5.635   3.920
 6480SOL     OW20338   2.604   1.368   0.065
 6480SOL    HW120339   2.600   1.272   0.091
 6480SOL    HW220340   2.603   1.425   0.147
 6481SOL     OW20341   3.299   1.982   2.138
 6481SOL    HW120342   3.260   1.912   2.198
 6481SOL    HW220343   3.229   2.051   2.119
 6482SOL     OW20344   6.246   1.878   5.754
 6482SOL    HW120345   6.185   1.957   5.760
 6482SOL    HW220346   6.316   1.884   5.825
 6483SOL     OW20347   0.315   0.042   3.126
 6483SOL    HW120348   0.410   0.020   3.103
 6483SOL    HW220349   0.294   0.010   3.218
 6484SOL     OW20350   3.304   0.138   1.962
 6484SOL    HW120351   3.260   0.049   1.950
 6484SOL    HW220352   3.251   0.208   1.915
 6485SOL     OW20353   1.913   5.270   3.694
 6485SOL    HW120354   1.957   5.193   3.649
 6485SOL    HW220355   1.949   5.279   3.787
 6486SOL     OW20356   0.452   4.640   2.360
 6486SOL    HW120357   0.353   4.648   2.367
 6486SOL    HW220358   0.491   4.630   2.452
 6487SOL     OW20359   0.944   6.564   5.348
 6487SOL    HW120360   0.933   6.663   5.340
 6487SOL    HW220361   1.008   6.543   5.422
 6488SOL     OW20362   4.174   6.352   4.758
 6488SOL    HW120363   4.272   6.361   4.745
 6488SOL    HW220364   4.156   6.290   4.834
 6489SOL     OW20365   3.288   3.491   5.879
 6489SOL    HW120366   3.193   3.516   5.858
 6489SOL    HW220367   3.292   3.393   5.902
 6490SOL     OW20368   4.009   1.237   6.292
 6490SOL    HW120369   4.007   1.333   6.323
 6490SOL    HW220370   4.032   1.234   6.195
 6491SOL     OW20371   3.043   0.718   1.086
 6491SOL    HW120372   3.133   0.750   1.057
 6491SOL    HW220373   3.051   0.626   1.125
 6492SOL     OW20374   4.148   4.336   5.751
 6492SOL    HW120375   4.092   4.418   5.739
 6492SOL    HW220376   4.122   4.290   5.835
 6493SOL     OW20377   1.756   4.433   6.281
 6493SOL    HW120378   1.809   4.386   6.210
 6493SOL    HW220379   1.665   4.391   6.287
 6494SOL     OW20380   6.694   0.630   3.492
 6494SOL    HW120381   6.641   0.553   3.526
 6494SOL    HW220382   6.747   0.670   3.567
 6495SOL     OW20383   6.626   0.579   4.868
 6495SOL    HW120384   6.535   0.550   4.839
 6495SOL    HW220385   6.620   0.668   4.913
 6496SOL     OW20386   5.705   0.948   2.853
 6496SOL    HW120387   5.772   0.927   2.782
 6496SOL    HW220388   5.614   0.957   2.812
 6497SOL     OW20389   1.148   0.768   1.580
 6497SOL    HW120390   1.093   0.731   1.655
 6497SOL    HW220391   1.089   0.817   1.516
 6498SOL     OW20392   1.540   3.058   4.500
 6498SOL    HW120393   1.490   3.057   4.587
 6498SOL    HW220394   1.636   3.078   4.517
 6499SOL     OW20395   5.286   4.314   5.356
 6499SOL    HW120396   5.196   4.323   5.314
 6499SOL    HW220397   5.307   4.217   5.367
 6500SOL     OW20398   6.459   3.985   4.543
 6500SOL    HW120399   6.370   4.013   4.506
 6500SOL    HW220400   6.526   3.981   4.469
 6501SOL     OW20401   6.593   0.972   6.761
 6501SOL    HW120402   6.538   1.054   6.746
 6501SOL    HW220403   6.601   0.920   6.676
 6502SOL     OW20404   6.845   3.760   2.736
 6502SOL    HW120405   6.944   3.761   2.719
 6502SOL    HW220406   6.798   3.721   2.657
 6503SOL     OW20407   5.427   1.076   3.486
 6503SOL    HW120408   5.400   1.053   3.392
 6503SOL    HW220409   5.494   1.151   3.484
 6504SOL     OW20410   4.279   6.530   5.333
 6504SOL    HW120411   4.219   6.545   5.412
 6504SOL    HW220412   4.360   6.588   5.341
 6505SOL     OW20413   5.273   5.899   6.413
 6505SOL    HW120414   5.365   5.872   6.444
 6505SOL    HW220415   5.275   5.995   6.386
 6506SOL     OW20416   6.893   2.958   3.097
 6506SOL    HW120417   6.818   2.955   3.163
 6506SOL    HW220418   6.980   2.965   3.146
 6507SOL     OW20419   2.126   5.500   6.340
 6507SOL    HW120420   2.202   5.435   6.347
 6507SOL    HW220421   2.073   5.498   6.425
 6508SOL     OW20422   1.646   1.160   2.509
 6508SOL    HW120423   1.743   1.183   2.521
 6508SOL    HW220424   1.597   1.242   2.479
 6509SOL     OW20425   4.304   1.948   4.925
 6509SOL    HW120426   4.210   1.917   4.943
 6509SOL    HW220427   4.329   2.018   4.991
 6510SOL     OW20428   6.417   5.215   0.189
 6510SOL    HW120429   6.472   5.133   0.205
 6510SOL    HW220430   6.320   5.190   0.184
 6511SOL     OW20431   3.881   0.792   4.706
 6511SOL    HW120432   3.862   0.863   4.639
 6511SOL    HW220433   3.894   0.705   4.660
 6512SOL     OW20434   3.511   6.199   2.004
 6512SOL    HW120435   3.491   6.130   2.073
 6512SOL    HW220436   3.494   6.290   2.041
 6513SOL     OW20437   2.644   5.147   3.050
 6513SOL    HW120438   2.558   5.197   3.050
 6513SOL    HW220439   2.720   5.211   3.041
 6514SOL     OW20440   5.952   1.339   3.995
 6514SOL    HW120441   5.910   1.343   4.086
 6514SOL    HW220442   5.952   1.245   3.963
 6515SOL     OW20443   0.760   4.361   3.677
 6515SOL    HW120444   0.803   4.416   3.749
 6515SOL    HW220445   0.812   4.277   3.663
 6516SOL     OW20446   0.612   3.462   2.091
 6516SOL    HW120447   0.580   3.367   2.084
 6516SOL    HW220448   0.702   3.469   2.048
 6517SOL     OW20449   0.363   1.240   1.778
 6517SOL    HW120450   0.391   1.282   1.864
 6517SOL    HW220451   0.370   1.141   1.784
 6518SOL     OW20452   6.877   0.310   0.857
 6518SOL    HW120453   6.962   0.362   0.864
 6518SOL    HW220454   6.898   0.212   0.850
 6519SOL     OW20455   0.769   1.961   2.647
 6519SOL    HW120456   0.865   1.933   2.635
 6519SOL    HW220457   0.740   2.015   2.568
 6520SOL     OW20458   6.867   5.328   0.971
 6520SOL    HW120459   6.897   5.334   0.876
 6520SOL    HW220460   6.836   5.235   0.990
 6521SOL     OW20461   2.020   2.817   3.858
 6521SOL    HW120462   2.104   2.818   3.912
 6521SOL    HW220463   2.030   2.754   3.781
 6522SOL     OW20464   2.765   4.772   5.720
 6522SOL    HW120465   2.768   4.677   5.691
 6522SOL    HW220466   2.845   4.821   5.684
 6523SOL     OW20467   3.224   0.934   0.027
 6523SOL    HW120468   3.176   0.997   0.088
 6523SOL    HW220469   3.203   0.956   6.950
 6524SOL     OW20470   2.664   3.328   1.470
 6524SOL    HW120471   2.570   3.333   1.434
 6524SOL    HW220472   2.722   3.280   1.404
 6525SOL     OW20473   2.026   5.332   3.375
 6525SOL    HW120474   2.040   5.373   3.465
 6525SOL    HW220475   1.960   5.387   3.324
 6526SOL     OW20476   2.172   0.715   1.425
 6526SOL    HW120477   2.149   0.618   1.439
 6526SOL    HW220478   2.262   0.722   1.382
 6527SOL     OW20479   6.959   1.680   5.768
 6527SOL    HW120480   6.979   1.702   5.673
 6527SOL    HW220481   0.012   1.621   5.805
 6528SOL     OW20482   5.322   1.252   5.005
 6528SOL    HW120483   5.361   1.265   5.097
 6528SOL    HW220484   5.226   1.228   5.014
 6529SOL     OW20485   1.908   0.503   2.561
 6529SOL    HW120486   1.910   0.602   2.563
 6529SOL    HW220487   1.975   0.469   2.495
 6530SOL     OW20488   6.769   1.939   0.899
 6530SOL    HW120489   6.744   2.019   0.953
 6530SOL    HW220490   6.867   1.940   0.879
 6531SOL     OW20491   4.998   3.465   5.086
 6531SOL    HW120492   4.952   3.552   5.067
 6531SOL    HW220493   4.941   3.411   5.149
 6532SOL     OW20494   0.168   1.138   1.122
 6532SOL    HW120495   0.135   1.144   1.216
 6532SOL    HW220496   0.092   1.120   1.061
 6533SOL     OW20497   4.688   6.969   0.377
 6533SOL    HW120498   4.692   0.036   0.326
 6533SOL    HW220499   4.721   6.983   0.470
 6534SOL     OW20500   4.836   4.552   1.553
 6534SOL    HW120501   4.741   4.560   1.524
 6534SOL    HW220502   4.896   4.563   1.474
 6535SOL     OW20503   6.232   4.371   4.148
 6535SOL    HW120504   6.215   4.461   4.186
 6535SOL    HW220505   6.320   4.336   4.181
 6536SOL     OW20506   0.303   1.689   5.604
 6536SOL    HW120507   0.311   1.709   5.702
 6536SOL    HW220508   0.249   1.606   5.592
 6537SOL     OW20509   0.077   4.736   0.169
 6537SOL    HW120510   0.101   4.802   0.241
 6537SOL    HW220511   0.159   4.691   0.135
 6538SOL     OW20512   2.171   3.583   6.382
 6538SOL    HW120513   2.082   3.539   6.394
 6538SOL    HW220514   2.234   3.551   6.453
 6539SOL     OW20515   5.180   1.094   0.025
 6539SOL    HW120516   5.081   1.085   0.033
 6539SOL    HW220517   5.222   1.080   0.115
 6540SOL     OW20518   4.107   1.895   6.639
 6540SOL    HW120519   4.195   1.865   6.603
 6540SOL    HW220520   4.069   1.967   6.580
 6541SOL     OW20521   4.826   1.574   5.227
 6541SOL    HW120522   4.763   1.651   5.237
 6541SOL    HW220523   4.868   1.553   5.315
 6542SOL     OW20524   6.857   2.755   4.105
 6542SOL    HW120525   6.917   2.679   4.131
 6542SOL    HW220526   6.833   2.807   4.187
 6543SOL     OW20527   4.268   3.119   5.522
 6543SOL    HW120528   4.268   3.183   5.446
 6543SOL    HW220529   4.194   3.053   5.510
 6544SOL     OW20530   1.155   6.605   3.193
 6544SOL    HW120531   1.172   6.661   3.274
 6544SOL    HW220532   1.155   6.663   3.111
 6545SOL     OW20533   4.352   0.553   0.872
 6545SOL    HW120534   4.435   0.497   0.863
 6545SOL    HW220535   4.375   0.639   0.917
 6546SOL     OW20536   2.600   4.329   7.014
 6546SOL    HW120537   2.516   4.306   0.045
 6546SOL    HW220538   2.604   4.278   6.928
 6547SOL     OW20539   4.605   0.888   6.549
 6547SOL    HW120540   4.510   0.891   6.519
 6547SOL    HW220541   4.609   0.858   6.644
 6548SOL     OW20542   0.564   3.997   0.825
 6548SOL    HW120543   0.630   3.924   0.845
 6548SOL    HW220544   0.474   3.956   0.810
 6549SOL     OW20545   4.121   0.723   2.067
 6549SOL    HW120546   4.120   0.798   2.133
 6549SOL    HW220547   4.216   0.706   2.039
 6550SOL     OW20548   6.928   6.926   3.586
 6550SOL    HW120549   6.972   6.968   3.507
 6550SOL    HW220550   6.954   6.830   3.591
 6551SOL     OW20551   1.658   4.271   1.564
 6551SOL    HW120552   1.656   4.292   1.661
 6551SOL    HW220553   1.749   4.241   1.537
 6552SOL     OW20554   1.640   0.292   0.252
 6552SOL    HW120555   1.736   0.280   0.278
 6552SOL    HW220556   1.593   0.204   0.257
 6553SOL     OW20557   0.082   2.305   3.405
 6553SOL    HW120558   0.001   2.248   3.395
 6553SOL    HW220559   0.163   2.254   3.374
 6554SOL     OW20560   0.905   0.814   4.464
 6554SOL    HW120561   0.958   0.895   4.438
 6554SOL    HW220562   0.952   0.732   4.430
 6555SOL     OW20563   5.492   1.810   3.088
 6555SOL    HW120564   5.494   1.909   3.080
 6555SOL    HW220565   5.438   1.784   3.168
 6556SOL     OW20566   5.410   4.311   3.960
 6556SOL    HW120567   5.505   4.331   3.939
 6556SOL    HW220568   5.384   4.355   4.046
 6557SOL     OW20569   3.573   6.916   2.557
 6557SOL    HW120570   3.517   6.906   2.475
 6557SOL    HW220571   3.536   6.989   2.614
 6558SOL     OW20572   0.318   5.146   0.558
 6558SOL    HW120573   0.313   5.182   0.464
 6558SOL    HW220574   0.402   5.094   0.569
 6559SOL     OW20575   1.195   4.202   0.099
 6559SOL    HW120576   1.285   4.208   0.141
 6559SOL    HW220577   1.191   4.122   0.040
 6560SOL     OW20578   4.612   4.690   1.438
 6560SOL    HW120579   4.662   4.759   1.386
 6560SOL    HW220580   4.544   4.647   1.379
 6561SOL     OW20581   3.292   4.034   1.638
 6561SOL    HW120582   3.221   4.034   1.708
 6561SOL    HW220583   3.258   3.989   1.556
 6562SOL     OW20584   6.580   2.965   0.638
 6562SOL    HW120585   6.526   3.024   0.578
 6562SOL    HW220586   6.665   2.939   0.592
 6563SOL     OW20587   4.986   5.965   6.398
 6563SOL    HW120588   5.004   5.988   6.303
 6563SOL    HW220589   5.072   5.963   6.449
 6564SOL     OW20590   6.858   3.752   3.005
 6564SOL    HW120591   6.924   3.823   3.030
 6564SOL    HW220592   6.840   3.756   2.907
 6565SOL     OW20593   5.650   1.874   2.634
 6565SOL    HW120594   5.662   1.814   2.713
 6565SOL    HW220595   5.730   1.932   2.624
 6566SOL     OW20596   4.189   6.312   2.018
 6566SOL    HW120597   4.132   6.341   2.095
 6566SOL    HW220598   4.232   6.224   2.038
 6567SOL     OW20599   4.863   0.640   2.688
 6567SOL    HW120600   4.815   0.589   2.617
 6567SOL    HW220601   4.884   0.579   2.764
 6568SOL     OW20602   3.186   1.405   4.072
 6568SOL    HW120603   3.155   1.492   4.110
 6568SOL    HW220604   3.127   1.331   4.105
 6569SOL     OW20605   2.473   3.398   0.148
 6569SOL    HW120606   2.564   3.379   0.109
 6569SOL    HW220607   2.473   3.373   0.245
 6570SOL     OW20608   3.701   0.704   2.617
 6570SOL    HW120609   3.727   0.670   2.526
 6570SOL    HW220610   3.638   0.781   2.606
 6571SOL     OW20611   3.157   4.935   1.851
 6571SOL    HW120612   3.221   4.902   1.782
 6571SOL    HW220613   3.066   4.898   1.832
 6572SOL     OW20614   0.117   4.499   4.959
 6572SOL    HW120615   0.104   4.533   4.865
 6572SOL    HW220616   0.102   4.400   4.960
 6573SOL     OW20617   1.100   1.955   2.120
 6573SOL    HW120618   1.166   1.880   2.118
 6573SOL    HW220619   1.049   1.957   2.033
 6574SOL     OW20620   2.447   5.802   2.374
 6574SOL    HW120621   2.525   5.740   2.377
 6574SOL    HW220622   2.435   5.835   2.280
 6575SOL     OW20623   0.688   6.859   3.359
 6575SOL    HW120624   0.768   6.820   3.314
 6575SOL    HW220625   0.606   6.834   3.308
 6576SOL     OW20626   2.245   6.340   6.963
 6576SOL    HW120627   2.224   6.308   6.871
 6576SOL    HW220628   2.218   6.436   6.972
 6577SOL     OW20629   1.072   1.706   4.079
 6577SOL    HW120630   1.085   1.628   4.140
 6577SOL    HW220631   0.983   1.749   4.099
 6578SOL     OW20632   0.895   6.031   3.029
 6578SOL    HW120633   0.855   5.941   3.016
 6578SOL    HW220634   0.899   6.079   2.942
 6579SOL     OW20635   0.159   3.297   4.255
 6579SOL    HW120636   0.127   3.306   4.161
 6579SOL    HW220637   0.259   3.306   4.257
 6580SOL     OW20638   1.010   1.603   0.943
 6580SOL    HW120639   0.928   1.557   0.907
 6580SOL    HW220640   1.072   1.534   0.980
 6581SOL     OW20641   2.607   0.640   0.295
 6581SOL    HW120642   2.554   0.555   0.283
 6581SOL    HW220643   2.694   0.619   0.339
 6582SOL     OW20644   0.275   1.400   3.096
 6582SOL    HW120645   0.300   1.398   3.193
 6582SOL    HW220646   0.281   1.308   3.058
 6583SOL     OW20647   4.184   0.227   5.622
 6583SOL    HW120648   4.141   0.251   5.535
 6583SOL    HW220649   4.276   0.192   5.606
 6584SOL     OW20650   4.376   2.657   1.062
 6584SOL    HW120651   4.450   2.599   1.095
 6584SOL    HW220652   4.368   2.737   1.122
 6585SOL     OW20653   6.414   6.205   0.069
 6585SOL    HW120654   6.477   6.267   0.115
 6585SOL    HW220655   6.322   6.220   0.103
 6586SOL     OW20656   5.511   0.971   5.507
 6586SOL    HW120657   5.462   1.032   5.569
 6586SOL    HW220658   5.551   0.896   5.559
 6587SOL     OW20659   2.185   5.266   5.456
 6587SOL    HW120660   2.135   5.254   5.370
 6587SOL    HW220661   2.221   5.359   5.461
 6588SOL     OW20662   0.359   2.905   2.158
 6588SOL    HW120663   0.331   2.967   2.086
 6588SOL    HW220664   0.296   2.912   2.235
 6589SOL     OW20665   4.740   0.380   1.121
 6589SOL    HW120666   4.705   0.327   1.044
 6589SOL    HW220667   4.839   0.387   1.115
 6590SOL     OW20668   0.333   0.935   6.362
 6590SOL    HW120669   0.293   0.843   6.362
 6590SOL    HW220670   0.288   0.992   6.431
 6591SOL     OW20671   6.411   5.784   2.577
 6591SOL    HW120672   6.451   5.694   2.560
 6591SOL    HW220673   6.415   5.803   2.675
 6592SOL     OW20674   4.988   0.129   3.277
 6592SOL    HW120675   5.080   0.117   3.313
 6592SOL    HW220676   4.959   0.224   3.289
 6593SOL     OW20677   1.839   2.596   2.561
 6593SOL    HW120678   1.820   2.499   2.543
 6593SOL    HW220679   1.896   2.633   2.487
 6594SOL     OW20680   3.745   1.432   6.724
 6594SOL    HW120681   3.690   1.370   6.780
 6594SOL    HW220682   3.838   1.436   6.761
 6595SOL     OW20683   1.220   4.576   6.807
 6595SOL    HW120684   1.124   4.556   6.825
 6595SOL    HW220685   1.278   4.510   6.855
 6596SOL     OW20686   3.014   6.962   4.185
 6596SOL    HW120687   2.980   6.963   4.091
 6596SOL    HW220688   3.080   0.018   4.197
 6597SOL     OW20689   1.206   5.324   1.420
 6597SOL    HW120690   1.218   5.228   1.394
 6597SOL    HW220691   1.120   5.335   1.469
 6598SOL     OW20692   1.563   5.517   4.395
 6598SOL    HW120693   1.522   5.605   4.418
 6598SOL    HW220694   1.531   5.448   4.460
 6599SOL     OW20695   4.181   6.353   6.610
 6599SOL    HW120696   4.192   6.399   6.698
 6599SOL    HW220697   4.229   6.265   6.612
 6600SOL     OW20698   4.359   5.709   5.637
 6600SOL    HW120699   4.438   5.758   5.601
 6600SOL    HW220700   4.320   5.761   5.713
 6601SOL     OW20701   1.662   2.043   4.612
 6601SOL    HW120702   1.564   2.060   4.607
 6601SOL    HW220703   1.681   1.947   4.592
 6602SOL     OW20704   2.021   1.371   2.371
 6602SOL    HW120705   1.980   1.303   2.431
 6602SOL    HW220706   2.120   1.372   2.384
 6603SOL     OW20707   6.919   2.591   3.638
 6603SOL    HW120708   6.979   2.557   3.565
 6603SOL    HW220709   6.836   2.536   3.642
 6604SOL     OW20710   0.983   0.328   1.153
 6604SOL    HW120711   1.078   0.302   1.134
 6604SOL    HW220712   0.935   0.250   1.195
 6605SOL     OW20713   5.794   5.285   1.417
 6605SOL    HW120714   5.863   5.215   1.398
 6605SOL    HW220715   5.744   5.306   1.333
 6606SOL     OW20716   1.153   5.803   2.050
 6606SOL    HW120717   1.231   5.741   2.040
 6606SOL    HW220718   1.069   5.756   2.023
 6607SOL     OW20719   1.933   3.728   1.958
 6607SOL    HW120720   1.997   3.793   1.918
 6607SOL    HW220721   1.840   3.751   1.933
 6608SOL     OW20722   6.608   5.933   1.041
 6608SOL    HW120723   6.680   5.971   0.984
 6608SOL    HW220724   6.527   5.914   0.985
 6609SOL     OW20725   4.868   0.997   6.959
 6609SOL    HW120726   4.823   0.991   0.030
 6609SOL    HW220727   4.892   1.092   6.940
 6610SOL     OW20728   2.746   6.021   0.244
 6610SOL    HW120729   2.770   6.108   0.287
 6610SOL    HW220730   2.696   6.039   0.160
 6611SOL     OW20731   4.784   2.743   3.284
 6611SOL    HW120732   4.812   2.784   3.371
 6611SOL    HW220733   4.761   2.815   3.219
 6612SOL     OW20734   6.304   2.009   6.469
 6612SOL    HW120735   6.306   2.004   6.369
 6612SOL    HW220736   6.334   1.921   6.507
 6613SOL     OW20737   6.998   6.584   5.446
 6613SOL    HW120738   0.070   6.619   5.470
 6613SOL    HW220739   7.007   6.492   5.408
 6614SOL     OW20740   4.313   5.301   0.002
 6614SOL    HW120741   4.378   5.338   0.068
 6614SOL    HW220742   4.337   5.206   7.000
 6615SOL     OW20743   1.540   5.953   0.742
 6615SOL    HW120744   1.469   5.886   0.766
 6615SOL    HW220745   1.577   5.993   0.825
 6616SOL     OW20746   4.667   0.711   6.199
 6616SOL    HW120747   4.647   0.793   6.252
 6616SOL    HW220748   4.610   0.635   6.231
 6617SOL     OW20749   4.545   5.293   3.540
 6617SOL    HW120750   4.610   5.258   3.473
 6617SOL    HW220751   4.576   5.269   3.632
 6618SOL     OW20752   1.510   2.177   2.383
 6618SOL    HW120753   1.575   2.124   2.438
 6618SOL    HW220754   1.496   2.266   2.425
 6619SOL     OW20755   5.424   0.417   4.012
 6619SOL    HW120756   5.509   0.453   4.050
 6619SOL    HW220757   5.433   0.410   3.912
 6620SOL     OW20758   1.592   2.884   5.475
 6620SOL    HW120759   1.664   2.816   5.464
 6620SOL    HW220760   1.536   2.888   5.392
 6621SOL     OW20761   3.340   3.246   5.975
 6621SOL    HW120762   3.331   3.147   5.969
 6621SOL    HW220763   3.289   3.280   6.054
 6622SOL     OW20764   5.763   6.083   2.210
 6622SOL    HW120765   5.766   6.014   2.282
 6622SOL    HW220766   5.668   6.104   2.188
 6623SOL     OW20767   3.704   3.372   4.912
 6623SOL    HW120768   3.646   3.290   4.903
 6623SOL    HW220769   3.704   3.402   5.007
 6624SOL     OW20770   0.475   4.504   6.142
 6624SOL    HW120771   0.450   4.532   6.235
 6624SOL    HW220772   0.415   4.430   6.112
 6625SOL     OW20773   5.273   2.072   5.180
 6625SOL    HW120774   5.334   2.019   5.121
 6625SOL    HW220775   5.187   2.023   5.193
 6626SOL     OW20776   3.605   5.462   5.285
 6626SOL    HW120777   3.687   5.516   5.304
 6626SOL    HW220778   3.630   5.365   5.280
 6627SOL     OW20779   2.114   6.602   5.501
 6627SOL    HW120780   2.069   6.687   5.526
 6627SOL    HW220781   2.142   6.607   5.405
 6628SOL     OW20782   5.567   5.327   4.412
 6628SOL    HW120783   5.641   5.324   4.479
 6628SOL    HW220784   5.481   5.300   4.455
 6629SOL     OW20785   4.584   6.599   6.556
 6629SOL    HW120786   4.541   6.644   6.634
 6629SOL    HW220787   4.619   6.668   6.492
 6630SOL     OW20788   3.507   1.209   1.256
 6630SOL    HW120789   3.480   1.275   1.186
 6630SOL    HW220790   3.498   1.251   1.346
 6631SOL     OW20791   2.487   5.571   3.925
 6631SOL    HW120792   2.517   5.543   3.834
 6631SOL    HW220793   2.415   5.640   3.916
 6632SOL     OW20794   0.715   0.484   1.134
 6632SOL    HW120795   0.792   0.426   1.159
 6632SOL    HW220796   0.732   0.527   1.046
 6633SOL     OW20797   1.671   4.760   6.694
 6633SOL    HW120798   1.679   4.701   6.612
 6633SOL    HW220799   1.626   4.708   6.767
 6634SOL     OW20800   4.845   1.867   5.072
 6634SOL    HW120801   4.778   1.871   5.146
 6634SOL    HW220802   4.821   1.793   5.009
 6635SOL     OW20803   4.601   4.697   2.992
 6635SOL    HW120804   4.664   4.703   2.915
 6635SOL    HW220805   4.567   4.788   3.015
 6636SOL     OW20806   4.622   1.876   6.632
 6636SOL    HW120807   4.540   1.873   6.689
 6636SOL    HW220808   4.596   1.877   6.535
 6637SOL     OW20809   0.703   0.023   6.999
 6637SOL    HW120810   0.607   0.050   6.991
 6637SOL    HW220811   0.727   6.983   6.921
 6638SOL     OW20812   3.033   3.822   2.949
 6638SOL    HW120813   3.055   3.729   2.980
 6638SOL    HW220814   3.111   3.860   2.900
 6639SOL     OW20815   5.054   4.653   6.425
 6639SOL    HW120816   5.141   4.626   6.467
 6639SOL    HW220817   4.991   4.575   6.425
 6640SOL     OW20818   0.004   2.059   5.123
 6640SOL    HW120819   7.015   2.125   5.197
 6640SOL    HW220820   0.051   2.100   5.045
 6641SOL     OW20821   2.529   1.075   6.492
 6641SOL    HW120822   2.440   1.106   6.457
 6641SOL    HW220823   2.575   1.151   6.536
 6642SOL     OW20824   2.086   6.232   6.761
 6642SOL    HW120825   2.096   6.135   6.738
 6642SOL    HW220826   2.035   6.278   6.688
 6643SOL     OW20827   6.096   5.675   0.492
 6643SOL    HW120828   6.023   5.617   0.529
 6643SOL    HW220829   6.171   5.681   0.558
 6644SOL     OW20830   2.235   5.143   1.678
 6644SOL    HW120831   2.291   5.199   1.617
 6644SOL    HW220832   2.193   5.069   1.625
 6645SOL     OW20833   6.105   4.179   0.462
 6645SOL    HW120834   6.061   4.113   0.400
 6645SOL    HW220835   6.204   4.171   0.453
 6646SOL     OW20836   4.221   0.480   5.144
 6646SOL    HW120837   4.154   0.415   5.109
 6646SOL    HW220838   4.305   0.474   5.090
 6647SOL     OW20839   5.165   0.881   1.004
 6647SOL    HW120840   5.231   0.956   0.998
 6647SOL    HW220841   5.167   0.842   1.096
 6648SOL     OW20842   3.209   6.220   3.891
 6648SOL    HW120843   3.162   6.297   3.933
 6648SOL    HW220844   3.208   6.142   3.953
 6649SOL     OW20845   5.593   1.349   6.819
 6649SOL    HW120846   5.534   1.269   6.829
 6649SOL    HW220847   5.548   1.429   6.857
 6650SOL     OW20848   3.727   1.558   5.552
 6650SOL    HW120849   3.795   1.627   5.528
 6650SOL    HW220850   3.641   1.579   5.504
 6651SOL     OW20851   2.824   0.715   5.732
 6651SOL    HW120852   2.834   0.729   5.634
 6651SOL    HW220853   2.757   0.779   5.769
 6652SOL     OW20854   0.333   4.078   6.783
 6652SOL    HW120855   0.378   3.989   6.795
 6652SOL    HW220856   0.346   4.133   6.866
 6653SOL     OW20857   4.111   3.637   1.412
 6653SOL    HW120858   4.018   3.656   1.443
 6653SOL    HW220859   4.157   3.723   1.389
 6654SOL     OW20860   1.398   5.094   0.808
 6654SOL    HW120861   1.364   5.105   0.901
 6654SOL    HW220862   1.498   5.091   0.810
 6655SOL     OW20863   0.937   6.768   4.197
 6655SOL    HW120864   0.949   6.788   4.294
 6655SOL    HW220865   0.840   6.775   4.174
 6656SOL     OW20866   4.726   1.802   3.966
 6656SOL    HW120867   4.775   1.715   3.962
 6656SOL    HW220868   4.679   1.818   3.879
 6657SOL     OW20869   6.028   4.754   6.122
 6657SOL    HW120870   5.990   4.799   6.042
 6657SOL    HW220871   6.110   4.704   6.096
 6658SOL     OW20872   6.276   1.337   4.488
 6658SOL    HW120873   6.275   1.382   4.577
 6658SOL    HW220874   6.333   1.255   4.493
 6659SOL     OW20875   2.355   3.572   6.946
 6659SOL    HW120876   2.285   3.641   6.930
 6659SOL    HW220877   2.320   3.482   6.918
 6660SOL     OW20878   1.309   5.037   1.316
 6660SOL    HW120879   1.243   4.971   1.281
 6660SOL    HW220880   1.369   4.993   1.382
 6661SOL     OW20881   1.490   0.281   5.174
 6661SOL    HW120882   1.559   0.298   5.103
 6661SOL    HW220883   1.402   0.320   5.145
 6662SOL     OW20884   1.073   6.967   6.955
 6662SOL    HW120885   1.014   6.975   0.018
 6662SOL    HW220886   1.082   0.039   6.912
 6663SOL     OW20887   6.303   5.964   4.532
 6663SOL    HW120888   6.246   5.894   4.489
 6663SOL    HW220889   6.351   5.925   4.611
 6664SOL     OW20890   2.385   6.780   0.393
 6664SOL    HW120891   2.373   6.778   0.492
 6664SOL    HW220892   2.394   6.687   0.358
 6665SOL     OW20893   1.566   6.227   4.466
 6665SOL    HW120894   1.509   6.227   4.548
 6665SOL    HW220895   1.540   6.303   4.407
 6666SOL     OW20896   6.221   6.343   6.032
 6666SOL    HW120897   6.226   6.435   5.992
 6666SOL    HW220898   6.275   6.341   6.116
 6667SOL     OW20899   6.126   6.620   6.265
 6667SOL    HW120900   6.182   6.650   6.342
 6667SOL    HW220901   6.186   6.597   6.188
 6668SOL     OW20902   6.650   5.281   0.518
 6668SOL    HW120903   6.604   5.273   0.606
 6668SOL    HW220904   6.582   5.280   0.444
 6669SOL     OW20905   2.187   2.269   2.710
 6669SOL    HW120906   2.110   2.216   2.674
 6669SOL    HW220907   2.154   2.359   2.739
 6670SOL     OW20908   3.240   1.790   5.291
 6670SOL    HW120909   3.313   1.838   5.242
 6670SOL    HW220910   3.155   1.796   5.239
 6671SOL     OW20911   4.887   6.502   0.376
 6671SOL    HW120912   4.948   6.520   0.454
 6671SOL    HW220913   4.820   6.576   0.368
 6672SOL     OW20914   6.546   2.805   6.606
 6672SOL    HW120915   6.531   2.706   6.611
 6672SOL    HW220916   6.488   2.850   6.674
 6673SOL     OW20917   4.523   4.488   4.432
 6673SOL    HW120918   4.602   4.550   4.435
 6673SOL    HW220919   4.474   4.492   4.519
 6674SOL     OW20920   0.934   3.642   6.743
 6674SOL    HW120921   0.838   3.619   6.757
 6674SOL    HW220922   0.950   3.662   6.646
 6675SOL     OW20923   5.692   3.094   0.094
 6675SOL    HW120924   5.727   3.036   0.167
 6675SOL    HW220925   5.767   3.146   0.053
 6676SOL     OW20926   1.232   4.280   5.781
 6676SOL    HW120927   1.242   4.310   5.876
 6676SOL    HW220928   1.278   4.344   5.720
 6677SOL     OW20929   1.766   1.489   6.234
 6677SOL    HW120930   1.785   1.514   6.139
 6677SOL    HW220931   1.816   1.551   6.295
 6678SOL     OW20932   3.326   3.220   6.678
 6678SOL    HW120933   3.329   3.155   6.754
 6678SOL    HW220934   3.278   3.303   6.707
 6679SOL     OW20935   3.390   1.073   3.731
 6679SOL    HW120936   3.379   0.989   3.677
 6679SOL    HW220937   3.463   1.060   3.798
 6680SOL     OW20938   5.201   6.758   6.432
 6680SOL    HW120939   5.112   6.783   6.393
 6680SOL    HW220940   5.258   6.716   6.361
 6681SOL     OW20941   3.993   5.012   1.395
 6681SOL    HW120942   3.991   5.100   1.443
 6681SOL    HW220943   3.900   4.975   1.391
 6682SOL     OW20944   1.365   4.516   1.584
 6682SOL    HW120945   1.356   4.561   1.673
 6682SOL    HW220946   1.276   4.478   1.557
 6683SOL     OW20947   5.982   3.711   5.168
 6683SOL    HW120948   6.015   3.712   5.263
 6683SOL    HW220949   5.893   3.756   5.163
 6684SOL     OW20950   2.686   6.918   1.644
 6684SOL    HW120951   2.743   7.000   1.639
 6684SOL    HW220952   2.743   6.836   1.640
 6685SOL     OW20953   5.898   2.558   5.613
 6685SOL    HW120954   5.976   2.541   5.674
 6685SOL    HW220955   5.818   2.584   5.667
 6686SOL     OW20956   4.745   6.201   3.791
 6686SOL    HW120957   4.760   6.135   3.865
 6686SOL    HW220958   4.800   6.174   3.712
 6687SOL     OW20959   1.296   3.224   1.010
 6687SOL    HW120960   1.382   3.234   0.960
 6687SOL    HW220961   1.235   3.164   0.959
 6688SOL     OW20962   6.105   4.836   2.512
 6688SOL    HW120963   6.191   4.784   2.516
 6688SOL    HW220964   6.076   4.857   2.605
 6689SOL     OW20965   3.600   3.367   6.614
 6689SOL    HW120966   3.516   3.345   6.665
 6689SOL    HW220967   3.646   3.282   6.589
 6690SOL     OW20968   0.909   1.127   1.110
 6690SOL    HW120969   0.950   1.135   1.019
 6690SOL    HW220970   0.905   1.217   1.153
 6691SOL     OW20971   2.697   6.485   2.609
 6691SOL    HW120972   2.729   6.474   2.515
 6691SOL    HW220973   2.598   6.475   2.612
 6692SOL     OW20974   3.290   2.893   4.086
 6692SOL    HW120975   3.229   2.957   4.133
 6692SOL    HW220976   3.379   2.892   4.130
 6693SOL     OW20977   3.748   2.880   5.440
 6693SOL    HW120978   3.767   2.958   5.380
 6693SOL    HW220979   3.770   2.795   5.393
 6694SOL     OW20980   4.321   5.200   1.110
 6694SOL    HW120981   4.317   5.290   1.152
 6694SOL    HW220982   4.324   5.129   1.181
 6695SOL     OW20983   3.028   2.056   6.971
 6695SOL    HW120984   3.065   2.142   6.935
 6695SOL    HW220985   2.928   2.056   6.960
 6696SOL     OW20986   3.052   3.164   5.194
 6696SOL    HW120987   3.103   3.154   5.108
 6696SOL    HW220988   3.086   3.098   5.261
 6697SOL     OW20989   5.000   2.177   2.545
 6697SOL    HW120990   4.944   2.232   2.608
 6697SOL    HW220991   4.958   2.087   2.534
 6698SOL     OW20992   2.973   2.238   0.582
 6698SOL    HW120993   2.887   2.212   0.538
 6698SOL    HW220994   2.961   2.325   0.630
 6699SOL     OW20995   2.434   5.848   5.337
 6699SOL    HW120996   2.491   5.896   5.270
 6699SOL    HW220997   2.361   5.798   5.290
 6700SOL     OW20998   0.923   0.872   1.453
 6700SOL    HW120999   0.875   0.957   1.474
 6700SOL    HW221000   0.926   0.858   1.354
 6701SOL     OW21001   5.927   4.734   2.339
 6701SOL    HW121002   5.999   4.778   2.393
 6701SOL    HW221003   5.850   4.797   2.329
 6702SOL     OW21004   3.257   2.178   1.742
 6702SOL    HW121005   3.249   2.213   1.649
 6702SOL    HW221006   3.196   2.230   1.802
 6703SOL     OW21007   6.524   1.710   0.129
 6703SOL    HW121008   6.454   1.681   0.195
 6703SOL    HW221009   6.599   1.645   0.130
 6704SOL     OW21010   3.751   1.696   3.693
 6704SOL    HW121011   3.790   1.787   3.705
 6704SOL    HW221012   3.725   1.659   3.782
 6705SOL     OW21013   6.687   3.905   1.612
 6705SOL    HW121014   6.601   3.947   1.583
 6705SOL    HW221015   6.682   3.884   1.710
 6706SOL     OW21016   1.101   4.451   1.527
 6706SOL    HW121017   1.064   4.359   1.538
 6706SOL    HW221018   1.081   4.486   1.436
 6707SOL     OW21019   6.424   6.372   3.709
 6707SOL    HW121020   6.343   6.408   3.757
 6707SOL    HW221021   6.500   6.365   3.773
 6708SOL     OW21022   0.163   4.916   0.643
 6708SOL    HW121023   0.179   4.923   0.742
 6708SOL    HW221024   0.203   4.996   0.598
 6709SOL     OW21025   2.543   6.084   2.909
 6709SOL    HW121026   2.586   5.998   2.938
 6709SOL    HW221027   2.613   6.143   2.868
 6710SOL     OW21028   3.595   1.629   5.943
 6710SOL    HW121029   3.661   1.565   5.902
 6710SOL    HW221030   3.587   1.611   6.041
 6711SOL     OW21031   4.572   5.902   5.851
 6711SOL    HW121032   4.564   5.829   5.784
 6711SOL    HW221033   4.636   5.972   5.817
 6712SOL     OW21034   5.468   4.084   0.672
 6712SOL    HW121035   5.439   4.021   0.600
 6712SOL    HW221036   5.411   4.071   0.753
 6713SOL     OW21037   2.117   0.398   2.430
 6713SOL    HW121038   2.186   0.387   2.502
 6713SOL    HW221039   2.150   0.354   2.346
 6714SOL     OW21040   6.810   0.831   5.860
 6714SOL    HW121041   6.810   0.822   5.760
 6714SOL    HW221042   6.904   0.827   5.894
 6715SOL     OW21043   0.430   0.147   0.288
 6715SOL    HW121044   0.472   0.066   0.248
 6715SOL    HW221045   0.391   0.203   0.216
 6716SOL     OW21046   0.284   5.740   2.079
 6716SOL    HW121047   0.254   5.645   2.071
 6716SOL    HW221048   0.205   5.798   2.101
 6717SOL     OW21049   3.902   2.479   6.395
 6717SOL    HW121050   3.895   2.392   6.345
 6717SOL    HW221051   3.949   2.463   6.482
 6718SOL     OW21052   6.120   1.026   1.124
 6718SOL    HW121053   6.172   0.962   1.068
 6718SOL    HW221054   6.169   1.046   1.208
 6719SOL     OW21055   2.455   6.521   6.371
 6719SOL    HW121056   2.469   6.588   6.443
 6719SOL    HW221057   2.443   6.430   6.411
 6720SOL     OW21058   1.645   0.575   4.458
 6720SOL    HW121059   1.680   0.483   4.472
 6720SOL    HW221060   1.693   0.639   4.518
 6721SOL     OW21061   6.547   6.975   0.541
 6721SOL    HW121062   6.468   0.015   0.556
 6721SOL    HW221063   6.550   6.904   0.612
 6722SOL     OW21064   7.015   2.932   2.026
 6722SOL    HW121065   0.004   2.968   2.119
 6722SOL    HW221066   0.077   2.877   2.005
 6723SOL     OW21067   1.928   6.599   3.333
 6723SOL    HW121068   1.969   6.628   3.246
 6723SOL    HW221069   1.963   6.508   3.357
 6724SOL     OW21070   1.996   3.335   6.115
 6724SOL    HW121071   1.920   3.286   6.158
 6724SOL    HW221072   2.082   3.310   6.159
 6725SOL     OW21073   0.581   3.348   1.697
 6725SOL    HW121074   0.569   3.359   1.795
 6725SOL    HW221075   0.534   3.266   1.666
 6726SOL     OW21076   0.624   2.564   5.543
 6726SOL    HW121077   0.525   2.568   5.535
 6726SOL    HW221078   0.657   2.475   5.509
 6727SOL     OW21079   0.040   4.715   5.369
 6727SOL    HW121080   6.960   4.724   5.349
 6727SOL    HW221081   0.074   4.802   5.406
 6728SOL     OW21082   3.676   1.893   2.540
 6728SOL    HW121083   3.730   1.872   2.458
 6728SOL    HW221084   3.579   1.883   2.519
 6729SOL     OW21085   7.009   1.038   2.743
 6729SOL    HW121086   6.960   1.058   2.828
 6729SOL    HW221087   6.974   0.953   2.704
 6730SOL     OW21088   1.957   6.844   1.467
 6730SOL    HW121089   2.049   6.883   1.478
 6730SOL    HW221090   1.897   6.882   1.537
 6731SOL     OW21091   0.704   6.431   1.094
 6731SOL    HW121092   0.795   6.390   1.090
 6731SOL    HW221093   0.641   6.366   1.136
 6732SOL     OW21094   5.568   4.848   4.641
 6732SOL    HW121095   5.553   4.945   4.626
 6732SOL    HW221096   5.578   4.801   4.554
 6733SOL     OW21097   3.907   5.398   6.870
 6733SOL    HW121098   3.983   5.374   6.808
 6733SOL    HW221099   3.933   5.478   6.923
 6734SOL     OW21100   6.007   2.605   4.368
 6734SOL    HW121101   5.940   2.655   4.313
 6734SOL    HW221102   6.080   2.667   4.395
 6735SOL     OW21103   6.738   4.220   5.108
 6735SOL    HW121104   6.746   4.169   5.023
 6735SOL    HW221105   6.827   4.259   5.132
 6736SOL     OW21106   3.557   3.741   0.435
 6736SOL    HW121107   3.523   3.751   0.342
 6736SOL    HW221108   3.537   3.825   0.486
 6737SOL     OW21109   1.224   2.356   0.709
 6737SOL    HW121110   1.146   2.411   0.681
 6737SOL    HW221111   1.264   2.395   0.792
 6738SOL     OW21112   1.692   5.988   2.958
 6738SOL    HW121113   1.625   5.934   2.906
 6738SOL    HW221114   1.783   5.950   2.946
 6739SOL     OW21115   3.986   5.941   4.994
 6739SOL    HW121116   3.958   5.976   4.904
 6739SOL    HW221117   3.907   5.902   5.040
 6740SOL     OW21118   1.127   0.486   4.727
 6740SOL    HW121119   1.216   0.533   4.724
 6740SOL    HW221120   1.103   0.454   4.636
 6741SOL     OW21121   4.021   1.557   5.276
 6741SOL    HW121122   3.926   1.568   5.248
 6741SOL    HW221123   4.081   1.569   5.197
 6742SOL     OW21124   5.497   6.219   2.375
 6742SOL    HW121125   5.582   6.223   2.427
 6742SOL    HW221126   5.514   6.169   2.290
 6743SOL     OW21127   3.521   5.438   6.964
 6743SOL    HW121128   3.574   5.503   6.909
 6743SOL    HW221129   3.524   5.466   0.042
 6744SOL     OW21130   5.842   4.169   6.002
 6744SOL    HW121131   5.928   4.147   5.956
 6744SOL    HW221132   5.776   4.096   5.987
 6745SOL     OW21133   6.560   6.762   3.351
 6745SOL    HW121134   6.641   6.752   3.294
 6745SOL    HW221135   6.552   6.682   3.412
 6746SOL     OW21136   0.871   1.416   3.427
 6746SOL    HW121137   0.834   1.325   3.447
 6746SOL    HW221138   0.840   1.445   3.336
 6747SOL     OW21139   5.096   1.165   4.628
 6747SOL    HW121140   4.998   1.172   4.647
 6747SOL    HW221141   5.139   1.254   4.643
 6748SOL     OW21142   2.880   1.138   3.854
 6748SOL    HW121143   2.873   1.232   3.818
 6748SOL    HW221144   2.791   1.094   3.848
 6749SOL     OW21145   2.964   5.125   0.436
 6749SOL    HW121146   3.009   5.064   0.501
 6749SOL    HW221147   2.928   5.071   0.360
 6750SOL     OW21148   4.019   1.938   4.936
 6750SOL    HW121149   4.034   2.003   4.862
 6750SOL    HW221150   3.970   1.983   5.011
 6751SOL     OW21151   4.170   6.545   3.455
 6751SOL    HW121152   4.236   6.484   3.411
 6751SOL    HW221153   4.158   6.627   3.400
 6752SOL     OW21154   0.964   1.744   3.097
 6752SOL    HW121155   1.001   1.726   3.188
 6752SOL    HW221156   0.933   1.658   3.056
 6753SOL     OW21157   2.823   0.398   6.631
 6753SOL    HW121158   2.814   0.482   6.684
 6753SOL    HW221159   2.920   0.377   6.618
 6754SOL     OW21160   0.032   1.812   0.836
 6754SOL    HW121161   0.127   1.806   0.808
 6754SOL    HW221162   7.003   1.880   0.780
 6755SOL     OW21163   4.498   0.661   2.959
 6755SOL    HW121164   4.504   0.565   2.986
 6755SOL    HW221165   4.417   0.703   3.000
 6756SOL     OW21166   3.791   5.390   4.961
 6756SOL    HW121167   3.849   5.335   5.020
 6756SOL    HW221168   3.695   5.373   4.983
 6757SOL     OW21169   4.335   2.248   1.129
 6757SOL    HW121170   4.249   2.257   1.080
 6757SOL    HW221171   4.411   2.255   1.064
 6758SOL     OW21172   6.391   1.807   1.919
 6758SOL    HW121173   6.460   1.755   1.870
 6758SOL    HW221174   6.422   1.902   1.930
 6759SOL     OW21175   1.070   3.859   4.445
 6759SOL    HW121176   1.034   3.851   4.537
 6759SOL    HW221177   1.024   3.934   4.397
 6760SOL     OW21178   6.667   4.125   2.616
 6760SOL    HW121179   6.639   4.220   2.632
 6760SOL    HW221180   6.689   4.081   2.703
 6761SOL     OW21181   6.507   2.066   5.636
 6761SOL    HW121182   6.512   2.080   5.734
 6761SOL    HW221183   6.522   2.153   5.588
 6762SOL     OW21184   0.809   5.286   4.717
 6762SOL    HW121185   0.897   5.301   4.671
 6762SOL    HW221186   0.781   5.370   4.763
 6763SOL     OW21187   0.833   4.859   2.675
 6763SOL    HW121188   0.863   4.947   2.638
 6763SOL    HW221189   0.877   4.785   2.625
 6764SOL     OW21190   1.585   5.749   0.979
 6764SOL    HW121191   1.536   5.682   0.924
 6764SOL    HW221192   1.519   5.813   1.019
 6765SOL     OW21193   5.647   4.121   4.065
 6765SOL    HW121194   5.731   4.071   4.044
 6765SOL    HW221195   5.640   4.201   4.006
 6766SOL     OW21196   4.991   6.883   6.311
 6766SOL    HW121197   5.029   6.971   6.283
 6766SOL    HW221198   4.945   6.893   6.400
 6767SOL     OW21199   1.499   2.261   1.070
 6767SOL    HW121200   1.523   2.181   1.125
 6767SOL    HW221201   1.561   2.336   1.091
 6768SOL     OW21202   1.098   6.363   3.611
 6768SOL    HW121203   1.030   6.295   3.581
 6768SOL    HW221204   1.054   6.452   3.617
 6769SOL     OW21205   2.959   1.078   5.554
 6769SOL    HW121206   2.940   1.088   5.651
 6769SOL    HW221207   3.036   1.136   5.529
 6770SOL     OW21208   4.978   1.879   3.370
 6770SOL    HW121209   5.021   1.892   3.281
 6770SOL    HW221210   5.048   1.886   3.442
 6771SOL     OW21211   3.943   1.310   2.188
 6771SOL    HW121212   3.986   1.401   2.183
 6771SOL    HW221213   4.013   1.240   2.190
 6772SOL     OW21214   4.713   2.778   2.126
 6772SOL    HW121215   4.706   2.862   2.071
 6772SOL    HW221216   4.714   2.802   2.223
 6773SOL     OW21217   0.745   6.162   1.861
 6773SOL    HW121218   0.679   6.111   1.916
 6773SOL    HW221219   0.831   6.111   1.856
 6774SOL     OW21220   1.950   3.957   5.348
 6774SOL    HW121221   2.028   3.914   5.302
 6774SOL    HW221222   1.887   3.886   5.380
 6775SOL     OW21223   1.813   2.560   2.842
 6775SOL    HW121224   1.797   2.527   2.749
 6775SOL    HW221225   1.782   2.654   2.850
 6776SOL     OW21226   4.553   3.150   0.122
 6776SOL    HW121227   4.596   3.064   0.148
 6776SOL    HW221228   4.594   3.225   0.174
 6777SOL     OW21229   5.149   4.582   0.696
 6777SOL    HW121230   5.175   4.644   0.622
 6777SOL    HW221231   5.232   4.550   0.743
 6778SOL     OW21232   0.369   5.501   1.702
 6778SOL    HW121233   0.463   5.485   1.672
 6778SOL    HW221234   0.326   5.570   1.644
 6779SOL     OW21235   5.792   5.370   6.200
 6779SOL    HW121236   5.771   5.380   6.297
 6779SOL    HW221237   5.871   5.310   6.188
 6780SOL     OW21238   1.599   2.937   2.481
 6780SOL    HW121239   1.692   2.933   2.445
 6780SOL    HW221240   1.593   3.010   2.549
 6781SOL     OW21241   5.969   1.917   4.846
 6781SOL    HW121242   5.901   1.856   4.887
 6781SOL    HW221243   6.056   1.868   4.835
 6782SOL     OW21244   0.850   1.179   3.099
 6782SOL    HW121245   0.852   1.231   3.013
 6782SOL    HW221246   0.764   1.195   3.146
 6783SOL     OW21247   0.290   1.709   5.886
 6783SOL    HW121248   0.269   1.764   5.967
 6783SOL    HW221249   0.248   1.618   5.896
 6784SOL     OW21250   1.816   3.574   0.657
 6784SOL    HW121251   1.758   3.579   0.738
 6784SOL    HW221252   1.787   3.642   0.590
 6785SOL     OW21253   6.110   5.966   5.105
 6785SOL    HW121254   6.197   6.008   5.130
 6785SOL    HW221255   6.060   5.942   5.189
 6786SOL     OW21256   1.578   2.052   0.647
 6786SOL    HW121257   1.641   2.086   0.716
 6786SOL    HW221258   1.526   1.974   0.683
 6787SOL     OW21259   3.295   3.063   0.352
 6787SOL    HW121260   3.365   3.005   0.311
 6787SOL    HW221261   3.212   3.010   0.369
 6788SOL     OW21262   0.696   4.670   1.596
 6788SOL    HW121263   0.774   4.612   1.572
 6788SOL    HW221264   0.701   4.694   1.693
 6789SOL     OW21265   0.566   4.635   4.297
 6789SOL    HW121266   0.626   4.665   4.222
 6789SOL    HW221267   0.609   4.557   4.343
 6790SOL     OW21268   1.023   3.637   0.177
 6790SOL    HW121269   1.021   3.683   0.089
 6790SOL    HW221270   1.117   3.610   0.199
 6791SOL     OW21271   3.773   2.130   2.330
 6791SOL    HW121272   3.751   2.227   2.332
 6791SOL    HW221273   3.728   2.087   2.251
 6792SOL     OW21274   5.063   6.991   5.342
 6792SOL    HW121275   5.086   0.039   5.270
 6792SOL    HW221276   5.130   6.996   5.416
 6793SOL     OW21277   1.791   1.417   0.169
 6793SOL    HW121278   1.756   1.325   0.189
 6793SOL    HW221279   1.716   1.474   0.136
 6794SOL     OW21280   5.164   1.419   5.343
 6794SOL    HW121281   5.149   1.385   5.250
 6794SOL    HW221282   5.203   1.346   5.399
 6795SOL     OW21283   1.413   6.921   1.263
 6795SOL    HW121284   1.384   6.825   1.260
 6795SOL    HW221285   1.370   6.971   1.188
 6796SOL     OW21286   6.027   0.973   3.146
 6796SOL    HW121287   6.006   0.889   3.096
 6796SOL    HW221288   5.944   1.004   3.194
 6797SOL     OW21289   6.687   2.415   1.948
 6797SOL    HW121290   6.659   2.511   1.941
 6797SOL    HW221291   6.727   2.386   1.861
 6798SOL     OW21292   5.738   6.095   1.939
 6798SOL    HW121293   5.801   6.128   2.009
 6798SOL    HW221294   5.759   6.000   1.917
 6799SOL     OW21295   6.281   0.897   2.155
 6799SOL    HW121296   6.211   0.961   2.122
 6799SOL    HW221297   6.238   0.829   2.214
 6800SOL     OW21298   2.390   2.699   2.094
 6800SOL    HW121299   2.327   2.622   2.102
 6800SOL    HW221300   2.475   2.679   2.143
 6801SOL     OW21301   1.472   0.800   3.253
 6801SOL    HW121302   1.504   0.866   3.321
 6801SOL    HW221303   1.421   0.727   3.299
 6802SOL     OW21304   3.526   5.210   1.331
 6802SOL    HW121305   3.618   5.250   1.324
 6802SOL    HW221306   3.534   5.111   1.346
 6803SOL     OW21307   4.392   3.807   6.160
 6803SOL    HW121308   4.425   3.713   6.150
 6803SOL    HW221309   4.327   3.812   6.236
 6804SOL     OW21310   4.173   4.818   3.815
 6804SOL    HW121311   4.075   4.831   3.830
 6804SOL    HW221312   4.188   4.730   3.769
 6805SOL     OW21313   0.319   4.585   6.345
 6805SOL    HW121314   0.352   4.636   6.424
 6805SOL    HW221315   0.235   4.627   6.310
 6806SOL     OW21316   6.460   1.456   3.411
 6806SOL    HW121317   6.436   1.442   3.315
 6806SOL    HW221318   6.526   1.386   3.440
 6807SOL     OW21319   3.096   3.051   1.262
 6807SOL    HW121320   3.151   2.969   1.277
 6807SOL    HW221321   3.084   3.065   1.163
 6808SOL     OW21322   0.041   1.921   5.841
 6808SOL    HW121323   0.029   1.822   5.828
 6808SOL    HW221324   0.047   1.941   5.938
 6809SOL     OW21325   0.374   3.421   1.267
 6809SOL    HW121326   0.315   3.363   1.324
 6809SOL    HW221327   0.364   3.516   1.296
 6810SOL     OW21328   3.029   0.907   2.539
 6810SOL    HW121329   3.121   0.942   2.559
 6810SOL    HW221330   3.001   0.844   2.612
 6811SOL     OW21331   5.791   3.713   1.859
 6811SOL    HW121332   5.719   3.703   1.790
 6811SOL    HW221333   5.750   3.719   1.950
 6812SOL     OW21334   3.526   4.138   4.773
 6812SOL    HW121335   3.574   4.113   4.688
 6812SOL    HW221336   3.428   4.148   4.754
 6813SOL     OW21337   5.495   3.300   2.849
 6813SOL    HW121338   5.418   3.239   2.867
 6813SOL    HW221339   5.556   3.300   2.929
 6814SOL     OW21340   3.873   2.241   6.231
 6814SOL    HW121341   3.843   2.268   6.139
 6814SOL    HW221342   3.815   2.167   6.264
 6815SOL     OW21343   2.480   5.859   0.029
 6815SOL    HW121344   2.423   5.857   0.111
 6815SOL    HW221345   2.512   5.767   0.009
 6816SOL     OW21346   6.480   0.986   5.867
 6816SOL    HW121347   6.499   0.911   5.930
 6816SOL    HW221348   6.436   0.951   5.784
 6817SOL     OW21349   2.398   2.715   3.255
 6817SOL    HW121350   2.396   2.719   3.355
 6817SOL    HW221351   2.345   2.790   3.217
 6818SOL     OW21352   2.155   6.481   0.772
 6818SOL    HW121353   2.199   6.428   0.700
 6818SOL    HW221354   2.106   6.558   0.731
 6819SOL     OW21355   4.334   1.540   2.820
 6819SOL    HW121356   4.260   1.523   2.885
 6819SOL    HW221357   4.421   1.543   2.870
 6820SOL     OW21358   1.995   6.341   1.225
 6820SOL    HW121359   2.046   6.349   1.139
 6820SOL    HW221360   2.060   6.330   1.300
 6821SOL     OW21361   3.972   2.321   5.271
 6821SOL    HW121362   4.021   2.349   5.188
 6821SOL    HW221363   3.969   2.397   5.336
 6822SOL     OW21364   5.515   2.027   5.852
 6822SOL    HW121365   5.428   2.002   5.896
 6822SOL    HW221366   5.506   2.116   5.808
 6823SOL     OW21367   5.635   4.071   5.707
 6823SOL    HW121368   5.734   4.082   5.696
 6823SOL    HW221369   5.596   4.032   5.624
 6824SOL     OW21370   1.279   1.746   0.589
 6824SOL    HW121371   1.367   1.726   0.633
 6824SOL    HW221372   1.292   1.815   0.519
 6825SOL     OW21373   6.307   0.100   0.577
 6825SOL    HW121374   6.239   0.129   0.645
 6825SOL    HW221375   6.326   0.176   0.515
 6826SOL     OW21376   2.052   3.597   3.394
 6826SOL    HW121377   1.954   3.580   3.408
 6826SOL    HW221378   2.074   3.584   3.297
 6827SOL     OW21379   4.893   5.143   6.233
 6827SOL    HW121380   4.940   5.115   6.150
 6827SOL    HW221381   4.959   5.159   6.306
 6828SOL     OW21382   3.340   1.360   1.448
 6828SOL    HW121383   3.348   1.436   1.383
 6828SOL    HW221384   3.249   1.361   1.489
 6829SOL     OW21385   5.458   6.285   5.475
 6829SOL    HW121386   5.397   6.275   5.397
 6829SOL    HW221387   5.551   6.260   5.449
 6830SOL     OW21388   5.366   0.609   3.171
 6830SOL    HW121389   5.354   0.510   3.168
 6830SOL    HW221390   5.446   0.635   3.117
 6831SOL     OW21391   1.527   0.886   6.621
 6831SOL    HW121392   1.619   0.922   6.605
 6831SOL    HW221393   1.530   0.820   6.696
 6832SOL     OW21394   2.155   4.382   1.125
 6832SOL    HW121395   2.216   4.307   1.100
 6832SOL    HW221396   2.088   4.396   1.052
 6833SOL     OW21397   2.908   4.666   0.182
 6833SOL    HW121398   2.883   4.728   0.107
 6833SOL    HW221399   2.909   4.717   0.268
 6834SOL     OW21400   5.997   0.604   0.394
 6834SOL    HW121401   6.008   0.525   0.454
 6834SOL    HW221402   6.018   0.687   0.446
 6835SOL     OW21403   4.193   0.786   4.714
 6835SOL    HW121404   4.139   0.726   4.655
 6835SOL    HW221405   4.205   0.743   4.803
 6836SOL     OW21406   3.331   4.482   0.241
 6836SOL    HW121407   3.239   4.481   0.281
 6836SOL    HW221408   3.369   4.390   0.242
 6837SOL     OW21409   0.916   2.243   2.825
 6837SOL    HW121410   0.978   2.193   2.886
 6837SOL    HW221411   0.879   2.180   2.757
 6838SOL     OW21412   3.677   6.263   6.544
 6838SOL    HW121413   3.633   6.177   6.569
 6838SOL    HW221414   3.759   6.244   6.491
 6839SOL     OW21415   5.362   1.138   5.657
 6839SOL    HW121416   5.285   1.109   5.715
 6839SOL    HW221417   5.387   1.232   5.680
 6840SOL     OW21418   3.259   0.152   4.311
 6840SOL    HW121419   3.342   0.108   4.277
 6840SOL    HW221420   3.260   0.153   4.411
 6841SOL     OW21421   3.617   4.376   0.552
 6841SOL    HW121422   3.523   4.376   0.585
 6841SOL    HW221423   3.638   4.466   0.512
 6842SOL     OW21424   2.395   3.372   0.785
 6842SOL    HW121425   2.484   3.372   0.739
 6842SOL    HW221426   2.406   3.403   0.880
 6843SOL     OW21427   5.950   6.813   2.115
 6843SOL    HW121428   5.989   6.734   2.163
 6843SOL    HW221429   5.873   6.783   2.059
 6844SOL     OW21430   5.170   6.902   3.594
 6844SOL    HW121431   5.087   6.911   3.648
 6844SOL    HW221432   5.247   6.883   3.655
 6845SOL     OW21433   6.102   5.371   3.038
 6845SOL    HW121434   6.152   5.457   3.046
 6845SOL    HW221435   6.114   5.318   3.122
 6846SOL     OW21436   4.005   2.918   0.603
 6846SOL    HW121437   4.056   2.896   0.520
 6846SOL    HW221438   4.005   3.017   0.617
 6847SOL     OW21439   0.199   4.711   3.491
 6847SOL    HW121440   0.211   4.713   3.590
 6847SOL    HW221441   0.102   4.727   3.469
 6848SOL     OW21442   3.722   6.700   3.923
 6848SOL    HW121443   3.655   6.640   3.967
 6848SOL    HW221444   3.774   6.749   3.993
 6849SOL     OW21445   3.702   5.200   5.318
 6849SOL    HW121446   3.629   5.134   5.336
 6849SOL    HW221447   3.790   5.153   5.320
 6850SOL     OW21448   5.906   3.897   2.243
 6850SOL    HW121449   5.931   3.800   2.251
 6850SOL    HW221450   5.981   3.947   2.200
 6851SOL     OW21451   0.733   2.987   3.657
 6851SOL    HW121452   0.760   3.056   3.590
 6851SOL    HW221453   0.784   2.903   3.641
 6852SOL     OW21454   2.165   5.133   0.673
 6852SOL    HW121455   2.244   5.074   0.658
 6852SOL    HW221456   2.159   5.201   0.600
 6853SOL     OW21457   6.691   3.754   0.637
 6853SOL    HW121458   6.690   3.697   0.555
 6853SOL    HW221459   6.643   3.707   0.711
 6854SOL     OW21460   4.776   1.658   6.618
 6854SOL    HW121461   4.724   1.737   6.651
 6854SOL    HW221462   4.733   1.574   6.653
 6855SOL     OW21463   3.281   5.733   3.236
 6855SOL    HW121464   3.215   5.698   3.169
 6855SOL    HW221465   3.233   5.760   3.320
 6856SOL     OW21466   5.337   3.619   5.448
 6856SOL    HW121467   5.259   3.578   5.400
 6856SOL    HW221468   5.303   3.683   5.517
 6857SOL     OW21469   2.539   2.170   6.969
 6857SOL    HW121470   2.521   2.108   0.028
 6857SOL    HW221471   2.452   2.207   6.936
 6858SOL     OW21472   3.727   3.763   3.826
 6858SOL    HW121473   3.671   3.689   3.788
 6858SOL    HW221474   3.815   3.727   3.856
 6859SOL     OW21475   0.437   0.905   0.857
 6859SOL    HW121476   0.338   0.888   0.854
 6859SOL    HW221477   0.480   0.858   0.780
 6860SOL     OW21478   6.553   5.178   1.028
 6860SOL    HW121479   6.615   5.101   1.044
 6860SOL    HW221480   6.529   5.220   1.115
 6861SOL     OW21481   4.737   4.673   0.358
 6861SOL    HW121482   4.836   4.673   0.343
 6861SOL    HW221483   4.710   4.586   0.397
 6862SOL     OW21484   1.659   4.447   5.655
 6862SOL    HW121485   1.751   4.486   5.662
 6862SOL    HW221486   1.662   4.367   5.595
 6863SOL     OW21487   5.581   0.523   5.866
 6863SOL    HW121488   5.497   0.531   5.919
 6863SOL    HW221489   5.566   0.556   5.773
 6864SOL     OW21490   2.991   5.954   3.905
 6864SOL    HW121491   3.088   5.973   3.914
 6864SOL    HW221492   2.952   5.932   3.994
 6865SOL     OW21493   0.825   5.763   2.945
 6865SOL    HW121494   0.897   5.753   3.014
 6865SOL    HW221495   0.842   5.698   2.870
 6866SOL     OW21496   6.347   5.077   3.206
 6866SOL    HW121497   6.352   4.999   3.144
 6866SOL    HW221498   6.396   5.056   3.290
 6867SOL     OW21499   2.550   4.903   1.388
 6867SOL    HW121500   2.575   4.945   1.476
 6867SOL    HW221501   2.475   4.955   1.347
 6868SOL     OW21502   0.931   5.601   6.320
 6868SOL    HW121503   0.913   5.699   6.311
 6868SOL    HW221504   0.897   5.553   6.239
 6869SOL     OW21505   5.231   1.182   5.416
 6869SOL    HW121506   5.294   1.162   5.491
 6869SOL    HW221507   5.267   1.146   5.330
 6870SOL     OW21508   6.716   4.892   2.238
 6870SOL    HW121509   6.636   4.951   2.223
 6870SOL    HW221510   6.799   4.945   2.223
 6871SOL     OW21511   6.491   4.498   3.451
 6871SOL    HW121512   6.442   4.523   3.367
 6871SOL    HW221513   6.425   4.487   3.525
 6872SOL     OW21514   0.423   3.063   1.389
 6872SOL    HW121515   0.358   3.132   1.422
 6872SOL    HW221516   0.430   3.070   1.289
 6873SOL     OW21517   6.836   3.744   5.196
 6873SOL    HW121518   6.772   3.742   5.119
 6873SOL    HW221519   6.838   3.836   5.236
 6874SOL     OW21520   0.504   6.135   2.050
 6874SOL    HW121521   0.502   6.059   2.115
 6874SOL    HW221522   0.422   6.134   1.994
 6875SOL     OW21523   2.094   2.410   3.239
 6875SOL    HW121524   2.019   2.397   3.174
 6875SOL    HW221525   2.085   2.343   3.313
 6876SOL     OW21526   3.685   6.601   3.675
 6876SOL    HW121527   3.775   6.598   3.631
 6876SOL    HW221528   3.695   6.617   3.773
 6877SOL     OW21529   2.427   3.807   1.033
 6877SOL    HW121530   2.362   3.796   1.109
 6877SOL    HW221531   2.405   3.890   0.982
 6878SOL     OW21532   3.170   1.263   5.499
 6878SOL    HW121533   3.252   1.255   5.441
 6878SOL    HW221534   3.132   1.355   5.491
 6879SOL     OW21535   0.833   2.095   0.480
 6879SOL    HW121536   0.871   2.047   0.559
 6879SOL    HW221537   0.738   2.068   0.467
 6880SOL     OW21538   1.746   4.652   4.987
 6880SOL    HW121539   1.798   4.653   5.072
 6880SOL    HW221540   1.655   4.614   5.004
 6881SOL     OW21541   1.111   3.925   1.505
 6881SOL    HW121542   1.204   3.899   1.481
 6881SOL    HW221543   1.054   3.929   1.422
 6882SOL     OW21544   3.146   0.510   6.609
 6882SOL    HW121545   3.132   0.546   6.701
 6882SOL    HW221546   3.111   0.417   6.603
 6883SOL     OW21547   4.307   1.218   0.757
 6883SOL    HW121548   4.342   1.297   0.808
 6883SOL    HW221549   4.274   1.149   0.822
 6884SOL     OW21550   2.451   4.622   4.361
 6884SOL    HW121551   2.385   4.689   4.396
 6884SOL    HW221552   2.407   4.533   4.353
 6885SOL     OW21553   3.849   5.185   3.961
 6885SOL    HW121554   3.888   5.276   3.947
 6885SOL    HW221555   3.904   5.136   4.028
 6886SOL     OW21556   6.650   0.466   4.546
 6886SOL    HW121557   6.701   0.463   4.460
 6886SOL    HW221558   6.584   0.391   4.548
 6887SOL     OW21559   5.384   5.749   6.198
 6887SOL    HW121560   5.312   5.788   6.254
 6887SOL    HW221561   5.414   5.816   6.130
 6888SOL     OW21562   5.319   6.221   6.910
 6888SOL    HW121563   5.255   6.257   6.977
 6888SOL    HW221564   5.362   6.138   6.945
 6889SOL     OW21565   1.610   1.992   5.206
 6889SOL    HW121566   1.529   1.990   5.147
 6889SOL    HW221567   1.619   2.082   5.247
 6890SOL     OW21568   3.860   6.367   1.268
 6890SOL    HW121569   3.864   6.400   1.362
 6890SOL    HW221570   3.933   6.300   1.252
 6891SOL     OW21571   2.187   4.448   3.419
 6891SOL    HW121572   2.109   4.499   3.455
 6891SOL    HW221573   2.153   4.367   3.371
 6892SOL     OW21574   2.916   2.166   3.536
 6892SOL    HW121575   2.925   2.133   3.630
 6892SOL    HW221576   2.826   2.208   3.523
 6893SOL     OW21577   4.302   4.213   0.128
 6893SOL    HW121578   4.315   4.161   0.044
 6893SOL    HW221579   4.235   4.165   0.186
 6894SOL     OW21580   6.160   4.775   0.482
 6894SOL    HW121581   6.114   4.734   0.561
 6894SOL    HW221582   6.255   4.741   0.478
 6895SOL     OW21583   2.498   5.199   0.103
 6895SOL    HW121584   2.481   5.127   0.035
 6895SOL    HW221585   2.550   5.273   0.061
 6896SOL     OW21586   2.147   6.853   3.347
 6896SOL    HW121587   2.053   6.862   3.313
 6896SOL    HW221588   2.147   6.796   3.429
 6897SOL     OW21589   4.122   4.093   6.032
 6897SOL    HW121590   4.089   4.035   6.107
 6897SOL    HW221591   4.048   4.107   5.966
 6898SOL     OW21592   4.006   1.574   1.789
 6898SOL    HW121593   4.036   1.597   1.696
 6898SOL    HW221594   3.908   1.555   1.789
 6899SOL     OW21595   5.620   6.855   1.103
 6899SOL    HW121596   5.547   6.875   1.168
 6899SOL    HW221597   5.688   6.795   1.146
 6900SOL     OW21598   6.594   6.677   5.734
 6900SOL    HW121599   6.645   6.702   5.652
 6900SOL    HW221600   6.504   6.642   5.708
 6901SOL     OW21601   0.176   5.994   6.312
 6901SOL    HW121602   0.199   5.956   6.223
 6901SOL    HW221603   0.259   6.012   6.363
 6902SOL     OW21604   5.692   6.239   6.726
 6902SOL    HW121605   5.710   6.305   6.653
 6902SOL    HW221606   5.703   6.146   6.691
 6903SOL     OW21607   3.300   5.647   4.243
 6903SOL    HW121608   3.230   5.635   4.172
 6903SOL    HW221609   3.318   5.559   4.287
 6904SOL     OW21610   5.932   0.746   4.627
 6904SOL    HW121611   5.940   0.647   4.615
 6904SOL    HW221612   5.876   0.784   4.554
 6905SOL     OW21613   5.875   6.552   6.328
 6905SOL    HW121614   5.832   6.486   6.265
 6905SOL    HW221615   5.971   6.563   6.304
 6906SOL     OW21616   5.183   1.116   3.617
 6906SOL    HW121617   5.166   1.171   3.535
 6906SOL    HW221618   5.272   1.070   3.608
 6907SOL     OW21619   5.340   2.870   1.472
 6907SOL    HW121620   5.275   2.814   1.522
 6907SOL    HW221621   5.424   2.880   1.526
 6908SOL     OW21622   0.700   5.546   6.088
 6908SOL    HW121623   0.657   5.607   6.154
 6908SOL    HW221624   0.710   5.593   6.000
 6909SOL     OW21625   6.208   4.365   1.234
 6909SOL    HW121626   6.175   4.459   1.245
 6909SOL    HW221627   6.243   4.332   1.321
 6910SOL     OW21628   6.619   2.241   3.519
 6910SOL    HW121629   6.547   2.172   3.519
 6910SOL    HW221630   6.614   2.295   3.603
 6911SOL     OW21631   4.220   6.187   3.942
 6911SOL    HW121632   4.318   6.176   3.928
 6911SOL    HW221633   4.174   6.099   3.930
 6912SOL     OW21634   3.221   4.940   0.324
 6912SOL    HW121635   3.157   4.932   0.400
 6912SOL    HW221636   3.193   4.879   0.249
 6913SOL     OW21637   4.630   5.114   4.630
 6913SOL    HW121638   4.559   5.051   4.662
 6913SOL    HW221639   4.692   5.065   4.568
 6914SOL     OW21640   6.191   3.941   5.537
 6914SOL    HW121641   6.253   3.934   5.616
 6914SOL    HW221642   6.223   4.014   5.477
 6915SOL     OW21643   6.163   3.403   1.512
 6915SOL    HW121644   6.080   3.457   1.528
 6915SOL    HW221645   6.179   3.343   1.590
 6916SOL     OW21646   0.154   3.238   0.016
 6916SOL    HW121647   0.093   3.312   7.006
 6916SOL    HW221648   0.145   3.162   6.969
 6917SOL     OW21649   2.616   5.547   1.544
 6917SOL    HW121650   2.653   5.510   1.459
 6917SOL    HW221651   2.547   5.616   1.523
 6918SOL     OW21652   6.974   3.236   4.641
 6918SOL    HW121653   6.909   3.312   4.633
 6918SOL    HW221654   6.998   3.204   4.549
 6919SOL     OW21655   0.046   6.331   2.497
 6919SOL    HW121656   0.076   6.425   2.479
 6919SOL    HW221657   0.101   6.268   2.442
 6920SOL     OW21658   4.523   5.395   5.406
 6920SOL    HW121659   4.595   5.374   5.474
 6920SOL    HW221660   4.436   5.410   5.454
 6921SOL     OW21661   5.198   5.733   3.048
 6921SOL    HW121662   5.099   5.749   3.050
 6921SOL    HW221663   5.230   5.711   3.140
 6922SOL     OW21664   2.355   5.930   5.850
 6922SOL    HW121665   2.393   5.894   5.764
 6922SOL    HW221666   2.374   5.867   5.924
 6923SOL     OW21667   4.343   5.492   3.381
 6923SOL    HW121668   4.387   5.426   3.442
 6923SOL    HW221669   4.280   5.443   3.319
 6924SOL     OW21670   2.579   4.035   6.393
 6924SOL    HW121671   2.606   4.127   6.422
 6924SOL    HW221672   2.610   3.969   6.461
 6925SOL     OW21673   4.352   6.073   4.717
 6925SOL    HW121674   4.277   6.092   4.654
 6925SOL    HW221675   4.332   5.988   4.767
 6926SOL     OW21676   3.411   2.693   1.028
 6926SOL    HW121677   3.434   2.688   0.930
 6926SOL    HW221678   3.440   2.609   1.073
 6927SOL     OW21679   4.857   2.608   6.268
 6927SOL    HW121680   4.873   2.671   6.344
 6927SOL    HW221681   4.771   2.559   6.283
 6928SOL     OW21682   6.110   6.080   0.707
 6928SOL    HW121683   6.019   6.041   0.695
 6928SOL    HW221684   6.150   6.099   0.617
 6929SOL     OW21685   5.782   5.212   0.754
 6929SOL    HW121686   5.857   5.186   0.693
 6929SOL    HW221687   5.807   5.193   0.849
 6930SOL     OW21688   0.333   6.515   2.454
 6930SOL    HW121689   0.316   6.440   2.391
 6930SOL    HW221690   0.334   6.480   2.548
 6931SOL     OW21691   2.209   0.717   2.077
 6931SOL    HW121692   2.157   0.794   2.041
 6931SOL    HW221693   2.155   0.670   2.148
 6932SOL     OW21694   4.416   6.786   0.695
 6932SOL    HW121695   4.379   6.738   0.615
 6932SOL    HW221696   4.349   6.785   0.769
 6933SOL     OW21697   2.892   6.364   4.404
 6933SOL    HW121698   2.864   6.450   4.447
 6933SOL    HW221699   2.982   6.375   4.362
 6934SOL     OW21700   5.258   3.612   5.997
 6934SOL    HW121701   5.236   3.520   6.031
 6934SOL    HW221702   5.193   3.638   5.926
 6935SOL     OW21703   4.252   4.630   3.313
 6935SOL    HW121704   4.297   4.578   3.386
 6935SOL    HW221705   4.310   4.708   3.287
 6936SOL     OW21706   6.254   2.065   4.046
 6936SOL    HW121707   6.206   2.128   3.986
 6936SOL    HW221708   6.348   2.054   4.015
 6937SOL     OW21709   0.106   6.309   0.184
 6937SOL    HW121710   0.143   6.264   0.103
 6937SOL    HW221711   0.040   6.248   0.229
 6938SOL     OW21712   5.390   3.413   5.744
 6938SOL    HW121713   5.425   3.499   5.706
 6938SOL    HW221714   5.361   3.352   5.670
 6939SOL     OW21715   0.883   4.705   2.209
 6939SOL    HW121716   0.803   4.759   2.184
 6939SOL    HW221717   0.966   4.760   2.195
 6940SOL     OW21718   4.382   1.049   0.097
 6940SOL    HW121719   4.381   0.955   0.133
 6940SOL    HW221720   4.298   1.065   0.046
 6941SOL     OW21721   3.410   3.380   1.668
 6941SOL    HW121722   3.497   3.363   1.714
 6941SOL    HW221723   3.361   3.452   1.716
 6942SOL     OW21724   5.006   0.552   1.621
 6942SOL    HW121725   5.020   0.539   1.523
 6942SOL    HW221726   4.933   0.619   1.636
 6943SOL     OW21727   4.453   6.499   0.363
 6943SOL    HW121728   4.436   6.557   0.283
 6943SOL    HW221729   4.458   6.403   0.335
 6944SOL     OW21730   0.846   3.911   6.734
 6944SOL    HW121731   0.782   3.945   6.666
 6944SOL    HW221732   0.836   3.811   6.742
 6945SOL     OW21733   6.465   1.561   6.235
 6945SOL    HW121734   6.449   1.476   6.285
 6945SOL    HW221735   6.442   1.548   6.138
 6946SOL     OW21736   5.801   5.986   1.244
 6946SOL    HW121737   5.830   6.014   1.152
 6946SOL    HW221738   5.813   6.062   1.307
 6947SOL     OW21739   3.929   6.314   6.424
 6947SOL    HW121740   3.993   6.377   6.467
 6947SOL    HW221741   3.979   6.257   6.358
 6948SOL     OW21742   6.835   0.539   0.435
 6948SOL    HW121743   6.853   0.565   0.340
 6948SOL    HW221744   6.856   0.442   0.447
 6949SOL     OW21745   5.129   6.721   2.552
 6949SOL    HW121746   5.092   6.751   2.464
 6949SOL    HW221747   5.108   6.624   2.564
 6950SOL     OW21748   2.218   1.446   4.581
 6950SOL    HW121749   2.139   1.500   4.612
 6950SOL    HW221750   2.201   1.349   4.599
 6951SOL     OW21751   6.776   5.864   5.500
 6951SOL    HW121752   6.736   5.955   5.510
 6951SOL    HW221753   6.724   5.798   5.554
 6952SOL     OW21754   0.498   6.180   3.552
 6952SOL    HW121755   0.468   6.152   3.461
 6952SOL    HW221756   0.419   6.185   3.613
 6953SOL     OW21757   4.557   6.676   0.095
 6953SOL    HW121758   4.617   6.626   0.033
 6953SOL    HW221759   4.583   6.658   0.190
 6954SOL     OW21760   0.219   3.584   3.521
 6954SOL    HW121761   0.221   3.486   3.540
 6954SOL    HW221762   0.308   3.625   3.543
 6955SOL     OW21763   6.296   0.136   2.606
 6955SOL    HW121764   6.368   0.105   2.669
 6955SOL    HW221765   6.240   0.058   2.579
 6956SOL     OW21766   5.086   5.404   3.345
 6956SOL    HW121767   4.993   5.438   3.336
 6956SOL    HW221768   5.104   5.335   3.275
 6957SOL     OW21769   6.674   5.002   0.768
 6957SOL    HW121770   6.729   4.936   0.717
 6957SOL    HW221771   6.734   5.069   0.811
 6958SOL     OW21772   3.056   3.285   4.319
 6958SOL    HW121773   3.083   3.306   4.412
 6958SOL    HW221774   3.102   3.202   4.288
 6959SOL     OW21775   2.089   1.723   3.944
 6959SOL    HW121776   2.088   1.645   3.881
 6959SOL    HW221777   2.180   1.765   3.943
 6960SOL     OW21778   2.241   4.750   1.614
 6960SOL    HW121779   2.224   4.782   1.707
 6960SOL    HW221780   2.198   4.812   1.549
 6961SOL     OW21781   5.633   2.197   3.656
 6961SOL    HW121782   5.682   2.235   3.734
 6961SOL    HW221783   5.583   2.271   3.609
 6962SOL     OW21784   4.658   5.919   1.859
 6962SOL    HW121785   4.694   5.841   1.808
 6962SOL    HW221786   4.599   5.973   1.799
 6963SOL     OW21787   5.071   5.878   1.058
 6963SOL    HW121788   5.076   5.795   1.002
 6963SOL    HW221789   5.092   5.957   1.001
 6964SOL     OW21790   3.438   0.425   5.090
 6964SOL    HW121791   3.381   0.497   5.050
 6964SOL    HW221792   3.522   0.415   5.037
 6965SOL     OW21793   1.026   2.819   1.648
 6965SOL    HW121794   0.968   2.741   1.670
 6965SOL    HW221795   1.118   2.804   1.684
 6966SOL     OW21796   0.032   2.250   3.007
 6966SOL    HW121797   0.018   2.217   2.914
 6966SOL    HW221798   0.027   2.350   3.008
 6967SOL     OW21799   2.461   6.883   5.213
 6967SOL    HW121800   2.482   6.874   5.116
 6967SOL    HW221801   2.427   6.796   5.249
 6968SOL     OW21802   4.614   6.776   2.565
 6968SOL    HW121803   4.697   6.769   2.620
 6968SOL    HW221804   4.551   6.841   2.607
 6969SOL     OW21805   2.920   2.293   1.102
 6969SOL    HW121806   2.902   2.284   1.200
 6969SOL    HW221807   2.996   2.356   1.088
 6970SOL     OW21808   3.610   4.090   6.364
 6970SOL    HW121809   3.664   4.142   6.297
 6970SOL    HW221810   3.516   4.083   6.333
 6971SOL     OW21811   6.278   4.198   2.485
 6971SOL    HW121812   6.204   4.264   2.501
 6971SOL    HW221813   6.280   4.131   2.559
 6972SOL     OW21814   4.844   3.860   3.420
 6972SOL    HW121815   4.823   3.809   3.336
 6972SOL    HW221816   4.932   3.830   3.456
 6973SOL     OW21817   0.620   2.925   4.472
 6973SOL    HW121818   0.556   2.932   4.548
 6973SOL    HW221819   0.603   2.999   4.407
 6974SOL     OW21820   3.406   4.074   2.533
 6974SOL    HW121821   3.374   4.156   2.580
 6974SOL    HW221822   3.365   3.993   2.575
 6975SOL     OW21823   2.338   6.480   6.043
 6975SOL    HW121824   2.375   6.413   5.979
 6975SOL    HW221825   2.241   6.495   6.024
 6976SOL     OW21826   5.164   5.522   4.253
 6976SOL    HW121827   5.085   5.512   4.313
 6976SOL    HW221828   5.235   5.574   4.302
 6977SOL     OW21829   4.002   2.567   1.673
 6977SOL    HW121830   4.016   2.601   1.580
 6977SOL    HW221831   3.977   2.643   1.733
 6978SOL     OW21832   5.044   1.516   2.650
 6978SOL    HW121833   4.988   1.545   2.728
 6978SOL    HW221834   5.083   1.426   2.669
 6979SOL     OW21835   0.909   3.984   1.068
 6979SOL    HW121836   0.938   4.051   1.136
 6979SOL    HW221837   0.977   3.911   1.062
 6980SOL     OW21838   1.517   0.938   3.484
 6980SOL    HW121839   1.589   0.933   3.553
 6980SOL    HW221840   1.436   0.887   3.515
 6981SOL     OW21841   3.626   2.448   5.576
 6981SOL    HW121842   3.533   2.417   5.554
 6981SOL    HW221843   3.624   2.547   5.594
 6982SOL     OW21844   1.326   0.581   4.497
 6982SOL    HW121845   1.346   0.614   4.589
 6982SOL    HW221846   1.411   0.559   4.450
 6983SOL     OW21847   4.026   2.236   3.674
 6983SOL    HW121848   4.053   2.209   3.766
 6983SOL    HW221849   4.095   2.207   3.608
 6984SOL     OW21850   2.571   2.014   3.693
 6984SOL    HW121851   2.472   2.018   3.686
 6984SOL    HW221852   2.606   2.100   3.728
 6985SOL     OW21853   5.085   4.820   2.030
 6985SOL    HW121854   5.060   4.766   2.111
 6985SOL    HW221855   5.173   4.865   2.046
 6986SOL     OW21856   1.899   6.638   6.018
 6986SOL    HW121857   1.890   6.731   6.053
 6986SOL    HW221858   1.841   6.627   5.937
 6987SOL     OW21859   6.273   1.602   5.730
 6987SOL    HW121860   6.199   1.537   5.750
 6987SOL    HW221861   6.239   1.695   5.741
 6988SOL     OW21862   0.539   0.874   5.421
 6988SOL    HW121863   0.480   0.841   5.495
 6988SOL    HW221864   0.588   0.797   5.381
 6989SOL     OW21865   0.768   3.937   2.984
 6989SOL    HW121866   0.864   3.963   2.972
 6989SOL    HW221867   0.710   4.017   2.967
 6990SOL     OW21868   4.785   2.873   1.337
 6990SOL    HW121869   4.850   2.805   1.371
 6990SOL    HW221870   4.821   2.913   1.252
 6991SOL     OW21871   3.699   4.985   3.314
 6991SOL    HW121872   3.604   5.016   3.312
 6991SOL    HW221873   3.727   4.957   3.222
 6992SOL     OW21874   5.071   6.303   6.062
 6992SOL    HW121875   5.037   6.345   6.146
 6992SOL    HW221876   5.152   6.352   6.030
 6993SOL     OW21877   5.860   0.643   2.613
 6993SOL    HW121878   5.890   0.738   2.622
 6993SOL    HW221879   5.923   0.593   2.553
 6994SOL     OW21880   0.708   2.241   4.525
 6994SOL    HW121881   0.790   2.186   4.513
 6994SOL    HW221882   0.696   2.302   4.446
 6995SOL     OW21883   6.570   4.502   5.987
 6995SOL    HW121884   6.669   4.494   5.976
 6995SOL    HW221885   6.549   4.510   6.084
 6996SOL     OW21886   1.652   6.739   6.791
 6996SOL    HW121887   1.729   6.683   6.821
 6996SOL    HW221888   1.619   6.793   6.869
 6997SOL     OW21889   0.065   6.103   5.031
 6997SOL    HW121890   0.110   6.168   5.093
 6997SOL    HW221891   0.133   6.040   4.994
 6998SOL     OW21892   2.076   0.720   1.767
 6998SOL    HW121893   2.173   0.699   1.764
 6998SOL    HW221894   2.055   0.795   1.704
 6999SOL     OW21895   2.378   2.032   6.166
 6999SOL    HW121896   2.451   2.074   6.112
 6999SOL    HW221897   2.350   2.095   6.239
 7000SOL     OW21898   5.317   6.501   0.912
 7000SOL    HW121899   5.266   6.452   0.841
 7000SOL    HW221900   5.335   6.439   0.988
 7001SOL     OW21901   1.862   2.456   5.532
 7001SOL    HW121902   1.941   2.431   5.477
 7001SOL    HW221903   1.881   2.540   5.583
 7002SOL     OW21904   1.763   5.611   4.258
 7002SOL    HW121905   1.680   5.570   4.294
 7002SOL    HW221906   1.752   5.629   4.160
 7003SOL     OW21907   4.172   4.580   0.323
 7003SOL    HW121908   4.256   4.636   0.324
 7003SOL    HW221909   4.166   4.529   0.408
 7004SOL     OW21910   0.899   4.667   2.499
 7004SOL    HW121911   0.872   4.694   2.407
 7004SOL    HW221912   0.978   4.607   2.494
 7005SOL     OW21913   1.588   0.493   0.776
 7005SOL    HW121914   1.582   0.587   0.741
 7005SOL    HW221915   1.683   0.470   0.796
 7006SOL     OW21916   5.054   4.808   3.766
 7006SOL    HW121917   5.093   4.880   3.709
 7006SOL    HW221918   5.126   4.745   3.794
 7007SOL     OW21919   4.918   0.352   3.425
 7007SOL    HW121920   4.874   0.328   3.512
 7007SOL    HW221921   5.012   0.383   3.443
 7008SOL     OW21922   0.688   3.682   4.742
 7008SOL    HW121923   0.675   3.669   4.644
 7008SOL    HW221924   0.640   3.610   4.792
 7009SOL     OW21925   5.501   6.072   2.143
 7009SOL    HW121926   5.501   5.973   2.153
 7009SOL    HW221927   5.471   6.097   2.051
 7010SOL     OW21928   5.425   4.008   4.161
 7010SOL    HW121929   5.397   4.088   4.214
 7010SOL    HW221930   5.521   4.018   4.135
 7011SOL     OW21931   3.486   6.725   6.370
 7011SOL    HW121932   3.534   6.665   6.433
 7011SOL    HW221933   3.441   6.799   6.421
 7012SOL     OW21934   1.204   1.827   1.401
 7012SOL    HW121935   1.242   1.831   1.493
 7012SOL    HW221936   1.220   1.736   1.362
 7013SOL     OW21937   0.280   0.309   0.119
 7013SOL    HW121938   0.185   0.313   0.151
 7013SOL    HW221939   0.320   0.401   0.123
 7014SOL     OW21940   4.253   3.221   0.998
 7014SOL    HW121941   4.234   3.318   0.979
 7014SOL    HW221942   4.255   3.170   0.912
 7015SOL     OW21943   5.813   5.020   2.552
 7015SOL    HW121944   5.870   5.014   2.633
 7015SOL    HW221945   5.836   5.104   2.501
 7016SOL     OW21946   3.480   4.781   1.651
 7016SOL    HW121947   3.518   4.733   1.730
 7016SOL    HW221948   3.392   4.741   1.627
 7017SOL     OW21949   2.098   5.086   2.319
 7017SOL    HW121950   2.045   5.171   2.316
 7017SOL    HW221951   2.131   5.071   2.412
 7018SOL     OW21952   5.155   3.734   4.205
 7018SOL    HW121953   5.205   3.716   4.290
 7018SOL    HW221954   5.059   3.748   4.226
 7019SOL     OW21955   3.658   4.032   0.134
 7019SOL    HW121956   3.626   4.126   0.124
 7019SOL    HW221957   3.656   3.987   0.044
 7020SOL     OW21958   6.598   5.311   6.985
 7020SOL    HW121959   6.542   5.273   0.041
 7020SOL    HW221960   6.540   5.330   6.906
 7021SOL     OW21961   1.038   1.857   5.595
 7021SOL    HW121962   1.124   1.818   5.564
 7021SOL    HW221963   1.002   1.918   5.524
 7022SOL     OW21964   4.748   0.002   5.985
 7022SOL    HW121965   4.830   0.019   6.039
 7022SOL    HW221966   4.687   0.081   5.989
 7023SOL     OW21967   0.404   1.865   4.172
 7023SOL    HW121968   0.365   1.924   4.101
 7023SOL    HW221969   0.487   1.907   4.209
 7024SOL     OW21970   2.613   3.966   5.318
 7024SOL    HW121971   2.539   3.996   5.258
 7024SOL    HW221972   2.684   3.922   5.264
 7025SOL     OW21973   2.917   1.082   0.447
 7025SOL    HW121974   2.911   1.003   0.385
 7025SOL    HW221975   2.996   1.137   0.423
 7026SOL     OW21976   3.529   1.665   2.424
 7026SOL    HW121977   3.473   1.742   2.453
 7026SOL    HW221978   3.535   1.598   2.498
 7027SOL     OW21979   2.520   5.340   4.092
 7027SOL    HW121980   2.598   5.290   4.055
 7027SOL    HW221981   2.491   5.410   4.027
 7028SOL     OW21982   3.687   1.381   4.067
 7028SOL    HW121983   3.713   1.477   4.053
 7028SOL    HW221984   3.587   1.372   4.062
 7029SOL     OW21985   5.034   4.921   5.398
 7029SOL    HW121986   5.105   4.882   5.458
 7029SOL    HW221987   5.054   4.896   5.303
 7030SOL     OW21988   1.265   1.068   5.355
 7030SOL    HW121989   1.239   1.018   5.272
 7030SOL    HW221990   1.194   1.056   5.424
 7031SOL     OW21991   2.987   5.859   4.890
 7031SOL    HW121992   2.959   5.955   4.891
 7031SOL    HW221993   2.935   5.810   4.819
 7032SOL     OW21994   3.923   0.591   3.219
 7032SOL    HW121995   4.017   0.563   3.241
 7032SOL    HW221996   3.891   0.542   3.138
 7033SOL     OW21997   2.014   2.581   3.675
 7033SOL    HW121998   1.963   2.498   3.698
 7033SOL    HW221999   2.032   2.582   3.576
 7034SOL     OW22000   6.441   0.281   3.832
 7034SOL    HW122001   6.380   0.202   3.839
 7034SOL    HW222002   6.448   0.326   3.921
 7035SOL     OW22003   1.524   6.514   1.134
 7035SOL    HW122004   1.546   6.466   1.049
 7035SOL    HW222005   1.583   6.480   1.208
 7036SOL     OW22006   0.337   0.433   2.786
 7036SOL    HW122007   0.347   0.396   2.694
 7036SOL    HW222008   0.243   0.422   2.817
 7037SOL     OW22009   1.750   1.415   6.768
 7037SOL    HW122010   1.716   1.335   6.718
 7037SOL    HW222011   1.808   1.384   6.843
 7038SOL     OW22012   2.575   3.103   5.391
 7038SOL    HW122013   2.494   3.122   5.446
 7038SOL    HW222014   2.547   3.061   5.305
 7039SOL     OW22015   2.409   5.174   1.899
 7039SOL    HW122016   2.361   5.193   1.984
 7039SOL    HW222017   2.358   5.106   1.846
 7040SOL     OW22018   6.239   1.812   5.472
 7040SOL    HW122019   6.183   1.730   5.476
 7040SOL    HW222020   6.255   1.846   5.564
 7041SOL     OW22021   6.630   1.684   1.864
 7041SOL    HW122022   6.667   1.688   1.957
 7041SOL    HW222023   6.684   1.744   1.805
 7042SOL     OW22024   4.520   4.927   5.229
 7042SOL    HW122025   4.478   5.016   5.246
 7042SOL    HW222026   4.594   4.911   5.295
 7043SOL     OW22027   2.190   3.872   3.036
 7043SOL    HW122028   2.103   3.836   3.072
 7043SOL    HW222029   2.263   3.807   3.056
 7044SOL     OW22030   4.654   4.804   3.902
 7044SOL    HW122031   4.720   4.880   3.911
 7044SOL    HW222032   4.608   4.790   3.989
 7045SOL     OW22033   4.915   5.767   3.284
 7045SOL    HW122034   4.894   5.680   3.328
 7045SOL    HW222035   4.903   5.760   3.185
 7046SOL     OW22036   3.107   0.804   3.252
 7046SOL    HW122037   3.151   0.759   3.174
 7046SOL    HW222038   3.031   0.747   3.285
 7047SOL     OW22039   6.447   1.466   2.149
 7047SOL    HW122040   6.371   1.530   2.158
 7047SOL    HW222041   6.477   1.462   2.054
 7048SOL     OW22042   5.386   6.487   3.169
 7048SOL    HW122043   5.355   6.525   3.082
 7048SOL    HW222044   5.485   6.495   3.175
 7049SOL     OW22045   3.665   1.314   0.902
 7049SOL    HW122046   3.665   1.280   0.808
 7049SOL    HW222047   3.706   1.246   0.962
 7050SOL     OW22048   4.240   3.213   1.279
 7050SOL    HW122049   4.331   3.196   1.316
 7050SOL    HW222050   4.236   3.183   1.184
 7051SOL     OW22051   6.242   6.971   1.371
 7051SOL    HW122052   6.175   0.018   1.407
 7051SOL    HW222053   6.272   7.001   1.280
 7052SOL     OW22054   5.809   2.548   3.327
 7052SOL    HW122055   5.877   2.541   3.254
 7052SOL    HW222056   5.730   2.490   3.305
 7053SOL     OW22057   1.259   3.479   5.425
 7053SOL    HW122058   1.159   3.470   5.433
 7053SOL    HW222059   1.282   3.575   5.413
 7054SOL     OW22060   0.679   6.558   0.309
 7054SOL    HW122061   0.740   6.547   0.231
 7054SOL    HW222062   0.707   6.637   0.363
 7055SOL     OW22063   2.618   0.236   5.762
 7055SOL    HW122064   2.717   0.240   5.752
 7055SOL    HW222065   2.590   0.142   5.783
 7056SOL     OW22066   6.373   4.564   2.139
 7056SOL    HW122067   6.378   4.473   2.179
 7056SOL    HW222068   6.291   4.611   2.172
 7057SOL     OW22069   1.989   5.457   4.306
 7057SOL    HW122070   2.049   5.520   4.256
 7057SOL    HW222071   1.894   5.483   4.291
 7058SOL     OW22072   5.927   5.041   5.504
 7058SOL    HW122073   6.004   4.980   5.485
 7058SOL    HW222074   5.868   4.999   5.573
 7059SOL     OW22075   0.057   1.291   3.757
 7059SOL    HW122076   0.060   1.388   3.779
 7059SOL    HW222077   0.084   1.237   3.837
 7060SOL     OW22078   3.836   0.225   1.360
 7060SOL    HW122079   3.863   0.318   1.332
 7060SOL    HW222080   3.901   0.192   1.429
 7061SOL     OW22081   0.503   3.203   3.679
 7061SOL    HW122082   0.459   3.240   3.596
 7061SOL    HW222083   0.575   3.139   3.653
 7062SOL     OW22084   4.258   0.852   5.367
 7062SOL    HW122085   4.259   0.871   5.269
 7062SOL    HW222086   4.205   0.769   5.384
 7063SOL     OW22087   1.600   0.369   1.880
 7063SOL    HW122088   1.540   0.334   1.808
 7063SOL    HW222089   1.547   0.383   1.963
 7064SOL     OW22090   3.956   1.741   0.710
 7064SOL    HW122091   4.003   1.825   0.684
 7064SOL    HW222092   3.997   1.704   0.794
 7065SOL     OW22093   4.739   3.737   6.162
 7065SOL    HW122094   4.839   3.736   6.154
 7065SOL    HW222095   4.702   3.806   6.100
 7066SOL     OW22096   4.726   0.298   6.816
 7066SOL    HW122097   4.668   0.224   6.850
 7066SOL    HW222098   4.693   0.386   6.850
 7067SOL     OW22099   1.720   2.623   5.355
 7067SOL    HW122100   1.641   2.579   5.313
 7067SOL    HW222101   1.765   2.559   5.417
 7068SOL     OW22102   6.293   4.387   4.930
 7068SOL    HW122103   6.284   4.298   4.974
 7068SOL    HW222104   6.385   4.423   4.944
 7069SOL     OW22105   5.280   1.840   4.418
 7069SOL    HW122106   5.184   1.862   4.398
 7069SOL    HW222107   5.339   1.889   4.353
 7070SOL     OW22108   0.416   0.019   5.102
 7070SOL    HW122109   0.384   6.947   5.073
 7070SOL    HW222110   0.408   0.083   5.025
 7071SOL     OW22111   3.194   5.942   5.749
 7071SOL    HW122112   3.105   5.897   5.747
 7071SOL    HW222113   3.262   5.883   5.707
 7072SOL     OW22114   1.797   6.387   6.816
 7072SOL    HW122115   1.755   6.346   6.735
 7072SOL    HW222116   1.728   6.399   6.887
 7073SOL     OW22117   5.311   0.260   4.758
 7073SOL    HW122118   5.246   0.221   4.694
 7073SOL    HW222119   5.364   0.331   4.713
 7074SOL     OW22120   5.205   2.727   1.674
 7074SOL    HW122121   5.154   2.712   1.759
 7074SOL    HW222122   5.270   2.653   1.660
 7075SOL     OW22123   1.953   4.324   5.278
 7075SOL    HW122124   2.038   4.324   5.225
 7075SOL    HW222125   1.896   4.247   5.249
 7076SOL     OW22126   5.848   2.240   6.150
 7076SOL    HW122127   5.801   2.310   6.203
 7076SOL    HW222128   5.913   2.191   6.210
 7077SOL     OW22129   2.873   4.836   3.618
 7077SOL    HW122130   2.971   4.851   3.633
 7077SOL    HW222131   2.838   4.773   3.688
 7078SOL     OW22132   6.899   6.726   1.795
 7078SOL    HW122133   6.926   6.801   1.855
 7078SOL    HW222134   6.979   6.691   1.747
 7079SOL     OW22135   6.873   5.876   4.264
 7079SOL    HW122136   6.829   5.851   4.350
 7079SOL    HW222137   6.806   5.914   4.201
 7080SOL     OW22138   3.483   1.106   4.819
 7080SOL    HW122139   3.563   1.115   4.880
 7080SOL    HW222140   3.433   1.192   4.818
 7081SOL     OW22141   2.606   6.592   6.825
 7081SOL    HW122142   2.657   6.609   6.910
 7081SOL    HW222143   2.511   6.620   6.837
 7082SOL     OW22144   6.658   4.055   0.284
 7082SOL    HW122145   6.588   4.002   0.332
 7082SOL    HW222146   6.714   3.994   0.228
 7083SOL     OW22147   2.400   7.013   0.776
 7083SOL    HW122148   2.403   6.932   0.718
 7083SOL    HW222149   2.369   6.987   0.868
 7084SOL     OW22150   0.157   5.416   5.566
 7084SOL    HW122151   0.152   5.480   5.643
 7084SOL    HW222152   0.068   5.372   5.554
 7085SOL     OW22153   1.261   1.104   1.921
 7085SOL    HW122154   1.324   1.084   1.846
 7085SOL    HW222155   1.167   1.090   1.891
 7086SOL     OW22156   5.662   0.161   5.933
 7086SOL    HW122157   5.723   0.160   6.012
 7086SOL    HW222158   5.706   0.207   5.856
 7087SOL     OW22159   6.021   3.913   4.393
 7087SOL    HW122160   5.957   3.980   4.354
 7087SOL    HW222161   6.111   3.956   4.403
 7088SOL     OW22162   4.942   2.798   3.924
 7088SOL    HW122163   4.842   2.798   3.917
 7088SOL    HW222164   4.974   2.703   3.935
 7089SOL     OW22165   3.082   2.029   4.654
 7089SOL    HW122166   3.172   2.069   4.668
 7089SOL    HW222167   3.068   1.956   4.721
 7090SOL     OW22168   1.670   0.666   0.009
 7090SOL    HW122169   1.719   0.703   0.088
 7090SOL    HW222170   1.631   0.577   0.032
 7091SOL     OW22171   0.243   2.327   0.814
 7091SOL    HW122172   0.231   2.427   0.814
 7091SOL    HW222173   0.182   2.286   0.747
 7092SOL     OW22174   3.644   3.301   6.033
 7092SOL    HW122175   3.568   3.357   5.999
 7092SOL    HW222176   3.623   3.204   6.020
 7093SOL     OW22177   3.078   3.727   2.260
 7093SOL    HW122178   3.044   3.726   2.354
 7093SOL    HW222179   3.158   3.787   2.254
 7094SOL     OW22180   0.098   5.565   5.806
 7094SOL    HW122181   0.038   5.562   5.886
 7094SOL    HW222182   0.052   5.613   5.731
 7095SOL     OW22183   4.365   4.641   5.658
 7095SOL    HW122184   4.344   4.568   5.592
 7095SOL    HW222185   4.293   4.710   5.654
 7096SOL     OW22186   6.854   1.399   3.378
 7096SOL    HW122187   6.932   1.342   3.351
 7096SOL    HW222188   6.882   1.495   3.379
 7097SOL     OW22189   5.223   1.985   1.635
 7097SOL    HW122190   5.175   2.018   1.553
 7097SOL    HW222191   5.316   2.023   1.637
 7098SOL     OW22192   1.638   5.258   5.737
 7098SOL    HW122193   1.676   5.335   5.789
 7098SOL    HW222194   1.695   5.242   5.656
 7099SOL     OW22195   3.708   1.438   5.067
 7099SOL    HW122196   3.721   1.527   5.109
 7099SOL    HW222197   3.657   1.448   4.982
 7100SOL     OW22198   6.540   3.760   0.345
 7100SOL    HW122199   6.587   3.679   0.381
 7100SOL    HW222200   6.550   3.763   0.246
 7101SOL     OW22201   2.033   1.485   5.391
 7101SOL    HW122202   2.031   1.543   5.472
 7101SOL    HW222203   2.128   1.468   5.365
 7102SOL     OW22204   5.559   0.074   0.519
 7102SOL    HW122205   5.568   0.026   0.607
 7102SOL    HW222206   5.636   0.138   0.508
 7103SOL     OW22207   5.265   5.138   2.704
 7103SOL    HW122208   5.234   5.217   2.651
 7103SOL    HW222209   5.351   5.105   2.667
 7104SOL     OW22210   6.800   3.115   3.719
 7104SOL    HW122211   6.703   3.112   3.694
 7104SOL    HW222212   6.837   3.023   3.722
 7105SOL     OW22213   3.034   3.328   5.685
 7105SOL    HW122214   3.074   3.415   5.656
 7105SOL    HW222215   2.961   3.302   5.621
 7106SOL     OW22216   3.567   3.591   2.388
 7106SOL    HW122217   3.612   3.503   2.370
 7106SOL    HW222218   3.481   3.595   2.339
 7107SOL     OW22219   4.589   0.952   0.842
 7107SOL    HW122220   4.648   0.909   0.911
 7107SOL    HW222221   4.638   1.029   0.801
 7108SOL     OW22222   3.058   6.756   2.911
 7108SOL    HW122223   3.120   6.693   2.958
 7108SOL    HW222224   2.997   6.704   2.851
 7109SOL     OW22225   2.509   0.372   5.996
 7109SOL    HW122226   2.566   0.351   6.076
 7109SOL    HW222227   2.563   0.361   5.913
 7110SOL     OW22228   3.287   5.883   4.404
 7110SOL    HW122229   3.196   5.857   4.436
 7110SOL    HW222230   3.317   5.818   4.334
 7111SOL     OW22231   1.346   2.602   5.385
 7111SOL    HW122232   1.333   2.694   5.423
 7111SOL    HW222233   1.291   2.591   5.302
 7112SOL     OW22234   2.012   5.029   4.655
 7112SOL    HW122235   2.063   4.985   4.580
 7112SOL    HW222236   2.017   5.128   4.645
 7113SOL     OW22237   3.876   4.067   4.738
 7113SOL    HW122238   3.893   4.022   4.650
 7113SOL    HW222239   3.789   4.117   4.733
 7114SOL     OW22240   5.499   5.843   1.057
 7114SOL    HW122241   5.557   5.784   1.113
 7114SOL    HW222242   5.417   5.868   1.108
 7115SOL     OW22243   5.532   3.113   0.703
 7115SOL    HW122244   5.462   3.067   0.647
 7115SOL    HW222245   5.596   3.046   0.739
 7116SOL     OW22246   5.912   4.197   2.894
 7116SOL    HW122247   5.980   4.128   2.869
 7116SOL    HW222248   5.948   4.253   2.969
 7117SOL     OW22249   0.592   6.991   5.295
 7117SOL    HW122250   0.651   0.054   5.292
 7117SOL    HW222251   0.521   6.999   5.225
 7118SOL     OW22252   3.169   4.787   1.022
 7118SOL    HW122253   3.217   4.854   1.080
 7118SOL    HW222254   3.087   4.756   1.070
 7119SOL     OW22255   4.864   1.590   4.029
 7119SOL    HW122256   4.787   1.526   4.033
 7119SOL    HW222257   4.891   1.616   4.122
 7120SOL     OW22258   3.383   1.918   2.475
 7120SOL    HW122259   3.289   1.902   2.505
 7120SOL    HW222260   3.383   1.946   2.379
 7121SOL     OW22261   0.828   6.940   3.041
 7121SOL    HW122262   0.844   6.865   3.105
 7121SOL    HW222263   0.837   6.906   2.947
 7122SOL     OW22264   1.753   0.764   5.664
 7122SOL    HW122265   1.781   0.676   5.626
 7122SOL    HW222266   1.833   0.810   5.703
 7123SOL     OW22267   1.501   4.959   3.087
 7123SOL    HW122268   1.413   4.934   3.128
 7123SOL    HW222269   1.554   4.877   3.068
 7124SOL     OW22270   6.739   2.550   1.478
 7124SOL    HW122271   6.827   2.525   1.519
 7124SOL    HW222272   6.720   2.646   1.496
 7125SOL     OW22273   0.651   6.961   0.683
 7125SOL    HW122274   0.631   6.865   0.662
 7125SOL    HW222275   0.565   7.012   0.694
 7126SOL     OW22276   3.368   5.167   0.180
 7126SOL    HW122277   3.306   5.094   0.210
 7126SOL    HW222278   3.315   5.251   0.164
 7127SOL     OW22279   1.654   5.116   6.177
 7127SOL    HW122280   1.723   5.054   6.139
 7127SOL    HW222281   1.680   5.210   6.159
 7128SOL     OW22282   2.895   4.834   6.970
 7128SOL    HW122283   2.952   4.909   7.004
 7128SOL    HW222284   2.952   4.765   6.927
 7129SOL     OW22285   2.113   1.547   0.334
 7129SOL    HW122286   2.169   1.497   0.268
 7129SOL    HW222287   2.049   1.607   0.285
 7130SOL     OW22288   3.936   6.019   4.716
 7130SOL    HW122289   4.022   6.045   4.671
 7130SOL    HW222290   3.861   6.026   4.650
 7131SOL     OW22291   2.492   0.990   1.314
 7131SOL    HW122292   2.566   0.997   1.380
 7131SOL    HW222293   2.412   1.041   1.346
 7132SOL     OW22294   4.045   3.563   0.524
 7132SOL    HW122295   4.055   3.593   0.429
 7132SOL    HW222296   4.006   3.637   0.578
 7133SOL     OW22297   4.965   5.373   6.027
 7133SOL    HW122298   4.881   5.426   6.030
 7133SOL    HW222299   5.044   5.434   6.035
 7134SOL     OW22300   4.911   6.799   1.109
 7134SOL    HW122301   5.001   6.790   1.067
 7134SOL    HW222302   4.878   6.893   1.097
 7135SOL     OW22303   1.721   2.561   3.284
 7135SOL    HW122304   1.747   2.471   3.250
 7135SOL    HW222305   1.703   2.556   3.382
 7136SOL     OW22306   2.285   1.754   0.400
 7136SOL    HW122307   2.234   1.769   0.485
 7136SOL    HW222308   2.237   1.687   0.344
 7137SOL     OW22309   3.361   0.678   6.511
 7137SOL    HW122310   3.287   0.613   6.530
 7137SOL    HW222311   3.414   0.693   6.594
 7138SOL     OW22312   2.526   1.977   0.165
 7138SOL    HW122313   2.548   1.887   0.127
 7138SOL    HW222314   2.443   1.970   0.221
 7139SOL     OW22315   6.402   3.966   1.615
 7139SOL    HW122316   6.344   4.045   1.636
 7139SOL    HW222317   6.345   3.890   1.584
 7140SOL     OW22318   6.524   3.827   2.273
 7140SOL    HW122319   6.493   3.732   2.281
 7140SOL    HW222320   6.537   3.865   2.365
 7141SOL     OW22321   3.824   6.162   0.780
 7141SOL    HW122322   3.829   6.098   0.704
 7141SOL    HW222323   3.763   6.238   0.756
 7142SOL     OW22324   4.018   0.111   3.027
 7142SOL    HW122325   4.104   0.083   3.069
 7142SOL    HW222326   3.973   0.031   2.988
 7143SOL     OW22327   1.733   2.726   6.133
 7143SOL    HW122328   1.661   2.685   6.189
 7143SOL    HW222329   1.720   2.699   6.037
 7144SOL     OW22330   2.010   2.078   2.575
 7144SOL    HW122331   1.918   2.093   2.539
 7144SOL    HW222332   2.077   2.115   2.511
 7145SOL     OW22333   4.148   0.532   0.074
 7145SOL    HW122334   4.115   0.597   0.007
 7145SOL    HW222335   4.228   0.484   0.039
 7146SOL     OW22336   1.850   6.541   0.174
 7146SOL    HW122337   1.891   6.554   0.083
 7146SOL    HW222338   1.799   6.624   0.199
 7147SOL     OW22339   6.895   7.004   3.134
 7147SOL    HW122340   6.845   6.955   3.063
 7147SOL    HW222341   6.893   0.084   3.115
 7148SOL     OW22342   0.019   6.701   1.192
 7148SOL    HW122343   0.115   6.683   1.215
 7148SOL    HW222344   6.978   6.644   1.249
 7149SOL     OW22345   6.545   6.719   3.819
 7149SOL    HW122346   6.472   6.694   3.756
 7149SOL    HW222347   6.579   6.637   3.865
 7150SOL     OW22348   3.613   2.668   1.390
 7150SOL    HW122349   3.628   2.622   1.477
 7150SOL    HW222350   3.563   2.607   1.328
 7151SOL     OW22351   2.849   6.715   0.699
 7151SOL    HW122352   2.839   6.713   0.798
 7151SOL    HW222353   2.935   6.670   0.673
 7152SOL     OW22354   6.802   0.799   5.598
 7152SOL    HW122355   6.893   0.805   5.557
 7152SOL    HW222356   6.737   0.849   5.540
 7153SOL     OW22357   4.002   5.270   1.494
 7153SOL    HW122358   3.970   5.308   1.581
 7153SOL    HW222359   4.060   5.337   1.448
 7154SOL     OW22360   4.896   6.553   3.240
 7154SOL    HW122361   4.836   6.610   3.297
 7154SOL    HW222362   4.989   6.592   3.240
 7155SOL     OW22363   2.064   3.444   0.669
 7155SOL    HW122364   2.112   3.505   0.732
 7155SOL    HW222365   1.973   3.481   0.650
 7156SOL     OW22366   6.817   3.116   4.030
 7156SOL    HW122367   6.831   3.020   4.006
 7156SOL    HW222368   6.752   3.157   3.967
 7157SOL     OW22369   0.317   3.875   0.940
 7157SOL    HW122370   0.351   3.900   1.030
 7157SOL    HW222371   0.266   3.790   0.946
 7158SOL     OW22372   0.939   0.632   4.090
 7158SOL    HW122373   0.850   0.628   4.046
 7158SOL    HW222374   0.955   0.547   4.140
 7159SOL     OW22375   0.629   4.406   3.425
 7159SOL    HW122376   0.530   4.414   3.412
 7159SOL    HW222377   0.648   4.375   3.518
 7160SOL     OW22378   5.540   0.678   2.980
 7160SOL    HW122379   5.503   0.643   2.894
 7160SOL    HW222380   5.639   0.690   2.971
 7161SOL     OW22381   3.411   4.154   3.310
 7161SOL    HW122382   3.423   4.148   3.409
 7161SOL    HW222383   3.319   4.125   3.285
 7162SOL     OW22384   0.867   5.362   6.484
 7162SOL    HW122385   0.877   5.446   6.431
 7162SOL    HW222386   0.771   5.349   6.509
 7163SOL     OW22387   2.677   6.744   2.426
 7163SOL    HW122388   2.646   6.825   2.477
 7163SOL    HW222389   2.770   6.720   2.454
 7164SOL     OW22390   3.061   0.600   4.091
 7164SOL    HW122391   3.076   0.691   4.053
 7164SOL    HW222392   3.088   0.599   4.188
 7165SOL     OW22393   6.500   0.461   2.908
 7165SOL    HW122394   6.551   0.454   2.822
 7165SOL    HW222395   6.545   0.528   2.968
 7166SOL     OW22396   4.831   1.865   0.925
 7166SOL    HW122397   4.864   1.785   0.976
 7166SOL    HW222398   4.731   1.863   0.922
 7167SOL     OW22399   5.300   3.290   4.608
 7167SOL    HW122400   5.218   3.254   4.652
 7167SOL    HW222401   5.381   3.255   4.654
 7168SOL     OW22402   2.034   2.824   2.685
 7168SOL    HW122403   2.049   2.852   2.780
 7168SOL    HW222404   2.107   2.862   2.628
 7169SOL     OW22405   0.389   3.176   5.808
 7169SOL    HW122406   0.345   3.149   5.722
 7169SOL    HW222407   0.349   3.123   5.883
 7170SOL     OW22408   5.240   0.110   3.411
 7170SOL    HW122409   5.237   0.034   3.476
 7170SOL    HW222410   5.282   0.079   3.326
 7171SOL     OW22411   6.261   3.838   6.796
 7171SOL    HW122412   6.291   3.806   6.887
 7171SOL    HW222413   6.337   3.885   6.751
 7172SOL     OW22414   1.373   0.107   4.874
 7172SOL    HW122415   1.407   0.013   4.877
 7172SOL    HW222416   1.356   0.134   4.779
 7173SOL     OW22417   6.225   4.346   6.758
 7173SOL    HW122418   6.226   4.330   6.857
 7173SOL    HW222419   6.236   4.444   6.740
 7174SOL     OW22420   1.426   3.306   0.641
 7174SOL    HW122421   1.456   3.259   0.724
 7174SOL    HW222422   1.332   3.277   0.618
 7175SOL     OW22423   5.731   3.044   6.230
 7175SOL    HW122424   5.665   3.091   6.289
 7175SOL    HW222425   5.816   3.097   6.226
 7176SOL     OW22426   6.831   0.943   3.595
 7176SOL    HW122427   6.851   1.001   3.674
 7176SOL    HW222428   6.820   1.001   3.514
 7177SOL     OW22429   1.577   4.933   5.180
 7177SOL    HW122430   1.584   4.973   5.271
 7177SOL    HW222431   1.570   4.834   5.187
 7178SOL     OW22432   0.141   1.481   5.885
 7178SOL    HW122433   0.197   1.414   5.837
 7178SOL    HW222434   0.104   1.439   5.968
 7179SOL     OW22435   2.087   3.143   4.158
 7179SOL    HW122436   2.159   3.076   4.144
 7179SOL    HW222437   2.108   3.198   4.239
 7180SOL     OW22438   1.613   5.590   7.002
 7180SOL    HW122439   1.537   5.550   0.036
 7180SOL    HW222440   1.606   5.690   7.006
 7181SOL     OW22441   1.913   0.290   0.319
 7181SOL    HW122442   1.944   0.380   0.348
 7181SOL    HW222443   1.943   0.272   0.225
 7182SOL     OW22444   0.373   3.246   4.674
 7182SOL    HW122445   0.377   3.164   4.618
 7182SOL    HW222446   0.388   3.326   4.617
 7183SOL     OW22447   1.609   5.436   1.374
 7183SOL    HW122448   1.536   5.453   1.308
 7183SOL    HW222449   1.584   5.475   1.462
 7184SOL     OW22450   6.563   1.047   3.577
 7184SOL    HW122451   6.486   1.011   3.630
 7184SOL    HW222452   6.649   1.010   3.613
 7185SOL     OW22453   5.674   0.425   4.847
 7185SOL    HW122454   5.586   0.430   4.800
 7185SOL    HW222455   5.662   0.448   4.944
 7186SOL     OW22456   6.243   1.938   1.461
 7186SOL    HW122457   6.169   1.870   1.457
 7186SOL    HW222458   6.331   1.890   1.463
 7187SOL     OW22459   3.335   4.582   5.561
 7187SOL    HW122460   3.302   4.641   5.635
 7187SOL    HW222461   3.259   4.560   5.500
 7188SOL     OW22462   5.413   0.210   6.860
 7188SOL    HW122463   5.401   0.254   6.771
 7188SOL    HW222464   5.359   0.259   6.928
 7189SOL     OW22465   5.851   1.016   5.076
 7189SOL    HW122466   5.802   0.929   5.077
 7189SOL    HW222467   5.928   1.012   5.140
 7190SOL     OW22468   6.592   4.390   1.931
 7190SOL    HW122469   6.641   4.363   2.014
 7190SOL    HW222470   6.510   4.333   1.921
 7191SOL     OW22471   1.395   5.236   2.428
 7191SOL    HW122472   1.312   5.251   2.481
 7191SOL    HW222473   1.474   5.233   2.489
 7192SOL     OW22474   2.749   4.399   6.134
 7192SOL    HW122475   2.819   4.330   6.156
 7192SOL    HW222476   2.702   4.373   6.050
 7193SOL     OW22477   1.336   3.053   2.814
 7193SOL    HW122478   1.279   3.099   2.883
 7193SOL    HW222479   1.342   2.956   2.836
 7194SOL     OW22480   2.209   2.734   0.866
 7194SOL    HW122481   2.204   2.775   0.775
 7194SOL    HW222482   2.304   2.732   0.897
 7195SOL     OW22483   1.318   4.284   6.818
 7195SOL    HW122484   1.384   4.319   6.752
 7195SOL    HW222485   1.226   4.292   6.780
 7196SOL     OW22486   2.495   3.722   1.668
 7196SOL    HW122487   2.564   3.664   1.710
 7196SOL    HW222488   2.445   3.669   1.599
 7197SOL     OW22489   0.596   2.356   6.017
 7197SOL    HW122490   0.641   2.445   6.011
 7197SOL    HW222491   0.607   2.307   5.931
 7198SOL     OW22492   0.157   0.794   0.599
 7198SOL    HW122493   0.150   0.811   0.501
 7198SOL    HW222494   0.198   0.704   0.615
 7199SOL     OW22495   1.887   0.868   2.315
 7199SOL    HW122496   1.953   0.798   2.290
 7199SOL    HW222497   1.882   0.937   2.242
 7200SOL     OW22498   2.535   2.475   7.002
 7200SOL    HW122499   2.495   2.566   7.016
 7200SOL    HW222500   2.463   2.412   6.973
 7201SOL     OW22501   0.689   6.311   4.458
 7201SOL    HW122502   0.739   6.388   4.497
 7201SOL    HW222503   0.751   6.258   4.399
 7202SOL     OW22504   5.361   6.870   0.110
 7202SOL    HW122505   5.349   6.905   0.017
 7202SOL    HW222506   5.392   6.944   0.170
 7203SOL     OW22507   0.584   1.122   0.806
 7203SOL    HW122508   0.525   1.051   0.846
 7203SOL    HW222509   0.536   1.209   0.807
 7204SOL     OW22510   0.483   0.158   5.784
 7204SOL    HW122511   0.490   0.114   5.695
 7204SOL    HW222512   0.481   0.089   5.856
 7205SOL     OW22513   1.339   3.756   4.392
 7205SOL    HW122514   1.242   3.777   4.405
 7205SOL    HW222515   1.353   3.716   4.302
 7206SOL     OW22516   1.815   0.859   1.978
 7206SOL    HW122517   1.724   0.897   1.996
 7206SOL    HW222518   1.812   0.760   1.992
 7207SOL     OW22519   3.729   0.177   2.377
 7207SOL    HW122520   3.756   0.230   2.457
 7207SOL    HW222521   3.658   0.227   2.327
 7208SOL     OW22522   4.170   6.943   3.540
 7208SOL    HW122523   4.171   6.907   3.634
 7208SOL    HW222524   4.081   6.985   3.522
 7209SOL     OW22525   2.686   3.348   1.750
 7209SOL    HW122526   2.599   3.377   1.791
 7209SOL    HW222527   2.682   3.363   1.651
 7210SOL     OW22528   4.355   1.231   3.060
 7210SOL    HW122529   4.439   1.267   3.101
 7210SOL    HW222530   4.278   1.291   3.084
 7211SOL     OW22531   2.450   6.930   4.722
 7211SOL    HW122532   2.508   6.944   4.641
 7211SOL    HW222533   2.383   7.004   4.728
 7212SOL     OW22534   0.364   6.420   5.011
 7212SOL    HW122535   0.406   6.510   5.024
 7212SOL    HW222536   0.277   6.431   4.963
 7213SOL     OW22537   4.377   5.873   0.062
 7213SOL    HW122538   4.362   5.860   6.983
 7213SOL    HW222539   4.353   5.790   0.112
 7214SOL     OW22540   6.548   0.051   5.155
 7214SOL    HW122541   6.494   0.003   5.086
 7214SOL    HW222542   6.598   7.003   5.211
 7215SOL     OW22543   0.024   3.506   4.475
 7215SOL    HW122544   0.069   3.459   4.399
 7215SOL    HW222545   6.943   3.492   4.469
 7216SOL     OW22546   3.355   0.114   0.012
 7216SOL    HW122547   3.292   0.190   0.027
 7216SOL    HW222548   3.342   0.045   0.082
 7217SOL     OW22549   2.210   3.863   3.689
 7217SOL    HW122550   2.200   3.855   3.590
 7217SOL    HW222551   2.197   3.773   3.731
 7218SOL     OW22552   5.844   2.845   5.117
 7218SOL    HW122553   5.887   2.790   5.046
 7218SOL    HW222554   5.832   2.939   5.085
 7219SOL     OW22555   4.472   0.157   3.293
 7219SOL    HW122556   4.508   0.175   3.384
 7219SOL    HW222557   4.487   0.237   3.235
 7220SOL     OW22558   0.993   4.421   5.290
 7220SOL    HW122559   1.039   4.492   5.344
 7220SOL    HW222560   0.930   4.464   5.226
 7221SOL     OW22561   3.571   6.019   4.212
 7221SOL    HW122562   3.651   5.961   4.226
 7221SOL    HW222563   3.534   6.047   4.300
 7222SOL     OW22564   5.985   0.113   3.404
 7222SOL    HW122565   6.020   0.195   3.450
 7222SOL    HW222566   5.925   0.063   3.466
 7223SOL     OW22567   2.752   1.385   0.744
 7223SOL    HW122568   2.683   1.430   0.687
 7223SOL    HW222569   2.776   1.297   0.703
 7224SOL     OW22570   5.321   1.660   3.956
 7224SOL    HW122571   5.226   1.676   3.984
 7224SOL    HW222572   5.346   1.726   3.885
 7225SOL     OW22573   0.907   5.600   0.656
 7225SOL    HW122574   0.943   5.659   0.583
 7225SOL    HW222575   0.837   5.539   0.619
 7226SOL     OW22576   6.156   1.456   1.715
 7226SOL    HW122577   6.066   1.469   1.675
 7226SOL    HW222578   6.158   1.493   1.808
 7227SOL     OW22579   2.176   2.351   0.993
 7227SOL    HW122580   2.223   2.268   1.025
 7227SOL    HW222581   2.092   2.364   1.047
 7228SOL     OW22582   0.906   2.431   3.248
 7228SOL    HW122583   0.919   2.344   3.295
 7228SOL    HW222584   0.931   2.421   3.152
 7229SOL     OW22585   1.189   6.314   5.406
 7229SOL    HW122586   1.266   6.360   5.451
 7229SOL    HW222587   1.193   6.332   5.307
 7230SOL     OW22588   3.376   5.186   4.191
 7230SOL    HW122589   3.457   5.220   4.144
 7230SOL    HW222590   3.403   5.126   4.266
 7231SOL     OW22591   4.036   0.891   6.511
 7231SOL    HW122592   4.046   0.970   6.571
 7231SOL    HW222593   3.979   0.917   6.432
 7232SOL     OW22594   5.132   6.396   3.450
 7232SOL    HW122595   5.110   6.328   3.519
 7232SOL    HW222596   5.120   6.356   3.359
 7233SOL     OW22597   0.842   2.001   3.250
 7233SOL    HW122598   0.895   1.916   3.255
 7233SOL    HW222599   0.868   2.061   3.325
 7234SOL     OW22600   5.066   2.549   3.884
 7234SOL    HW122601   5.155   2.594   3.881
 7234SOL    HW222602   5.076   2.457   3.921
 7235SOL     OW22603   0.170   5.035   2.691
 7235SOL    HW122604   0.183   5.042   2.592
 7235SOL    HW222605   0.213   4.951   2.724
 7236SOL     OW22606   2.119   2.203   1.440
 7236SOL    HW122607   2.035   2.205   1.495
 7236SOL    HW222608   2.170   2.288   1.454
 7237SOL     OW22609   4.274   0.106   5.098
 7237SOL    HW122610   4.174   0.116   5.095
 7237SOL    HW222611   4.298   0.013   5.070
 7238SOL     OW22612   3.469   1.592   0.225
 7238SOL    HW122613   3.444   1.548   0.138
 7238SOL    HW222614   3.483   1.690   0.210
 7239SOL     OW22615   1.481   2.445   2.485
 7239SOL    HW122616   1.500   2.532   2.533
 7239SOL    HW222617   1.383   2.428   2.485
 7240SOL     OW22618   1.501   0.375   5.913
 7240SOL    HW122619   1.592   0.372   5.872
 7240SOL    HW222620   1.460   0.465   5.897
 7241SOL     OW22621   1.437   0.847   1.221
 7241SOL    HW122622   1.349   0.801   1.234
 7241SOL    HW222623   1.505   0.780   1.189
 7242SOL     OW22624   6.774   5.780   0.388
 7242SOL    HW122625   6.703   5.850   0.388
 7242SOL    HW222626   6.757   5.714   0.462
 7243SOL     OW22627   6.302   4.471   6.312
 7243SOL    HW122628   6.354   4.396   6.270
 7243SOL    HW222629   6.364   4.526   6.367
 7244SOL     OW22630   6.236   1.207   1.712
 7244SOL    HW122631   6.321   1.188   1.663
 7244SOL    HW222632   6.210   1.303   1.696
 7245SOL     OW22633   1.222   2.785   6.142
 7245SOL    HW122634   1.306   2.837   6.127
 7245SOL    HW222635   1.146   2.831   6.096
 7246SOL     OW22636   0.414   0.140   4.151
 7246SOL    HW122637   0.380   0.233   4.148
 7246SOL    HW222638   0.454   0.116   4.062
 7247SOL     OW22639   2.388   1.070   4.189
 7247SOL    HW122640   2.451   1.127   4.136
 7247SOL    HW222641   2.401   0.974   4.165
 7248SOL     OW22642   2.329   1.536   3.458
 7248SOL    HW122643   2.329   1.615   3.396
 7248SOL    HW222644   2.386   1.463   3.420
 7249SOL     OW22645   6.787   4.827   2.569
 7249SOL    HW122646   6.827   4.917   2.588
 7249SOL    HW222647   6.768   4.819   2.471
 7250SOL     OW22648   4.718   6.764   5.866
 7250SOL    HW122649   4.809   6.752   5.827
 7250SOL    HW222650   4.715   6.848   5.921
 7251SOL     OW22651   0.632   6.621   5.618
 7251SOL    HW122652   0.670   6.602   5.709
 7251SOL    HW222653   0.637   6.539   5.561
 7252SOL     OW22654   3.681   3.674   2.633
 7252SOL    HW122655   3.642   3.760   2.667
 7252SOL    HW222656   3.640   3.650   2.545
 7253SOL     OW22657   1.701   5.978   6.730
 7253SOL    HW122658   1.650   6.051   6.685
 7253SOL    HW222659   1.794   5.976   6.693
 7254SOL     OW22660   4.443   5.056   4.354
 7254SOL    HW122661   4.384   5.102   4.420
 7254SOL    HW222662   4.420   4.958   4.351
 7255SOL     OW22663   2.713   4.130   1.532
 7255SOL    HW122664   2.679   4.162   1.443
 7255SOL    HW222665   2.707   4.030   1.536
 7256SOL     OW22666   3.076   5.242   4.304
 7256SOL    HW122667   3.100   5.209   4.395
 7256SOL    HW222668   3.152   5.296   4.267
 7257SOL     OW22669   5.966   2.688   3.511
 7257SOL    HW122670   6.054   2.722   3.478
 7257SOL    HW222671   5.909   2.662   3.432
 7258SOL     OW22672   3.929   1.905   3.720
 7258SOL    HW122673   3.928   1.944   3.628
 7258SOL    HW222674   3.932   1.978   3.788
 7259SOL     OW22675   2.281   3.843   1.249
 7259SOL    HW122676   2.289   3.874   1.344
 7259SOL    HW222677   2.190   3.804   1.234
 7260SOL     OW22678   3.723   1.900   1.673
 7260SOL    HW122679   3.763   1.858   1.754
 7260SOL    HW222680   3.635   1.941   1.695
 7261SOL     OW22681   1.262   2.662   1.748
 7261SOL    HW122682   1.322   2.582   1.744
 7261SOL    HW222683   1.265   2.701   1.839
 7262SOL     OW22684   4.970   1.797   5.607
 7262SOL    HW122685   4.920   1.712   5.589
 7262SOL    HW222686   5.063   1.790   5.571
 7263SOL     OW22687   0.445   0.545   0.472
 7263SOL    HW122688   0.492   0.632   0.463
 7263SOL    HW222689   0.471   0.502   0.559
 7264SOL     OW22690   5.924   1.930   6.527
 7264SOL    HW122691   5.833   1.906   6.493
 7264SOL    HW222692   5.975   1.978   6.455
 7265SOL     OW22693   5.749   5.535   5.656
 7265SOL    HW122694   5.695   5.474   5.597
 7265SOL    HW222695   5.696   5.616   5.678
 7266SOL     OW22696   5.414   6.904   1.664
 7266SOL    HW122697   5.508   6.878   1.686
 7266SOL    HW222698   5.372   6.948   1.744
 7267SOL     OW22699   6.407   6.050   5.015
 7267SOL    HW122700   6.495   6.097   5.005
 7267SOL    HW222701   6.362   6.082   5.099
 7268SOL     OW22702   5.426   4.949   3.619
 7268SOL    HW122703   5.400   4.853   3.604
 7268SOL    HW222704   5.513   4.952   3.669
 7269SOL     OW22705   0.249   6.665   6.702
 7269SOL    HW122706   0.306   6.727   6.755
 7269SOL    HW222707   0.177   6.716   6.657
 7270SOL     OW22708   1.600   3.573   5.371
 7270SOL    HW122709   1.612   3.517   5.453
 7270SOL    HW222710   1.515   3.625   5.378
 7271SOL     OW22711   0.615   5.760   3.108
 7271SOL    HW122712   0.618   5.723   3.201
 7271SOL    HW222713   0.689   5.720   3.053
 7272SOL     OW22714   5.543   5.801   2.100
 7272SOL    HW122715   5.548   5.799   2.000
 7272SOL    HW222716   5.608   5.735   2.137
 7273SOL     OW22717   5.673   4.947   2.272
 7273SOL    HW122718   5.647   5.042   2.287
 7273SOL    HW222719   5.595   4.888   2.289
 7274SOL     OW22720   0.997   5.738   6.664
 7274SOL    HW122721   1.041   5.677   6.730
 7274SOL    HW222722   1.061   5.758   6.590
 7275SOL     OW22723   6.733   6.721   3.078
 7275SOL    HW122724   6.800   6.650   3.056
 7275SOL    HW222725   6.701   6.764   2.993
 7276SOL     OW22726   3.802   1.658   2.676
 7276SOL    HW122727   3.763   1.743   2.642
 7276SOL    HW222728   3.878   1.630   2.617
 7277SOL     OW22729   4.538   0.429   3.215
 7277SOL    HW122730   4.467   0.477   3.265
 7277SOL    HW222731   4.625   0.477   3.227
 7278SOL     OW22732   3.147   2.693   0.926
 7278SOL    HW122733   3.070   2.756   0.923
 7278SOL    HW222734   3.226   2.738   0.969
 7279SOL     OW22735   3.919   4.140   5.855
 7279SOL    HW122736   3.912   4.137   5.755
 7279SOL    HW222737   3.854   4.075   5.895
 7280SOL     OW22738   0.318   1.930   3.724
 7280SOL    HW122739   0.352   1.856   3.665
 7280SOL    HW222740   0.330   2.017   3.677
 7281SOL     OW22741   1.618   0.755   0.688
 7281SOL    HW122742   1.647   0.820   0.758
 7281SOL    HW222743   1.596   0.804   0.604
 7282SOL     OW22744   5.993   6.025   1.763
 7282SOL    HW122745   6.070   6.046   1.703
 7282SOL    HW222746   5.976   6.102   1.824
 7283SOL     OW22747   4.392   0.740   2.160
 7283SOL    HW122748   4.405   0.829   2.205
 7283SOL    HW222749   4.376   0.670   2.230
 7284SOL     OW22750   6.824   2.092   5.884
 7284SOL    HW122751   6.872   2.016   5.839
 7284SOL    HW222752   6.848   2.093   5.981
 7285SOL     OW22753   5.600   3.367   2.102
 7285SOL    HW122754   5.691   3.325   2.105
 7285SOL    HW222755   5.575   3.400   2.193
 7286SOL     OW22756   1.203   1.059   1.394
 7286SOL    HW122757   1.146   1.074   1.476
 7286SOL    HW222758   1.290   1.018   1.421
 7287SOL     OW22759   6.571   2.609   5.561
 7287SOL    HW122760   6.592   2.512   5.552
 7287SOL    HW222761   6.605   2.643   5.648
 7288SOL     OW22762   1.928   2.094   1.837
 7288SOL    HW122763   1.942   2.173   1.896
 7288SOL    HW222764   1.893   2.123   1.748
 7289SOL     OW22765   5.388   2.365   4.017
 7289SOL    HW122766   5.365   2.273   3.983
 7289SOL    HW222767   5.317   2.395   4.081
 7290SOL     OW22768   2.235   1.331   4.917
 7290SOL    HW122769   2.147   1.375   4.897
 7290SOL    HW222770   2.308   1.384   4.874
 7291SOL     OW22771   1.085   0.256   6.957
 7291SOL    HW122772   0.997   0.226   6.921
 7291SOL    HW222773   1.159   0.206   6.912
 7292SOL     OW22774   3.456   0.108   3.165
 7292SOL    HW122775   3.451   0.198   3.123
 7292SOL    HW222776   3.496   0.116   3.256
 7293SOL     OW22777   0.994   1.502   4.722
 7293SOL    HW122778   1.081   1.468   4.759
 7293SOL    HW222779   1.011   1.555   4.639
 7294SOL     OW22780   3.061   4.448   0.105
 7294SOL    HW122781   3.006   4.406   0.033
 7294SOL    HW222782   3.023   4.537   0.128
 7295SOL     OW22783   6.020   4.637   0.673
 7295SOL    HW122784   6.030   4.598   0.764
 7295SOL    HW222785   5.979   4.570   0.612
 7296SOL     OW22786   3.820   5.945   1.629
 7296SOL    HW122787   3.876   5.864   1.646
 7296SOL    HW222788   3.874   6.012   1.578
 7297SOL     OW22789   3.204   6.051   1.417
 7297SOL    HW122790   3.211   6.001   1.503
 7297SOL    HW222791   3.201   6.149   1.434
 7298SOL     OW22792   4.805   5.888   6.019
 7298SOL    HW122793   4.740   5.841   5.959
 7298SOL    HW222794   4.876   5.824   6.048
 7299SOL     OW22795   1.108   2.104   1.050
 7299SOL    HW122796   1.102   2.201   1.072
 7299SOL    HW222797   1.152   2.055   1.126
 7300SOL     OW22798   0.320   6.925   2.437
 7300SOL    HW122799   0.246   6.938   2.371
 7300SOL    HW222800   0.371   6.842   2.414
 7301SOL     OW22801   5.524   2.292   4.960
 7301SOL    HW122802   5.601   2.354   4.943
 7301SOL    HW222803   5.545   2.233   5.037
 7302SOL     OW22804   6.909   2.188   6.149
 7302SOL    HW122805   6.873   2.268   6.099
 7302SOL    HW222806   6.882   2.194   6.245
 7303SOL     OW22807   3.838   1.179   0.267
 7303SOL    HW122808   3.903   1.177   0.191
 7303SOL    HW222809   3.862   1.252   0.330
 7304SOL     OW22810   2.896   4.969   1.363
 7304SOL    HW122811   2.870   4.921   1.280
 7304SOL    HW222812   2.873   4.913   1.443
 7305SOL     OW22813   5.068   1.662   1.202
 7305SOL    HW122814   5.150   1.714   1.223
 7305SOL    HW222815   4.988   1.721   1.212
 7306SOL     OW22816   3.852   1.915   1.444
 7306SOL    HW122817   3.813   1.974   1.373
 7306SOL    HW222818   3.793   1.918   1.525
 7307SOL     OW22819   3.440   6.514   2.420
 7307SOL    HW122820   3.487   6.482   2.503
 7307SOL    HW222821   3.461   6.453   2.344
 7308SOL     OW22822   6.228   1.675   4.612
 7308SOL    HW122823   6.268   1.766   4.621
 7308SOL    HW222824   6.153   1.679   4.546
 7309SOL     OW22825   3.591   5.800   0.676
 7309SOL    HW122826   3.530   5.802   0.755
 7309SOL    HW222827   3.678   5.758   0.702
 7310SOL     OW22828   1.869   3.555   6.839
 7310SOL    HW122829   1.842   3.634   6.783
 7310SOL    HW222830   1.913   3.487   6.781
 7311SOL     OW22831   1.907   1.890   1.082
 7311SOL    HW122832   1.850   1.822   1.037
 7311SOL    HW222833   1.985   1.913   1.023
 7312SOL     OW22834   0.935   2.780   4.873
 7312SOL    HW122835   0.848   2.757   4.829
 7312SOL    HW222836   1.010   2.739   4.820
 7313SOL     OW22837   2.138   1.067   0.760
 7313SOL    HW122838   2.186   1.098   0.678
 7313SOL    HW222839   2.162   0.971   0.778
 7314SOL     OW22840   6.925   3.951   6.536
 7314SOL    HW122841   6.870   3.869   6.523
 7314SOL    HW222842   6.987   3.962   6.457
 7315SOL     OW22843   5.158   5.303   2.128
 7315SOL    HW122844   5.133   5.399   2.142
 7315SOL    HW222845   5.242   5.298   2.075
 7316SOL     OW22846   3.316   3.569   6.435
 7316SOL    HW122847   3.321   3.620   6.521
 7316SOL    HW222848   3.258   3.488   6.447
 7317SOL     OW22849   4.265   1.980   1.231
 7317SOL    HW122850   4.207   1.958   1.309
 7317SOL    HW222851   4.275   2.079   1.224
 7318SOL     OW22852   3.127   0.359   2.049
 7318SOL    HW122853   3.208   0.349   2.106
 7318SOL    HW222854   3.109   0.456   2.033
 7319SOL     OW22855   6.345   3.748   0.037
 7319SOL    HW122856   6.443   3.742   0.051
 7319SOL    HW222857   6.308   3.656   0.021
 7320SOL     OW22858   0.431   3.913   1.901
 7320SOL    HW122859   0.358   3.954   1.956
 7320SOL    HW222860   0.411   3.817   1.885
 7321SOL     OW22861   2.056   6.523   5.768
 7321SOL    HW122862   2.047   6.599   5.833
 7321SOL    HW222863   2.080   6.560   5.678
 7322SOL     OW22864   6.536   2.905   3.182
 7322SOL    HW122865   6.552   2.972   3.255
 7322SOL    HW222866   6.438   2.890   3.172
 7323SOL     OW22867   2.228   2.989   1.810
 7323SOL    HW122868   2.287   2.910   1.791
 7323SOL    HW222869   2.244   3.059   1.740
 7324SOL     OW22870   5.113   5.504   1.655
 7324SOL    HW122871   5.156   5.419   1.685
 7324SOL    HW222872   5.068   5.490   1.567
 7325SOL     OW22873   2.291   0.236   6.089
 7325SOL    HW122874   2.269   0.144   6.057
 7325SOL    HW222875   2.365   0.274   6.033
 7326SOL     OW22876   3.260   5.798   6.476
 7326SOL    HW122877   3.260   5.872   6.409
 7326SOL    HW222878   3.273   5.835   6.568
 7327SOL     OW22879   5.843   2.072   5.528
 7327SOL    HW122880   5.809   1.995   5.583
 7327SOL    HW222881   5.809   2.158   5.566
 7328SOL     OW22882   4.667   7.012   6.444
 7328SOL    HW122883   4.615   6.933   6.412
 7328SOL    HW222884   4.607   0.073   6.451
 7329SOL     OW22885   0.792   4.076   0.676
 7329SOL    HW122886   0.832   4.115   0.760
 7329SOL    HW222887   0.695   4.061   0.690
 7330SOL     OW22888   2.048   3.426   0.130
 7330SOL    HW122889   1.978   3.359   0.107
 7330SOL    HW222890   2.138   3.385   0.122
 7331SOL     OW22891   5.910   6.714   0.809
 7331SOL    HW122892   5.896   6.630   0.862
 7331SOL    HW222893   5.956   6.692   0.723
 7332SOL     OW22894   3.347   5.746   0.219
 7332SOL    HW122895   3.314   5.700   0.301
 7332SOL    HW222896   3.391   5.832   0.245
 7333SOL     OW22897   6.119   3.107   3.638
 7333SOL    HW122898   6.154   3.201   3.633
 7333SOL    HW222899   6.062   3.089   3.559
 7334SOL     OW22900   1.868   6.154   6.018
 7334SOL    HW122901   1.966   6.155   5.997
 7334SOL    HW222902   1.826   6.073   5.977
 7335SOL     OW22903   0.216   2.860   3.148
 7335SOL    HW122904   0.166   2.804   3.081
 7335SOL    HW222905   0.193   2.829   3.240
 7336SOL     OW22906   2.162   6.963   2.130
 7336SOL    HW122907   2.208   6.891   2.078
 7336SOL    HW222908   2.167   6.942   2.228
 7337SOL     OW22909   1.454   2.667   2.054
 7337SOL    HW122910   1.410   2.754   2.076
 7337SOL    HW222911   1.386   2.603   2.018
 7338SOL     OW22912   5.112   1.774   1.764
 7338SOL    HW122913   5.133   1.847   1.699
 7338SOL    HW222914   5.147   1.799   1.855
 7339SOL     OW22915   6.090   0.284   4.710
 7339SOL    HW122916   6.004   0.300   4.758
 7339SOL    HW222917   6.123   0.192   4.732
 7340SOL     OW22918   2.984   1.740   7.003
 7340SOL    HW122919   2.965   1.648   6.969
 7340SOL    HW222920   3.078   1.765   6.981
 7341SOL     OW22921   1.010   4.298   4.929
 7341SOL    HW122922   1.054   4.226   4.874
 7341SOL    HW222923   1.081   4.350   4.977
 7342SOL     OW22924   0.322   6.714   5.950
 7342SOL    HW122925   0.226   6.741   5.958
 7342SOL    HW222926   0.329   6.614   5.956
 7343SOL     OW22927   5.992   4.534   1.587
 7343SOL    HW122928   5.950   4.618   1.619
 7343SOL    HW222929   5.983   4.463   1.658
 7344SOL     OW22930   1.149   0.774   6.008
 7344SOL    HW122931   1.083   0.795   6.080
 7344SOL    HW222932   1.153   0.850   5.944
 7345SOL     OW22933   5.179   5.821   5.499
 7345SOL    HW122934   5.149   5.811   5.594
 7345SOL    HW222935   5.273   5.786   5.490
 7346SOL     OW22936   5.109   4.135   1.452
 7346SOL    HW122937   5.191   4.147   1.510
 7346SOL    HW222938   5.092   4.038   1.438
 7347SOL     OW22939   0.444   3.110   1.111
 7347SOL    HW122940   0.476   3.117   1.016
 7347SOL    HW222941   0.366   3.047   1.115
 7348SOL     OW22942   1.089   3.534   3.567
 7348SOL    HW122943   1.069   3.529   3.469
 7348SOL    HW222944   1.076   3.628   3.598
 7349SOL     OW22945   4.645   2.130   0.328
 7349SOL    HW122946   4.576   2.166   0.392
 7349SOL    HW222947   4.663   2.035   0.350
 7350SOL     OW22948   1.515   3.151   5.429
 7350SOL    HW122949   1.494   3.154   5.331
 7350SOL    HW222950   1.554   3.062   5.452
 7351SOL     OW22951   5.062   6.181   5.251
 7351SOL    HW122952   5.037   6.226   5.165
 7351SOL    HW222953   5.162   6.177   5.258
 7352SOL     OW22954   1.945   2.713   3.088
 7352SOL    HW122955   2.017   2.675   3.030
 7352SOL    HW222956   1.860   2.664   3.071
 7353SOL     OW22957   1.040   0.377   5.771
 7353SOL    HW122958   1.060   0.438   5.848
 7353SOL    HW222959   1.015   0.286   5.805
 7354SOL     OW22960   0.333   1.726   6.326
 7354SOL    HW122961   0.317   1.665   6.404
 7354SOL    HW222962   0.360   1.673   6.247
 7355SOL     OW22963   2.465   0.832   0.412
 7355SOL    HW122964   2.457   0.833   0.512
 7355SOL    HW222965   2.520   0.753   0.384
 7356SOL     OW22966   3.853   3.712   6.051
 7356SOL    HW122967   3.833   3.639   6.117
 7356SOL    HW222968   3.930   3.685   5.994
 7357SOL     OW22969   4.516   6.484   1.764
 7357SOL    HW122970   4.613   6.480   1.785
 7357SOL    HW222971   4.485   6.395   1.730
 7358SOL     OW22972   6.549   3.657   3.181
 7358SOL    HW122973   6.619   3.620   3.242
 7358SOL    HW222974   6.570   3.752   3.160
 7359SOL     OW22975   2.493   2.295   6.063
 7359SOL    HW122976   2.517   2.372   6.004
 7359SOL    HW222977   2.435   2.328   6.137
 7360SOL     OW22978   3.780   4.382   5.802
 7360SOL    HW122979   3.830   4.303   5.837
 7360SOL    HW222980   3.684   4.357   5.788
 7361SOL     OW22981   4.757   0.176   1.475
 7361SOL    HW122982   4.660   0.199   1.479
 7361SOL    HW222983   4.797   0.184   1.566
 7362SOL     OW22984   1.037   5.052   4.748
 7362SOL    HW122985   0.953   5.054   4.803
 7362SOL    HW222986   1.084   4.964   4.762
 7363SOL     OW22987   3.932   1.798   1.200
 7363SOL    HW122988   3.933   1.823   1.297
 7363SOL    HW222989   3.852   1.839   1.155
 7364SOL     OW22990   4.530   0.993   1.381
 7364SOL    HW122991   4.523   1.008   1.282
 7364SOL    HW222992   4.473   1.059   1.429
 7365SOL     OW22993   1.351   6.665   1.726
 7365SOL    HW122994   1.280   6.656   1.796
 7365SOL    HW222995   1.437   6.626   1.761
 7366SOL     OW22996   2.529   5.919   6.770
 7366SOL    HW122997   2.546   5.841   6.709
 7366SOL    HW222998   2.498   5.885   6.859
 7367SOL     OW22999   5.250   3.334   1.158
 7367SOL    HW123000   5.202   3.415   1.127
 7367SOL    HW223001   5.231   3.319   1.255
 7368SOL     OW23002   3.888   2.973   3.169
 7368SOL    HW123003   3.884   3.045   3.239
 7368SOL    HW223004   3.908   2.885   3.213
 7369SOL     OW23005   4.132   2.776   6.598
 7369SOL    HW123006   4.043   2.798   6.559
 7369SOL    HW223007   4.152   2.679   6.585
 7370SOL     OW23008   2.075   0.688   4.562
 7370SOL    HW123009   2.072   0.717   4.466
 7370SOL    HW223010   2.037   0.596   4.570
 7371SOL     OW23011   2.002   6.305   3.325
 7371SOL    HW123012   1.955   6.232   3.373
 7371SOL    HW223013   2.097   6.280   3.309
 7372SOL     OW23014   4.218   1.200   4.898
 7372SOL    HW123015   4.298   1.171   4.846
 7372SOL    HW223016   4.248   1.236   4.987
 7373SOL     OW23017   5.397   1.448   4.512
 7373SOL    HW123018   5.482   1.473   4.466
 7373SOL    HW223019   5.418   1.400   4.598
 7374SOL     OW23020   2.734   1.777   5.000
 7374SOL    HW123021   2.733   1.807   4.905
 7374SOL    HW223022   2.794   1.697   5.010
 7375SOL     OW23023   2.042   3.381   3.581
 7375SOL    HW123024   2.035   3.475   3.549
 7375SOL    HW223025   2.072   3.321   3.506
 7376SOL     OW23026   3.207   1.766   0.389
 7376SOL    HW123027   3.222   1.761   0.290
 7376SOL    HW223028   3.177   1.676   0.423
 7377SOL     OW23029   5.540   4.536   0.368
 7377SOL    HW123030   5.531   4.533   0.467
 7377SOL    HW223031   5.472   4.475   0.327
 7378SOL     OW23032   0.031   1.125   5.820
 7378SOL    HW123033   0.112   1.077   5.786
 7378SOL    HW223034   6.995   1.158   5.742
 7379SOL     OW23035   3.382   1.738   3.146
 7379SOL    HW123036   3.340   1.829   3.152
 7379SOL    HW223037   3.412   1.709   3.237
 7380SOL     OW23038   0.270   4.059   4.880
 7380SOL    HW123039   0.325   3.979   4.904
 7380SOL    HW223040   0.290   4.086   4.786
 7381SOL     OW23041   4.587   3.836   1.684
 7381SOL    HW123042   4.513   3.873   1.627
 7381SOL    HW223043   4.665   3.900   1.682
 7382SOL     OW23044   6.929   5.463   6.305
 7382SOL    HW123045   7.013   5.503   6.341
 7382SOL    HW223046   6.850   5.505   6.350
 7383SOL     OW23047   1.099   7.004   1.514
 7383SOL    HW123048   1.133   6.914   1.486
 7383SOL    HW223049   1.141   0.011   1.601
 7384SOL     OW23050   5.808   0.892   3.706
 7384SOL    HW123051   5.775   0.910   3.799
 7384SOL    HW223052   5.843   0.976   3.665
 7385SOL     OW23053   3.919   5.709   1.759
 7385SOL    HW123054   3.822   5.686   1.768
 7385SOL    HW223055   3.974   5.646   1.814
 7386SOL     OW23056   0.455   2.257   5.568
 7386SOL    HW123057   0.492   2.213   5.650
 7386SOL    HW223058   0.523   2.255   5.495
 7387SOL     OW23059   5.072   6.446   4.650
 7387SOL    HW123060   5.049   6.514   4.580
 7387SOL    HW223061   5.064   6.355   4.610
 7388SOL     OW23062   0.005   5.348   2.533
 7388SOL    HW123063   6.978   5.344   2.622
 7388SOL    HW223064   0.042   5.258   2.510
 7389SOL     OW23065   0.335   3.216   6.409
 7389SOL    HW123066   0.317   3.297   6.466
 7389SOL    HW223067   0.416   3.232   6.354
 7390SOL     OW23068   1.448   1.712   0.304
 7390SOL    HW123069   1.529   1.757   0.342
 7390SOL    HW223070   1.368   1.769   0.321
 7391SOL     OW23071   3.894   3.582   4.718
 7391SOL    HW123072   3.925   3.650   4.784
 7391SOL    HW223073   3.968   3.564   4.653
 7392SOL     OW23074   2.610   6.181   0.033
 7392SOL    HW123075   2.604   6.113   6.978
 7392SOL    HW223076   2.683   6.247   0.011
 7393SOL     OW23077   5.542   5.067   2.594
 7393SOL    HW123078   5.542   5.115   2.506
 7393SOL    HW223079   5.627   5.017   2.605
 7394SOL     OW23080   2.892   2.211   5.459
 7394SOL    HW123081   2.796   2.183   5.458
 7394SOL    HW223082   2.947   2.144   5.411
 7395SOL     OW23083   1.912   2.365   0.196
 7395SOL    HW123084   1.899   2.382   0.098
 7395SOL    HW223085   1.912   2.452   0.245
 7396SOL     OW23086   1.243   6.959   0.184
 7396SOL    HW123087   1.256   6.861   0.198
 7396SOL    HW223088   1.204   6.975   0.093
 7397SOL     OW23089   4.268   5.269   4.847
 7397SOL    HW123090   4.227   5.198   4.904
 7397SOL    HW223091   4.353   5.302   4.890
 7398SOL     OW23092   2.359   4.856   4.056
 7398SOL    HW123093   2.354   4.758   4.038
 7398SOL    HW223094   2.436   4.874   4.117
 7399SOL     OW23095   1.082   2.270   5.281
 7399SOL    HW123096   1.100   2.327   5.360
 7399SOL    HW223097   1.066   2.327   5.201
 7400SOL     OW23098   4.078   2.607   5.873
 7400SOL    HW123099   3.990   2.633   5.833
 7400SOL    HW223100   4.109   2.678   5.935
 7401SOL     OW23101   1.683   1.186   4.748
 7401SOL    HW123102   1.662   1.185   4.650
 7401SOL    HW223103   1.638   1.107   4.791
 7402SOL     OW23104   2.709   5.803   5.904
 7402SOL    HW123105   2.773   5.731   5.878
 7402SOL    HW223106   2.622   5.762   5.930
 7403SOL     OW23107   2.123   3.991   2.242
 7403SOL    HW123108   2.102   3.896   2.265
 7403SOL    HW223109   2.159   4.037   2.323
 7404SOL     OW23110   2.552   5.254   1.342
 7404SOL    HW123111   2.554   5.297   1.252
 7404SOL    HW223112   2.645   5.244   1.376
 7405SOL     OW23113   3.521   4.920   4.059
 7405SOL    HW123114   3.531   5.006   4.108
 7405SOL    HW223115   3.604   4.903   4.005
 7406SOL     OW23116   0.039   3.056   3.424
 7406SOL    HW123117   6.985   2.991   3.449
 7406SOL    HW223118   0.109   3.009   3.371
 7407SOL     OW23119   0.573   6.674   4.427
 7407SOL    HW123120   0.528   6.680   4.337
 7407SOL    HW223121   0.595   6.579   4.447
 7408SOL     OW23122   2.846   4.070   6.805
 7408SOL    HW123123   2.762   4.122   6.788
 7408SOL    HW223124   2.915   4.097   6.738
 7409SOL     OW23125   0.005   1.930   6.107
 7409SOL    HW123126   6.975   2.015   6.127
 7409SOL    HW223127   6.979   1.855   6.156
 7410SOL     OW23128   0.293   6.839   0.526
 7410SOL    HW123129   0.391   6.859   0.527
 7410SOL    HW223130   0.242   6.924   0.522
 7411SOL     OW23131   2.641   0.083   5.049
 7411SOL    HW123132   2.630   0.160   4.986
 7411SOL    HW223133   2.598   0.105   5.137
 7412SOL     OW23134   5.082   0.121   1.769
 7412SOL    HW123135   5.024   0.197   1.740
 7412SOL    HW223136   5.076   0.047   1.702
 7413SOL     OW23137   4.898   6.128   4.392
 7413SOL    HW123138   4.870   6.180   4.312
 7413SOL    HW223139   4.843   6.154   4.471
 7414SOL     OW23140   0.066   0.308   3.822
 7414SOL    HW123141   0.073   0.236   3.753
 7414SOL    HW223142   6.993   0.351   3.817
 7415SOL     OW23143   2.007   4.462   4.449
 7415SOL    HW123144   1.993   4.392   4.518
 7415SOL    HW223145   2.069   4.532   4.484
 7416SOL     OW23146   2.123   1.410   3.155
 7416SOL    HW123147   2.052   1.434   3.222
 7416SOL    HW223148   2.201   1.471   3.167
 7417SOL     OW23149   1.255   0.591   6.940
 7417SOL    HW123150   1.257   0.545   6.851
 7417SOL    HW223151   1.183   0.550   6.997
 7418SOL     OW23152   3.053   5.390   1.127
 7418SOL    HW123153   3.062   5.470   1.186
 7418SOL    HW223154   3.138   5.376   1.076
 7419SOL     OW23155   5.930   2.662   4.919
 7419SOL    HW123156   5.859   2.613   4.868
 7419SOL    HW223157   6.009   2.678   4.860
 7420SOL     OW23158   0.644   6.933   1.879
 7420SOL    HW123159   0.599   6.844   1.887
 7420SOL    HW223160   0.600   6.986   1.807
 7421SOL     OW23161   3.733   4.143   0.600
 7421SOL    HW123162   3.771   4.150   0.693
 7421SOL    HW223163   3.682   4.227   0.579
 7422SOL     OW23164   6.995   3.166   2.890
 7422SOL    HW123165   6.923   3.105   2.922
 7422SOL    HW223166   6.968   3.261   2.906
 7423SOL     OW23167   5.798   4.186   5.449
 7423SOL    HW123168   5.765   4.223   5.362
 7423SOL    HW223169   5.898   4.189   5.451
 7424SOL     OW23170   6.884   6.830   6.156
 7424SOL    HW123171   6.899   6.898   6.228
 7424SOL    HW223172   6.816   6.865   6.091
 7425SOL     OW23173   4.056   5.096   7.015
 7425SOL    HW123174   4.054   5.023   0.064
 7425SOL    HW223175   3.967   5.142   7.013
 7426SOL     OW23176   2.423   1.130   5.747
 7426SOL    HW123177   2.430   1.124   5.647
 7426SOL    HW223178   2.447   1.222   5.777
 7427SOL     OW23179   4.233   0.284   3.897
 7427SOL    HW123180   4.246   0.361   3.835
 7427SOL    HW223181   4.165   0.221   3.858
 7428SOL     OW23182   3.785   1.464   5.808
 7428SOL    HW123183   3.884   1.476   5.811
 7428SOL    HW223184   3.748   1.508   5.726
 7429SOL     OW23185   0.265   6.631   4.223
 7429SOL    HW123186   0.276   6.539   4.185
 7429SOL    HW223187   0.182   6.634   4.279
 7430SOL     OW23188   0.743   2.951   0.076
 7430SOL    HW123189   0.744   2.882   0.003
 7430SOL    HW223190   0.747   3.042   0.036
 7431SOL     OW23191   1.127   2.577   3.096
 7431SOL    HW123192   1.183   2.525   3.031
 7431SOL    HW223193   1.112   2.669   3.062
 7432SOL     OW23194   1.042   0.849   2.745
 7432SOL    HW123195   1.127   0.806   2.715
 7432SOL    HW223196   1.003   0.796   2.820
 7433SOL     OW23197   4.488   5.810   6.582
 7433SOL    HW123198   4.514   5.716   6.605
 7433SOL    HW223199   4.564   5.854   6.534
 7434SOL     OW23200   5.310   6.426   5.953
 7434SOL    HW123201   5.319   6.494   6.026
 7434SOL    HW223202   5.385   6.437   5.888
 7435SOL     OW23203   4.024   5.377   0.906
 7435SOL    HW123204   4.106   5.431   0.886
 7435SOL    HW223205   3.983   5.346   0.821
 7436SOL     OW23206   5.632   3.725   6.256
 7436SOL    HW123207   5.708   3.788   6.243
 7436SOL    HW223208   5.546   3.773   6.237
 7437SOL     OW23209   0.992   6.130   6.858
 7437SOL    HW123210   1.071   6.116   6.917
 7437SOL    HW223211   1.006   6.080   6.772
 7438SOL     OW23212   1.448   5.985   6.937
 7438SOL    HW123213   1.530   5.960   6.988
 7438SOL    HW223214   1.460   6.075   6.895
 7439SOL     OW23215   1.733   5.495   5.877
 7439SOL    HW123216   1.822   5.513   5.833
 7439SOL    HW223217   1.660   5.531   5.819
 7440SOL     OW23218   6.979   3.750   4.339
 7440SOL    HW123219   0.014   3.773   4.257
 7440SOL    HW223220   0.023   3.714   4.410
 7441SOL     OW23221   5.734   6.093   3.760
 7441SOL    HW123222   5.707   6.132   3.848
 7441SOL    HW223223   5.715   6.159   3.687
 7442SOL     OW23224   6.119   1.178   5.921
 7442SOL    HW123225   6.214   1.204   5.904
 7442SOL    HW223226   6.099   1.093   5.872
 7443SOL     OW23227   0.119   6.725   2.034
 7443SOL    HW123228   0.089   6.806   1.984
 7443SOL    HW223229   0.215   6.735   2.060
 7444SOL     OW23230   5.830   2.800   5.396
 7444SOL    HW123231   5.838   2.702   5.417
 7444SOL    HW223232   5.820   2.812   5.298
 7445SOL     OW23233   3.751   1.178   1.393
 7445SOL    HW123234   3.787   1.086   1.409
 7445SOL    HW223235   3.655   1.172   1.363
 7446SOL     OW23236   6.060   3.389   0.829
 7446SOL    HW123237   6.057   3.368   0.731
 7446SOL    HW223238   6.119   3.323   0.875
 7447SOL     OW23239   0.624   3.255   6.530
 7447SOL    HW123240   0.530   3.255   6.562
 7447SOL    HW223241   0.685   3.279   6.606
 7448SOL     OW23242   6.746   6.144   5.283
 7448SOL    HW123243   6.751   6.091   5.198
 7448SOL    HW223244   6.823   6.119   5.342
 7449SOL     OW23245   6.801   3.833   1.924
 7449SOL    HW123246   6.899   3.841   1.942
 7449SOL    HW223247   6.759   3.778   1.996
 7450SOL     OW23248   5.333   2.187   4.498
 7450SOL    HW123249   5.378   2.122   4.437
 7450SOL    HW223250   5.385   2.195   4.583
 7451SOL     OW23251   6.843   0.222   2.987
 7451SOL    HW123252   6.782   0.283   3.037
 7451SOL    HW223253   6.867   0.264   2.899
 7452SOL     OW23254   0.331   6.488   4.569
 7452SOL    HW123255   0.343   6.570   4.626
 7452SOL    HW223256   0.273   6.423   4.617
 7453SOL     OW23257   4.566   0.241   5.738
 7453SOL    HW123258   4.578   0.340   5.730
 7453SOL    HW223259   4.498   0.211   5.672
 7454SOL     OW23260   0.413   2.381   2.549
 7454SOL    HW123261   0.370   2.429   2.626
 7454SOL    HW223262   0.409   2.439   2.468
 7455SOL     OW23263   0.043   1.688   2.422
 7455SOL    HW123264   0.007   1.620   2.358
 7455SOL    HW223265   0.059   1.645   2.511
 7456SOL     OW23266   0.606   1.540   4.315
 7456SOL    HW123267   0.509   1.559   4.329
 7456SOL    HW223268   0.650   1.526   4.404
 7457SOL     OW23269   3.780   7.017   5.857
 7457SOL    HW123270   3.862   0.005   5.800
 7457SOL    HW223271   3.768   0.085   5.906
 7458SOL     OW23272   1.674   6.400   5.480
 7458SOL    HW123273   1.669   6.491   5.520
 7458SOL    HW223274   1.712   6.336   5.547
 7459SOL     OW23275   4.409   0.590   1.587
 7459SOL    HW123276   4.458   0.640   1.515
 7459SOL    HW223277   4.402   0.648   1.668
 7460SOL     OW23278   1.109   5.609   0.921
 7460SOL    HW123279   1.099   5.583   1.017
 7460SOL    HW223280   1.040   5.562   0.866
 7461SOL     OW23281   5.755   1.356   6.016
 7461SOL    HW123282   5.743   1.412   6.098
 7461SOL    HW223283   5.798   1.411   5.944
 7462SOL     OW23284   2.134   3.853   2.648
 7462SOL    HW123285   2.183   3.940   2.648
 7462SOL    HW223286   2.105   3.830   2.555
 7463SOL     OW23287   2.321   4.542   1.249
 7463SOL    HW123288   2.322   4.622   1.190
 7463SOL    HW223289   2.274   4.467   1.202
 7464SOL     OW23290   5.194   0.814   6.970
 7464SOL    HW123291   5.190   0.911   6.993
 7464SOL    HW223292   5.140   0.797   6.888
 7465SOL     OW23293   1.025   5.789   7.001
 7465SOL    HW123294   1.100   5.799   6.936
 7465SOL    HW223295   1.060   5.802   0.076
 7466SOL     OW23296   6.740   0.563   5.421
 7466SOL    HW123297   6.642   0.565   5.436
 7466SOL    HW223298   6.786   0.623   5.487
 7467SOL     OW23299   0.339   1.547   1.030
 7467SOL    HW123300   0.404   1.611   1.072
 7467SOL    HW223301   0.316   1.475   1.095
 7468SOL     OW23302   5.547   2.720   3.548
 7468SOL    HW123303   5.546   2.635   3.494
 7468SOL    HW223304   5.456   2.761   3.547
 7469SOL     OW23305   6.972   1.113   0.931
 7469SOL    HW123306   6.973   1.210   0.959
 7469SOL    HW223307   6.889   1.093   0.880
 7470SOL     OW23308   6.384   3.495   4.255
 7470SOL    HW123309   6.439   3.413   4.239
 7470SOL    HW223310   6.287   3.473   4.243
 7471SOL     OW23311   6.041   6.311   6.439
 7471SOL    HW123312   6.110   6.376   6.472
 7471SOL    HW223313   6.043   6.229   6.496
 7472SOL     OW23314   6.678   6.684   4.906
 7472SOL    HW123315   6.637   6.657   4.993
 7472SOL    HW223316   6.686   6.604   4.846
 7473SOL     OW23317   6.123   5.199   3.241
 7473SOL    HW123318   6.205   5.144   3.229
 7473SOL    HW223319   6.069   5.164   3.316
 7474SOL     OW23320   1.142   1.397   5.337
 7474SOL    HW123321   1.177   1.314   5.380
 7474SOL    HW223322   1.053   1.420   5.377
 7475SOL     OW23323   4.993   2.036   2.082
 7475SOL    HW123324   4.958   2.129   2.071
 7475SOL    HW223325   4.953   1.996   2.165
 7476SOL     OW23326   3.451   0.465   4.029
 7476SOL    HW123327   3.478   0.446   3.935
 7476SOL    HW223328   3.506   0.410   4.091
 7477SOL     OW23329   0.328   0.950   5.271
 7477SOL    HW123330   0.422   0.964   5.303
 7477SOL    HW223331   0.313   0.852   5.256
 7478SOL     OW23332   4.800   5.416   6.345
 7478SOL    HW123333   4.889   5.432   6.388
 7478SOL    HW223334   4.804   5.334   6.288
 7479SOL     OW23335   4.408   2.458   1.984
 7479SOL    HW123336   4.405   2.516   1.903
 7479SOL    HW223337   4.317   2.423   2.004
 7480SOL     OW23338   0.532   4.111   2.256
 7480SOL    HW123339   0.534   4.073   2.348
 7480SOL    HW223340   0.558   4.207   2.259
 7481SOL     OW23341   6.152   5.268   1.469
 7481SOL    HW123342   6.211   5.239   1.393
 7481SOL    HW223343   6.117   5.360   1.451
 7482SOL     OW23344   4.674   2.406   2.936
 7482SOL    HW123345   4.599   2.442   2.991
 7482SOL    HW223346   4.690   2.310   2.960
 7483SOL     OW23347   4.637   2.673   4.396
 7483SOL    HW123348   4.644   2.708   4.303
 7483SOL    HW223349   4.619   2.749   4.459
 7484SOL     OW23350   1.664   0.294   3.897
 7484SOL    HW123351   1.712   0.300   3.984
 7484SOL    HW223352   1.717   0.238   3.833
 7485SOL     OW23353   3.400   6.870   4.718
 7485SOL    HW123354   3.316   6.816   4.713
 7485SOL    HW223355   3.473   6.814   4.755
 7486SOL     OW23356   1.885   6.806   0.490
 7486SOL    HW123357   1.906   6.852   0.403
 7486SOL    HW223358   1.792   6.831   0.519
 7487SOL     OW23359   2.087   6.863   2.765
 7487SOL    HW123360   2.007   6.905   2.807
 7487SOL    HW223361   2.161   6.857   2.833
 7488SOL     OW23362   2.784   0.414   3.829
 7488SOL    HW123363   2.872   0.414   3.876
 7488SOL    HW223364   2.771   0.325   3.785
 7489SOL     OW23365   5.112   2.638   5.321
 7489SOL    HW123366   5.202   2.620   5.280
 7489SOL    HW223367   5.117   2.622   5.419
 7490SOL     OW23368   1.144   0.942   2.166
 7490SOL    HW123369   1.114   0.876   2.097
 7490SOL    HW223370   1.196   1.015   2.123
 7491SOL     OW23371   5.579   2.119   6.438
 7491SOL    HW123372   5.655   2.165   6.484
 7491SOL    HW223373   5.503   2.183   6.428
 7492SOL     OW23374   2.078   0.435   3.174
 7492SOL    HW123375   2.168   0.393   3.163
 7492SOL    HW223376   2.076   0.523   3.127
 7493SOL     OW23377   0.342   3.431   6.588
 7493SOL    HW123378   0.356   3.530   6.590
 7493SOL    HW223379   0.393   3.388   6.662
 7494SOL     OW23380   5.213   0.941   2.523
 7494SOL    HW123381   5.163   0.948   2.609
 7494SOL    HW223382   5.310   0.953   2.539
 7495SOL     OW23383   1.954   1.838   0.259
 7495SOL    HW123384   2.023   1.787   0.207
 7495SOL    HW223385   1.879   1.863   0.199
 7496SOL     OW23386   6.174   3.368   5.648
 7496SOL    HW123387   6.112   3.446   5.658
 7496SOL    HW223388   6.147   3.296   5.712
 7497SOL     OW23389   2.726   4.271   6.483
 7497SOL    HW123390   2.686   4.354   6.443
 7497SOL    HW223391   2.823   4.287   6.502
 7498SOL     OW23392   3.153   0.784   5.567
 7498SOL    HW123393   3.240   0.776   5.615
 7498SOL    HW223394   3.127   0.881   5.561
 7499SOL     OW23395   3.551   1.575   2.996
 7499SOL    HW123396   3.643   1.600   2.964
 7499SOL    HW223397   3.510   1.654   3.042
 7500SOL     OW23398   3.225   5.212   3.033
 7500SOL    HW123399   3.276   5.156   3.099
 7500SOL    HW223400   3.212   5.159   2.949
 7501SOL     OW23401   5.033   3.991   4.783
 7501SOL    HW123402   4.965   3.968   4.853
 7501SOL    HW223403   5.076   3.907   4.750
 7502SOL     OW23404   2.042   0.629   4.266
 7502SOL    HW123405   2.132   0.667   4.243
 7502SOL    HW223406   1.970   0.689   4.231
 7503SOL     OW23407   2.477   0.354   1.378
 7503SOL    HW123408   2.469   0.340   1.279
 7503SOL    HW223409   2.388   0.342   1.421
 7504SOL     OW23410   1.368   6.992   2.777
 7504SOL    HW123411   1.281   0.015   2.751
 7504SOL    HW223412   1.415   0.035   2.842
 7505SOL     OW23413   1.863   1.880   5.237
 7505SOL    HW123414   1.769   1.913   5.236
 7505SOL    HW223415   1.923   1.947   5.192
 7506SOL     OW23416   5.562   0.921   3.098
 7506SOL    HW123417   5.633   0.981   3.061
 7506SOL    HW223418   5.554   0.840   3.041
 7507SOL     OW23419   0.377   1.075   2.507
 7507SOL    HW123420   0.463   1.024   2.508
 7507SOL    HW223421   0.323   1.052   2.588
 7508SOL     OW23422   1.204   0.116   1.753
 7508SOL    HW123423   1.278   0.102   1.820
 7508SOL    HW223424   1.117   0.124   1.801
 7509SOL     OW23425   5.558   4.495   0.649
 7509SOL    HW123426   5.631   4.489   0.717
 7509SOL    HW223427   5.471   4.471   0.691
 7510SOL     OW23428   4.044   3.790   5.621
 7510SOL    HW123429   4.120   3.845   5.586
 7510SOL    HW223430   4.071   3.747   5.707
 7511SOL     OW23431   2.416   6.507   3.491
 7511SOL    HW123432   2.484   6.567   3.534
 7511SOL    HW223433   2.391   6.544   3.401
 7512SOL     OW23434   2.847   6.339   6.617
 7512SOL    HW123435   2.938   6.299   6.610
 7512SOL    HW223436   2.788   6.301   6.545
 7513SOL     OW23437   2.841   0.688   1.443
 7513SOL    HW123438   2.828   0.716   1.538
 7513SOL    HW223439   2.820   0.764   1.382
 7514SOL     OW23440   2.528   6.126   1.954
 7514SOL    HW123441   2.431   6.150   1.954
 7514SOL    HW223442   2.562   6.126   1.860
 7515SOL     OW23443   0.060   5.115   2.976
 7515SOL    HW123444   0.105   5.146   3.060
 7515SOL    HW223445   0.122   5.126   2.899
 7516SOL     OW23446   0.238   6.728   5.421
 7516SOL    HW123447   0.191   6.747   5.335
 7516SOL    HW223448   0.214   6.798   5.488
 7517SOL     OW23449   7.002   2.982   1.015
 7517SOL    HW123450   0.028   2.948   1.098
 7517SOL    HW223451   0.053   3.018   0.953
 7518SOL     OW23452   4.380   4.590   4.066
 7518SOL    HW123453   4.406   4.668   4.122
 7518SOL    HW223454   4.280   4.580   4.066
 7519SOL     OW23455   0.335   6.323   3.126
 7519SOL    HW123456   0.266   6.262   3.089
 7519SOL    HW223457   0.421   6.273   3.140
 7520SOL     OW23458   2.511   0.198   2.112
 7520SOL    HW123459   2.601   0.182   2.071
 7520SOL    HW223460   2.519   0.268   2.184
 7521SOL     OW23461   5.126   4.330   6.081
 7521SOL    HW123462   5.055   4.281   6.030
 7521SOL    HW223463   5.216   4.300   6.048
 7522SOL     OW23464   1.557   1.107   6.134
 7522SOL    HW123465   1.643   1.088   6.180
 7522SOL    HW223466   1.562   1.199   6.093
 7523SOL     OW23467   6.059   0.344   5.855
 7523SOL    HW123468   6.117   0.417   5.819
 7523SOL    HW223469   5.993   0.317   5.785
 7524SOL     OW23470   1.438   2.407   5.546
 7524SOL    HW123471   1.386   2.461   5.480
 7524SOL    HW223472   1.389   2.321   5.565
 7525SOL     OW23473   3.296   0.814   6.055
 7525SOL    HW123474   3.241   0.860   6.125
 7525SOL    HW223475   3.239   0.796   5.974
 7526SOL     OW23476   2.997   3.238   2.132
 7526SOL    HW123477   2.952   3.289   2.205
 7526SOL    HW223478   3.055   3.299   2.079
 7527SOL     OW23479   2.975   6.281   3.011
 7527SOL    HW123480   3.049   6.231   2.968
 7527SOL    HW223481   2.929   6.223   3.078
 7528SOL     OW23482   5.615   2.291   0.387
 7528SOL    HW123483   5.531   2.238   0.379
 7528SOL    HW223484   5.612   2.347   0.470
 7529SOL     OW23485   4.826   1.136   4.671
 7529SOL    HW123486   4.809   1.175   4.762
 7529SOL    HW223487   4.740   1.136   4.620
 7530SOL     OW23488   6.620   3.074   2.932
 7530SOL    HW123489   6.692   3.061   3.000
 7530SOL    HW223490   6.530   3.068   2.976
 7531SOL     OW23491   5.485   3.497   4.788
 7531SOL    HW123492   5.417   3.445   4.840
 7531SOL    HW223493   5.462   3.496   4.691
 7532SOL     OW23494   4.581   5.625   6.967
 7532SOL    HW123495   4.596   5.713   6.922
 7532SOL    HW223496   4.540   5.641   0.039
 7533SOL     OW23497   2.674   1.551   1.905
 7533SOL    HW123498   2.669   1.616   1.829
 7533SOL    HW223499   2.707   1.463   1.872
 7534SOL     OW23500   4.869   6.223   5.499
 7534SOL    HW123501   4.954   6.218   5.445
 7534SOL    HW223502   4.868   6.308   5.551
 7535SOL     OW23503   1.978   0.430   5.009
 7535SOL    HW123504   1.979   0.341   5.056
 7535SOL    HW223505   2.058   0.437   4.951
 7536SOL     OW23506   4.793   4.878   4.527
 7536SOL    HW123507   4.794   4.853   4.623
 7536SOL    HW223508   4.767   4.799   4.472
 7537SOL     OW23509   2.887   5.515   2.119
 7537SOL    HW123510   2.817   5.584   2.099
 7537SOL    HW223511   2.971   5.561   2.147
 7538SOL     OW23512   1.956   3.016   1.620
 7538SOL    HW123513   2.049   2.983   1.606
 7538SOL    HW223514   1.902   2.945   1.665
 7539SOL     OW23515   1.577   3.884   4.033
 7539SOL    HW123516   1.525   3.838   3.961
 7539SOL    HW223517   1.606   3.817   4.101
 7540SOL     OW23518   4.080   0.575   4.571
 7540SOL    HW123519   3.989   0.562   4.530
 7540SOL    HW223520   4.103   0.494   4.625
 7541SOL     OW23521   0.259   4.792   5.116
 7541SOL    HW123522   0.174   4.791   5.167
 7541SOL    HW223523   0.287   4.887   5.100
 7542SOL     OW23524   1.277   5.183   6.525
 7542SOL    HW123525   1.211   5.234   6.580
 7542SOL    HW223526   1.264   5.203   6.428
 7543SOL     OW23527   4.004   1.501   6.421
 7543SOL    HW123528   3.926   1.508   6.359
 7543SOL    HW223529   3.988   1.557   6.502
 7544SOL     OW23530   6.792   2.341   3.097
 7544SOL    HW123531   6.811   2.389   3.183
 7544SOL    HW223532   6.864   2.274   3.080
 7545SOL     OW23533   0.510   5.729   0.657
 7545SOL    HW123534   0.474   5.816   0.693
 7545SOL    HW223535   0.579   5.748   0.588
 7546SOL     OW23536   3.546   2.130   1.734
 7546SOL    HW123537   3.453   2.167   1.730
 7546SOL    HW223538   3.599   2.182   1.802
 7547SOL     OW23539   5.372   1.573   0.674
 7547SOL    HW123540   5.301   1.611   0.734
 7547SOL    HW223541   5.436   1.646   0.649
 7548SOL     OW23542   4.420   1.162   6.646
 7548SOL    HW123543   4.333   1.212   6.638
 7548SOL    HW223544   4.463   1.185   6.733
 7549SOL     OW23545   4.352   2.659   0.231
 7549SOL    HW123546   4.438   2.665   0.180
 7549SOL    HW223547   4.365   2.694   0.323
 7550SOL     OW23548   2.337   5.174   2.772
 7550SOL    HW123549   2.368   5.186   2.866
 7550SOL    HW223550   2.380   5.242   2.714
 7551SOL     OW23551   5.229   3.359   6.128
 7551SOL    HW123552   5.220   3.319   6.219
 7551SOL    HW223553   5.290   3.302   6.073
 7552SOL     OW23554   1.365   6.403   2.891
 7552SOL    HW123555   1.438   6.338   2.871
 7552SOL    HW223556   1.390   6.494   2.857
 7553SOL     OW23557   4.460   6.448   5.556
 7553SOL    HW123558   4.463   6.516   5.629
 7553SOL    HW223559   4.366   6.434   5.526
 7554SOL     OW23560   4.652   1.171   0.646
 7554SOL    HW123561   4.644   1.259   0.692
 7554SOL    HW223562   4.568   1.151   0.596
 7555SOL     OW23563   2.243   4.648   5.799
 7555SOL    HW123564   2.341   4.635   5.809
 7555SOL    HW223565   2.196   4.607   5.877
 7556SOL     OW23566   1.896   3.204   0.138
 7556SOL    HW123567   1.908   3.203   0.238
 7556SOL    HW223568   1.801   3.224   0.116
 7557SOL     OW23569   5.128   0.916   5.378
 7557SOL    HW123570   5.097   1.008   5.404
 7557SOL    HW223571   5.049   0.855   5.371
 7558SOL     OW23572   1.295   2.565   4.007
 7558SOL    HW123573   1.279   2.616   4.092
 7558SOL    HW223574   1.242   2.480   4.009
 7559SOL     OW23575   5.302   3.516   0.584
 7559SOL    HW123576   5.312   3.457   0.665
 7559SOL    HW223577   5.354   3.477   0.508
 7560SOL     OW23578   5.626   0.314   0.869
 7560SOL    HW123579   5.561   0.357   0.933
 7560SOL    HW223580   5.628   0.215   0.886
 7561SOL     OW23581   0.734   3.180   6.961
 7561SOL    HW123582   0.670   3.230   0.002
 7561SOL    HW223583   0.822   3.228   6.960
 7562SOL     OW23584   0.514   6.055   4.034
 7562SOL    HW123585   0.593   6.028   3.979
 7562SOL    HW223586   0.490   5.981   4.096
 7563SOL     OW23587   3.040   0.233   1.766
 7563SOL    HW123588   2.989   0.317   1.783
 7563SOL    HW223589   3.063   0.190   1.854
 7564SOL     OW23590   4.384   0.288   2.997
 7564SOL    HW123591   4.353   0.197   3.024
 7564SOL    HW223592   4.467   0.312   3.047
 7565SOL     OW23593   5.366   3.345   0.812
 7565SOL    HW123594   5.442   3.344   0.877
 7565SOL    HW223595   5.336   3.251   0.795
 7566SOL     OW23596   6.474   4.666   2.873
 7566SOL    HW123597   6.570   4.693   2.870
 7566SOL    HW223598   6.467   4.566   2.866
 7567SOL     OW23599   2.204   2.159   4.652
 7567SOL    HW123600   2.121   2.153   4.597
 7567SOL    HW223601   2.266   2.226   4.612
 7568SOL     OW23602   5.251   6.072   3.302
 7568SOL    HW123603   5.349   6.089   3.297
 7568SOL    HW223604   5.201   6.153   3.270
 7569SOL     OW23605   3.920   4.820   5.836
 7569SOL    HW123606   3.916   4.741   5.776
 7569SOL    HW223607   3.856   4.890   5.805
 7570SOL     OW23608   5.568   3.983   5.471
 7570SOL    HW123609   5.543   3.904   5.414
 7570SOL    HW223610   5.648   4.029   5.433
 7571SOL     OW23611   4.095   5.235   3.282
 7571SOL    HW123612   4.000   5.214   3.305
 7571SOL    HW223613   4.151   5.153   3.295
 7572SOL     OW23614   4.207   1.398   1.100
 7572SOL    HW123615   4.180   1.403   1.004
 7572SOL    HW223616   4.130   1.422   1.159
 7573SOL     OW23617   0.047   0.666   5.709
 7573SOL    HW123618   0.082   0.728   5.780
 7573SOL    HW223619   0.095   0.684   5.623
 7574SOL     OW23620   5.196   0.332   5.477
 7574SOL    HW123621   5.120   0.342   5.541
 7574SOL    HW223622   5.163   0.292   5.392
 7575SOL     OW23623   4.897   0.450   5.975
 7575SOL    HW123624   4.805   0.415   5.959
 7575SOL    HW223625   4.909   0.468   6.072
 7576SOL     OW23626   4.703   3.831   0.153
 7576SOL    HW123627   4.719   3.909   0.092
 7576SOL    HW223628   4.670   3.753   0.099
 7577SOL     OW23629   0.715   0.062   6.589
 7577SOL    HW123630   0.654   7.004   6.607
 7577SOL    HW223631   0.764   0.046   6.504
 7578SOL     OW23632   1.794   5.003   1.361
 7578SOL    HW123633   1.723   5.071   1.344
 7578SOL    HW223634   1.872   5.021   1.301
 7579SOL     OW23635   0.566   1.007   2.054
 7579SOL    HW123636   0.520   1.043   2.135
 7579SOL    HW223637   0.508   0.936   2.013
 7580SOL     OW23638   0.879   4.136   4.452
 7580SOL    HW123639   0.847   4.107   4.542
 7580SOL    HW223640   0.916   4.229   4.458
 7581SOL     OW23641   7.002   1.319   1.762
 7581SOL    HW123642   0.053   1.314   1.690
 7581SOL    HW223643   7.012   1.241   1.824
 7582SOL     OW23644   3.866   1.329   1.573
 7582SOL    HW123645   3.825   1.276   1.499
 7582SOL    HW223646   3.878   1.271   1.653
 7583SOL     OW23647   5.845   3.202   2.039
 7583SOL    HW123648   5.918   3.140   2.067
 7583SOL    HW223649   5.759   3.150   2.033
 7584SOL     OW23650   3.204   6.673   1.654
 7584SOL    HW123651   3.176   6.741   1.587
 7584SOL    HW223652   3.270   6.610   1.614
 7585SOL     OW23653   1.591   2.771   6.992
 7585SOL    HW123654   1.684   2.803   6.977
 7585SOL    HW223655   1.593   2.689   0.032
 7586SOL     OW23656   3.096   0.117   3.708
 7586SOL    HW123657   3.130   0.173   3.784
 7586SOL    HW223658   3.128   0.156   3.621
 7587SOL     OW23659   2.391   2.740   0.113
 7587SOL    HW123660   2.402   2.805   0.188
 7587SOL    HW223661   2.333   2.780   0.042
 7588SOL     OW23662   1.654   2.926   3.565
 7588SOL    HW123663   1.694   2.996   3.625
 7588SOL    HW223664   1.595   2.866   3.619
 7589SOL     OW23665   0.817   0.468   2.528
 7589SOL    HW123666   0.770   0.544   2.482
 7589SOL    HW223667   0.826   0.489   2.625
 7590SOL     OW23668   3.668   1.852   6.258
 7590SOL    HW123669   3.761   1.860   6.292
 7590SOL    HW223670   3.643   1.937   6.210
 7591SOL     OW23671   6.973   3.820   0.616
 7591SOL    HW123672   0.008   3.738   0.596
 7591SOL    HW223673   6.875   3.798   0.611
 7592SOL     OW23674   6.577   5.077   4.506
 7592SOL    HW123675   6.535   5.000   4.553
 7592SOL    HW223676   6.546   5.079   4.410
 7593SOL     OW23677   6.459   3.063   0.394
 7593SOL    HW123678   6.398   3.000   0.345
 7593SOL    HW223679   6.467   3.148   0.342
 7594SOL     OW23680   1.113   4.815   2.153
 7594SOL    HW123681   1.157   4.808   2.242
 7594SOL    HW223682   1.116   4.910   2.121
 7595SOL     OW23683   6.345   2.988   5.884
 7595SOL    HW123684   6.423   3.033   5.841
 7595SOL    HW223685   6.265   2.995   5.825
 7596SOL     OW23686   3.594   5.956   3.707
 7596SOL    HW123687   3.684   5.970   3.664
 7596SOL    HW223688   3.604   5.961   3.806
 7597SOL     OW23689   2.165   6.380   2.880
 7597SOL    HW123690   2.225   6.432   2.942
 7597SOL    HW223691   2.096   6.332   2.934
 7598SOL     OW23692   0.518   1.041   3.228
 7598SOL    HW123693   0.458   0.978   3.276
 7598SOL    HW223694   0.526   1.127   3.279
 7599SOL     OW23695   5.844   2.382   2.008
 7599SOL    HW123696   5.865   2.329   1.925
 7599SOL    HW223697   5.753   2.357   2.041
 7600SOL     OW23698   1.546   1.807   3.021
 7600SOL    HW123699   1.636   1.772   3.044
 7600SOL    HW223700   1.532   1.897   3.062
 7601SOL     OW23701   1.679   5.046   2.652
 7601SOL    HW123702   1.741   5.113   2.691
 7601SOL    HW223703   1.589   5.053   2.696
 7602SOL     OW23704   2.309   4.043   6.413
 7602SOL    HW123705   2.263   3.957   6.436
 7602SOL    HW223706   2.407   4.033   6.427
 7603SOL     OW23707   1.444   5.834   6.010
 7603SOL    HW123708   1.452   5.925   5.970
 7603SOL    HW223709   1.355   5.795   5.985
 7604SOL     OW23710   2.071   4.019   4.818
 7604SOL    HW123711   2.159   4.016   4.865
 7604SOL    HW223712   2.009   4.080   4.867
 7605SOL     OW23713   1.376   0.651   1.537
 7605SOL    HW123714   1.286   0.692   1.519
 7605SOL    HW223715   1.447   0.718   1.520
 7606SOL     OW23716   6.223   4.121   5.271
 7606SOL    HW123717   6.311   4.156   5.238
 7606SOL    HW223718   6.155   4.129   5.198
 7607SOL     OW23719   3.821   5.636   0.309
 7607SOL    HW123720   3.850   5.658   0.402
 7607SOL    HW223721   3.750   5.566   0.311
 7608SOL     OW23722   4.164   3.914   1.715
 7608SOL    HW123723   4.233   3.847   1.689
 7608SOL    HW223724   4.200   4.006   1.701
 7609SOL     OW23725   1.200   3.267   4.523
 7609SOL    HW123726   1.292   3.286   4.489
 7609SOL    HW223727   1.188   3.168   4.534
 7610SOL     OW23728   4.696   4.685   6.398
 7610SOL    HW123729   4.792   4.706   6.414
 7610SOL    HW223730   4.641   4.768   6.408
 7611SOL     OW23731   6.190   3.551   2.161
 7611SOL    HW123732   6.111   3.586   2.212
 7611SOL    HW223733   6.164   3.538   2.065
 7612SOL     OW23734   4.755   2.866   2.625
 7612SOL    HW123735   4.690   2.791   2.628
 7612SOL    HW223736   4.787   2.879   2.531
 7613SOL     OW23737   6.740   2.912   0.876
 7613SOL    HW123738   6.815   2.978   0.870
 7613SOL    HW223739   6.696   2.902   0.787
 7614SOL     OW23740   4.981   3.678   0.834
 7614SOL    HW123741   4.891   3.684   0.791
 7614SOL    HW223742   5.025   3.592   0.810
 7615SOL     OW23743   3.676   5.409   0.407
 7615SOL    HW123744   3.611   5.410   0.331
 7615SOL    HW223745   3.708   5.315   0.421
 7616SOL     OW23746   5.750   5.978   4.480
 7616SOL    HW123747   5.708   5.889   4.497
 7616SOL    HW223748   5.703   6.048   4.533
 7617SOL     OW23749   3.660   5.833   2.398
 7617SOL    HW123750   3.681   5.787   2.484
 7617SOL    HW223751   3.673   5.931   2.409
 7618SOL     OW23752   6.701   1.718   5.244
 7618SOL    HW123753   6.646   1.692   5.324
 7618SOL    HW223754   6.713   1.817   5.243
 7619SOL     OW23755   6.104   2.955   5.319
 7619SOL    HW123756   6.161   2.895   5.263
 7619SOL    HW223757   6.026   2.903   5.355
 7620SOL     OW23758   4.144   5.813   0.947
 7620SOL    HW123759   4.126   5.896   0.894
 7620SOL    HW223760   4.064   5.754   0.945
 7621SOL     OW23761   6.725   1.652   1.442
 7621SOL    HW123762   6.720   1.619   1.348
 7621SOL    HW223763   6.745   1.576   1.503
 7622SOL     OW23764   4.429   5.043   0.026
 7622SOL    HW123765   4.504   5.061   6.980
 7622SOL    HW223766   4.408   4.945   0.027
 7623SOL     OW23767   5.081   4.040   0.128
 7623SOL    HW123768   4.995   4.070   0.170
 7623SOL    HW223769   5.083   3.940   0.124
 7624SOL     OW23770   0.150   3.159   4.804
 7624SOL    HW123771   0.082   3.178   4.733
 7624SOL    HW223772   0.241   3.182   4.771
 7625SOL     OW23773   4.570   0.739   1.429
 7625SOL    HW123774   4.544   0.826   1.388
 7625SOL    HW223775   4.633   0.691   1.368
 7626SOL     OW23776   5.935   0.236   4.370
 7626SOL    HW123777   5.851   0.275   4.334
 7626SOL    HW223778   5.987   0.193   4.295
 7627SOL     OW23779   5.016   3.070   6.659
 7627SOL    HW123780   4.932   3.123   6.675
 7627SOL    HW223781   5.034   3.063   6.561
 7628SOL     OW23782   3.585   2.056   2.132
 7628SOL    HW123783   3.610   2.133   2.073
 7628SOL    HW223784   3.488   2.063   2.157
 7629SOL     OW23785   0.161   5.930   3.062
 7629SOL    HW123786   0.174   5.984   3.145
 7629SOL    HW223787   0.201   5.839   3.075
 7630SOL     OW23788   0.761   0.139   1.140
 7630SOL    HW123789   0.774   0.160   1.043
 7630SOL    HW223790   0.663   0.146   1.162
 7631SOL     OW23791   0.940   1.564   6.007
 7631SOL    HW123792   0.932   1.637   5.939
 7631SOL    HW223793   1.031   1.523   6.002
 7632SOL     OW23794   4.660   3.646   1.428
 7632SOL    HW123795   4.664   3.557   1.383
 7632SOL    HW223796   4.593   3.703   1.381
 7633SOL     OW23797   5.037   0.538   1.347
 7633SOL    HW123798   5.023   0.469   1.276
 7633SOL    HW223799   5.133   0.538   1.374
 7634SOL     OW23800   2.175   1.789   2.360
 7634SOL    HW123801   2.105   1.739   2.309
 7634SOL    HW223802   2.181   1.883   2.326
 7635SOL     OW23803   3.127   5.394   5.046
 7635SOL    HW123804   3.084   5.484   5.060
 7635SOL    HW223805   3.077   5.325   5.098
 7636SOL     OW23806   1.815   2.857   4.277
 7636SOL    HW123807   1.822   2.950   4.314
 7636SOL    HW223808   1.770   2.798   4.345
 7637SOL     OW23809   2.103   5.533   2.454
 7637SOL    HW123810   2.148   5.606   2.505
 7637SOL    HW223811   2.171   5.483   2.400
 7638SOL     OW23812   2.654   6.047   1.454
 7638SOL    HW123813   2.602   6.012   1.377
 7638SOL    HW223814   2.751   6.052   1.430
 7639SOL     OW23815   0.629   2.098   0.809
 7639SOL    HW123816   0.717   2.080   0.852
 7639SOL    HW223817   0.639   2.168   0.739
 7640SOL     OW23818   3.005   0.683   6.012
 7640SOL    HW123819   2.985   0.780   6.026
 7640SOL    HW223820   2.965   0.652   5.926
 7641SOL     OW23821   1.790   3.584   2.417
 7641SOL    HW123822   1.725   3.660   2.412
 7641SOL    HW223823   1.740   3.497   2.411
 7642SOL     OW23824   3.625   1.886   3.272
 7642SOL    HW123825   3.622   1.788   3.293
 7642SOL    HW223826   3.570   1.936   3.339
 7643SOL     OW23827   4.626   2.611   2.683
 7643SOL    HW123828   4.541   2.575   2.643
 7643SOL    HW223829   4.703   2.584   2.625
 7644SOL     OW23830   5.464   2.095   1.612
 7644SOL    HW123831   5.458   2.056   1.521
 7644SOL    HW223832   5.556   2.132   1.627
 7645SOL     OW23833   4.629   3.601   5.663
 7645SOL    HW123834   4.580   3.542   5.728
 7645SOL    HW223835   4.703   3.550   5.620
 7646SOL     OW23836   1.386   3.526   3.495
 7646SOL    HW123837   1.297   3.508   3.536
 7646SOL    HW223838   1.436   3.441   3.485
 7647SOL     OW23839   6.240   2.753   3.411
 7647SOL    HW123840   6.266   2.658   3.396
 7647SOL    HW223841   6.255   2.805   3.327
 7648SOL     OW23842   3.302   1.453   2.923
 7648SOL    HW123843   3.339   1.531   2.974
 7648SOL    HW223844   3.222   1.417   2.970
 7649SOL     OW23845   0.728   0.653   3.275
 7649SOL    HW123846   0.680   0.686   3.357
 7649SOL    HW223847   0.706   0.713   3.198
 7650SOL     OW23848   5.146   1.328   0.815
 7650SOL    HW123849   5.238   1.310   0.780
 7650SOL    HW223850   5.083   1.343   0.739
 7651SOL     OW23851   2.007   0.561   3.821
 7651SOL    HW123852   2.014   0.506   3.738
 7651SOL    HW223853   1.913   0.596   3.830
 7652SOL     OW23854   5.832   3.346   5.548
 7652SOL    HW123855   5.845   3.280   5.621
 7652SOL    HW223856   5.735   3.370   5.541
 7653SOL     OW23857   1.003   1.756   0.107
 7653SOL    HW123858   0.999   1.829   0.174
 7653SOL    HW223859   0.918   1.756   0.053
 7654SOL     OW23860   5.018   2.914   4.325
 7654SOL    HW123861   4.985   2.822   4.307
 7654SOL    HW223862   4.953   2.962   4.384
 7655SOL     OW23863   4.692   6.594   3.025
 7655SOL    HW123864   4.608   6.577   2.973
 7655SOL    HW223865   4.670   6.601   3.123
 7656SOL     OW23866   3.237   3.864   6.115
 7656SOL    HW123867   3.228   3.765   6.128
 7656SOL    HW223868   3.282   3.882   6.028
 7657SOL     OW23869   1.574   2.533   4.025
 7657SOL    HW123870   1.649   2.598   4.012
 7657SOL    HW223871   1.488   2.577   3.997
 7658SOL     OW23872   3.911   6.657   6.241
 7658SOL    HW123873   3.988   6.624   6.297
 7658SOL    HW223874   3.917   6.617   6.150
 7659SOL     OW23875   5.708   5.011   6.302
 7659SOL    HW123876   5.733   5.050   6.391
 7659SOL    HW223877   5.608   5.007   6.295
 7660SOL     OW23878   6.973   5.791   3.890
 7660SOL    HW123879   0.017   5.722   3.852
 7660SOL    HW223880   0.006   5.852   3.951
 7661SOL     OW23881   5.998   2.341   5.037
 7661SOL    HW123882   5.920   2.380   5.087
 7661SOL    HW223883   5.970   2.323   4.942
 7662SOL     OW23884   1.083   3.045   3.546
 7662SOL    HW123885   1.166   2.994   3.525
 7662SOL    HW223886   1.011   2.982   3.576
 7663SOL     OW23887   6.778   5.568   5.439
 7663SOL    HW123888   6.851   5.632   5.462
 7663SOL    HW223889   6.707   5.572   5.509
 7664SOL     OW23890   4.032   0.135   1.535
 7664SOL    HW123891   4.117   0.082   1.538
 7664SOL    HW223892   4.016   0.177   1.624
 7665SOL     OW23893   6.260   0.494   4.711
 7665SOL    HW123894   6.267   0.539   4.800
 7665SOL    HW223895   6.177   0.438   4.710
 7666SOL     OW23896   0.903   5.723   1.983
 7666SOL    HW123897   0.852   5.754   2.064
 7666SOL    HW223898   0.839   5.712   1.907
 7667SOL     OW23899   4.556   6.873   1.877
 7667SOL    HW123900   4.512   6.962   1.892
 7667SOL    HW223901   4.643   6.871   1.927
 7668SOL     OW23902   3.195   4.532   0.932
 7668SOL    HW123903   3.191   4.628   0.961
 7668SOL    HW223904   3.120   4.514   0.868
 7669SOL     OW23905   4.450   1.346   4.487
 7669SOL    HW123906   4.494   1.434   4.505
 7669SOL    HW223907   4.510   1.289   4.432
 7670SOL     OW23908   0.826   4.721   0.418
 7670SOL    HW123909   0.914   4.767   0.424
 7670SOL    HW223910   0.755   4.779   0.459
 7671SOL     OW23911   4.480   1.430   1.284
 7671SOL    HW123912   4.413   1.455   1.354
 7671SOL    HW223913   4.525   1.345   1.312
 7672SOL     OW23914   0.133   6.667   2.325
 7672SOL    HW123915   0.227   6.634   2.335
 7672SOL    HW223916   0.103   6.654   2.231
 7673SOL     OW23917   1.112   6.606   0.760
 7673SOL    HW123918   1.199   6.600   0.711
 7673SOL    HW223919   1.042   6.555   0.710
 7674SOL     OW23920   5.333   0.788   3.412
 7674SOL    HW123921   5.325   0.736   3.327
 7674SOL    HW223922   5.377   0.731   3.482
 7675SOL     OW23923   6.285   6.975   2.318
 7675SOL    HW123924   6.350   7.011   2.251
 7675SOL    HW223925   6.297   6.876   2.327
 7676SOL     OW23926   2.717   2.108   0.549
 7676SOL    HW123927   2.710   2.077   0.454
 7676SOL    HW223928   2.746   2.032   0.607
 7677SOL     OW23929   0.465   5.136   1.347
 7677SOL    HW123930   0.436   5.124   1.442
 7677SOL    HW223931   0.405   5.085   1.287
 7678SOL     OW23932   1.878   3.158   5.069
 7678SOL    HW123933   1.844   3.066   5.052
 7678SOL    HW223934   1.976   3.162   5.046
 7679SOL     OW23935   3.378   6.277   5.812
 7679SOL    HW123936   3.418   6.352   5.864
 7679SOL    HW223937   3.323   6.219   5.872
 7680SOL     OW23938   0.522   1.003   0.192
 7680SOL    HW123939   0.443   0.948   0.167
 7680SOL    HW223940   0.603   0.945   0.197
 7681SOL     OW23941   2.757   0.938   0.920
 7681SOL    HW123942   2.849   0.974   0.903
 7681SOL    HW223943   2.756   0.839   0.904
 7682SOL     OW23944   3.656   0.590   1.841
 7682SOL    HW123945   3.580   0.648   1.871
 7682SOL    HW223946   3.730   0.594   1.908
 7683SOL     OW23947   5.752   2.176   4.632
 7683SOL    HW123948   5.721   2.255   4.578
 7683SOL    HW223949   5.801   2.112   4.572
 7684SOL     OW23950   2.984   1.760   2.091
 7684SOL    HW123951   3.067   1.736   2.141
 7684SOL    HW223952   3.007   1.784   1.997
 7685SOL     OW23953   2.700   2.055   5.988
 7685SOL    HW123954   2.630   2.099   5.931
 7685SOL    HW223955   2.718   2.112   6.068
 7686SOL     OW23956   6.723   6.436   3.314
 7686SOL    HW123957   6.669   6.466   3.236
 7686SOL    HW223958   6.662   6.409   3.389
 7687SOL     OW23959   5.991   5.005   3.736
 7687SOL    HW123960   5.999   5.103   3.758
 7687SOL    HW223961   6.042   4.952   3.804
 7688SOL     OW23962   0.932   5.985   5.251
 7688SOL    HW123963   0.916   6.062   5.312
 7688SOL    HW223964   0.854   5.975   5.188
 7689SOL     OW23965   5.611   6.385   2.108
 7689SOL    HW123966   5.552   6.463   2.085
 7689SOL    HW223967   5.595   6.311   2.043
 7690SOL     OW23968   5.301   4.791   0.211
 7690SOL    HW123969   5.300   4.694   0.187
 7690SOL    HW223970   5.396   4.823   0.216
 7691SOL     OW23971   5.215   3.818   4.544
 7691SOL    HW123972   5.267   3.900   4.566
 7691SOL    HW223973   5.260   3.768   4.470
 7692SOL     OW23974   0.761   6.273   1.609
 7692SOL    HW123975   0.744   6.232   1.699
 7692SOL    HW223976   0.850   6.243   1.575
 7693SOL     OW23977   3.084   6.617   1.923
 7693SOL    HW123978   3.119   6.637   1.832
 7693SOL    HW223979   3.059   6.702   1.969
 7694SOL     OW23980   5.361   3.622   4.381
 7694SOL    HW123981   5.452   3.648   4.413
 7694SOL    HW223982   5.356   3.523   4.370
 7695SOL     OW23983   4.930   0.331   0.663
 7695SOL    HW123984   5.014   0.342   0.716
 7695SOL    HW223985   4.951   0.295   0.573
 7696SOL     OW23986   0.275   0.663   6.014
 7696SOL    HW123987   0.346   0.728   6.043
 7696SOL    HW223988   0.246   0.609   6.093
 7697SOL     OW23989   2.434   6.450   2.631
 7697SOL    HW123990   2.396   6.429   2.541
 7697SOL    HW223991   2.372   6.416   2.702
 7698SOL     OW23992   5.796   1.630   3.970
 7698SOL    HW123993   5.800   1.551   4.031
 7698SOL    HW223994   5.888   1.665   3.955
 7699SOL     OW23995   3.510   5.616   6.607
 7699SOL    HW123996   3.590   5.556   6.605
 7699SOL    HW223997   3.447   5.590   6.534
 7700SOL     OW23998   4.511   5.840   2.588
 7700SOL    HW123999   4.498   5.911   2.657
 7700SOL    HW224000   4.440   5.849   2.518
 7701SOL     OW24001   6.278   2.173   0.440
 7701SOL    HW124002   6.187   2.191   0.403
 7701SOL    HW224003   6.290   2.227   0.524
 7702SOL     OW24004   3.167   6.466   4.962
 7702SOL    HW124005   3.122   6.379   4.940
 7702SOL    HW224006   3.167   6.480   5.061
 7703SOL     OW24007   6.702   5.981   6.550
 7703SOL    HW124008   6.615   5.974   6.501
 7703SOL    HW224009   6.706   6.070   6.596
 7704SOL     OW24010   6.113   0.005   4.716
 7704SOL    HW124011   6.112   6.953   4.787
 7704SOL    HW224012   6.208   0.019   4.685
 7705SOL     OW24013   2.740   5.970   0.621
 7705SOL    HW124014   2.772   6.064   0.606
 7705SOL    HW224015   2.810   5.906   0.591
 7706SOL     OW24016   3.650   3.632   4.804
 7706SOL    HW124017   3.724   3.568   4.826
 7706SOL    HW224018   3.566   3.603   4.850
 7707SOL     OW24019   6.825   4.777   5.878
 7707SOL    HW124020   6.750   4.841   5.863
 7707SOL    HW224021   6.899   4.822   5.926
 7708SOL     OW24022   1.135   6.830   5.812
 7708SOL    HW124023   1.048   6.799   5.774
 7708SOL    HW224024   1.172   6.761   5.874
 7709SOL     OW24025   5.954   4.229   2.313
 7709SOL    HW124026   5.880   4.261   2.253
 7709SOL    HW224027   6.021   4.178   2.259
 7710SOL     OW24028   3.218   2.052   0.153
 7710SOL    HW124029   3.186   2.120   0.219
 7710SOL    HW224030   3.153   2.047   0.077
 7711SOL     OW24031   5.387   6.166   6.074
 7711SOL    HW124032   5.354   6.242   6.018
 7711SOL    HW224033   5.355   6.080   6.036
 7712SOL     OW24034   6.721   5.251   1.901
 7712SOL    HW124035   6.801   5.216   1.949
 7712SOL    HW224036   6.744   5.270   1.806
 7713SOL     OW24037   1.912   3.779   0.962
 7713SOL    HW124038   1.920   3.874   0.933
 7713SOL    HW224039   1.945   3.770   1.056
 7714SOL     OW24040   0.130   3.841   5.375
 7714SOL    HW124041   0.210   3.851   5.434
 7714SOL    HW224042   0.136   3.906   5.299
 7715SOL     OW24043   2.741   2.085   0.275
 7715SOL    HW124044   2.822   2.062   0.221
 7715SOL    HW224045   2.660   2.042   0.235
 7716SOL     OW24046   6.546   5.026   1.869
 7716SOL    HW124047   6.594   4.972   1.800
 7716SOL    HW224048   6.603   5.104   1.896
 7717SOL     OW24049   1.837   1.011   5.562
 7717SOL    HW124050   1.757   0.978   5.612
 7717SOL    HW224051   1.895   1.065   5.623
 7718SOL     OW24052   6.863   3.522   3.577
 7718SOL    HW124053   6.892   3.443   3.524
 7718SOL    HW224054   6.838   3.494   3.669
 7719SOL     OW24055   0.036   4.404   5.650
 7719SOL    HW124056   0.083   4.452   5.576
 7719SOL    HW224057   0.076   4.432   5.738
 7720SOL     OW24058   6.904   1.502   6.215
 7720SOL    HW124059   6.821   1.447   6.212
 7720SOL    HW224060   6.984   1.441   6.225
 7721SOL     OW24061   0.625   5.365   2.047
 7721SOL    HW124062   0.702   5.300   2.047
 7721SOL    HW224063   0.609   5.397   1.954
 7722SOL     OW24064   1.355   4.410   3.363
 7722SOL    HW124065   1.304   4.326   3.350
 7722SOL    HW224066   1.446   4.401   3.321
 7723SOL     OW24067   5.013   3.624   6.359
 7723SOL    HW124068   4.976   3.692   6.423
 7723SOL    HW224069   5.103   3.655   6.327
 7724SOL     OW24070   3.087   3.764   1.129
 7724SOL    HW124071   3.097   3.665   1.135
 7724SOL    HW224072   2.990   3.787   1.129
 7725SOL     OW24073   6.497   1.798   2.679
 7725SOL    HW124074   6.505   1.897   2.689
 7725SOL    HW224075   6.567   1.765   2.617
 7726SOL     OW24076   1.430   5.109   5.875
 7726SOL    HW124077   1.524   5.123   5.845
 7726SOL    HW224078   1.384   5.197   5.886
 7727SOL     OW24079   0.136   2.423   2.609
 7727SOL    HW124080   0.046   2.383   2.621
 7727SOL    HW224081   0.152   2.442   2.512
 7728SOL     OW24082   2.162   3.406   4.999
 7728SOL    HW124083   2.185   3.400   5.097
 7728SOL    HW224084   2.123   3.496   4.979
 7729SOL     OW24085   6.128   2.520   1.245
 7729SOL    HW124086   6.226   2.534   1.235
 7729SOL    HW224087   6.110   2.481   1.336
 7730SOL     OW24088   6.626   5.588   0.521
 7730SOL    HW124089   6.584   5.577   0.611
 7730SOL    HW224090   6.638   5.498   0.479
 7731SOL     OW24091   6.642   1.466   0.085
 7731SOL    HW124092   6.724   1.438   0.134
 7731SOL    HW224093   6.651   1.441   7.006
 7732SOL     OW24094   5.145   0.066   0.254
 7732SOL    HW124095   5.072   0.043   0.190
 7732SOL    HW224096   5.231   0.026   0.222
 7733SOL     OW24097   5.060   5.992   2.455
 7733SOL    HW124098   5.128   6.034   2.396
 7733SOL    HW224099   5.099   5.978   2.546
 7734SOL     OW24100   1.405   5.064   4.183
 7734SOL    HW124101   1.416   5.032   4.277
 7734SOL    HW224102   1.374   5.159   4.184
 7735SOL     OW24103   4.846   6.492   6.542
 7735SOL    HW124104   4.747   6.508   6.535
 7735SOL    HW224105   4.862   6.397   6.569
 7736SOL     OW24106   3.098   2.974   6.785
 7736SOL    HW124107   3.021   3.036   6.774
 7736SOL    HW224108   3.123   2.935   6.696
 7737SOL     OW24109   2.717   6.277   2.794
 7737SOL    HW124110   2.722   6.351   2.727
 7737SOL    HW224111   2.806   6.232   2.801
 7738SOL     OW24112   3.021   5.518   0.060
 7738SOL    HW124113   3.057   5.605   0.029
 7738SOL    HW224114   3.062   5.444   0.008
 7739SOL     OW24115   0.094   2.332   1.149
 7739SOL    HW124116   0.097   2.269   1.070
 7739SOL    HW224117   7.018   2.341   1.180
 7740SOL     OW24118   2.555   1.505   2.971
 7740SOL    HW124119   2.608   1.559   2.907
 7740SOL    HW224120   2.613   1.432   3.009
 7741SOL     OW24121   6.958   5.194   5.957
 7741SOL    HW124122   6.986   5.195   5.861
 7741SOL    HW224123   6.862   5.164   5.963
 7742SOL     OW24124   4.199   1.838   3.081
 7742SOL    HW124125   4.184   1.889   3.165
 7742SOL    HW224126   4.205   1.740   3.101
 7743SOL     OW24127   5.466   1.825   0.061
 7743SOL    HW124128   5.501   1.748   0.007
 7743SOL    HW224129   5.384   1.797   0.110
 7744SOL     OW24130   0.511   0.491   4.288
 7744SOL    HW124131   0.568   0.409   4.296
 7744SOL    HW224132   0.569   0.572   4.289
 7745SOL     OW24133   3.951   1.336   6.951
 7745SOL    HW124134   3.882   1.392   6.997
 7745SOL    HW224135   3.917   1.242   6.944
 7746SOL     OW24136   1.534   0.047   0.522
 7746SOL    HW124137   1.487   0.088   0.600
 7746SOL    HW224138   1.619   0.096   0.504
 7747SOL     OW24139   5.352   5.764   1.535
 7747SOL    HW124140   5.437   5.772   1.483
 7747SOL    HW224141   5.309   5.676   1.515
 7748SOL     OW24142   2.862   3.603   4.688
 7748SOL    HW124143   2.905   3.675   4.741
 7748SOL    HW224144   2.765   3.596   4.713
 7749SOL     OW24145   3.101   3.573   5.551
 7749SOL    HW124146   3.125   3.631   5.474
 7749SOL    HW224147   3.068   3.630   5.627
 7750SOL     OW24148   6.878   6.268   1.533
 7750SOL    HW124149   6.899   6.341   1.467
 7750SOL    HW224150   6.802   6.296   1.591
 7751SOL     OW24151   1.857   2.941   2.425
 7751SOL    HW124152   1.908   2.992   2.356
 7751SOL    HW224153   1.920   2.881   2.475
 7752SOL     OW24154   5.860   6.324   5.528
 7752SOL    HW124155   5.916   6.282   5.600
 7752SOL    HW224156   5.810   6.402   5.566
 7753SOL     OW24157   2.173   0.375   4.257
 7753SOL    HW124158   2.157   0.296   4.197
 7753SOL    HW224159   2.120   0.453   4.224
 7754SOL     OW24160   4.067   6.377   2.282
 7754SOL    HW124161   4.099   6.456   2.335
 7754SOL    HW224162   3.984   6.401   2.232
 7755SOL     OW24163   1.205   2.392   6.019
 7755SOL    HW124164   1.139   2.388   5.944
 7755SOL    HW224165   1.261   2.474   6.011
 7756SOL     OW24166   2.308   5.674   2.569
 7756SOL    HW124167   2.375   5.624   2.625
 7756SOL    HW224168   2.356   5.738   2.510
 7757SOL     OW24169   6.019   5.214   6.184
 7757SOL    HW124170   6.070   5.210   6.097
 7757SOL    HW224171   6.007   5.121   6.219
 7758SOL     OW24172   1.559   1.227   5.622
 7758SOL    HW124173   1.604   1.144   5.656
 7758SOL    HW224174   1.628   1.294   5.594
 7759SOL     OW24175   0.980   2.025   5.411
 7759SOL    HW124176   1.030   2.101   5.369
 7759SOL    HW224177   0.906   1.996   5.350
 7760SOL     OW24178   5.377   3.220   3.236
 7760SOL    HW124179   5.340   3.245   3.147
 7760SOL    HW224180   5.475   3.205   3.230
 7761SOL     OW24181   0.621   0.698   5.695
 7761SOL    HW124182   0.673   0.746   5.624
 7761SOL    HW224183   0.621   0.600   5.674
 7762SOL     OW24184   4.092   0.202   4.259
 7762SOL    HW124185   4.123   0.260   4.183
 7762SOL    HW224186   4.020   0.249   4.309
 7763SOL     OW24187   1.396   1.123   6.707
 7763SOL    HW124188   1.300   1.119   6.735
 7763SOL    HW224189   1.438   1.033   6.717
 7764SOL     OW24190   3.874   2.952   3.523
 7764SOL    HW124191   3.873   3.007   3.606
 7764SOL    HW224192   3.882   2.855   3.547
 7765SOL     OW24193   6.412   3.050   5.492
 7765SOL    HW124194   6.470   3.107   5.435
 7765SOL    HW224195   6.356   2.990   5.434
 7766SOL     OW24196   6.866   3.510   0.171
 7766SOL    HW124197   6.784   3.454   0.159
 7766SOL    HW224198   6.934   3.485   0.103
 7767SOL     OW24199   4.794   6.068   2.527
 7767SOL    HW124200   4.738   5.989   2.502
 7767SOL    HW224201   4.890   6.050   2.506
 7768SOL     OW24202   4.352   4.621   2.706
 7768SOL    HW124203   4.259   4.632   2.670
 7768SOL    HW224204   4.348   4.602   2.804
 7769SOL     OW24205   4.551   2.598   3.407
 7769SOL    HW124206   4.621   2.632   3.344
 7769SOL    HW224207   4.500   2.524   3.363
 7770SOL     OW24208   1.799   4.330   2.956
 7770SOL    HW124209   1.858   4.357   3.032
 7770SOL    HW224210   1.717   4.388   2.956
 7771SOL     OW24211   3.347   2.308   5.401
 7771SOL    HW124212   3.280   2.348   5.339
 7771SOL    HW224213   3.300   2.268   5.480
 7772SOL     OW24214   4.876   0.455   1.964
 7772SOL    HW124215   4.810   0.529   1.949
 7772SOL    HW224216   4.888   0.441   2.062
 7773SOL     OW24217   2.694   6.305   5.019
 7773SOL    HW124218   2.670   6.397   5.051
 7773SOL    HW224219   2.789   6.285   5.045
 7774SOL     OW24220   5.201   1.815   5.483
 7774SOL    HW124221   5.261   1.887   5.519
 7774SOL    HW224222   5.255   1.752   5.426
 7775SOL     OW24223   4.743   5.292   0.978
 7775SOL    HW124224   4.692   5.342   0.907
 7775SOL    HW224225   4.763   5.354   1.054
 7776SOL     OW24226   1.797   5.268   6.681
 7776SOL    HW124227   1.786   5.305   6.589
 7776SOL    HW224228   1.760   5.175   6.684
 7777SOL     OW24229   6.362   6.511   4.643
 7777SOL    HW124230   6.344   6.413   4.633
 7777SOL    HW224231   6.445   6.524   4.698
 7778SOL     OW24232   5.643   4.164   0.870
 7778SOL    HW124233   5.575   4.133   0.804
 7778SOL    HW224234   5.630   4.116   0.957
 7779SOL     OW24235   2.651   2.553   1.790
 7779SOL    HW124236   2.583   2.509   1.731
 7779SOL    HW224237   2.659   2.500   1.875
 7780SOL     OW24238   1.176   4.557   5.424
 7780SOL    HW124239   1.229   4.485   5.380
 7780SOL    HW224240   1.225   4.644   5.417
 7781SOL     OW24241   1.248   5.299   0.485
 7781SOL    HW124242   1.240   5.215   0.432
 7781SOL    HW224243   1.171   5.306   0.549
 7782SOL     OW24244   5.901   5.183   4.224
 7782SOL    HW124245   5.951   5.176   4.139
 7782SOL    HW224246   5.934   5.261   4.277
 7783SOL     OW24247   0.840   5.644   5.489
 7783SOL    HW124248   0.890   5.617   5.406
 7783SOL    HW224249   0.903   5.687   5.553
 7784SOL     OW24250   3.431   1.907   1.577
 7784SOL    HW124251   3.359   1.847   1.544
 7784SOL    HW224252   3.418   1.926   1.674
 7785SOL     OW24253   2.228   6.121   4.513
 7785SOL    HW124254   2.250   6.062   4.435
 7785SOL    HW224255   2.135   6.156   4.503
 7786SOL     OW24256   2.992   6.346   0.381
 7786SOL    HW124257   2.981   6.350   0.282
 7786SOL    HW224258   3.084   6.315   0.404
 7787SOL     OW24259   2.174   2.647   6.145
 7787SOL    HW124260   2.111   2.654   6.223
 7787SOL    HW224261   2.145   2.709   6.073
 7788SOL     OW24262   2.574   5.316   1.070
 7788SOL    HW124263   2.650   5.365   1.029
 7788SOL    HW224264   2.570   5.223   1.034
 7789SOL     OW24265   2.072   6.356   6.370
 7789SOL    HW124266   2.010   6.362   6.448
 7789SOL    HW224267   2.028   6.395   6.289
 7790SOL     OW24268   5.553   5.331   3.397
 7790SOL    HW124269   5.531   5.233   3.399
 7790SOL    HW224270   5.475   5.383   3.431
 7791SOL     OW24271   2.534   4.905   3.019
 7791SOL    HW124272   2.492   4.910   2.928
 7791SOL    HW224273   2.568   4.995   3.045
 7792SOL     OW24274   1.951   5.298   5.275
 7792SOL    HW124275   1.860   5.297   5.318
 7792SOL    HW224276   1.963   5.383   5.224
 7793SOL     OW24277   3.234   0.858   0.931
 7793SOL    HW124278   3.252   0.836   0.835
 7793SOL    HW224279   3.320   0.862   0.981
 7794SOL     OW24280   6.220   3.669   3.213
 7794SOL    HW124281   6.199   3.715   3.126
 7794SOL    HW224282   6.317   3.678   3.233
 7795SOL     OW24283   1.943   4.178   5.556
 7795SOL    HW124284   2.007   4.253   5.541
 7795SOL    HW224285   1.941   4.119   5.475
 7796SOL     OW24286   4.068   3.271   3.784
 7796SOL    HW124287   4.046   3.305   3.876
 7796SOL    HW224288   4.089   3.347   3.724
 7797SOL     OW24289   1.709   0.004   1.882
 7797SOL    HW124290   1.776   6.971   1.937
 7797SOL    HW224291   1.749   0.092   1.856
 7798SOL     OW24292   2.026   3.659   5.053
 7798SOL    HW124293   1.966   3.579   5.063
 7798SOL    HW224294   2.021   3.714   5.136
 7799SOL     OW24295   1.303   6.361   2.146
 7799SOL    HW124296   1.378   6.362   2.079
 7799SOL    HW224297   1.323   6.293   2.216
 7800SOL     OW24298   0.948   5.441   1.461
 7800SOL    HW124299   0.912   5.379   1.531
 7800SOL    HW224300   0.884   5.516   1.446
 7801SOL     OW24301   2.465   2.255   2.029
 7801SOL    HW124302   2.447   2.353   2.034
 7801SOL    HW224303   2.532   2.229   2.099
 7802SOL     OW24304   5.813   2.994   0.761
 7802SOL    HW124305   5.780   3.017   0.852
 7802SOL    HW224306   5.913   3.001   0.759
 7803SOL     OW24307   4.567   2.126   5.938
 7803SOL    HW124308   4.657   2.137   5.895
 7803SOL    HW224309   4.572   2.161   6.032
 7804SOL     OW24310   4.473   2.118   4.440
 7804SOL    HW124311   4.459   2.052   4.366
 7804SOL    HW224312   4.468   2.070   4.528
 7805SOL     OW24313   5.625   2.859   1.500
 7805SOL    HW124314   5.631   2.922   1.423
 7805SOL    HW224315   5.682   2.894   1.575
 7806SOL     OW24316   6.595   1.997   0.385
 7806SOL    HW124317   6.526   1.960   0.323
 7806SOL    HW224318   6.571   1.974   0.479
 7807SOL     OW24319   0.858   5.059   5.543
 7807SOL    HW124320   0.922   5.015   5.605
 7807SOL    HW224321   0.776   5.086   5.593
 7808SOL     OW24322   6.197   3.605   4.514
 7808SOL    HW124323   6.240   3.679   4.463
 7808SOL    HW224324   6.198   3.522   4.458
 7809SOL     OW24325   2.858   4.855   4.298
 7809SOL    HW124326   2.883   4.837   4.393
 7809SOL    HW224327   2.938   4.890   4.248
 7810SOL     OW24328   3.389   0.364   4.443
 7810SOL    HW124329   3.357   0.364   4.348
 7810SOL    HW224330   3.310   0.366   4.505
 7811SOL     OW24331   1.919   5.626   1.576
 7811SOL    HW124332   1.995   5.580   1.623
 7811SOL    HW224333   1.834   5.579   1.597
 7812SOL     OW24334   0.069   1.815   3.784
 7812SOL    HW124335   0.160   1.856   3.778
 7812SOL    HW224336   0.073   1.729   3.834
 7813SOL     OW24337   4.591   2.715   0.110
 7813SOL    HW124338   4.626   2.774   0.037
 7813SOL    HW224339   4.645   2.630   0.112
 7814SOL     OW24340   0.497   3.661   3.606
 7814SOL    HW124341   0.527   3.756   3.600
 7814SOL    HW224342   0.498   3.631   3.701
 7815SOL     OW24343   5.602   1.388   5.026
 7815SOL    HW124344   5.660   1.333   5.086
 7815SOL    HW224345   5.620   1.363   4.930
 7816SOL     OW24346   1.580   2.402   6.066
 7816SOL    HW124347   1.552   2.358   6.151
 7816SOL    HW224348   1.512   2.469   6.038
 7817SOL     OW24349   4.839   4.543   3.536
 7817SOL    HW124350   4.789   4.519   3.619
 7817SOL    HW224351   4.927   4.495   3.536
 7818SOL     OW24352   4.425   0.776   1.833
 7818SOL    HW124353   4.446   0.722   1.915
 7818SOL    HW224354   4.510   0.793   1.783
 7819SOL     OW24355   6.910   4.152   2.923
 7819SOL    HW124356   6.819   4.167   2.961
 7819SOL    HW224357   6.916   4.059   2.886
 7820SOL     OW24358   0.884   1.751   5.807
 7820SOL    HW124359   0.787   1.765   5.791
 7820SOL    HW224360   0.937   1.798   5.737
 7821SOL     OW24361   5.605   5.649   0.137
 7821SOL    HW124362   5.534   5.704   0.094
 7821SOL    HW224363   5.598   5.555   0.106
 7822SOL     OW24364   1.278   1.606   6.732
 7822SOL    HW124365   1.273   1.537   6.659
 7822SOL    HW224366   1.349   1.673   6.710
 7823SOL     OW24367   2.923   3.969   5.088
 7823SOL    HW124368   2.954   4.049   5.036
 7823SOL    HW224369   2.993   3.944   5.154
 7824SOL     OW24370   6.043   0.670   3.987
 7824SOL    HW124371   5.978   0.739   4.019
 7824SOL    HW224372   6.001   0.579   3.992
 7825SOL     OW24373   1.190   3.009   0.833
 7825SOL    HW124374   1.222   2.965   0.917
 7825SOL    HW224375   1.207   2.949   0.755
 7826SOL     OW24376   6.253   1.475   0.261
 7826SOL    HW124377   6.163   1.508   0.229
 7826SOL    HW224378   6.262   1.378   0.240
 7827SOL     OW24379   3.153   4.762   1.387
 7827SOL    HW124380   3.115   4.681   1.343
 7827SOL    HW224381   3.079   4.823   1.416
 7828SOL     OW24382   1.003   5.068   6.810
 7828SOL    HW124383   0.990   4.974   6.840
 7828SOL    HW224384   0.946   5.086   6.730
 7829SOL     OW24385   1.844   2.971   1.370
 7829SOL    HW124386   1.853   2.985   1.469
 7829SOL    HW224387   1.828   2.874   1.351
 7830SOL     OW24388   2.427   4.384   5.591
 7830SOL    HW124389   2.447   4.465   5.536
 7830SOL    HW224390   2.512   4.345   5.626
 7831SOL     OW24391   1.605   6.047   1.012
 7831SOL    HW124392   1.650   5.966   1.050
 7831SOL    HW224393   1.514   6.057   1.053
 7832SOL     OW24394   4.967   1.051   3.390
 7832SOL    HW124395   4.959   0.984   3.465
 7832SOL    HW224396   4.875   1.074   3.357
 7833SOL     OW24397   1.012   0.729   6.281
 7833SOL    HW124398   0.964   0.643   6.264
 7833SOL    HW224399   0.966   0.779   6.354
 7834SOL     OW24400   6.609   1.221   3.933
 7834SOL    HW124401   6.515   1.249   3.913
 7834SOL    HW224402   6.649   1.284   4.000
 7835SOL     OW24403   2.979   1.863   5.184
 7835SOL    HW124404   3.003   1.955   5.216
 7835SOL    HW224405   2.880   1.859   5.169
 7836SOL     OW24406   3.501   3.198   4.824
 7836SOL    HW124407   3.534   3.206   4.729
 7836SOL    HW224408   3.411   3.155   4.825
 7837SOL     OW24409   6.302   5.977   0.887
 7837SOL    HW124410   6.243   6.011   0.814
 7837SOL    HW224411   6.250   5.974   0.973
 7838SOL     OW24412   4.660   6.951   0.025
 7838SOL    HW124413   4.635   6.865   0.069
 7838SOL    HW224414   4.714   6.932   6.961
 7839SOL     OW24415   5.924   4.399   5.186
 7839SOL    HW124416   6.007   4.450   5.209
 7839SOL    HW224417   5.859   4.460   5.140
 7840SOL     OW24418   6.150   2.834   3.995
 7840SOL    HW124419   6.088   2.815   3.918
 7840SOL    HW224420   6.177   2.748   4.037
 7841SOL     OW24421   3.703   1.704   6.671
 7841SOL    HW124422   3.695   1.607   6.646
 7841SOL    HW224423   3.613   1.742   6.685
 7842SOL     OW24424   2.008   1.990   2.845
 7842SOL    HW124425   1.982   1.894   2.833
 7842SOL    HW224426   2.004   2.037   2.757
 7843SOL     OW24427   5.892   5.422   2.882
 7843SOL    HW124428   5.845   5.494   2.933
 7843SOL    HW224429   5.971   5.391   2.933
 7844SOL     OW24430   3.775   6.097   2.139
 7844SOL    HW124431   3.735   6.171   2.085
 7844SOL    HW224432   3.840   6.045   2.083
 7845SOL     OW24433   5.080   1.812   3.677
 7845SOL    HW124434   5.112   1.717   3.682
 7845SOL    HW224435   5.012   1.829   3.748
 7846SOL     OW24436   0.880   1.298   2.580
 7846SOL    HW124437   0.978   1.284   2.597
 7846SOL    HW224438   0.847   1.227   2.517
 7847SOL     OW24439   6.995   1.595   2.728
 7847SOL    HW124440   7.007   1.501   2.698
 7847SOL    HW224441   0.064   1.630   2.763
 7848SOL     OW24442   3.553   3.275   0.541
 7848SOL    HW124443   3.582   3.370   0.552
 7848SOL    HW224444   3.454   3.270   0.539
 7849SOL     OW24445   5.383   3.898   3.447
 7849SOL    HW124446   5.324   3.824   3.416
 7849SOL    HW224447   5.431   3.870   3.529
 7850SOL     OW24448   0.288   2.115   5.379
 7850SOL    HW124449   0.313   2.166   5.462
 7850SOL    HW224450   0.262   2.179   5.307
 7851SOL     OW24451   6.552   1.145   2.118
 7851SOL    HW124452   6.517   1.191   2.036
 7851SOL    HW224453   6.551   1.046   2.103
 7852SOL     OW24454   2.269   1.574   5.634
 7852SOL    HW124455   2.327   1.595   5.713
 7852SOL    HW224456   2.317   1.509   5.574
 7853SOL     OW24457   4.419   2.269   1.377
 7853SOL    HW124458   4.422   2.367   1.400
 7853SOL    HW224459   4.383   2.257   1.285
 7854SOL     OW24460   3.593   3.651   0.157
 7854SOL    HW124461   3.692   3.636   0.167
 7854SOL    HW224462   3.547   3.562   0.158
 7855SOL     OW24463   4.388   5.199   5.253
 7855SOL    HW124464   4.445   5.258   5.310
 7855SOL    HW224465   4.356   5.251   5.173
 7856SOL     OW24466   6.115   4.575   5.263
 7856SOL    HW124467   6.093   4.658   5.213
 7856SOL    HW224468   6.171   4.598   5.343
 7857SOL     OW24469   5.691   2.137   5.142
 7857SOL    HW124470   5.694   2.051   5.194
 7857SOL    HW224471   5.734   2.122   5.053
 7858SOL     OW24472   5.496   5.873   3.750
 7858SOL    HW124473   5.524   5.929   3.672
 7858SOL    HW224474   5.469   5.934   3.825
 7859SOL     OW24475   5.336   2.265   6.378
 7859SOL    HW124476   5.271   2.189   6.378
 7859SOL    HW224477   5.290   2.348   6.345
 7860SOL     OW24478   4.308   0.217   2.142
 7860SOL    HW124479   4.307   0.128   2.096
 7860SOL    HW224480   4.345   0.207   2.234
 7861SOL     OW24481   3.839   4.893   1.962
 7861SOL    HW124482   3.826   4.971   1.900
 7861SOL    HW224483   3.751   4.847   1.977
 7862SOL     OW24484   2.786   3.598   1.357
 7862SOL    HW124485   2.806   3.694   1.374
 7862SOL    HW224486   2.706   3.570   1.410
 7863SOL     OW24487   0.681   5.345   4.320
 7863SOL    HW124488   0.584   5.368   4.323
 7863SOL    HW224489   0.695   5.251   4.351
 7864SOL     OW24490   0.355   5.547   5.178
 7864SOL    HW124491   0.453   5.527   5.174
 7864SOL    HW224492   0.341   5.645   5.171
 7865SOL     OW24493   5.968   6.526   4.498
 7865SOL    HW124494   6.034   6.531   4.572
 7865SOL    HW224495   5.924   6.616   4.486
 7866SOL     OW24496   1.516   1.681   6.547
 7866SOL    HW124497   1.553   1.595   6.513
 7866SOL    HW224498   1.494   1.740   6.470
 7867SOL     OW24499   5.710   6.703   3.236
 7867SOL    HW124500   5.748   6.614   3.264
 7867SOL    HW224501   5.655   6.691   3.153
 7868SOL     OW24502   5.298   6.667   1.671
 7868SOL    HW124503   5.350   6.752   1.673
 7868SOL    HW224504   5.249   6.656   1.758
 7869SOL     OW24505   6.275   3.713   0.373
 7869SOL    HW124506   6.253   3.722   0.470
 7869SOL    HW224507   6.368   3.745   0.357
 7870SOL     OW24508   4.150   4.804   4.202
 7870SOL    HW124509   4.203   4.856   4.135
 7870SOL    HW224510   4.071   4.859   4.231
 7871SOL     OW24511   5.128   2.788   2.397
 7871SOL    HW124512   5.182   2.808   2.315
 7871SOL    HW224513   5.190   2.773   2.475
 7872SOL     OW24514   2.457   4.527   3.154
 7872SOL    HW124515   2.403   4.586   3.214
 7872SOL    HW224516   2.544   4.572   3.132
 7873SOL     OW24517   5.373   0.548   6.047
 7873SOL    HW124518   5.364   0.571   6.144
 7873SOL    HW224519   5.283   0.530   6.009
 7874SOL     OW24520   5.725   1.715   0.355
 7874SOL    HW124521   5.700   1.811   0.364
 7874SOL    HW224522   5.647   1.658   0.381
 7875SOL     OW24523   5.721   2.369   6.756
 7875SOL    HW124524   5.739   2.304   6.682
 7875SOL    HW224525   5.707   2.319   6.841
 7876SOL     OW24526   0.825   0.076   4.479
 7876SOL    HW124527   0.910   0.124   4.498
 7876SOL    HW224528   0.844   6.996   4.469
 7877SOL     OW24529   0.855   2.494   2.917
 7877SOL    HW124530   0.867   2.407   2.870
 7877SOL    HW224531   0.785   2.548   2.870
 7878SOL     OW24532   5.554   5.088   4.263
 7878SOL    HW124533   5.652   5.072   4.255
 7878SOL    HW224534   5.537   5.183   4.291
 7879SOL     OW24535   4.689   5.158   4.337
 7879SOL    HW124536   4.676   5.233   4.272
 7879SOL    HW224537   4.600   5.118   4.359
 7880SOL     OW24538   1.984   5.106   1.215
 7880SOL    HW124539   2.013   5.096   1.120
 7880SOL    HW224540   1.971   5.203   1.236
 7881SOL     OW24541   5.954   4.586   4.584
 7881SOL    HW124542   5.975   4.543   4.672
 7881SOL    HW224543   5.855   4.586   4.569
 7882SOL     OW24544   0.801   3.274   2.955
 7882SOL    HW124545   0.780   3.368   2.982
 7882SOL    HW224546   0.881   3.273   2.896
 7883SOL     OW24547   0.858   0.393   0.659
 7883SOL    HW124548   0.773   0.372   0.707
 7883SOL    HW224549   0.935   0.381   0.721
 7884SOL     OW24550   2.003   4.012   3.804
 7884SOL    HW124551   2.078   3.963   3.759
 7884SOL    HW224552   1.951   3.949   3.861
 7885SOL     OW24553   6.209   5.224   1.990
 7885SOL    HW124554   6.258   5.286   1.928
 7885SOL    HW224555   6.275   5.174   2.046
 7886SOL     OW24556   3.220   5.401   0.224
 7886SOL    HW124557   3.167   5.357   0.296
 7886SOL    HW224558   3.161   5.461   0.171
 7887SOL     OW24559   3.293   2.646   5.256
 7887SOL    HW124560   3.244   2.559   5.244
 7887SOL    HW224561   3.271   2.707   5.180
 7888SOL     OW24562   6.547   6.638   5.131
 7888SOL    HW124563   6.462   6.667   5.177
 7888SOL    HW224564   6.623   6.649   5.195
 7889SOL     OW24565   1.453   5.041   0.535
 7889SOL    HW124566   1.394   5.031   0.455
 7889SOL    HW224567   1.396   5.058   0.616
 7890SOL     OW24568   0.551   3.514   3.391
 7890SOL    HW124569   0.518   3.572   3.466
 7890SOL    HW224570   0.517   3.421   3.404
 7891SOL     OW24571   2.569   4.570   4.062
 7891SOL    HW124572   2.588   4.544   4.156
 7891SOL    HW224573   2.575   4.489   4.003
 7892SOL     OW24574   1.990   1.004   3.588
 7892SOL    HW124575   1.922   1.077   3.597
 7892SOL    HW224576   2.081   1.044   3.580
 7893SOL     OW24577   6.769   6.292   1.797
 7893SOL    HW124578   6.675   6.277   1.766
 7893SOL    HW224579   6.768   6.327   1.890
 7894SOL     OW24580   3.702   6.247   0.383
 7894SOL    HW124581   3.648   6.263   0.300
 7894SOL    HW224582   3.687   6.154   0.415
 7895SOL     OW24583   5.605   0.755   5.701
 7895SOL    HW124584   5.599   0.812   5.783
 7895SOL    HW224585   5.700   0.731   5.683
 7896SOL     OW24586   4.044   3.333   1.417
 7896SOL    HW124587   4.123   3.301   1.364
 7896SOL    HW224588   4.029   3.430   1.401
 7897SOL     OW24589   3.012   3.028   0.374
 7897SOL    HW124590   2.950   2.964   0.418
 7897SOL    HW224591   2.961   3.085   0.309
 7898SOL     OW24592   4.044   1.723   3.372
 7898SOL    HW124593   4.079   1.797   3.430
 7898SOL    HW224594   3.979   1.668   3.424
 7899SOL     OW24595   5.731   0.030   1.406
 7899SOL    HW124596   5.717   6.960   1.360
 7899SOL    HW224597   5.644   0.059   1.447
 7900SOL     OW24598   1.323   5.254   2.157
 7900SOL    HW124599   1.335   5.259   2.256
 7900SOL    HW224600   1.408   5.284   2.112
 7901SOL     OW24601   4.529   1.556   6.359
 7901SOL    HW124602   4.461   1.483   6.349
 7901SOL    HW224603   4.620   1.517   6.347
 7902SOL     OW24604   6.211   6.689   1.297
 7902SOL    HW124605   6.246   6.780   1.322
 7902SOL    HW224606   6.119   6.699   1.259
 7903SOL     OW24607   5.091   1.266   1.275
 7903SOL    HW124608   5.052   1.262   1.183
 7903SOL    HW224609   5.086   1.359   1.309
 7904SOL     OW24610   5.481   0.164   4.090
 7904SOL    HW124611   5.578   0.154   4.072
 7904SOL    HW224612   5.449   0.252   4.054
 7905SOL     OW24613   5.702   1.965   0.124
 7905SOL    HW124614   5.741   1.885   0.169
 7905SOL    HW224615   5.610   1.943   0.091
 7906SOL     OW24616   0.696   5.747   0.935
 7906SOL    HW124617   0.638   5.828   0.925
 7906SOL    HW224618   0.734   5.722   0.846
 7907SOL     OW24619   5.394   1.885   2.508
 7907SOL    HW124620   5.342   1.825   2.568
 7907SOL    HW224621   5.489   1.889   2.538
 7908SOL     OW24622   1.571   0.916   5.425
 7908SOL    HW124623   1.494   0.968   5.390
 7908SOL    HW224624   1.552   0.886   5.518
 7909SOL     OW24625   4.979   4.570   4.673
 7909SOL    HW124626   4.990   4.554   4.574
 7909SOL    HW224627   4.882   4.567   4.697
 7910SOL     OW24628   3.056   3.636   5.864
 7910SOL    HW124629   3.035   3.732   5.881
 7910SOL    HW224630   2.973   3.582   5.875
 7911SOL     OW24631   2.232   4.181   6.935
 7911SOL    HW124632   2.203   4.154   0.009
 7911SOL    HW224633   2.168   4.249   6.899
 7912SOL     OW24634   6.782   5.015   1.104
 7912SOL    HW124635   6.843   4.945   1.067
 7912SOL    HW224636   6.779   5.006   1.204
 7913SOL     OW24637   1.147   4.689   1.048
 7913SOL    HW124638   1.111   4.779   1.074
 7913SOL    HW224639   1.194   4.649   1.127
 7914SOL     OW24640   0.656   4.314   6.761
 7914SOL    HW124641   0.732   4.271   6.810
 7914SOL    HW224642   0.626   4.254   6.687
 7915SOL     OW24643   4.846   2.569   1.701
 7915SOL    HW124644   4.936   2.582   1.742
 7915SOL    HW224645   4.775   2.599   1.764
 7916SOL     OW24646   1.158   5.079   5.084
 7916SOL    HW124647   1.079   5.018   5.078
 7916SOL    HW224648   1.187   5.085   5.180
 7917SOL     OW24649   3.686   3.416   4.610
 7917SOL    HW124650   3.751   3.439   4.682
 7917SOL    HW224651   3.619   3.490   4.600
 7918SOL     OW24652   0.157   1.353   5.226
 7918SOL    HW124653   0.199   1.426   5.172
 7918SOL    HW224654   0.077   1.318   5.178
 7919SOL     OW24655   2.327   4.295   3.118
 7919SOL    HW124656   2.339   4.224   3.187
 7919SOL    HW224657   2.383   4.375   3.142
 7920SOL     OW24658   6.840   6.434   0.352
 7920SOL    HW124659   6.813   6.439   0.256
 7920SOL    HW224660   6.940   6.441   0.358
 7921SOL     OW24661   5.331   6.302   1.107
 7921SOL    HW124662   5.308   6.318   1.203
 7921SOL    HW224663   5.424   6.266   1.100
 7922SOL     OW24664   6.801   6.310   0.804
 7922SOL    HW124665   6.780   6.405   0.825
 7922SOL    HW224666   6.874   6.306   0.736
 7923SOL     OW24667   3.146   6.914   1.515
 7923SOL    HW124668   3.094   6.950   1.593
 7923SOL    HW224669   3.221   6.977   1.493
 7924SOL     OW24670   4.852   6.730   1.668
 7924SOL    HW124671   4.814   6.750   1.577
 7924SOL    HW224672   4.929   6.790   1.686
 7925SOL     OW24673   1.188   1.399   5.984
 7925SOL    HW124674   1.157   1.324   5.926
 7925SOL    HW224675   1.288   1.402   5.983
 7926SOL     OW24676   4.415   1.649   5.471
 7926SOL    HW124677   4.403   1.565   5.418
 7926SOL    HW224678   4.494   1.639   5.531
 7927SOL     OW24679   4.741   5.505   2.307
 7927SOL    HW124680   4.749   5.583   2.369
 7927SOL    HW224681   4.821   5.445   2.317
 7928SOL     OW24682   1.143   1.773   5.066
 7928SOL    HW124683   1.219   1.717   5.099
 7928SOL    HW224684   1.061   1.754   5.119
 7929SOL     OW24685   4.651   4.442   5.591
 7929SOL    HW124686   4.706   4.417   5.512
 7929SOL    HW224687   4.634   4.362   5.648
 7930SOL     OW24688   4.254   5.534   4.770
 7930SOL    HW124689   4.269   5.438   4.792
 7930SOL    HW224690   4.219   5.582   4.851
 7931SOL     OW24691   2.567   3.026   0.017
 7931SOL    HW124692   2.504   3.004   0.091
 7931SOL    HW224693   2.642   2.960   0.015
 7932SOL     OW24694   1.217   6.191   6.560
 7932SOL    HW124695   1.146   6.129   6.591
 7932SOL    HW224696   1.178   6.258   6.497
 7933SOL     OW24697   0.398   6.066   5.803
 7933SOL    HW124698   0.348   6.133   5.748
 7933SOL    HW224699   0.473   6.029   5.749
 7934SOL     OW24700   1.964   5.044   0.124
 7934SOL    HW124701   1.930   4.953   0.101
 7934SOL    HW224702   1.991   5.092   0.040
 7935SOL     OW24703   5.737   5.792   0.899
 7935SOL    HW124704   5.761   5.865   0.835
 7935SOL    HW224705   5.656   5.819   0.951
 7936SOL     OW24706   3.583   6.030   2.854
 7936SOL    HW124707   3.552   6.040   2.760
 7936SOL    HW224708   3.508   5.994   2.910
 7937SOL     OW24709   6.449   6.308   3.439
 7937SOL    HW124710   6.437   6.302   3.539
 7937SOL    HW224711   6.377   6.256   3.394
 7938SOL     OW24712   6.767   5.230   3.927
 7938SOL    HW124713   6.811   5.204   4.013
 7938SOL    HW224714   6.706   5.308   3.943
 7939SOL     OW24715   1.494   2.741   5.072
 7939SOL    HW124716   1.594   2.747   5.063
 7939SOL    HW224717   1.469   2.650   5.104
 7940SOL     OW24718   1.600   3.623   1.626
 7940SOL    HW124719   1.668   3.551   1.635
 7940SOL    HW224720   1.508   3.585   1.639
 7941SOL     OW24721   5.507   0.969   1.127
 7941SOL    HW124722   5.429   1.020   1.163
 7941SOL    HW224723   5.486   0.936   1.035
 7942SOL     OW24724   6.507   6.145   2.534
 7942SOL    HW124725   6.567   6.222   2.557
 7942SOL    HW224726   6.481   6.096   2.617
 7943SOL     OW24727   6.252   3.479   0.230
 7943SOL    HW124728   6.257   3.572   0.266
 7943SOL    HW224729   6.235   3.482   0.132
 7944SOL     OW24730   0.833   2.199   1.741
 7944SOL    HW124731   0.905   2.256   1.778
 7944SOL    HW224732   0.841   2.195   1.641
 7945SOL     OW24733   5.743   5.370   1.141
 7945SOL    HW124734   5.645   5.389   1.142
 7945SOL    HW224735   5.758   5.281   1.097
 7946SOL     OW24736   2.565   0.787   5.479
 7946SOL    HW124737   2.577   0.720   5.552
 7946SOL    HW224738   2.653   0.803   5.434
 7947SOL     OW24739   3.612   2.092   6.143
 7947SOL    HW124740   3.530   2.119   6.193
 7947SOL    HW224741   3.645   2.170   6.090
 7948SOL     OW24742   0.928   6.921   0.626
 7948SOL    HW124743   0.985   6.976   0.565
 7948SOL    HW224744   0.845   6.972   0.648
 7949SOL     OW24745   4.411   4.564   4.676
 7949SOL    HW124746   4.352   4.640   4.647
 7949SOL    HW224747   4.369   4.519   4.755
 7950SOL     OW24748   5.169   5.068   4.120
 7950SOL    HW124749   5.077   5.096   4.148
 7950SOL    HW224750   5.231   5.146   4.123
 7951SOL     OW24751   2.118   3.969   1.767
 7951SOL    HW124752   2.156   3.876   1.773
 7951SOL    HW224753   2.187   4.034   1.797
 7952SOL     OW24754   0.419   3.534   0.485
 7952SOL    HW124755   0.429   3.617   0.540
 7952SOL    HW224756   0.503   3.480   0.489
 7953SOL     OW24757   2.491   2.184   3.990
 7953SOL    HW124758   2.499   2.095   4.034
 7953SOL    HW224759   2.581   2.211   3.953
 7954SOL     OW24760   3.871   4.018   6.438
 7954SOL    HW124761   3.932   4.097   6.442
 7954SOL    HW224762   3.777   4.047   6.458
 7955SOL     OW24763   1.560   6.857   6.566
 7955SOL    HW124764   1.588   6.951   6.545
 7955SOL    HW224765   1.587   6.835   6.660
 7956SOL     OW24766   3.306   6.223   2.454
 7956SOL    HW124767   3.243   6.153   2.420
 7956SOL    HW224768   3.278   6.251   2.546
 7957SOL     OW24769   1.046   1.146   1.641
 7957SOL    HW124770   1.033   1.240   1.609
 7957SOL    HW224771   1.044   1.144   1.741
 7958SOL     OW24772   3.458   5.098   4.422
 7958SOL    HW124773   3.447   5.068   4.517
 7958SOL    HW224774   3.533   5.163   4.416
 7959SOL     OW24775   4.436   5.952   0.862
 7959SOL    HW124776   4.422   6.016   0.787
 7959SOL    HW224777   4.482   5.870   0.829
 7960SOL     OW24778   2.500   0.806   6.474
 7960SOL    HW124779   2.587   0.759   6.461
 7960SOL    HW224780   2.517   0.901   6.500
 7961SOL     OW24781   0.153   0.875   0.866
 7961SOL    HW124782   0.150   0.851   0.769
 7961SOL    HW224783   0.108   0.963   0.880
 7962SOL     OW24784   1.210   0.715   6.618
 7962SOL    HW124785   1.133   0.776   6.635
 7962SOL    HW224786   1.262   0.748   6.539
 7963SOL     OW24787   6.412   6.542   4.050
 7963SOL    HW124788   6.379   6.630   4.085
 7963SOL    HW224789   6.512   6.544   4.044
 7964SOL     OW24790   0.654   4.856   3.000
 7964SOL    HW124791   0.662   4.954   2.980
 7964SOL    HW224792   0.665   4.841   3.098
 7965SOL     OW24793   3.711   2.201   5.635
 7965SOL    HW124794   3.700   2.290   5.591
 7965SOL    HW224795   3.699   2.129   5.567
 7966SOL     OW24796   1.449   2.903   6.127
 7966SOL    HW124797   1.529   2.925   6.071
 7966SOL    HW224798   1.477   2.841   6.200
 7967SOL     OW24799   2.720   6.406   3.135
 7967SOL    HW124800   2.785   6.338   3.101
 7967SOL    HW224801   2.744   6.430   3.229
 7968SOL     OW24802   1.724   2.764   3.986
 7968SOL    HW124803   1.817   2.776   3.951
 7968SOL    HW224804   1.707   2.831   4.058
 7969SOL     OW24805   4.165   6.197   0.407
 7969SOL    HW124806   4.177   6.202   0.506
 7969SOL    HW224807   4.248   6.163   0.364
 7970SOL     OW24808   6.253   2.952   2.756
 7970SOL    HW124809   6.298   2.877   2.804
 7970SOL    HW224810   6.322   3.008   2.709
 7971SOL     OW24811   3.458   2.339   0.341
 7971SOL    HW124812   3.504   2.278   0.406
 7971SOL    HW224813   3.498   2.430   0.347
 7972SOL     OW24814   1.732   3.306   0.595
 7972SOL    HW124815   1.639   3.321   0.561
 7972SOL    HW224816   1.768   3.391   0.632
 7973SOL     OW24817   4.010   4.877   4.476
 7973SOL    HW124818   3.954   4.903   4.554
 7973SOL    HW224819   3.973   4.920   4.393
 7974SOL     OW24820   5.709   1.556   5.549
 7974SOL    HW124821   5.650   1.590   5.477
 7974SOL    HW224822   5.754   1.472   5.518
 7975SOL     OW24823   6.229   1.733   2.453
 7975SOL    HW124824   6.325   1.740   2.428
 7975SOL    HW224825   6.195   1.642   2.431
 7976SOL     OW24826   0.754   7.006   5.990
 7976SOL    HW124827   0.781   6.948   6.067
 7976SOL    HW224828   0.655   7.001   5.977
 7977SOL     OW24829   4.756   6.067   2.087
 7977SOL    HW124830   4.723   6.157   2.115
 7977SOL    HW224831   4.717   6.043   1.998
 7978SOL     OW24832   6.019   3.721   6.770
 7978SOL    HW124833   6.110   3.755   6.745
 7978SOL    HW224834   6.005   3.630   6.731
 7979SOL     OW24835   4.579   6.010   5.299
 7979SOL    HW124836   4.607   6.106   5.302
 7979SOL    HW224837   4.552   5.985   5.206
 7980SOL     OW24838   2.827   5.542   6.812
 7980SOL    HW124839   2.892   5.495   6.871
 7980SOL    HW224840   2.871   5.566   6.725
 7981SOL     OW24841   0.597   5.402   1.520
 7981SOL    HW124842   0.676   5.355   1.559
 7981SOL    HW224843   0.600   5.396   1.421
 7982SOL     OW24844   0.530   1.227   0.035
 7982SOL    HW124845   0.542   1.309   0.091
 7982SOL    HW224846   0.545   1.146   0.092
 7983SOL     OW24847   6.336   2.336   1.834
 7983SOL    HW124848   6.369   2.384   1.752
 7983SOL    HW224849   6.295   2.402   1.897
 7984SOL     OW24850   1.705   1.238   0.925
 7984SOL    HW124851   1.776   1.265   0.990
 7984SOL    HW224852   1.635   1.184   0.971
 7985SOL     OW24853   3.027   0.877   3.923
 7985SOL    HW124854   2.958   0.944   3.949
 7985SOL    HW224855   3.014   0.852   3.826
 7986SOL     OW24856   2.910   1.630   6.638
 7986SOL    HW124857   2.866   1.624   6.549
 7986SOL    HW224858   2.919   1.538   6.676
 7987SOL     OW24859   1.506   2.703   6.743
 7987SOL    HW124860   1.548   2.731   6.829
 7987SOL    HW224861   1.500   2.782   6.682
 7988SOL     OW24862   1.156   2.345   4.030
 7988SOL    HW124863   1.178   2.257   4.074
 7988SOL    HW224864   1.069   2.379   4.068
 7989SOL     OW24865   3.788   3.071   5.246
 7989SOL    HW124866   3.717   3.102   5.183
 7989SOL    HW224867   3.854   3.144   5.261
 7990SOL     OW24868   0.134   3.611   4.710
 7990SOL    HW124869   0.145   3.545   4.783
 7990SOL    HW224870   0.071   3.576   4.641
 7991SOL     OW24871   5.775   6.772   3.606
 7991SOL    HW124872   5.833   6.782   3.687
 7991SOL    HW224873   5.737   6.861   3.582
 7992SOL     OW24874   1.658   7.003   1.312
 7992SOL    HW124875   1.573   6.954   1.295
 7992SOL    HW224876   1.731   6.964   1.255
 7993SOL     OW24877   0.481   6.821   6.845
 7993SOL    HW124878   0.566   6.818   6.792
 7993SOL    HW224879   0.441   6.912   6.840
 7994SOL     OW24880   4.356   6.596   3.904
 7994SOL    HW124881   4.441   6.545   3.916
 7994SOL    HW224882   4.372   6.678   3.850
 7995SOL     OW24883   4.866   5.645   3.753
 7995SOL    HW124884   4.945   5.584   3.761
 7995SOL    HW224885   4.893   5.728   3.704
 7996SOL     OW24886   3.224   0.326   4.665
 7996SOL    HW124887   3.159   0.335   4.741
 7996SOL    HW224888   3.225   0.232   4.633
 7997SOL     OW24889   0.025   1.217   1.377
 7997SOL    HW124890   6.947   1.204   1.401
 7997SOL    HW224891   0.079   1.229   1.460
 7998SOL     OW24892   3.476   5.853   1.250
 7998SOL    HW124893   3.463   5.856   1.349
 7998SOL    HW224894   3.389   5.838   1.204
 7999SOL     OW24895   0.462   6.958   5.983
 7999SOL    HW124896   0.423   6.880   5.933
 7999SOL    HW224897   0.444   6.947   6.081
 8000SOL     OW24898   5.053   0.404   6.631
 8000SOL    HW124899   5.076   0.477   6.567
 8000SOL    HW224900   5.018   0.443   6.716
 8001SOL     OW24901   3.969   6.473   0.800
 8001SOL    HW124902   4.068   6.486   0.802
 8001SOL    HW224903   3.936   6.459   0.893
 8002SOL     OW24904   0.861   2.251   6.083
 8002SOL    HW124905   0.767   2.275   6.104
 8002SOL    HW224906   0.865   2.157   6.051
 8003SOL     OW24907   3.203   5.185   2.736
 8003SOL    HW124908   3.122   5.212   2.683
 8003SOL    HW224909   3.276   5.252   2.722
 8004SOL     OW24910   2.044   3.503   3.122
 8004SOL    HW124911   2.051   3.551   3.034
 8004SOL    HW224912   2.073   3.408   3.111
 8005SOL     OW24913   3.229   0.899   1.802
 8005SOL    HW124914   3.281   0.878   1.885
 8005SOL    HW224915   3.225   0.818   1.744
 8006SOL     OW24916   1.547   0.523   6.454
 8006SOL    HW124917   1.477   0.452   6.468
 8006SOL    HW224918   1.546   0.553   6.359
 8007SOL     OW24919   6.724   0.574   4.265
 8007SOL    HW124920   6.731   0.499   4.199
 8007SOL    HW224921   6.680   0.652   4.222
 8008SOL     OW24922   4.390   5.594   6.296
 8008SOL    HW124923   4.343   5.585   6.209
 8008SOL    HW224924   4.325   5.579   6.371
 8009SOL     OW24925   5.467   0.980   2.644
 8009SOL    HW124926   5.398   0.945   2.707
 8009SOL    HW224927   5.490   1.075   2.669
 8010SOL     OW24928   0.882   0.892   6.451
 8010SOL    HW124929   0.867   0.877   6.549
 8010SOL    HW224930   0.794   0.900   6.405
 8011SOL     OW24931   3.442   2.644   0.773
 8011SOL    HW124932   3.476   2.718   0.716
 8011SOL    HW224933   3.347   2.624   0.749
 8012SOL     OW24934   1.391   4.209   1.530
 8012SOL    HW124935   1.482   4.247   1.546
 8012SOL    HW224936   1.399   4.111   1.511
 8013SOL     OW24937   1.372   5.214   3.935
 8013SOL    HW124938   1.375   5.114   3.940
 8013SOL    HW224939   1.462   5.252   3.954
 8014SOL     OW24940   1.246   6.640   5.295
 8014SOL    HW124941   1.319   6.571   5.297
 8014SOL    HW224942   1.179   6.616   5.225
 8015SOL     OW24943   2.633   0.734   6.977
 8015SOL    HW124944   2.667   0.767   0.047
 8015SOL    HW224945   2.555   0.791   6.949
 8016SOL     OW24946   5.429   0.350   6.230
 8016SOL    HW124947   5.511   0.354   6.287
 8016SOL    HW224948   5.430   0.425   6.165
 8017SOL     OW24949   5.751   0.499   0.704
 8017SOL    HW124950   5.822   0.555   0.747
 8017SOL    HW224951   5.714   0.434   0.770
 8018SOL     OW24952   3.311   1.734   5.528
 8018SOL    HW124953   3.275   1.769   5.442
 8018SOL    HW224954   3.271   1.784   5.604
 8019SOL     OW24955   2.389   4.690   6.526
 8019SOL    HW124956   2.358   4.604   6.565
 8019SOL    HW224957   2.319   4.727   6.465
 8020SOL     OW24958   5.614   1.083   0.801
 8020SOL    HW124959   5.650   1.139   0.876
 8020SOL    HW224960   5.606   0.988   0.831
 8021SOL     OW24961   1.059   2.522   1.368
 8021SOL    HW124962   1.072   2.461   1.290
 8021SOL    HW224963   0.967   2.510   1.405
 8022SOL     OW24964   5.352   6.825   2.349
 8022SOL    HW124965   5.311   6.840   2.439
 8022SOL    HW224966   5.421   6.895   2.332
 8023SOL     OW24967   5.783   5.617   3.058
 8023SOL    HW124968   5.708   5.683   3.050
 8023SOL    HW224969   5.746   5.529   3.089
 8024SOL     OW24970   2.700   5.024   6.889
 8024SOL    HW124971   2.770   4.969   6.936
 8024SOL    HW224972   2.743   5.078   6.816
 8025SOL     OW24973   2.136   6.587   0.032
 8025SOL    HW124974   2.137   6.562   0.129
 8025SOL    HW224975   2.128   6.686   0.023
 8026SOL     OW24976   0.910   4.240   6.937
 8026SOL    HW124977   0.978   4.252   6.864
 8026SOL    HW224978   0.909   4.144   6.966
 8027SOL     OW24979   4.878   0.778   5.398
 8027SOL    HW124980   4.809   0.766   5.469
 8027SOL    HW224981   4.841   0.748   5.310
 8028SOL     OW24982   2.661   5.262   4.696
 8028SOL    HW124983   2.749   5.285   4.740
 8028SOL    HW224984   2.674   5.183   4.636
 8029SOL     OW24985   5.128   3.119   1.641
 8029SOL    HW124986   5.199   3.049   1.642
 8029SOL    HW224987   5.093   3.132   1.734
 8030SOL     OW24988   4.195   4.554   1.045
 8030SOL    HW124989   4.108   4.540   0.998
 8030SOL    HW224990   4.197   4.647   1.083
 8031SOL     OW24991   5.754   6.412   2.330
 8031SOL    HW124992   5.744   6.511   2.315
 8031SOL    HW224993   5.696   6.363   2.265
 8032SOL     OW24994   0.150   5.171   0.918
 8032SOL    HW124995   0.229   5.115   0.944
 8032SOL    HW224996   0.179   5.243   0.856
 8033SOL     OW24997   4.941   1.673   5.887
 8033SOL    HW124998   4.922   1.731   5.808
 8033SOL    HW224999   4.857   1.660   5.940
 8034SOL     OW25000   5.487   6.790   4.824
 8034SOL    HW125001   5.570   6.795   4.879
 8034SOL    HW225002   5.410   6.827   4.876
 8035SOL     OW25003   4.905   1.668   4.306
 8035SOL    HW125004   4.984   1.724   4.333
 8035SOL    HW225005   4.879   1.608   4.381
 8036SOL     OW25006   0.372   3.991   3.093
 8036SOL    HW125007   0.412   4.060   3.033
 8036SOL    HW225008   0.445   3.940   3.139
 8037SOL     OW25009   1.201   3.198   0.525
 8037SOL    HW125010   1.189   3.216   0.428
 8037SOL    HW225011   1.194   3.100   0.542
 8038SOL     OW25012   3.941   0.070   1.937
 8038SOL    HW125013   3.894   7.000   1.929
 8038SOL    HW225014   3.940   0.117   1.848
 8039SOL     OW25015   0.851   1.828   4.607
 8039SOL    HW125016   0.866   1.832   4.705
 8039SOL    HW225017   0.913   1.761   4.566
 8040SOL     OW25018   1.517   6.112   0.187
 8040SOL    HW125019   1.613   6.116   0.216
 8040SOL    HW225020   1.510   6.138   0.091
 8041SOL     OW25021   2.818   1.430   2.461
 8041SOL    HW125022   2.750   1.436   2.389
 8041SOL    HW225023   2.772   1.419   2.549
 8042SOL     OW25024   3.028   3.837   3.770
 8042SOL    HW125025   2.980   3.767   3.823
 8042SOL    HW225026   2.981   3.852   3.683
 8043SOL     OW25027   4.087   6.638   2.367
 8043SOL    HW125028   4.028   6.691   2.428
 8043SOL    HW225029   4.139   6.700   2.309
 8044SOL     OW25030   3.919   2.536   1.372
 8044SOL    HW125031   3.981   2.521   1.295
 8044SOL    HW225032   3.859   2.456   1.382
 8045SOL     OW25033   4.985   1.156   2.342
 8045SOL    HW125034   5.067   1.101   2.360
 8045SOL    HW225035   4.998   1.209   2.258
 8046SOL     OW25036   0.340   5.021   1.142
 8046SOL    HW125037   0.380   5.109   1.115
 8046SOL    HW225038   0.259   5.037   1.198
 8047SOL     OW25039   4.139   5.849   4.353
 8047SOL    HW125040   4.079   5.807   4.421
 8047SOL    HW225041   4.084   5.904   4.290
 8048SOL     OW25042   5.046   1.079   5.622
 8048SOL    HW125043   5.091   1.141   5.558
 8048SOL    HW225044   4.955   1.114   5.643
 8049SOL     OW25045   0.874   0.181   6.844
 8049SOL    HW125046   0.835   0.136   6.924
 8049SOL    HW225047   0.826   0.151   6.761
 8050SOL     OW25048   1.544   4.022   3.147
 8050SOL    HW125049   1.447   3.995   3.140
 8050SOL    HW225050   1.592   3.991   3.065
 8051SOL     OW25051   4.454   5.719   3.252
 8051SOL    HW125052   4.424   5.713   3.157
 8051SOL    HW225053   4.443   5.630   3.296
 8052SOL     OW25054   4.685   1.488   1.744
 8052SOL    HW125055   4.590   1.489   1.777
 8052SOL    HW225056   4.740   1.549   1.800
 8053SOL     OW25057   2.925   3.809   3.238
 8053SOL    HW125058   2.939   3.853   3.149
 8053SOL    HW225059   2.895   3.715   3.225
 8054SOL     OW25060   5.019   0.075   4.532
 8054SOL    HW125061   5.067   0.053   4.618
 8054SOL    HW225062   5.071   0.146   4.483
 8055SOL     OW25063   0.466   0.404   5.596
 8055SOL    HW125064   0.503   0.366   5.681
 8055SOL    HW225065   0.425   0.331   5.541
 8056SOL     OW25066   2.810   1.413   4.345
 8056SOL    HW125067   2.810   1.433   4.247
 8056SOL    HW225068   2.880   1.344   4.364
 8057SOL     OW25069   3.109   1.485   3.384
 8057SOL    HW125070   3.101   1.515   3.288
 8057SOL    HW225071   3.017   1.475   3.423
 8058SOL     OW25072   4.094   0.550   1.778
 8058SOL    HW125073   4.146   0.479   1.825
 8058SOL    HW225074   4.157   0.616   1.737
 8059SOL     OW25075   3.883   1.736   4.338
 8059SOL    HW125076   3.942   1.705   4.263
 8059SOL    HW225077   3.886   1.668   4.412
 8060SOL     OW25078   6.436   2.334   4.172
 8060SOL    HW125079   6.339   2.342   4.195
 8060SOL    HW225080   6.473   2.425   4.154
 8061SOL     OW25081   0.581   1.344   2.993
 8061SOL    HW125082   0.607   1.411   3.062
 8061SOL    HW225083   0.482   1.334   2.992
 8062SOL     OW25084   3.601   5.228   4.068
 8062SOL    HW125085   3.675   5.180   4.021
 8062SOL    HW225086   3.564   5.298   4.007
 8063SOL     OW25087   0.814   2.456   1.483
 8063SOL    HW125088   0.724   2.470   1.441
 8063SOL    HW225089   0.840   2.359   1.474
 8064SOL     OW25090   6.976   4.104   2.122
 8064SOL    HW125091   6.915   4.095   2.200
 8064SOL    HW225092   6.946   4.180   2.064
 8065SOL     OW25093   2.360   5.994   3.653
 8065SOL    HW125094   2.435   6.043   3.609
 8065SOL    HW225095   2.355   5.901   3.616
 8066SOL     OW25096   6.839   2.181   5.569
 8066SOL    HW125097   6.801   2.093   5.598
 8066SOL    HW225098   6.808   2.253   5.632
 8067SOL     OW25099   4.537   2.818   1.729
 8067SOL    HW125100   4.566   2.906   1.766
 8067SOL    HW225101   4.586   2.744   1.775
 8068SOL     OW25102   0.079   3.942   1.129
 8068SOL    HW125103   0.144   3.887   1.077
 8068SOL    HW225104   7.018   3.962   1.072
 8069SOL     OW25105   1.883   6.849   1.220
 8069SOL    HW125106   1.917   6.843   1.314
 8069SOL    HW225107   1.876   6.756   1.182
 8070SOL     OW25108   3.585   3.096   0.073
 8070SOL    HW125109   3.487   3.079   0.056
 8070SOL    HW225110   3.597   3.131   0.165
 8071SOL     OW25111   2.592   6.233   4.783
 8071SOL    HW125112   2.503   6.190   4.769
 8071SOL    HW225113   2.618   6.225   4.879
 8072SOL     OW25114   3.480   0.939   0.275
 8072SOL    HW125115   3.475   1.034   0.305
 8072SOL    HW225116   3.554   0.929   0.209
 8073SOL     OW25117   3.345   5.401   4.385
 8073SOL    HW125118   3.392   5.322   4.347
 8073SOL    HW225119   3.283   5.372   4.458
 8074SOL     OW25120   3.788   2.372   0.670
 8074SOL    HW125121   3.803   2.452   0.612
 8074SOL    HW225122   3.857   2.302   0.650
 8075SOL     OW25123   0.470   0.626   1.006
 8075SOL    HW125124   0.528   0.698   0.969
 8075SOL    HW225125   0.504   0.598   1.095
 8076SOL     OW25126   6.270   2.104   5.287
 8076SOL    HW125127   6.205   2.099   5.212
 8076SOL    HW225128   6.251   2.030   5.352
 8077SOL     OW25129   2.831   5.815   1.911
 8077SOL    HW125130   2.863   5.737   1.858
 8077SOL    HW225131   2.796   5.886   1.849
 8078SOL     OW25132   6.819   1.458   0.312
 8078SOL    HW125133   6.786   1.524   0.379
 8078SOL    HW225134   6.910   1.486   0.279
 8079SOL     OW25135   4.675   1.709   3.091
 8079SOL    HW125136   4.730   1.700   3.174
 8079SOL    HW225137   4.683   1.803   3.056
 8080SOL     OW25138   0.490   2.698   0.662
 8080SOL    HW125139   0.485   2.788   0.620
 8080SOL    HW225140   0.543   2.704   0.747
 8081SOL     OW25141   5.237   6.338   4.990
 8081SOL    HW125142   5.203   6.260   4.937
 8081SOL    HW225143   5.161   6.388   5.030
 8082SOL     OW25144   4.777   6.565   1.857
 8082SOL    HW125145   4.795   6.641   1.794
 8082SOL    HW225146   4.862   6.539   1.902
 8083SOL     OW25147   4.937   3.622   2.548
 8083SOL    HW125148   4.890   3.686   2.488
 8083SOL    HW225149   4.932   3.654   2.643
 8084SOL     OW25150   4.983   0.244   0.403
 8084SOL    HW125151   4.913   0.257   0.332
 8084SOL    HW225152   5.032   0.158   0.386
 8085SOL     OW25153   6.475   6.139   1.995
 8085SOL    HW125154   6.393   6.082   1.991
 8085SOL    HW225155   6.520   6.126   2.084
 8086SOL     OW25156   5.161   1.241   3.314
 8086SOL    HW125157   5.112   1.161   3.348
 8086SOL    HW225158   5.249   1.212   3.275
 8087SOL     OW25159   2.983   1.496   0.436
 8087SOL    HW125160   2.889   1.508   0.403
 8087SOL    HW225161   2.984   1.506   0.536
 8088SOL     OW25162   5.134   2.508   1.383
 8088SOL    HW125163   5.219   2.523   1.332
 8088SOL    HW225164   5.141   2.421   1.433
 8089SOL     OW25165   5.140   2.226   0.602
 8089SOL    HW125166   5.130   2.269   0.513
 8089SOL    HW225167   5.128   2.127   0.592
 8090SOL     OW25168   4.890   1.647   0.435
 8090SOL    HW125169   4.963   1.690   0.488
 8090SOL    HW225170   4.823   1.716   0.407
 8091SOL     OW25171   2.499   3.353   5.305
 8091SOL    HW125172   2.575   3.417   5.296
 8091SOL    HW225173   2.534   3.263   5.330
 8092SOL     OW25174   6.385   2.351   5.314
 8092SOL    HW125175   6.337   2.263   5.315
 8092SOL    HW225176   6.373   2.394   5.225
 8093SOL     OW25177   3.828   5.157   2.974
 8093SOL    HW125178   3.927   5.155   2.991
 8093SOL    HW225179   3.796   5.064   2.957
 8094SOL     OW25180   1.482   3.758   5.122
 8094SOL    HW125181   1.435   3.825   5.064
 8094SOL    HW225182   1.573   3.793   5.146
 8095SOL     OW25183   6.910   4.258   5.459
 8095SOL    HW125184   6.970   4.244   5.379
 8095SOL    HW225185   6.958   4.314   5.526
 8096SOL     OW25186   2.479   6.309   3.055
 8096SOL    HW125187   2.486   6.228   2.997
 8096SOL    HW225188   2.569   6.351   3.066
 8097SOL     OW25189   4.127   6.853   3.808
 8097SOL    HW125190   4.184   6.890   3.881
 8097SOL    HW225191   4.082   6.769   3.840
 8098SOL     OW25192   1.649   0.214   3.347
 8098SOL    HW125193   1.604   0.136   3.389
 8098SOL    HW225194   1.585   0.291   3.343
 8099SOL     OW25195   3.871   0.337   4.349
 8099SOL    HW125196   3.827   0.265   4.403
 8099SOL    HW225197   3.836   0.426   4.377
 8100SOL     OW25198   5.878   0.961   0.817
 8100SOL    HW125199   5.869   1.045   0.870
 8100SOL    HW225200   5.845   0.977   0.724
 8101SOL     OW25201   1.841   0.394   3.511
 8101SOL    HW125202   1.812   0.319   3.452
 8101SOL    HW225203   1.774   0.468   3.505
 8102SOL     OW25204   0.345   4.729   4.639
 8102SOL    HW125205   0.389   4.725   4.728
 8102SOL    HW225206   0.268   4.665   4.637
 8103SOL     OW25207   4.033   6.833   1.363
 8103SOL    HW125208   4.017   6.876   1.451
 8103SOL    HW225209   4.062   6.738   1.377
 8104SOL     OW25210   2.984   0.050   6.121
 8104SOL    HW125211   2.962   6.992   6.061
 8104SOL    HW225212   2.934   0.132   6.092
 8105SOL     OW25213   0.661   2.244   3.045
 8105SOL    HW125214   0.745   2.252   2.992
 8105SOL    HW225215   0.585   2.287   2.995
 8106SOL     OW25216   2.214   5.888   2.810
 8106SOL    HW125217   2.226   5.842   2.721
 8106SOL    HW225218   2.255   5.979   2.805
 8107SOL     OW25219   0.529   4.998   4.762
 8107SOL    HW125220   0.455   5.032   4.821
 8107SOL    HW225221   0.542   5.061   4.686
 8108SOL     OW25222   6.091   3.234   5.317
 8108SOL    HW125223   6.118   3.138   5.328
 8108SOL    HW225224   6.051   3.268   5.402
 8109SOL     OW25225   1.708   3.850   4.340
 8109SOL    HW125226   1.741   3.821   4.430
 8109SOL    HW225227   1.744   3.940   4.319
 8110SOL     OW25228   3.248   6.166   0.847
 8110SOL    HW125229   3.175   6.227   0.876
 8110SOL    HW225230   3.316   6.157   0.920
 8111SOL     OW25231   4.422   0.244   4.879
 8111SOL    HW125232   4.486   0.178   4.840
 8111SOL    HW225233   4.378   0.204   4.960
 8112SOL     OW25234   2.554   2.556   4.850
 8112SOL    HW125235   2.510   2.646   4.845
 8112SOL    HW225236   2.566   2.519   4.758
 8113SOL     OW25237   3.002   3.225   0.836
 8113SOL    HW125238   2.916   3.191   0.874
 8113SOL    HW225239   2.984   3.269   0.748
 8114SOL     OW25240   2.041   3.620   1.487
 8114SOL    HW125241   2.064   3.589   1.580
 8114SOL    HW225242   2.000   3.543   1.437
 8115SOL     OW25243   3.196   0.061   0.396
 8115SOL    HW125244   3.287   0.102   0.392
 8115SOL    HW225245   3.185   0.013   0.483
 8116SOL     OW25246   4.274   5.607   6.017
 8116SOL    HW125247   4.193   5.553   6.037
 8116SOL    HW225248   4.248   5.701   5.994
 8117SOL     OW25249   1.676   0.969   3.774
 8117SOL    HW125250   1.714   0.951   3.865
 8117SOL    HW225251   1.748   1.006   3.715
 8118SOL     OW25252   6.125   4.210   6.285
 8118SOL    HW125253   6.210   4.248   6.321
 8118SOL    HW225254   6.051   4.276   6.299
 8119SOL     OW25255   6.323   6.219   5.592
 8119SOL    HW125256   6.339   6.189   5.498
 8119SOL    HW225257   6.386   6.170   5.653
 8120SOL     OW25258   2.168   5.277   0.395
 8120SOL    HW125259   2.075   5.260   0.363
 8120SOL    HW225260   2.230   5.284   0.317
 8121SOL     OW25261   0.509   4.369   1.680
 8121SOL    HW125262   0.548   4.460   1.673
 8121SOL    HW225263   0.454   4.362   1.764
 8122SOL     OW25264   1.369   6.039   2.184
 8122SOL    HW125265   1.417   5.956   2.156
 8122SOL    HW225266   1.397   6.064   2.277
 8123SOL     OW25267   6.455   0.734   6.862
 8123SOL    HW125268   6.367   0.728   6.814
 8123SOL    HW225269   6.507   0.812   6.826
 8124SOL     OW25270   6.698   6.169   1.235
 8124SOL    HW125271   6.657   6.102   1.173
 8124SOL    HW225272   6.785   6.134   1.268
 8125SOL     OW25273   1.180   0.709   3.940
 8125SOL    HW125274   1.104   0.729   4.002
 8125SOL    HW225275   1.191   0.610   3.932
 8126SOL     OW25276   5.395   4.657   2.701
 8126SOL    HW125277   5.404   4.661   2.601
 8126SOL    HW225278   5.450   4.730   2.742
 8127SOL     OW25279   3.102   6.098   6.340
 8127SOL    HW125280   3.056   6.103   6.251
 8127SOL    HW225281   3.191   6.055   6.329
 8128SOL     OW25282   2.943   2.090   1.563
 8128SOL    HW125283   3.003   2.037   1.624
 8128SOL    HW225284   2.924   2.179   1.605
 8129SOL     OW25285   4.033   0.605   5.846
 8129SOL    HW125286   3.982   0.667   5.906
 8129SOL    HW225287   4.121   0.646   5.824
 8130SOL     OW25288   0.255   3.601   6.358
 8130SOL    HW125289   0.336   3.605   6.300
 8130SOL    HW225290   0.281   3.569   6.450
 8131SOL     OW25291   3.524   1.844   0.961
 8131SOL    HW125292   3.603   1.812   0.909
 8131SOL    HW225293   3.554   1.893   1.043
 8132SOL     OW25294   5.675   6.307   5.986
 8132SOL    HW125295   5.608   6.237   6.014
 8132SOL    HW225296   5.750   6.309   6.052
 8133SOL     OW25297   2.867   4.798   1.571
 8133SOL    HW125298   2.854   4.702   1.548
 8133SOL    HW225299   2.875   4.807   1.670
 8134SOL     OW25300   0.776   2.738   5.290
 8134SOL    HW125301   0.710   2.806   5.258
 8134SOL    HW225302   0.734   2.682   5.361
 8135SOL     OW25303   2.574   5.943   1.167
 8135SOL    HW125304   2.583   5.977   1.074
 8135SOL    HW225305   2.597   5.846   1.170
 8136SOL     OW25306   4.354   4.869   3.190
 8136SOL    HW125307   4.348   4.965   3.162
 8136SOL    HW225308   4.440   4.854   3.240
 8137SOL     OW25309   3.577   1.459   4.837
 8137SOL    HW125310   3.488   1.414   4.826
 8137SOL    HW225311   3.570   1.554   4.806
 8138SOL     OW25312   6.179   1.813   0.548
 8138SOL    HW125313   6.164   1.881   0.476
 8138SOL    HW225314   6.260   1.758   0.524
 8139SOL     OW25315   1.246   1.742   3.573
 8139SOL    HW125316   1.163   1.701   3.536
 8139SOL    HW225317   1.264   1.705   3.664
 8140SOL     OW25318   4.513   0.264   0.880
 8140SOL    HW125319   4.504   0.221   0.969
 8140SOL    HW225320   4.580   0.213   0.825
 8141SOL     OW25321   4.618   6.269   5.387
 8141SOL    HW125322   4.693   6.227   5.440
 8141SOL    HW225323   4.580   6.346   5.439
 8142SOL     OW25324   1.645   5.089   0.336
 8142SOL    HW125325   1.562   5.045   0.371
 8142SOL    HW225326   1.619   5.164   0.276
 8143SOL     OW25327   6.762   4.365   0.287
 8143SOL    HW125328   6.705   4.286   0.306
 8143SOL    HW225329   6.852   4.353   0.329
 8144SOL     OW25330   0.279   6.274   6.107
 8144SOL    HW125331   0.326   6.187   6.104
 8144SOL    HW225332   0.197   6.266   6.163
 8145SOL     OW25333   5.285   5.392   1.335
 8145SOL    HW125334   5.310   5.403   1.431
 8145SOL    HW225335   5.363   5.415   1.277
 8146SOL     OW25336   4.774   0.669   5.150
 8146SOL    HW125337   4.797   0.639   5.057
 8146SOL    HW225338   4.679   0.644   5.170
 8147SOL     OW25339   6.756   1.301   2.190
 8147SOL    HW125340   6.680   1.238   2.175
 8147SOL    HW225341   6.765   1.361   2.111
 8148SOL     OW25342   5.359   4.363   0.746
 8148SOL    HW125343   5.292   4.312   0.693
 8148SOL    HW225344   5.431   4.300   0.777
 8149SOL     OW25345   2.115   6.043   3.061
 8149SOL    HW125346   2.048   6.117   3.047
 8149SOL    HW225347   2.082   5.959   3.019
 8150SOL     OW25348   1.588   3.740   1.175
 8150SOL    HW125349   1.505   3.728   1.121
 8150SOL    HW225350   1.605   3.838   1.189
 8151SOL     OW25351   5.784   4.792   2.937
 8151SOL    HW125352   5.795   4.693   2.951
 8151SOL    HW225353   5.699   4.810   2.888
 8152SOL     OW25354   5.871   2.216   3.105
 8152SOL    HW125355   5.881   2.131   3.052
 8152SOL    HW225356   5.905   2.202   3.197
 8153SOL     OW25357   1.280   1.936   3.740
 8153SOL    HW125358   1.218   1.937   3.819
 8153SOL    HW225359   1.244   1.873   3.671
 8154SOL     OW25360   3.726   6.079   2.401
 8154SOL    HW125361   3.742   6.073   2.302
 8154SOL    HW225362   3.780   6.154   2.439
 8155SOL     OW25363   1.556   3.229   1.719
 8155SOL    HW125364   1.494   3.261   1.791
 8155SOL    HW225365   1.517   3.149   1.674
 8156SOL     OW25366   4.969   6.231   0.436
 8156SOL    HW125367   5.009   6.187   0.356
 8156SOL    HW225368   4.927   6.318   0.409
 8157SOL     OW25369   6.341   4.939   6.064
 8157SOL    HW125370   6.327   4.846   6.028
 8157SOL    HW225371   6.308   4.944   6.158
 8158SOL     OW25372   5.110   4.295   0.002
 8158SOL    HW125373   5.085   4.303   0.098
 8158SOL    HW225374   5.159   4.208   7.006
 8159SOL     OW25375   2.110   5.390   2.712
 8159SOL    HW125376   2.126   5.448   2.632
 8159SOL    HW225377   2.178   5.317   2.715
 8160SOL     OW25378   5.388   0.661   3.777
 8160SOL    HW125379   5.361   0.658   3.874
 8160SOL    HW225380   5.417   0.753   3.754
 8161SOL     OW25381   6.175   2.490   6.434
 8161SOL    HW125382   6.224   2.493   6.347
 8161SOL    HW225383   6.111   2.566   6.440
 8162SOL     OW25384   6.250   6.550   6.929
 8162SOL    HW125385   6.189   6.470   6.929
 8162SOL    HW225386   6.196   6.632   6.910
 8163SOL     OW25387   2.634   4.192   5.477
 8163SOL    HW125388   2.632   4.115   5.414
 8163SOL    HW225389   2.713   4.250   5.457
 8164SOL     OW25390   4.744   2.448   0.062
 8164SOL    HW125391   4.728   2.358   0.021
 8164SOL    HW225392   4.809   2.499   0.005
 8165SOL     OW25393   0.481   3.928   5.822
 8165SOL    HW125394   0.547   3.990   5.864
 8165SOL    HW225395   0.489   3.838   5.863
 8166SOL     OW25396   1.472   0.423   3.291
 8166SOL    HW125397   1.420   0.435   3.206
 8166SOL    HW225398   1.454   0.501   3.352
 8167SOL     OW25399   0.107   7.004   3.790
 8167SOL    HW125400   0.023   6.983   3.742
 8167SOL    HW225401   0.136   6.924   3.843
 8168SOL     OW25402   2.654   1.446   2.691
 8168SOL    HW125403   2.632   1.541   2.673
 8168SOL    HW225404   2.574   1.389   2.672
 8169SOL     OW25405   4.848   2.049   0.506
 8169SOL    HW125406   4.825   2.102   0.587
 8169SOL    HW225407   4.827   2.102   0.424
 8170SOL     OW25408   1.259   5.517   1.850
 8170SOL    HW125409   1.273   5.550   1.943
 8170SOL    HW225410   1.317   5.568   1.786
 8171SOL     OW25411   1.913   1.681   6.367
 8171SOL    HW125412   1.999   1.730   6.353
 8171SOL    HW225413   1.837   1.737   6.334
 8172SOL     OW25414   0.335   1.986   2.060
 8172SOL    HW125415   0.260   1.976   2.125
 8172SOL    HW225416   0.395   2.059   2.089
 8173SOL     OW25417   5.714   1.947   2.125
 8173SOL    HW125418   5.653   1.903   2.191
 8173SOL    HW225419   5.674   1.942   2.034
 8174SOL     OW25420   6.278   1.073   2.560
 8174SOL    HW125421   6.298   1.141   2.489
 8174SOL    HW225422   6.219   1.002   2.522
 8175SOL     OW25423   0.565   2.996   5.463
 8175SOL    HW125424   0.595   2.968   5.372
 8175SOL    HW225425   0.569   3.096   5.470
 8176SOL     OW25426   2.126   4.985   1.483
 8176SOL    HW125427   2.166   4.981   1.391
 8176SOL    HW225428   2.045   5.043   1.482
 8177SOL     OW25429   3.540   6.402   3.592
 8177SOL    HW125430   3.609   6.470   3.619
 8177SOL    HW225431   3.509   6.353   3.673
 8178SOL     OW25432   2.808   6.209   0.513
 8178SOL    HW125433   2.736   6.273   0.539
 8178SOL    HW225434   2.884   6.260   0.471
 8179SOL     OW25435   4.645   2.171   4.836
 8179SOL    HW125436   4.718   2.133   4.780
 8179SOL    HW225437   4.681   2.249   4.889
 8180SOL     OW25438   6.365   0.717   5.208
 8180SOL    HW125439   6.421   0.744   5.130
 8180SOL    HW225440   6.423   0.706   5.289
 8181SOL     OW25441   1.865   1.096   0.714
 8181SOL    HW125442   1.840   1.139   0.801
 8181SOL    HW225443   1.960   1.068   0.717
 8182SOL     OW25444   3.351   3.802   5.863
 8182SOL    HW125445   3.312   3.710   5.853
 8182SOL    HW225446   3.369   3.841   5.773
 8183SOL     OW25447   6.682   2.323   4.813
 8183SOL    HW125448   6.673   2.236   4.861
 8183SOL    HW225449   6.652   2.397   4.873
 8184SOL     OW25450   6.422   0.715   0.466
 8184SOL    HW125451   6.443   0.638   0.406
 8184SOL    HW225452   6.478   0.794   0.440
 8185SOL     OW25453   1.979   0.278   0.052
 8185SOL    HW125454   2.047   0.299   7.000
 8185SOL    HW225455   1.900   0.234   0.010
 8186SOL     OW25456   3.626   4.884   5.297
 8186SOL    HW125457   3.572   4.889   5.213
 8186SOL    HW225458   3.708   4.829   5.281
 8187SOL     OW25459   1.455   1.824   4.722
 8187SOL    HW125460   1.505   1.836   4.808
 8187SOL    HW225461   1.429   1.913   4.685
 8188SOL     OW25462   5.988   2.902   2.870
 8188SOL    HW125463   6.079   2.936   2.847
 8188SOL    HW225464   5.930   2.902   2.788
 8189SOL     OW25465   5.016   4.614   3.085
 8189SOL    HW125466   4.925   4.575   3.070
 8189SOL    HW225467   5.058   4.632   2.997
 8190SOL     OW25468   4.906   5.251   4.470
 8190SOL    HW125469   4.914   5.338   4.423
 8190SOL    HW225470   4.840   5.193   4.421
 8191SOL     OW25471   3.365   6.254   1.758
 8191SOL    HW125472   3.306   6.211   1.826
 8191SOL    HW225473   3.458   6.261   1.793
 8192SOL     OW25474   3.798   4.598   0.722
 8192SOL    HW125475   3.768   4.689   0.694
 8192SOL    HW225476   3.843   4.552   0.646
 8193SOL     OW25477   6.816   6.017   5.052
 8193SOL    HW125478   6.907   6.058   5.051
 8193SOL    HW225479   6.748   6.084   5.021
 8194SOL     OW25480   5.147   2.175   1.091
 8194SOL    HW125481   5.156   2.209   0.997
 8194SOL    HW225482   5.081   2.230   1.140
 8195SOL     OW25483   1.774   0.469   2.218
 8195SOL    HW125484   1.705   0.497   2.285
 8195SOL    HW225485   1.814   0.382   2.247
 8196SOL     OW25486   3.516   6.025   6.001
 8196SOL    HW125487   3.573   5.951   5.965
 8196SOL    HW225488   3.420   6.008   5.975
 8197SOL     OW25489   4.458   1.786   0.102
 8197SOL    HW125490   4.487   1.845   0.027
 8197SOL    HW225491   4.359   1.773   0.099
 8198SOL     OW25492   3.443   0.025   2.791
 8198SOL    HW125493   3.409   0.097   2.851
 8198SOL    HW225494   3.373   6.972   2.780
 8199SOL     OW25495   6.190   3.039   6.391
 8199SOL    HW125496   6.230   3.015   6.480
 8199SOL    HW225497   6.262   3.069   6.329
 8200SOL     OW25498   5.542   4.411   1.934
 8200SOL    HW125499   5.486   4.360   2.000
 8200SOL    HW225500   5.608   4.468   1.982
 8201SOL     OW25501   5.690   0.458   3.762
 8201SOL    HW125502   5.609   0.412   3.726
 8201SOL    HW225503   5.727   0.518   3.691
 8202SOL     OW25504   0.534   5.867   4.215
 8202SOL    HW125505   0.633   5.878   4.224
 8202SOL    HW225506   0.515   5.780   4.169
 8203SOL     OW25507   3.850   2.588   0.465
 8203SOL    HW125508   3.885   2.630   0.549
 8203SOL    HW225509   3.913   2.608   0.390
 8204SOL     OW25510   2.962   4.914   6.683
 8204SOL    HW125511   2.982   4.991   6.622
 8204SOL    HW225512   2.913   4.947   6.763
 8205SOL     OW25513   0.463   4.824   0.427
 8205SOL    HW125514   0.466   4.728   0.454
 8205SOL    HW225515   0.489   4.834   0.332
 8206SOL     OW25516   4.935   2.617   5.999
 8206SOL    HW125517   4.898   2.618   6.092
 8206SOL    HW225518   5.013   2.679   5.993
 8207SOL     OW25519   3.228   4.048   4.371
 8207SOL    HW125520   3.268   3.970   4.322
 8207SOL    HW225521   3.142   4.074   4.328
 8208SOL     OW25522   1.993   0.199   1.309
 8208SOL    HW125523   1.970   0.169   1.401
 8208SOL    HW225524   1.985   0.123   1.245
 8209SOL     OW25525   0.511   1.338   5.290
 8209SOL    HW125526   0.451   1.259   5.305
 8209SOL    HW225527   0.510   1.396   5.371
 8210SOL     OW25528   2.099   1.559   1.285
 8210SOL    HW125529   2.106   1.603   1.195
 8210SOL    HW225530   2.191   1.538   1.318
 8211SOL     OW25531   3.944   4.006   1.866
 8211SOL    HW125532   3.919   4.073   1.797
 8211SOL    HW225533   4.034   3.967   1.845
 8212SOL     OW25534   2.351   1.582   1.996
 8212SOL    HW125535   2.381   1.647   1.926
 8212SOL    HW225536   2.403   1.598   2.080
 8213SOL     OW25537   6.493   4.495   2.445
 8213SOL    HW125538   6.545   4.558   2.387
 8213SOL    HW225539   6.455   4.422   2.389
 8214SOL     OW25540   6.853   5.404   4.991
 8214SOL    HW125541   6.782   5.333   4.994
 8214SOL    HW225542   6.943   5.360   4.993
 8215SOL     OW25543   2.465   5.690   5.945
 8215SOL    HW125544   2.386   5.669   5.887
 8215SOL    HW225545   2.453   5.646   6.034
 8216SOL     OW25546   4.839   5.006   3.932
 8216SOL    HW125547   4.912   4.969   3.875
 8216SOL    HW225548   4.874   5.082   3.987
 8217SOL     OW25549   1.994   3.897   1.497
 8217SOL    HW125550   2.027   3.929   1.585
 8217SOL    HW225551   2.012   3.799   1.488
 8218SOL     OW25552   0.304   6.688   4.755
 8218SOL    HW125553   0.284   6.716   4.848
 8218SOL    HW225554   0.389   6.730   4.725
 8219SOL     OW25555   3.920   3.339   0.407
 8219SOL    HW125556   3.982   3.402   0.455
 8219SOL    HW225557   3.942   3.339   0.309
 8220SOL     OW25558   3.160   4.011   4.080
 8220SOL    HW125559   3.088   3.942   4.091
 8220SOL    HW225560   3.176   4.026   3.982
 8221SOL     OW25561   5.901   6.407   3.155
 8221SOL    HW125562   5.802   6.407   3.172
 8221SOL    HW225563   5.919   6.420   3.058
 8222SOL     OW25564   5.405   1.509   1.612
 8222SOL    HW125565   5.308   1.503   1.635
 8222SOL    HW225566   5.444   1.417   1.606
 8223SOL     OW25567   1.363   4.329   5.396
 8223SOL    HW125568   1.439   4.270   5.424
 8223SOL    HW225569   1.311   4.285   5.324
 8224SOL     OW25570   5.401   2.645   2.180
 8224SOL    HW125571   5.311   2.689   2.175
 8224SOL    HW225572   5.415   2.591   2.097
 8225SOL     OW25573   3.650   1.671   1.186
 8225SOL    HW125574   3.658   1.771   1.186
 8225SOL    HW225575   3.581   1.644   1.253
 8226SOL     OW25576   3.642   5.994   0.096
 8226SOL    HW125577   3.585   6.008   0.176
 8226SOL    HW225578   3.588   6.010   0.013
 8227SOL     OW25579   0.209   1.253   2.228
 8227SOL    HW125580   0.164   1.171   2.266
 8227SOL    HW225581   0.221   1.321   2.300
 8228SOL     OW25582   6.717   1.614   5.896
 8228SOL    HW125583   6.682   1.668   5.972
 8228SOL    HW225584   6.799   1.657   5.859
 8229SOL     OW25585   4.451   3.458   1.089
 8229SOL    HW125586   4.471   3.556   1.082
 8229SOL    HW225587   4.382   3.434   1.022
 8230SOL     OW25588   3.475   0.075   4.938
 8230SOL    HW125589   3.466   7.016   4.873
 8230SOL    HW225590   3.384   0.106   4.965
 8231SOL     OW25591   3.030   2.741   1.274
 8231SOL    HW125592   2.950   2.787   1.235
 8231SOL    HW225593   3.113   2.776   1.231
 8232SOL     OW25594   5.301   2.104   2.016
 8232SOL    HW125595   5.234   2.175   2.037
 8232SOL    HW225596   5.262   2.014   2.035
 8233SOL     OW25597   1.458   6.773   6.331
 8233SOL    HW125598   1.373   6.824   6.324
 8233SOL    HW225599   1.508   6.804   6.412
 8234SOL     OW25600   2.693   3.684   6.729
 8234SOL    HW125601   2.783   3.721   6.755
 8234SOL    HW225602   2.685   3.590   6.762
 8235SOL     OW25603   0.436   3.029   6.833
 8235SOL    HW125604   0.403   2.961   6.898
 8235SOL    HW225605   0.459   2.984   6.747
 8236SOL     OW25606   0.568   5.039   0.565
 8236SOL    HW125607   0.530   4.956   0.525
 8236SOL    HW225608   0.650   5.066   0.515
 8237SOL     OW25609   4.418   6.011   6.040
 8237SOL    HW125610   4.448   5.948   5.968
 8237SOL    HW225611   4.395   6.099   5.999
 8238SOL     OW25612   0.571   5.346   6.527
 8238SOL    HW125613   0.513   5.280   6.480
 8238SOL    HW225614   0.538   5.439   6.509
 8239SOL     OW25615   0.277   1.185   5.384
 8239SOL    HW125616   0.283   1.089   5.356
 8239SOL    HW225617   0.209   1.232   5.327
 8240SOL     OW25618   3.858   3.964   2.619
 8240SOL    HW125619   3.773   3.952   2.669
 8240SOL    HW225620   3.838   3.994   2.526
 8241SOL     OW25621   3.328   5.706   6.079
 8241SOL    HW125622   3.310   5.774   6.151
 8241SOL    HW225623   3.420   5.720   6.043
 8242SOL     OW25624   0.222   4.278   6.101
 8242SOL    HW125625   0.269   4.216   6.164
 8242SOL    HW225626   0.129   4.295   6.133
 8243SOL     OW25627   0.281   3.395   0.996
 8243SOL    HW125628   0.319   3.368   1.084
 8243SOL    HW225629   0.327   3.345   0.923
 8244SOL     OW25630   0.196   0.647   3.610
 8244SOL    HW125631   0.266   0.578   3.590
 8244SOL    HW225632   0.220   0.696   3.694
 8245SOL     OW25633   3.994   1.900   2.152
 8245SOL    HW125634   3.935   1.951   2.089
 8245SOL    HW225635   4.052   1.964   2.202
 8246SOL     OW25636   0.805   3.712   6.214
 8246SOL    HW125637   0.799   3.655   6.133
 8246SOL    HW225638   0.761   3.666   6.291
 8247SOL     OW25639   2.175   0.695   3.046
 8247SOL    HW125640   2.102   0.685   2.978
 8247SOL    HW225641   2.139   0.742   3.127
 8248SOL     OW25642   6.824   4.630   4.836
 8248SOL    HW125643   6.796   4.714   4.789
 8248SOL    HW225644   6.873   4.654   4.920
 8249SOL     OW25645   1.650   1.921   5.555
 8249SOL    HW125646   1.585   1.889   5.487
 8249SOL    HW225647   1.709   1.991   5.515
 8250SOL     OW25648   2.660   2.500   1.491
 8250SOL    HW125649   2.607   2.580   1.464
 8250SOL    HW225650   2.758   2.518   1.476
 8251SOL     OW25651   5.102   3.173   4.779
 8251SOL    HW125652   5.074   3.096   4.837
 8251SOL    HW225653   5.035   3.247   4.788
 8252SOL     OW25654   3.277   1.996   5.671
 8252SOL    HW125655   3.211   1.947   5.728
 8252SOL    HW225656   3.244   2.090   5.655
 8253SOL     OW25657   4.009   5.526   6.050
 8253SOL    HW125658   3.962   5.610   6.078
 8253SOL    HW225659   3.945   5.450   6.052
 8254SOL     OW25660   4.527   4.637   5.360
 8254SOL    HW125661   4.565   4.717   5.406
 8254SOL    HW225662   4.548   4.555   5.414
 8255SOL     OW25663   2.025   6.087   5.164
 8255SOL    HW125664   2.124   6.082   5.152
 8255SOL    HW225665   1.980   6.032   5.094
 8256SOL     OW25666   6.872   6.708   2.382
 8256SOL    HW125667   6.972   6.706   2.387
 8256SOL    HW225668   6.844   6.765   2.304
 8257SOL     OW25669   4.843   3.721   2.765
 8257SOL    HW125670   4.889   3.710   2.853
 8257SOL    HW225671   4.829   3.818   2.746
 8258SOL     OW25672   5.378   2.546   1.204
 8258SOL    HW125673   5.402   2.451   1.186
 8258SOL    HW225674   5.459   2.597   1.233
 8259SOL     OW25675   3.850   1.660   4.607
 8259SOL    HW125676   3.903   1.669   4.691
 8259SOL    HW225677   3.753   1.670   4.627
 8260SOL     OW25678   2.305   6.944   1.059
 8260SOL    HW125679   2.372   6.925   1.130
 8260SOL    HW225680   2.247   6.864   1.045
 8261SOL     OW25681   5.685   6.511   2.588
 8261SOL    HW125682   5.712   6.426   2.543
 8261SOL    HW225683   5.636   6.569   2.523
 8262SOL     OW25684   1.136   3.317   0.243
 8262SOL    HW125685   1.123   3.225   0.205
 8262SOL    HW225686   1.189   3.372   0.179
 8263SOL     OW25687   0.337   2.478   6.380
 8263SOL    HW125688   0.397   2.513   6.452
 8263SOL    HW225689   0.254   2.440   6.422
 8264SOL     OW25690   1.649   6.426   0.672
 8264SOL    HW125691   1.711   6.502   0.690
 8264SOL    HW225692   1.678   6.378   0.589
 8265SOL     OW25693   6.372   0.402   1.790
 8265SOL    HW125694   6.371   0.346   1.873
 8265SOL    HW225695   6.307   0.478   1.800
 8266SOL     OW25696   2.267   1.057   4.926
 8266SOL    HW125697   2.225   1.019   4.844
 8266SOL    HW225698   2.271   1.157   4.918
 8267SOL     OW25699   1.524   4.020   1.283
 8267SOL    HW125700   1.524   4.043   1.186
 8267SOL    HW225701   1.618   4.016   1.317
 8268SOL     OW25702   2.687   6.567   6.243
 8268SOL    HW125703   2.681   6.605   6.151
 8268SOL    HW225704   2.595   6.563   6.283
 8269SOL     OW25705   4.279   1.962   2.295
 8269SOL    HW125706   4.284   1.997   2.201
 8269SOL    HW225707   4.295   2.037   2.359
 8270SOL     OW25708   2.701   6.204   4.524
 8270SOL    HW125709   2.707   6.201   4.624
 8270SOL    HW225710   2.760   6.277   4.489
 8271SOL     OW25711   0.191   6.978   2.900
 8271SOL    HW125712   0.249   0.017   2.958
 8271SOL    HW225713   0.233   6.888   2.889
 8272SOL     OW25714   6.225   1.783   2.771
 8272SOL    HW125715   6.221   1.846   2.848
 8272SOL    HW225716   6.318   1.781   2.734
 8273SOL     OW25717   2.993   1.446   0.998
 8273SOL    HW125718   3.000   1.494   0.911
 8273SOL    HW225719   2.899   1.414   1.012
 8274SOL     OW25720   3.776   5.659   4.579
 8274SOL    HW125721   3.871   5.690   4.590
 8274SOL    HW225722   3.743   5.623   4.666
 8275SOL     OW25723   5.489   0.448   4.653
 8275SOL    HW125724   5.486   0.547   4.665
 8275SOL    HW225725   5.573   0.423   4.604
 8276SOL     OW25726   0.471   1.879   5.102
 8276SOL    HW125727   0.380   1.853   5.136
 8276SOL    HW225728   0.540   1.824   5.149
 8277SOL     OW25729   1.142   6.042   5.801
 8277SOL    HW125730   1.105   6.134   5.820
 8277SOL    HW225731   1.211   6.048   5.729
 8278SOL     OW25732   3.205   1.569   6.555
 8278SOL    HW125733   3.224   1.634   6.629
 8278SOL    HW225734   3.117   1.592   6.513
 8279SOL     OW25735   0.706   6.633   4.923
 8279SOL    HW125736   0.663   6.563   4.866
 8279SOL    HW225737   0.730   6.712   4.866
 8280SOL     OW25738   2.721   2.935   0.482
 8280SOL    HW125739   2.780   2.860   0.513
 8280SOL    HW225740   2.640   2.940   0.540
 8281SOL     OW25741   2.516   4.737   1.671
 8281SOL    HW125742   2.587   4.761   1.605
 8281SOL    HW225743   2.427   4.736   1.625
 8282SOL     OW25744   4.422   3.774   6.620
 8282SOL    HW125745   4.436   3.731   6.710
 8282SOL    HW225746   4.500   3.752   6.561
 8283SOL     OW25747   1.761   5.015   4.992
 8283SOL    HW125748   1.847   5.017   5.043
 8283SOL    HW225749   1.688   4.980   5.051
 8284SOL     OW25750   0.833   3.788   1.324
 8284SOL    HW125751   0.825   3.760   1.229
 8284SOL    HW225752   0.832   3.707   1.383
 8285SOL     OW25753   3.484   4.156   4.325
 8285SOL    HW125754   3.389   4.131   4.342
 8285SOL    HW225755   3.493   4.194   4.233
 8286SOL     OW25756   5.186   1.699   5.000
 8286SOL    HW125757   5.163   1.776   4.940
 8286SOL    HW225758   5.178   1.728   5.096
 8287SOL     OW25759   0.936   5.124   4.512
 8287SOL    HW125760   0.980   5.101   4.599
 8287SOL    HW225761   0.883   5.045   4.480
 8288SOL     OW25762   2.819   2.204   2.288
 8288SOL    HW125763   2.891   2.141   2.317
 8288SOL    HW225764   2.849   2.254   2.206
 8289SOL     OW25765   0.671   6.265   6.107
 8289SOL    HW125766   0.632   6.357   6.113
 8289SOL    HW225767   0.692   6.244   6.011
 8290SOL     OW25768   5.372   1.512   1.075
 8290SOL    HW125769   5.339   1.535   1.166
 8290SOL    HW225770   5.472   1.502   1.077
 8291SOL     OW25771   5.146   4.807   5.637
 8291SOL    HW125772   5.175   4.860   5.717
 8291SOL    HW225773   5.052   4.777   5.650
 8292SOL     OW25774   3.104   6.234   6.565
 8292SOL    HW125775   3.190   6.279   6.587
 8292SOL    HW225776   3.105   6.202   6.471
 8293SOL     OW25777   1.973   5.691   0.909
 8293SOL    HW125778   1.913   5.635   0.966
 8293SOL    HW225779   1.925   5.775   0.883
 8294SOL     OW25780   5.532   3.851   4.868
 8294SOL    HW125781   5.559   3.834   4.773
 8294SOL    HW225782   5.440   3.891   4.869
 8295SOL     OW25783   4.836   3.953   2.461
 8295SOL    HW125784   4.776   4.033   2.452
 8295SOL    HW225785   4.890   3.961   2.545
 8296SOL     OW25786   2.154   4.950   0.310
 8296SOL    HW125787   2.083   5.002   0.262
 8296SOL    HW225788   2.215   4.908   0.243
 8297SOL     OW25789   0.203   3.093   3.023
 8297SOL    HW125790   0.195   3.019   3.090
 8297SOL    HW225791   0.112   3.115   2.988
 8298SOL     OW25792   6.671   1.657   0.930
 8298SOL    HW125793   6.750   1.618   0.883
 8298SOL    HW225794   6.685   1.755   0.942
 8299SOL     OW25795   0.628   2.630   2.851
 8299SOL    HW125796   0.621   2.628   2.951
 8299SOL    HW225797   0.609   2.723   2.819
 8300SOL     OW25798   0.263   6.061   3.917
 8300SOL    HW125799   0.194   6.090   3.984
 8300SOL    HW225800   0.353   6.056   3.961
 8301SOL     OW25801   4.417   0.828   0.543
 8301SOL    HW125802   4.406   0.818   0.642
 8301SOL    HW225803   4.390   0.742   0.498
 8302SOL     OW25804   5.347   6.637   6.153
 8302SOL    HW125805   5.412   6.677   6.217
 8302SOL    HW225806   5.306   6.709   6.097
 8303SOL     OW25807   5.877   0.244   3.810
 8303SOL    HW125808   5.960   0.285   3.772
 8303SOL    HW225809   5.808   0.316   3.825
 8304SOL     OW25810   5.946   3.562   1.561
 8304SOL    HW125811   5.888   3.559   1.642
 8304SOL    HW225812   5.966   3.657   1.537
 8305SOL     OW25813   4.905   4.411   4.104
 8305SOL    HW125814   4.944   4.333   4.054
 8305SOL    HW225815   4.963   4.432   4.182
 8306SOL     OW25816   6.006   1.497   3.783
 8306SOL    HW125817   6.070   1.562   3.826
 8306SOL    HW225818   5.975   1.431   3.852
 8307SOL     OW25819   3.712   5.528   1.819
 8307SOL    HW125820   3.649   5.526   1.741
 8307SOL    HW225821   3.685   5.457   1.884
 8308SOL     OW25822   2.548   5.853   0.373
 8308SOL    HW125823   2.520   5.767   0.331
 8308SOL    HW225824   2.613   5.900   0.313
 8309SOL     OW25825   6.497   6.070   2.813
 8309SOL    HW125826   6.575   6.113   2.857
 8309SOL    HW225827   6.444   6.018   2.880
 8310SOL     OW25828   0.836   5.706   1.427
 8310SOL    HW125829   0.831   5.799   1.462
 8310SOL    HW225830   0.796   5.702   1.336
 8311SOL     OW25831   6.514   1.869   5.445
 8311SOL    HW125832   6.456   1.806   5.496
 8311SOL    HW225833   6.532   1.950   5.500
 8312SOL     OW25834   4.583   0.699   0.059
 8312SOL    HW125835   4.488   0.728   0.075
 8312SOL    HW225836   4.590   0.657   6.987
 8313SOL     OW25837   5.695   0.128   6.558
 8313SOL    HW125838   5.763   0.188   6.516
 8313SOL    HW225839   5.694   0.143   6.657
 8314SOL     OW25840   5.948   6.645   6.967
 8314SOL    HW125841   5.874   6.713   6.967
 8314SOL    HW225842   5.935   6.584   0.027
 8315SOL     OW25843   3.940   3.100   2.319
 8315SOL    HW125844   3.948   3.195   2.287
 8315SOL    HW225845   3.973   3.094   2.413
 8316SOL     OW25846   1.325   3.043   2.521
 8316SOL    HW125847   1.405   2.986   2.501
 8316SOL    HW225848   1.295   3.025   2.615
 8317SOL     OW25849   1.475   2.613   2.968
 8317SOL    HW125850   1.407   2.643   2.902
 8317SOL    HW225851   1.488   2.684   3.038
 8318SOL     OW25852   4.010   2.178   5.640
 8318SOL    HW125853   3.966   2.250   5.586
 8318SOL    HW225854   3.996   2.195   5.737
 8319SOL     OW25855   0.863   1.330   1.286
 8319SOL    HW125856   0.808   1.412   1.270
 8319SOL    HW225857   0.954   1.357   1.316
 8320SOL     OW25858   2.904   3.803   2.702
 8320SOL    HW125859   2.909   3.821   2.800
 8320SOL    HW225860   2.958   3.872   2.653
 8321SOL     OW25861   6.286   6.816   6.678
 8321SOL    HW125862   6.196   6.776   6.693
 8321SOL    HW225863   6.277   6.914   6.661
 8322SOL     OW25864   6.621   0.307   0.637
 8322SOL    HW125865   6.571   0.250   0.702
 8322SOL    HW225866   6.719   0.303   0.658
 8323SOL     OW25867   4.555   4.695   1.789
 8323SOL    HW125868   4.655   4.690   1.789
 8323SOL    HW225869   4.517   4.605   1.770
 8324SOL     OW25870   6.095   6.827   1.625
 8324SOL    HW125871   6.134   6.855   1.537
 8324SOL    HW225872   6.021   6.889   1.650
 8325SOL     OW25873   1.483   3.230   5.147
 8325SOL    HW125874   1.544   3.163   5.106
 8325SOL    HW225875   1.531   3.318   5.154
 8326SOL     OW25876   4.588   4.145   5.537
 8326SOL    HW125877   4.547   4.170   5.449
 8326SOL    HW225878   4.518   4.151   5.608
 8327SOL     OW25879   0.196   0.213   5.787
 8327SOL    HW125880   0.290   0.184   5.772
 8327SOL    HW225881   0.136   0.165   5.724
 8328SOL     OW25882   2.780   5.983   6.683
 8328SOL    HW125883   2.794   5.964   6.586
 8328SOL    HW225884   2.684   5.968   6.707
 8329SOL     OW25885   1.281   3.137   5.606
 8329SOL    HW125886   1.349   3.185   5.550
 8329SOL    HW225887   1.243   3.061   5.553
 8330SOL     OW25888   2.750   0.716   6.476
 8330SOL    HW125889   2.826   0.655   6.455
 8330SOL    HW225890   2.781   0.811   6.473
 8331SOL     OW25891   3.098   0.385   1.237
 8331SOL    HW125892   3.187   0.352   1.268
 8331SOL    HW225893   3.059   0.321   1.171
 8332SOL     OW25894   5.791   5.675   2.574
 8332SOL    HW125895   5.839   5.750   2.619
 8332SOL    HW225896   5.700   5.666   2.613
 8333SOL     OW25897   0.336   5.168   6.424
 8333SOL    HW125898   0.237   5.180   6.436
 8333SOL    HW225899   0.361   5.075   6.452
 8334SOL     OW25900   4.108   1.928   4.336
 8334SOL    HW125901   4.119   1.969   4.427
 8334SOL    HW225902   4.025   1.873   4.334
 8335SOL     OW25903   4.970   0.738   0.214
 8335SOL    HW125904   4.992   0.835   0.204
 8335SOL    HW225905   5.012   0.704   0.299
 8336SOL     OW25906   0.581   4.792   2.739
 8336SOL    HW125907   0.603   4.801   2.836
 8336SOL    HW225908   0.663   4.807   2.684
 8337SOL     OW25909   0.938   6.227   3.374
 8337SOL    HW125910   0.996   6.233   3.293
 8337SOL    HW225911   0.896   6.316   3.392
 8338SOL     OW25912   3.809   5.104   1.794
 8338SOL    HW125913   3.714   5.130   1.776
 8338SOL    HW225914   3.866   5.186   1.799
 8339SOL     OW25915   6.592   0.267   1.724
 8339SOL    HW125916   6.528   0.336   1.757
 8339SOL    HW225917   6.545   0.180   1.713
 8340SOL     OW25918   5.111   3.884   1.580
 8340SOL    HW125919   5.050   3.808   1.601
 8340SOL    HW225920   5.115   3.946   1.658
 8341SOL     OW25921   2.521   6.762   6.525
 8341SOL    HW125922   2.600   6.709   6.553
 8341SOL    HW225923   2.531   6.856   6.559
 8342SOL     OW25924   4.980   6.886   0.008
 8342SOL    HW125925   5.060   6.848   6.981
 8342SOL    HW225926   4.965   6.980   6.995
 8343SOL     OW25927   0.519   5.453   3.803
 8343SOL    HW125928   0.589   5.381   3.813
 8343SOL    HW225929   0.437   5.426   3.852
 8344SOL     OW25930   6.215   5.616   4.359
 8344SOL    HW125931   6.134   5.667   4.389
 8344SOL    HW225932   6.193   5.564   4.276
 8345SOL     OW25933   4.024   2.104   2.450
 8345SOL    HW125934   3.930   2.099   2.416
 8345SOL    HW225935   4.023   2.125   2.548
 8346SOL     OW25936   3.672   4.883   0.383
 8346SOL    HW125937   3.623   4.934   0.312
 8346SOL    HW225938   3.628   4.795   0.396
 8347SOL     OW25939   3.163   6.827   4.385
 8347SOL    HW125940   3.177   6.759   4.313
 8347SOL    HW225941   3.117   6.907   4.347
 8348SOL     OW25942   2.027   1.022   1.243
 8348SOL    HW125943   2.120   1.054   1.260
 8348SOL    HW225944   2.013   1.013   1.144
 8349SOL     OW25945   0.341   0.283   2.266
 8349SOL    HW125946   0.371   0.212   2.201
 8349SOL    HW225947   0.361   0.373   2.227
 8350SOL     OW25948   3.239   6.066   5.983
 8350SOL    HW125949   3.219   6.006   5.905
 8350SOL    HW225950   3.154   6.102   6.020
 8351SOL     OW25951   5.334   5.214   4.542
 8351SOL    HW125952   5.294   5.245   4.628
 8351SOL    HW225953   5.275   5.143   4.502
 8352SOL     OW25954   0.024   7.007   3.366
 8352SOL    HW125955   6.984   7.006   3.285
 8352SOL    HW225956   0.107   6.955   3.348
 8353SOL     OW25957   0.252   4.097   1.382
 8353SOL    HW125958   0.290   4.169   1.324
 8353SOL    HW225959   0.153   4.093   1.370
 8354SOL     OW25960   3.660   0.014   4.669
 8354SOL    HW125961   3.590   7.002   4.606
 8354SOL    HW225962   3.681   6.959   4.734
 8355SOL     OW25963   2.911   1.136   5.814
 8355SOL    HW125964   2.992   1.152   5.871
 8355SOL    HW225965   2.837   1.099   5.871
 8356SOL     OW25966   0.604   0.063   1.654
 8356SOL    HW125967   0.695   0.029   1.632
 8356SOL    HW225968   0.565   0.108   1.574
 8357SOL     OW25969   3.434   0.045   5.399
 8357SOL    HW125970   3.425   6.986   5.463
 8357SOL    HW225971   3.364   0.037   5.328
 8358SOL     OW25972   1.675   4.180   5.172
 8358SOL    HW125973   1.593   4.233   5.148
 8358SOL    HW225974   1.748   4.201   5.107
 8359SOL     OW25975   3.325   0.626   4.959
 8359SOL    HW125976   3.379   0.580   4.889
 8359SOL    HW225977   3.349   0.723   4.962
 8360SOL     OW25978   3.647   6.770   0.463
 8360SOL    HW125979   3.747   6.780   0.459
 8360SOL    HW225980   3.608   6.846   0.515
 8361SOL     OW25981   3.287   0.268   1.673
 8361SOL    HW125982   3.338   0.353   1.684
 8361SOL    HW225983   3.191   0.285   1.696
 8362SOL     OW25984   4.448   1.338   0.988
 8362SOL    HW125985   4.366   1.369   1.036
 8362SOL    HW225986   4.519   1.315   1.055
 8363SOL     OW25987   5.301   3.067   0.055
 8363SOL    HW125988   5.304   3.001   6.998
 8363SOL    HW225989   5.374   3.134   0.043
 8364SOL     OW25990   0.978   2.250   3.772
 8364SOL    HW125991   0.973   2.156   3.737
 8364SOL    HW225992   0.985   2.247   3.872
 8365SOL     OW25993   1.656   3.352   2.355
 8365SOL    HW125994   1.562   3.320   2.364
 8365SOL    HW225995   1.681   3.356   2.259
 8366SOL     OW25996   2.124   5.521   1.248
 8366SOL    HW125997   2.201   5.495   1.190
 8366SOL    HW225998   2.057   5.447   1.252
 8367SOL     OW25999   4.162   5.656   4.991
 8367SOL    HW126000   4.224   5.608   5.053
 8367SOL    HW226001   4.070   5.655   5.028
 8368SOL     OW26002   0.872   0.023   6.375
 8368SOL    HW126003   0.913   0.093   6.316
 8368SOL    HW226004   0.840   6.965   6.319
 8369SOL     OW26005   0.770   0.673   5.990
 8369SOL    HW126006   0.723   0.595   5.949
 8369SOL    HW226007   0.737   0.757   5.948
 8370SOL     OW26008   2.753   1.629   5.931
 8370SOL    HW126009   2.794   1.715   5.903
 8370SOL    HW226010   2.656   1.628   5.905
 8371SOL     OW26011   1.986   4.428   0.904
 8371SOL    HW126012   1.886   4.438   0.905
 8371SOL    HW226013   2.013   4.374   0.824
 8372SOL     OW26014   1.741   5.422   1.696
 8372SOL    HW126015   1.769   5.444   1.790
 8372SOL    HW226016   1.789   5.340   1.666
 8373SOL     OW26017   2.164   0.116   3.836
 8373SOL    HW126018   2.150   0.166   3.750
 8373SOL    HW226019   2.168   0.018   3.818
 8374SOL     OW26020   0.256   0.685   5.194
 8374SOL    HW126021   0.301   0.615   5.248
 8374SOL    HW226022   0.219   0.644   5.110
 8375SOL     OW26023   3.895   6.376   5.058
 8375SOL    HW126024   3.915   6.462   5.107
 8375SOL    HW226025   3.981   6.333   5.030
 8376SOL     OW26026   0.343   1.451   4.406
 8376SOL    HW126027   0.289   1.366   4.409
 8376SOL    HW226028   0.311   1.513   4.478
 8377SOL     OW26029   5.197   6.126   0.928
 8377SOL    HW126030   5.234   6.189   0.996
 8377SOL    HW226031   5.173   6.176   0.845
 8378SOL     OW26032   4.188   4.962   2.740
 8378SOL    HW126033   4.125   4.889   2.713
 8378SOL    HW226034   4.203   5.023   2.663
 8379SOL     OW26035   5.405   3.020   1.214
 8379SOL    HW126036   5.463   3.101   1.225
 8379SOL    HW226037   5.405   2.967   1.299
 8380SOL     OW26038   0.933   0.552   2.122
 8380SOL    HW126039   0.992   0.603   2.185
 8380SOL    HW226040   0.982   0.537   2.036
 8381SOL     OW26041   0.662   2.405   4.312
 8381SOL    HW126042   0.706   2.374   4.227
 8381SOL    HW226043   0.573   2.444   4.291
 8382SOL     OW26044   2.308   0.075   2.597
 8382SOL    HW126045   2.333   0.051   2.691
 8382SOL    HW226046   2.212   0.050   2.582
 8383SOL     OW26047   2.975   0.033   5.668
 8383SOL    HW126048   3.034   6.970   5.676
 8383SOL    HW226049   2.999   0.099   5.739
 8384SOL     OW26050   6.411   1.523   1.495
 8384SOL    HW126051   6.498   1.511   1.543
 8384SOL    HW226052   6.335   1.501   1.557
 8385SOL     OW26053   5.013   2.615   0.395
 8385SOL    HW126054   5.065   2.657   0.469
 8385SOL    HW226055   4.972   2.686   0.339
 8386SOL     OW26056   1.545   6.236   1.732
 8386SOL    HW126057   1.565   6.188   1.818
 8386SOL    HW226058   1.570   6.178   1.655
 8387SOL     OW26059   1.272   1.426   1.567
 8387SOL    HW126060   1.324   1.504   1.601
 8387SOL    HW226061   1.310   1.342   1.606
 8388SOL     OW26062   2.257   0.158   0.629
 8388SOL    HW126063   2.320   0.096   0.676
 8388SOL    HW226064   2.269   0.251   0.664
 8389SOL     OW26065   0.030   3.657   3.784
 8389SOL    HW126066   7.010   3.608   3.706
 8389SOL    HW226067   6.983   3.726   3.815
 8390SOL     OW26068   4.360   6.953   0.411
 8390SOL    HW126069   4.316   6.870   0.447
 8390SOL    HW226070   4.459   6.944   0.419
 8391SOL     OW26071   6.173   5.066   0.896
 8391SOL    HW126072   6.117   4.998   0.848
 8391SOL    HW226073   6.215   5.024   0.976
 8392SOL     OW26074   6.807   4.790   5.293
 8392SOL    HW126075   6.711   4.801   5.266
 8392SOL    HW226076   6.841   4.876   5.331
 8393SOL     OW26077   0.323   0.056   2.653
 8393SOL    HW126078   0.271   0.039   2.737
 8393SOL    HW226079   0.307   6.999   2.589
 8394SOL     OW26080   6.896   2.584   2.065
 8394SOL    HW126081   6.833   2.507   2.054
 8394SOL    HW226082   6.912   2.626   1.975
 8395SOL     OW26083   2.384   6.662   4.646
 8395SOL    HW126084   2.464   6.602   4.651
 8395SOL    HW226085   2.410   6.755   4.674
 8396SOL     OW26086   4.119   5.105   2.961
 8396SOL    HW126087   4.200   5.145   3.004
 8396SOL    HW226088   4.144   5.064   2.874
 8397SOL     OW26089   2.411   0.330   2.531
 8397SOL    HW126090   2.506   0.338   2.563
 8397SOL    HW226091   2.378   0.237   2.546
 8398SOL     OW26092   4.297   2.516   6.750
 8398SOL    HW126093   4.392   2.536   6.777
 8398SOL    HW226094   4.236   2.531   6.827
 8399SOL     OW26095   5.973   6.038   7.009
 8399SOL    HW126096   6.031   5.996   6.939
 8399SOL    HW226097   5.964   6.136   6.990
 8400SOL     OW26098   1.472   1.471   4.450
 8400SOL    HW126099   1.450   1.460   4.353
 8400SOL    HW226100   1.569   1.493   4.460
 8401SOL     OW26101   3.011   1.139   6.485
 8401SOL    HW126102   3.088   1.123   6.547
 8401SOL    HW226103   3.043   1.191   6.405
 8402SOL     OW26104   3.644   1.951   5.475
 8402SOL    HW126105   3.722   1.896   5.444
 8402SOL    HW226106   3.584   1.971   5.398
 8403SOL     OW26107   1.710   2.207   4.352
 8403SOL    HW126108   1.715   2.141   4.427
 8403SOL    HW226109   1.717   2.158   4.264
 8404SOL     OW26110   4.472   6.663   5.743
 8404SOL    HW126111   4.540   6.707   5.802
 8404SOL    HW226112   4.383   6.709   5.756
 8405SOL     OW26113   2.497   0.238   5.285
 8405SOL    HW126114   2.440   0.320   5.292
 8405SOL    HW226115   2.460   0.167   5.346
 8406SOL     OW26116   6.028   0.193   0.723
 8406SOL    HW126117   5.953   0.129   0.742
 8406SOL    HW226118   6.049   0.245   0.805
 8407SOL     OW26119   3.495   6.272   4.116
 8407SOL    HW126120   3.456   6.301   4.204
 8407SOL    HW226121   3.512   6.174   4.118
 8408SOL     OW26122   6.055   3.612   2.542
 8408SOL    HW126123   6.154   3.602   2.547
 8408SOL    HW226124   6.012   3.558   2.615
 8409SOL     OW26125   5.368   2.582   3.865
 8409SOL    HW126126   5.373   2.563   3.767
 8409SOL    HW226127   5.374   2.496   3.916
 8410SOL     OW26128   5.165   0.859   2.063
 8410SOL    HW126129   5.199   0.928   2.127
 8410SOL    HW226130   5.133   0.904   1.979
 8411SOL     OW26131   0.444   4.873   0.108
 8411SOL    HW126132   0.370   4.821   0.066
 8411SOL    HW226133   0.523   4.873   0.046
 8412SOL     OW26134   3.143   1.647   1.159
 8412SOL    HW126135   3.080   1.721   1.183
 8412SOL    HW226136   3.091   1.569   1.122
 8413SOL     OW26137   4.108   5.447   0.060
 8413SOL    HW126138   4.185   5.394   0.024
 8413SOL    HW226139   4.082   5.410   0.149
 8414SOL     OW26140   3.508   4.929   3.587
 8414SOL    HW126141   3.607   4.928   3.601
 8414SOL    HW226142   3.462   4.907   3.674
 8415SOL     OW26143   6.711   5.959   4.052
 8415SOL    HW126144   6.681   5.890   3.986
 8415SOL    HW226145   6.802   5.992   4.027
 8416SOL     OW26146   5.421   3.958   2.770
 8416SOL    HW126147   5.363   3.926   2.844
 8416SOL    HW226148   5.365   3.977   2.689
 8417SOL     OW26149   1.524   4.064   5.799
 8417SOL    HW126150   1.426   4.044   5.790
 8417SOL    HW226151   1.577   3.990   5.757
 8418SOL     OW26152   5.601   4.596   1.007
 8418SOL    HW126153   5.618   4.521   1.072
 8418SOL    HW226154   5.642   4.573   0.919
 8419SOL     OW26155   5.563   7.005   2.314
 8419SOL    HW126156   5.541   0.085   2.309
 8419SOL    HW226157   5.662   6.993   2.314
 8420SOL     OW26158   4.676   6.696   0.361
 8420SOL    HW126159   4.590   6.687   0.411
 8420SOL    HW226160   4.698   6.793   0.349
 8421SOL     OW26161   1.686   5.635   6.681
 8421SOL    HW126162   1.744   5.687   6.618
 8421SOL    HW226163   1.683   5.682   6.769
 8422SOL     OW26164   3.758   1.094   1.056
 8422SOL    HW126165   3.856   1.114   1.064
 8422SOL    HW226166   3.722   1.071   1.146
 8423SOL     OW26167   3.528   4.743   5.963
 8423SOL    HW126168   3.560   4.672   6.026
 8423SOL    HW226169   3.482   4.815   6.014
 8424SOL     OW26170   2.112   2.539   2.690
 8424SOL    HW126171   2.038   2.601   2.664
 8424SOL    HW226172   2.142   2.560   2.783
 8425SOL     OW26173   4.822   5.302   6.942
 8425SOL    HW126174   4.878   5.364   6.996
 8425SOL    HW226175   4.878   5.225   6.910
 8426SOL     OW26176   3.351   3.399   3.600
 8426SOL    HW126177   3.406   3.318   3.616
 8426SOL    HW226178   3.357   3.460   3.679
 8427SOL     OW26179   3.759   3.729   4.526
 8427SOL    HW126180   3.834   3.793   4.507
 8427SOL    HW226181   3.773   3.686   4.615
 8428SOL     OW26182   0.203   5.043   1.603
 8428SOL    HW126183   0.214   4.991   1.687
 8428SOL    HW226184   0.270   5.117   1.600
 8429SOL     OW26185   1.723   5.854   4.366
 8429SOL    HW126186   1.731   5.931   4.302
 8429SOL    HW226187   1.758   5.771   4.322
 8430SOL     OW26188   3.326   5.131   3.726
 8430SOL    HW126189   3.406   5.182   3.696
 8430SOL    HW226190   3.248   5.152   3.667
 8431SOL     OW26191   3.499   4.637   0.396
 8431SOL    HW126192   3.456   4.650   0.485
 8431SOL    HW226193   3.438   4.583   0.337
 8432SOL     OW26194   5.406   0.088   6.060
 8432SOL    HW126195   5.390   0.169   6.116
 8432SOL    HW226196   5.481   0.105   5.996
 8433SOL     OW26197   5.109   2.599   0.837
 8433SOL    HW126198   5.126   2.633   0.929
 8433SOL    HW226199   5.128   2.501   0.833
 8434SOL     OW26200   2.627   6.484   4.671
 8434SOL    HW126201   2.615   6.389   4.700
 8434SOL    HW226202   2.664   6.537   4.748
 8435SOL     OW26203   5.991   1.185   1.451
 8435SOL    HW126204   5.917   1.172   1.517
 8435SOL    HW226205   6.055   1.108   1.456
 8436SOL     OW26206   3.752   6.831   3.303
 8436SOL    HW126207   3.820   6.779   3.251
 8436SOL    HW226208   3.678   6.770   3.333
 8437SOL     OW26209   1.914   0.428   4.056
 8437SOL    HW126210   1.971   0.435   3.974
 8437SOL    HW226211   1.916   0.515   4.105
 8438SOL     OW26212   2.377   4.609   2.488
 8438SOL    HW126213   2.356   4.700   2.452
 8438SOL    HW226214   2.340   4.599   2.580
 8439SOL     OW26215   6.550   5.005   2.581
 8439SOL    HW126216   6.578   4.909   2.583
 8439SOL    HW226217   6.452   5.011   2.600
 8440SOL     OW26218   1.059   2.588   3.642
 8440SOL    HW126219   1.113   2.506   3.661
 8440SOL    HW226220   0.990   2.567   3.573
 8441SOL     OW26221   6.043   6.687   0.299
 8441SOL    HW126222   6.104   6.746   0.247
 8441SOL    HW226223   5.950   6.724   0.297
 8442SOL     OW26224   3.115   1.361   5.032
 8442SOL    HW126225   3.090   1.339   5.126
 8442SOL    HW226226   3.130   1.277   4.980
 8443SOL     OW26227   2.135   5.071   3.679
 8443SOL    HW126228   2.212   5.084   3.617
 8443SOL    HW226229   2.169   5.060   3.773
 8444SOL     OW26230   2.886   5.872   3.362
 8444SOL    HW126231   2.897   5.887   3.460
 8444SOL    HW226232   2.822   5.797   3.347
 8445SOL     OW26233   3.943   6.702   0.301
 8445SOL    HW126234   3.941   6.661   0.392
 8445SOL    HW226235   3.961   6.800   0.309
 8446SOL     OW26236   4.570   4.652   6.759
 8446SOL    HW126237   4.495   4.600   6.800
 8446SOL    HW226238   4.532   4.727   6.705
 8447SOL     OW26239   4.550   2.052   1.953
 8447SOL    HW126240   4.531   2.118   1.881
 8447SOL    HW226241   4.612   1.982   1.919
 8448SOL     OW26242   4.493   6.130   3.915
 8448SOL    HW126243   4.485   6.035   3.946
 8448SOL    HW226244   4.537   6.132   3.826
 8449SOL     OW26245   6.684   2.783   3.912
 8449SOL    HW126246   6.731   2.766   3.998
 8449SOL    HW226247   6.750   2.818   3.845
 8450SOL     OW26248   0.486   6.550   1.422
 8450SOL    HW126249   0.574   6.597   1.415
 8450SOL    HW226250   0.501   6.451   1.417
 8451SOL     OW26251   3.607   2.003   6.982
 8451SOL    HW126252   3.699   2.021   0.001
 8451SOL    HW226253   3.541   2.061   0.012
 8452SOL     OW26254   5.976   1.376   3.130
 8452SOL    HW126255   5.878   1.388   3.144
 8452SOL    HW226256   5.992   1.318   3.050
 8453SOL     OW26257   6.934   4.409   6.495
 8453SOL    HW126258   7.005   4.374   6.555
 8453SOL    HW226259   6.845   4.374   6.524
 8454SOL     OW26260   0.012   0.095   1.401
 8454SOL    HW126261   6.983   0.154   1.467
 8454SOL    HW226262   6.997   0.114   1.309
 8455SOL     OW26263   6.575   3.159   1.630
 8455SOL    HW126264   6.600   3.242   1.679
 8455SOL    HW226265   6.650   3.132   1.569
 8456SOL     OW26266   4.738   6.124   2.793
 8456SOL    HW126267   4.778   6.128   2.701
 8456SOL    HW226268   4.657   6.184   2.796
 8457SOL     OW26269   6.620   6.435   4.770
 8457SOL    HW126270   6.665   6.423   4.681
 8457SOL    HW226271   6.660   6.371   4.836
 8458SOL     OW26272   3.234   1.302   6.576
 8458SOL    HW126273   3.325   1.274   6.545
 8458SOL    HW226274   3.211   1.391   6.537
 8459SOL     OW26275   2.690   5.715   2.113
 8459SOL    HW126276   2.683   5.753   2.205
 8459SOL    HW226277   2.733   5.782   2.052
 8460SOL     OW26278   4.278   3.609   5.411
 8460SOL    HW126279   4.276   3.644   5.505
 8460SOL    HW226280   4.307   3.683   5.350
 8461SOL     OW26281   0.431   4.274   3.864
 8461SOL    HW126282   0.448   4.182   3.899
 8461SOL    HW226283   0.345   4.275   3.812
 8462SOL     OW26284   3.145   2.601   6.561
 8462SOL    HW126285   3.059   2.614   6.611
 8462SOL    HW226286   3.127   2.551   6.476
 8463SOL     OW26287   6.528   6.865   1.231
 8463SOL    HW126288   6.508   6.890   1.137
 8463SOL    HW226289   6.506   6.768   1.245
 8464SOL     OW26290   5.636   3.522   5.038
 8464SOL    HW126291   5.727   3.557   5.013
 8464SOL    HW226292   5.570   3.547   4.967
 8465SOL     OW26293   1.092   2.368   1.127
 8465SOL    HW126294   1.133   2.429   1.060
 8465SOL    HW226295   0.992   2.374   1.121
 8466SOL     OW26296   0.552   6.762   4.687
 8466SOL    HW126297   0.575   6.725   4.597
 8466SOL    HW226298   0.635   6.798   4.730
 8467SOL     OW26299   4.236   6.759   0.915
 8467SOL    HW126300   4.233   6.660   0.920
 8467SOL    HW226301   4.149   6.797   0.946
 8468SOL     OW26302   3.942   1.979   6.375
 8468SOL    HW126303   3.867   2.016   6.431
 8468SOL    HW226304   3.996   2.054   6.338
 8469SOL     OW26305   3.075   1.525   6.176
 8469SOL    HW126306   2.987   1.479   6.180
 8469SOL    HW226307   3.100   1.541   6.080
 8470SOL     OW26308   1.923   4.097   7.008
 8470SOL    HW126309   1.960   4.092   6.915
 8470SOL    HW226310   1.928   4.190   0.024
 8471SOL     OW26311   3.690   1.079   3.308
 8471SOL    HW126312   3.735   0.990   3.323
 8471SOL    HW226313   3.733   1.124   3.230
 8472SOL     OW26314   6.652   0.724   5.173
 8472SOL    HW126315   6.604   0.637   5.183
 8472SOL    HW226316   6.724   0.732   5.242
 8473SOL     OW26317   6.898   5.808   6.977
 8473SOL    HW126318   6.832   5.758   6.921
 8473SOL    HW226319   6.954   5.866   6.918
 8474SOL     OW26320   3.362   3.053   1.730
 8474SOL    HW126321   3.436   3.118   1.708
 8474SOL    HW226322   3.392   2.992   1.803
 8475SOL     OW26323   6.717   2.458   3.962
 8475SOL    HW126324   6.774   2.385   3.923
 8475SOL    HW226325   6.747   2.546   3.926
 8476SOL     OW26326   6.644   2.547   1.046
 8476SOL    HW126327   6.574   2.574   0.980
 8476SOL    HW226328   6.719   2.614   1.045
 8477SOL     OW26329   5.120   6.914   0.569
 8477SOL    HW126330   5.178   6.991   0.543
 8477SOL    HW226331   5.163   6.829   0.540
 8478SOL     OW26332   1.536   7.017   6.203
 8478SOL    HW126333   1.632   6.990   6.213
 8478SOL    HW226334   1.477   6.943   6.237
 8479SOL     OW26335   0.869   2.775   1.196
 8479SOL    HW126336   0.806   2.850   1.177
 8479SOL    HW226337   0.864   2.707   1.122
 8480SOL     OW26338   4.393   1.874   6.781
 8480SOL    HW126339   4.417   1.967   6.807
 8480SOL    HW226340   4.325   1.837   6.844
 8481SOL     OW26341   4.172   2.167   4.172
 8481SOL    HW126342   4.268   2.184   4.154
 8481SOL    HW226343   4.159   2.070   4.194
 8482SOL     OW26344   4.460   6.034   1.676
 8482SOL    HW126345   4.471   6.019   1.578
 8482SOL    HW226346   4.386   5.976   1.710
 8483SOL     OW26347   4.813   6.327   2.343
 8483SOL    HW126348   4.783   6.248   2.398
 8483SOL    HW226349   4.735   6.363   2.292
 8484SOL     OW26350   0.195   6.018   3.661
 8484SOL    HW126351   0.245   5.932   3.664
 8484SOL    HW226352   0.198   6.062   3.750
 8485SOL     OW26353   3.946   2.422   6.914
 8485SOL    HW126354   3.916   2.462   6.828
 8485SOL    HW226355   3.870   2.374   6.957
 8486SOL     OW26356   3.608   1.159   2.725
 8486SOL    HW126357   3.631   1.244   2.678
 8486SOL    HW226358   3.534   1.176   2.790
 8487SOL     OW26359   6.125   1.676   6.135
 8487SOL    HW126360   6.081   1.611   6.197
 8487SOL    HW226361   6.205   1.633   6.092
 8488SOL     OW26362   5.350   5.917   0.186
 8488SOL    HW126363   5.389   5.920   0.094
 8488SOL    HW226364   5.287   5.839   0.193
 8489SOL     OW26365   6.323   2.115   1.156
 8489SOL    HW126366   6.317   2.154   1.247
 8489SOL    HW226367   6.327   2.188   1.088
 8490SOL     OW26368   4.619   6.449   3.857
 8490SOL    HW126369   4.604   6.482   3.764
 8490SOL    HW226370   4.659   6.358   3.854
 8491SOL     OW26371   2.605   6.020   0.898
 8491SOL    HW126372   2.509   6.014   0.869
 8491SOL    HW226373   2.650   5.933   0.881
 8492SOL     OW26374   4.883   4.263   5.884
 8492SOL    HW126375   4.898   4.344   5.827
 8492SOL    HW226376   4.826   4.198   5.834
 8493SOL     OW26377   2.650   2.759   6.741
 8493SOL    HW126378   2.652   2.853   6.706
 8493SOL    HW226379   2.557   2.723   6.734
 8494SOL     OW26380   3.307   5.323   1.502
 8494SOL    HW126381   3.375   5.288   1.437
 8494SOL    HW226382   3.247   5.248   1.530
 8495SOL     OW26383   6.338   5.324   2.658
 8495SOL    HW126384   6.423   5.280   2.687
 8495SOL    HW226385   6.306   5.283   2.573
 8496SOL     OW26386   1.030   2.764   2.036
 8496SOL    HW126387   0.946   2.750   1.983
 8496SOL    HW226388   1.068   2.676   2.064
 8497SOL     OW26389   6.369   0.883   3.709
 8497SOL    HW126390   6.284   0.931   3.730
 8497SOL    HW226391   6.395   0.826   3.786
 8498SOL     OW26392   6.856   6.418   2.744
 8498SOL    HW126393   6.874   6.494   2.681
 8498SOL    HW226394   6.847   6.333   2.692
 8499SOL     OW26395   2.224   4.862   6.775
 8499SOL    HW126396   2.124   4.863   6.778
 8499SOL    HW226397   2.258   4.779   6.820
 8500SOL     OW26398   1.684   6.061   5.366
 8500SOL    HW126399   1.596   6.089   5.405
 8500SOL    HW226400   1.674   6.049   5.268
 8501SOL     OW26401   0.742   2.023   6.934
 8501SOL    HW126402   0.688   1.990   7.012
 8501SOL    HW226403   0.833   2.050   6.965
 8502SOL     OW26404   1.304   4.022   0.776
 8502SOL    HW126405   1.228   4.069   0.821
 8502SOL    HW226406   1.285   3.924   0.772
 8503SOL     OW26407   1.499   6.564   3.808
 8503SOL    HW126408   1.457   6.576   3.717
 8503SOL    HW226409   1.561   6.486   3.806
 8504SOL     OW26410   2.551   5.032   2.327
 8504SOL    HW126411   2.515   4.969   2.258
 8504SOL    HW226412   2.651   5.024   2.330
 8505SOL     OW26413   4.904   3.494   4.046
 8505SOL    HW126414   4.847   3.519   4.124
 8505SOL    HW226415   5.001   3.504   4.071
 8506SOL     OW26416   6.933   0.644   6.312
 8506SOL    HW126417   6.903   0.722   6.257
 8506SOL    HW226418   6.854   0.593   6.345
 8507SOL     OW26419   3.651   1.212   5.214
 8507SOL    HW126420   3.671   1.238   5.308
 8507SOL    HW226421   3.669   1.290   5.154
 8508SOL     OW26422   5.936   1.474   4.981
 8508SOL    HW126423   6.024   1.463   5.028
 8508SOL    HW226424   5.917   1.392   4.928
 8509SOL     OW26425   4.356   1.440   3.953
 8509SOL    HW126426   4.280   1.483   3.903
 8509SOL    HW226427   4.347   1.341   3.948
 8510SOL     OW26428   5.756   4.066   3.305
 8510SOL    HW126429   5.753   3.968   3.284
 8510SOL    HW226430   5.784   4.080   3.400
 8511SOL     OW26431   6.461   3.541   2.214
 8511SOL    HW126432   6.365   3.560   2.195
 8511SOL    HW226433   6.483   3.448   2.184
 8512SOL     OW26434   3.340   1.912   1.863
 8512SOL    HW126435   3.295   1.910   1.953
 8512SOL    HW226436   3.362   2.007   1.840
 8513SOL     OW26437   5.620   4.406   1.200
 8513SOL    HW126438   5.664   4.319   1.179
 8513SOL    HW226439   5.661   4.445   1.282
 8514SOL     OW26440   2.569   2.506   3.770
 8514SOL    HW126441   2.522   2.563   3.838
 8514SOL    HW226442   2.551   2.542   3.678
 8515SOL     OW26443   5.624   1.475   0.767
 8515SOL    HW126444   5.533   1.467   0.727
 8515SOL    HW226445   5.677   1.543   0.717
 8516SOL     OW26446   6.154   2.675   1.593
 8516SOL    HW126447   6.132   2.758   1.542
 8516SOL    HW226448   6.145   2.692   1.691
 8517SOL     OW26449   1.694   2.829   6.462
 8517SOL    HW126450   1.601   2.855   6.488
 8517SOL    HW226451   1.708   2.732   6.481
 8518SOL     OW26452   4.388   4.051   6.905
 8518SOL    HW126453   4.291   4.028   6.895
 8518SOL    HW226454   4.418   4.103   6.825
 8519SOL     OW26455   1.341   4.275   1.807
 8519SOL    HW126456   1.344   4.252   1.709
 8519SOL    HW226457   1.254   4.246   1.846
 8520SOL     OW26458   3.816   2.344   0.278
 8520SOL    HW126459   3.792   2.390   0.193
 8520SOL    HW226460   3.799   2.405   0.355
 8521SOL     OW26461   1.992   5.172   6.338
 8521SOL    HW126462   1.912   5.229   6.356
 8521SOL    HW226463   2.075   5.222   6.363
 8522SOL     OW26464   1.355   6.655   1.281
 8522SOL    HW126465   1.279   6.589   1.285
 8522SOL    HW226466   1.432   6.614   1.231
 8523SOL     OW26467   2.239   6.485   6.619
 8523SOL    HW126468   2.143   6.457   6.632
 8523SOL    HW226469   2.290   6.409   6.579
 8524SOL     OW26470   0.384   2.330   4.916
 8524SOL    HW126471   0.314   2.400   4.931
 8524SOL    HW226472   0.424   2.344   4.825
 8525SOL     OW26473   6.321   4.010   3.200
 8525SOL    HW126474   6.396   3.974   3.256
 8525SOL    HW226475   6.306   3.950   3.121
 8526SOL     OW26476   3.987   5.693   0.087
 8526SOL    HW126477   4.035   5.613   0.052
 8526SOL    HW226478   3.920   5.665   0.155
 8527SOL     OW26479   2.565   0.510   6.397
 8527SOL    HW126480   2.525   0.498   6.489
 8527SOL    HW226481   2.651   0.559   6.405
 8528SOL     OW26482   3.755   2.296   5.990
 8528SOL    HW126483   3.846   2.299   5.947
 8528SOL    HW226484   3.690   2.345   5.932
 8529SOL     OW26485   0.840   0.618   1.491
 8529SOL    HW126486   0.863   0.715   1.489
 8529SOL    HW226487   0.765   0.600   1.426
 8530SOL     OW26488   3.260   3.791   4.675
 8530SOL    HW126489   3.337   3.842   4.712
 8530SOL    HW226490   3.217   3.843   4.602
 8531SOL     OW26491   6.698   5.242   2.587
 8531SOL    HW126492   6.627   5.174   2.568
 8531SOL    HW226493   6.724   5.288   2.503
 8532SOL     OW26494   3.855   5.222   4.520
 8532SOL    HW126495   3.774   5.227   4.462
 8532SOL    HW226496   3.857   5.301   4.582
 8533SOL     OW26497   1.823   0.333   5.878
 8533SOL    HW126498   1.831   0.433   5.883
 8533SOL    HW226499   1.831   0.295   5.970
 8534SOL     OW26500   6.209   3.063   4.129
 8534SOL    HW126501   6.221   3.126   4.052
 8534SOL    HW226502   6.184   2.972   4.095
 8535SOL     OW26503   6.450   1.524   4.607
 8535SOL    HW126504   6.366   1.577   4.599
 8535SOL    HW226505   6.503   1.556   4.686
 8536SOL     OW26506   6.342   2.290   4.883
 8536SOL    HW126507   6.250   2.256   4.864
 8536SOL    HW226508   6.401   2.214   4.911
 8537SOL     OW26509   5.448   1.754   1.809
 8537SOL    HW126510   5.354   1.787   1.808
 8537SOL    HW226511   5.465   1.699   1.727
 8538SOL     OW26512   0.930   1.170   6.374
 8538SOL    HW126513   0.903   1.074   6.372
 8538SOL    HW226514   1.016   1.182   6.325
 8539SOL     OW26515   5.651   1.002   1.844
 8539SOL    HW126516   5.581   0.931   1.840
 8539SOL    HW226517   5.704   0.992   1.928
 8540SOL     OW26518   4.634   0.768   0.334
 8540SOL    HW126519   4.572   0.704   0.379
 8540SOL    HW226520   4.637   0.749   0.236
 8541SOL     OW26521   2.891   1.957   4.454
 8541SOL    HW126522   2.920   2.000   4.539
 8541SOL    HW226523   2.808   2.002   4.421
 8542SOL     OW26524   3.064   4.658   6.868
 8542SOL    HW126525   3.150   4.608   6.879
 8542SOL    HW226526   3.032   4.649   6.773
 8543SOL     OW26527   3.237   0.830   0.358
 8543SOL    HW126528   3.311   0.886   0.320
 8543SOL    HW226529   3.276   0.749   0.402
 8544SOL     OW26530   5.514   3.170   4.718
 8544SOL    HW126531   5.549   3.077   4.719
 8544SOL    HW226532   5.518   3.208   4.810
 8545SOL     OW26533   5.122   6.642   4.464
 8545SOL    HW126534   5.043   6.627   4.405
 8545SOL    HW226535   5.182   6.711   4.422
 8546SOL     OW26536   0.517   0.405   3.179
 8546SOL    HW126537   0.520   0.433   3.275
 8546SOL    HW226538   0.429   0.362   3.160
 8547SOL     OW26539   1.625   6.538   6.337
 8547SOL    HW126540   1.556   6.611   6.339
 8547SOL    HW226541   1.618   6.488   6.251
 8548SOL     OW26542   6.438   3.400   5.682
 8548SOL    HW126543   6.457   3.481   5.626
 8548SOL    HW226544   6.343   3.372   5.669
 8549SOL     OW26545   1.198   2.979   4.527
 8549SOL    HW126546   1.166   2.969   4.433
 8549SOL    HW226547   1.190   2.892   4.575
 8550SOL     OW26548   1.974   4.905   6.691
 8550SOL    HW126549   1.875   4.913   6.703
 8550SOL    HW226550   1.995   4.882   6.596
 8551SOL     OW26551   2.610   3.487   6.400
 8551SOL    HW126552   2.588   3.405   6.452
 8551SOL    HW226553   2.535   3.508   6.337
 8552SOL     OW26554   2.929   0.686   3.429
 8552SOL    HW126555   2.955   0.727   3.517
 8552SOL    HW226556   2.874   0.605   3.445
 8553SOL     OW26557   3.940   3.765   6.511
 8553SOL    HW126558   4.016   3.787   6.572
 8553SOL    HW226559   3.916   3.846   6.457
 8554SOL     OW26560   0.702   4.698   0.893
 8554SOL    HW126561   0.673   4.622   0.951
 8554SOL    HW226562   0.658   4.782   0.924
 8555SOL     OW26563   2.488   1.335   3.367
 8555SOL    HW126564   2.478   1.248   3.318
 8555SOL    HW226565   2.558   1.390   3.321
 8556SOL     OW26566   1.195   5.968   5.155
 8556SOL    HW126567   1.231   6.056   5.124
 8556SOL    HW226568   1.102   5.980   5.189
 8557SOL     OW26569   6.141   0.111   3.049
 8557SOL    HW126570   6.172   0.043   3.115
 8557SOL    HW226571   6.209   0.184   3.041
 8558SOL     OW26572   1.967   4.489   3.125
 8558SOL    HW126573   2.053   4.511   3.079
 8558SOL    HW226574   1.924   4.573   3.156
 8559SOL     OW26575   1.640   0.612   2.421
 8559SOL    HW126576   1.564   0.628   2.358
 8559SOL    HW226577   1.628   0.668   2.503
 8560SOL     OW26578   6.608   6.626   1.843
 8560SOL    HW126579   6.607   6.532   1.876
 8560SOL    HW226580   6.698   6.666   1.859
 8561SOL     OW26581   3.516   0.368   2.179
 8561SOL    HW126582   3.558   0.445   2.227
 8561SOL    HW226583   3.539   0.373   2.081
 8562SOL     OW26584   4.008   6.052   5.849
 8562SOL    HW126585   3.927   6.097   5.811
 8562SOL    HW226586   4.056   6.115   5.910
 8563SOL     OW26587   1.765   4.479   0.477
 8563SOL    HW126588   1.757   4.535   0.559
 8563SOL    HW226589   1.745   4.384   0.499
 8564SOL     OW26590   3.180   0.926   4.994
 8564SOL    HW126591   3.191   0.982   5.076
 8564SOL    HW226592   3.132   0.841   5.018
 8565SOL     OW26593   3.837   5.148   1.055
 8565SOL    HW126594   3.815   5.207   1.132
 8565SOL    HW226595   3.933   5.160   1.030
 8566SOL     OW26596   1.412   0.276   1.640
 8566SOL    HW126597   1.430   0.254   1.544
 8566SOL    HW226598   1.338   0.218   1.675
 8567SOL     OW26599   0.543   2.568   3.420
 8567SOL    HW126600   0.453   2.587   3.459
 8567SOL    HW226601   0.612   2.621   3.469
 8568SOL     OW26602   5.418   1.162   6.893
 8568SOL    HW126603   5.481   1.159   6.971
 8568SOL    HW226604   5.324   1.155   6.926
 8569SOL     OW26605   4.615   0.992   6.087
 8569SOL    HW126606   4.557   1.072   6.072
 8569SOL    HW226607   4.705   1.022   6.120
 8570SOL     OW26608   1.781   1.738   4.771
 8570SOL    HW126609   1.725   1.671   4.820
 8570SOL    HW226610   1.755   1.738   4.675
 8571SOL     OW26611   1.316   5.651   4.681
 8571SOL    HW126612   1.304   5.709   4.762
 8571SOL    HW226613   1.376   5.574   4.703
 8572SOL     OW26614   3.570   4.927   6.461
 8572SOL    HW126615   3.516   5.008   6.484
 8572SOL    HW226616   3.606   4.887   6.546
 8573SOL     OW26617   3.381   6.321   6.629
 8573SOL    HW126618   3.341   6.269   6.704
 8573SOL    HW226619   3.451   6.266   6.584
 8574SOL     OW26620   0.083   6.239   6.272
 8574SOL    HW126621   7.002   6.249   6.263
 8574SOL    HW226622   0.106   6.142   6.283
 8575SOL     OW26623   2.451   2.690   4.344
 8575SOL    HW126624   2.470   2.755   4.270
 8575SOL    HW226625   2.395   2.735   4.414
 8576SOL     OW26626   1.255   4.884   6.041
 8576SOL    HW126627   1.231   4.897   5.945
 8576SOL    HW226628   1.339   4.830   6.048
 8577SOL     OW26629   0.862   6.293   4.741
 8577SOL    HW126630   0.770   6.297   4.780
 8577SOL    HW226631   0.879   6.376   4.688
 8578SOL     OW26632   5.554   6.473   4.072
 8578SOL    HW126633   5.489   6.493   4.146
 8578SOL    HW226634   5.642   6.514   4.094
 8579SOL     OW26635   2.177   0.240   1.878
 8579SOL    HW126636   2.147   0.259   1.971
 8579SOL    HW226637   2.117   0.287   1.813
 8580SOL     OW26638   2.267   5.825   1.567
 8580SOL    HW126639   2.218   5.842   1.482
 8580SOL    HW226640   2.350   5.881   1.569
 8581SOL     OW26641   3.416   3.737   1.590
 8581SOL    HW126642   3.474   3.809   1.630
 8581SOL    HW226643   3.341   3.717   1.652
 8582SOL     OW26644   4.659   4.266   4.141
 8582SOL    HW126645   4.629   4.230   4.230
 8582SOL    HW226646   4.742   4.321   4.154
 8583SOL     OW26647   5.453   0.747   4.161
 8583SOL    HW126648   5.504   0.826   4.127
 8583SOL    HW226649   5.371   0.734   4.105
 8584SOL     OW26650   0.609   5.050   5.680
 8584SOL    HW126651   0.568   5.138   5.654
 8584SOL    HW226652   0.539   4.979   5.677
 8585SOL     OW26653   0.746   6.220   5.820
 8585SOL    HW126654   0.663   6.251   5.774
 8585SOL    HW226655   0.790   6.149   5.765
 8586SOL     OW26656   3.114   6.568   2.290
 8586SOL    HW126657   3.177   6.561   2.367
 8586SOL    HW226658   3.156   6.528   2.209
 8587SOL     OW26659   1.022   6.938   3.727
 8587SOL    HW126660   1.023   6.843   3.696
 8587SOL    HW226661   0.996   6.998   3.651
 8588SOL     OW26662   2.654   1.203   0.522
 8588SOL    HW126663   2.615   1.161   0.603
 8588SOL    HW226664   2.742   1.161   0.500
 8589SOL     OW26665   4.863   2.785   5.607
 8589SOL    HW126666   4.944   2.834   5.640
 8589SOL    HW226667   4.854   2.698   5.657
 8590SOL     OW26668   6.775   5.873   3.659
 8590SOL    HW126669   6.736   5.794   3.612
 8590SOL    HW226670   6.830   5.842   3.737
 8591SOL     OW26671   0.434   3.819   6.882
 8591SOL    HW126672   0.352   3.799   6.936
 8591SOL    HW226673   0.515   3.798   6.936
 8592SOL     OW26674   6.709   2.872   6.043
 8592SOL    HW126675   6.728   2.809   5.968
 8592SOL    HW226676   6.629   2.840   6.093
 8593SOL     OW26677   2.296   1.461   0.853
 8593SOL    HW126678   2.270   1.421   0.765
 8593SOL    HW226679   2.372   1.409   0.892
 8594SOL     OW26680   4.280   2.330   5.495
 8594SOL    HW126681   4.322   2.253   5.544
 8594SOL    HW226682   4.275   2.409   5.557
 8595SOL     OW26683   0.537   2.313   3.294
 8595SOL    HW126684   0.551   2.398   3.344
 8595SOL    HW226685   0.600   2.309   3.216
 8596SOL     OW26686   1.088   5.460   3.144
 8596SOL    HW126687   1.153   5.467   3.220
 8596SOL    HW226688   1.049   5.551   3.126
 8597SOL     OW26689   4.253   1.886   0.975
 8597SOL    HW126690   4.232   1.930   1.063
 8597SOL    HW226691   4.309   1.948   0.920
 8598SOL     OW26692   6.096   0.368   0.501
 8598SOL    HW126693   6.191   0.378   0.471
 8598SOL    HW226694   6.092   0.306   0.579
 8599SOL     OW26695   1.187   2.580   5.175
 8599SOL    HW126696   1.229   2.518   5.108
 8599SOL    HW226697   1.094   2.602   5.146
 8600SOL     OW26698   5.271   4.757   4.609
 8600SOL    HW126699   5.279   4.706   4.523
 8600SOL    HW226700   5.329   4.714   4.678
 8601SOL     OW26701   1.242   1.242   4.288
 8601SOL    HW126702   1.281   1.329   4.255
 8601SOL    HW226703   1.219   1.185   4.209
 8602SOL     OW26704   2.915   5.207   1.684
 8602SOL    HW126705   2.841   5.172   1.741
 8602SOL    HW226706   2.978   5.260   1.740
 8603SOL     OW26707   4.823   6.022   0.888
 8603SOL    HW126708   4.847   6.040   0.984
 8603SOL    HW226709   4.864   6.093   0.831
 8604SOL     OW26710   0.530   3.171   4.891
 8604SOL    HW126711   0.475   3.194   4.810
 8604SOL    HW226712   0.625   3.157   4.864
 8605SOL     OW26713   2.879   6.156   3.750
 8605SOL    HW126714   2.894   6.149   3.651
 8605SOL    HW226715   2.924   6.080   3.796
 8606SOL     OW26716   1.740   3.241   6.176
 8606SOL    HW126717   1.669   3.247   6.105
 8606SOL    HW226718   1.750   3.146   6.205
 8607SOL     OW26719   3.709   6.029   0.991
 8607SOL    HW126720   3.767   6.099   0.950
 8607SOL    HW226721   3.746   6.003   1.081
 8608SOL     OW26722   3.817   4.883   2.647
 8608SOL    HW126723   3.775   4.905   2.558
 8608SOL    HW226724   3.747   4.890   2.718
 8609SOL     OW26725   5.118   0.511   2.529
 8609SOL    HW126726   5.186   0.559   2.585
 8609SOL    HW226727   5.063   0.578   2.479
 8610SOL     OW26728   1.593   2.168   2.869
 8610SOL    HW126729   1.497   2.152   2.845
 8610SOL    HW226730   1.598   2.245   2.933
 8611SOL     OW26731   2.855   1.525   4.999
 8611SOL    HW126732   2.776   1.495   4.946
 8611SOL    HW226733   2.936   1.475   4.969
 8612SOL     OW26734   2.614   3.615   0.961
 8612SOL    HW126735   2.558   3.697   0.976
 8612SOL    HW226736   2.626   3.601   0.863
 8613SOL     OW26737   2.484   1.977   1.166
 8613SOL    HW126738   2.577   1.949   1.189
 8613SOL    HW226739   2.433   1.997   1.249
 8614SOL     OW26740   0.991   2.668   2.336
 8614SOL    HW126741   1.081   2.694   2.371
 8614SOL    HW226742   0.961   2.584   2.382
 8615SOL     OW26743   4.689   1.266   4.865
 8615SOL    HW126744   4.695   1.204   4.943
 8615SOL    HW226745   4.628   1.228   4.796
 8616SOL     OW26746   3.168   4.445   1.669
 8616SOL    HW126747   3.167   4.422   1.572
 8616SOL    HW226748   3.076   4.434   1.707
 8617SOL     OW26749   6.340   1.426   6.557
 8617SOL    HW126750   6.342   1.388   6.465
 8617SOL    HW226751   6.247   1.422   6.593
 8618SOL     OW26752   5.892   5.583   0.798
 8618SOL    HW126753   5.815   5.633   0.838
 8618SOL    HW226754   5.868   5.550   0.707
 8619SOL     OW26755   3.923   4.774   2.256
 8619SOL    HW126756   3.900   4.679   2.277
 8619SOL    HW226757   3.923   4.787   2.156
 8620SOL     OW26758   1.360   0.546   3.706
 8620SOL    HW126759   1.439   0.539   3.766
 8620SOL    HW226760   1.286   0.488   3.740
 8621SOL     OW26761   5.774   1.743   2.829
 8621SOL    HW126762   5.778   1.809   2.904
 8621SOL    HW226763   5.864   1.735   2.787
 8622SOL     OW26764   5.645   3.346   0.864
 8622SOL    HW126765   5.714   3.408   0.825
 8622SOL    HW226766   5.632   3.268   0.803
 8623SOL     OW26767   0.956   3.657   4.250
 8623SOL    HW126768   0.986   3.718   4.323
 8623SOL    HW226769   0.934   3.567   4.289
 8624SOL     OW26770   1.568   3.862   4.735
 8624SOL    HW126771   1.508   3.791   4.699
 8624SOL    HW226772   1.519   3.914   4.806
 8625SOL     OW26773   4.473   0.517   6.284
 8625SOL    HW126774   4.461   0.520   6.185
 8625SOL    HW226775   4.482   0.422   6.314
 8626SOL     OW26776   3.632   3.043   5.968
 8626SOL    HW126777   3.578   3.005   6.044
 8626SOL    HW226778   3.701   2.977   5.941
 8627SOL     OW26779   1.233   1.935   3.263
 8627SOL    HW126780   1.322   1.963   3.226
 8627SOL    HW226781   1.215   1.840   3.235
 8628SOL     OW26782   6.022   6.392   0.543
 8628SOL    HW126783   6.033   6.491   0.541
 8628SOL    HW226784   6.094   6.351   0.598
 8629SOL     OW26785   1.294   5.457   4.966
 8629SOL    HW126786   1.333   5.549   4.975
 8629SOL    HW226787   1.313   5.421   4.874
 8630SOL     OW26788   5.338   4.102   3.795
 8630SOL    HW126789   5.357   4.153   3.879
 8630SOL    HW226790   5.253   4.049   3.806
 8631SOL     OW26791   0.752   4.697   6.412
 8631SOL    HW126792   0.837   4.743   6.386
 8631SOL    HW226793   0.732   4.624   6.347
 8632SOL     OW26794   3.656   5.277   4.333
 8632SOL    HW126795   3.636   5.260   4.236
 8632SOL    HW226796   3.714   5.358   4.341
 8633SOL     OW26797   5.204   1.654   5.986
 8633SOL    HW126798   5.121   1.691   5.943
 8633SOL    HW226799   5.179   1.580   6.049
 8634SOL     OW26800   5.046   3.485   0.453
 8634SOL    HW126801   5.131   3.530   0.481
 8634SOL    HW226802   5.039   3.397   0.500
 8635SOL     OW26803   5.616   3.593   6.597
 8635SOL    HW126804   5.649   3.687   6.605
 8635SOL    HW226805   5.661   3.549   6.519
 8636SOL     OW26806   5.482   5.549   0.833
 8636SOL    HW126807   5.406   5.545   0.769
 8636SOL    HW226808   5.541   5.626   0.810
 8637SOL     OW26809   1.935   1.035   0.153
 8637SOL    HW126810   1.955   1.064   0.246
 8637SOL    HW226811   1.859   1.089   0.117
 8638SOL     OW26812   3.371   2.614   5.510
 8638SOL    HW126813   3.319   2.563   5.579
 8638SOL    HW226814   3.319   2.617   5.424
 8639SOL     OW26815   5.145   2.717   0.601
 8639SOL    HW126816   5.236   2.693   0.570
 8639SOL    HW226817   5.127   2.676   0.690
 8640SOL     OW26818   4.163   3.775   6.672
 8640SOL    HW126819   4.253   3.790   6.632
 8640SOL    HW226820   4.168   3.702   6.740
 8641SOL     OW26821   4.557   4.865   3.640
 8641SOL    HW126822   4.643   4.885   3.593
 8641SOL    HW226823   4.577   4.825   3.730
 8642SOL     OW26824   1.585   6.235   2.892
 8642SOL    HW126825   1.652   6.301   2.925
 8642SOL    HW226826   1.613   6.142   2.919
 8643SOL     OW26827   2.482   0.095   6.830
 8643SOL    HW126828   2.475   0.172   6.766
 8643SOL    HW226829   2.404   0.033   6.816
 8644SOL     OW26830   5.600   2.674   5.046
 8644SOL    HW126831   5.689   2.686   5.090
 8644SOL    HW226832   5.611   2.619   4.963
 8645SOL     OW26833   4.704   4.213   1.479
 8645SOL    HW126834   4.763   4.275   1.426
 8645SOL    HW226835   4.719   4.230   1.577
 8646SOL     OW26836   6.552   2.107   1.370
 8646SOL    HW126837   6.595   2.068   1.288
 8646SOL    HW226838   6.453   2.096   1.364
 8647SOL     OW26839   3.088   5.561   6.288
 8647SOL    HW126840   3.046   5.644   6.252
 8647SOL    HW226841   3.027   5.483   6.271
 8648SOL     OW26842   6.298   0.714   3.151
 8648SOL    HW126843   6.306   0.808   3.117
 8648SOL    HW226844   6.304   0.716   3.251
 8649SOL     OW26845   5.084   5.271   5.817
 8649SOL    HW126846   5.026   5.232   5.745
 8649SOL    HW226847   5.025   5.313   5.887
 8650SOL     OW26848   2.298   5.236   4.525
 8650SOL    HW126849   2.283   5.322   4.476
 8650SOL    HW226850   2.381   5.193   4.490
 8651SOL     OW26851   4.058   6.978   6.432
 8651SOL    HW126852   3.966   6.940   6.435
 8651SOL    HW226853   4.109   6.950   6.513
 8652SOL     OW26854   1.722   4.726   4.063
 8652SOL    HW126855   1.818   4.714   4.036
 8652SOL    HW226856   1.716   4.737   4.162
 8653SOL     OW26857   5.676   0.413   6.368
 8653SOL    HW126858   5.613   0.455   6.433
 8653SOL    HW226859   5.675   0.465   6.283
 8654SOL     OW26860   1.017   4.692   1.669
 8654SOL    HW126861   1.059   4.605   1.643
 8654SOL    HW226862   1.042   4.763   1.604
 8655SOL     OW26863   0.148   1.135   3.989
 8655SOL    HW126864   0.234   1.129   3.938
 8655SOL    HW226865   0.162   1.101   4.082
 8656SOL     OW26866   6.781   6.994   1.115
 8656SOL    HW126867   6.803   0.064   1.158
 8656SOL    HW226868   6.771   6.924   1.185
 8657SOL     OW26869   5.506   4.592   6.861
 8657SOL    HW126870   5.499   4.493   6.852
 8657SOL    HW226871   5.519   4.616   6.957
 8658SOL     OW26872   5.954   5.916   0.499
 8658SOL    HW126873   5.896   5.940   0.421
 8658SOL    HW226874   5.977   5.818   0.495
 8659SOL     OW26875   4.425   2.035   2.822
 8659SOL    HW126876   4.373   2.057   2.905
 8659SOL    HW226877   4.386   1.953   2.780
 8660SOL     OW26878   6.491   3.912   1.869
 8660SOL    HW126879   6.579   3.953   1.895
 8660SOL    HW226880   6.464   3.946   1.779
 8661SOL     OW26881   6.405   4.394   0.670
 8661SOL    HW126882   6.367   4.456   0.738
 8661SOL    HW226883   6.498   4.422   0.647
 8662SOL     OW26884   4.275   5.451   1.308
 8662SOL    HW126885   4.176   5.461   1.303
 8662SOL    HW226886   4.318   5.540   1.297
 8663SOL     OW26887   2.935   6.116   1.670
 8663SOL    HW126888   2.961   6.084   1.762
 8663SOL    HW226889   2.942   6.040   1.606
 8664SOL     OW26890   1.338   6.132   0.602
 8664SOL    HW126891   1.349   6.179   0.689
 8664SOL    HW226892   1.265   6.064   0.609
 8665SOL     OW26893   5.597   5.951   4.909
 8665SOL    HW126894   5.667   5.879   4.906
 8665SOL    HW226895   5.532   5.936   4.834
 8666SOL     OW26896   5.507   1.348   3.564
 8666SOL    HW126897   5.410   1.356   3.543
 8666SOL    HW226898   5.525   1.386   3.655
 8667SOL     OW26899   4.256   2.370   3.010
 8667SOL    HW126900   4.294   2.316   2.935
 8667SOL    HW226901   4.157   2.356   3.015
 8668SOL     OW26902   4.765   2.919   3.042
 8668SOL    HW126903   4.786   2.988   2.973
 8668SOL    HW226904   4.711   2.846   3.000
 8669SOL     OW26905   1.675   6.390   5.866
 8669SOL    HW126906   1.749   6.335   5.826
 8669SOL    HW226907   1.661   6.362   5.961
 8670SOL     OW26908   3.923   4.565   5.416
 8670SOL    HW126909   4.013   4.530   5.390
 8670SOL    HW226910   3.892   4.633   5.350
 8671SOL     OW26911   5.288   1.656   2.707
 8671SOL    HW126912   5.374   1.611   2.681
 8671SOL    HW226913   5.211   1.609   2.665
 8672SOL     OW26914   1.171   5.544   4.465
 8672SOL    HW126915   1.223   5.589   4.538
 8672SOL    HW226916   1.225   5.541   4.382
 8673SOL     OW26917   6.175   3.024   0.087
 8673SOL    HW126918   6.231   2.967   0.146
 8673SOL    HW226919   6.156   2.975   0.002
 8674SOL     OW26920   5.250   6.017   2.934
 8674SOL    HW126921   5.191   5.943   2.967
 8674SOL    HW226922   5.276   6.076   3.010
 8675SOL     OW26923   3.455   2.098   4.051
 8675SOL    HW126924   3.363   2.133   4.068
 8675SOL    HW226925   3.506   2.095   4.136
 8676SOL     OW26926   4.876   0.038   2.553
 8676SOL    HW126927   4.787   0.081   2.544
 8676SOL    HW226928   4.948   0.104   2.528
 8677SOL     OW26929   2.145   4.877   6.002
 8677SOL    HW126930   2.173   4.960   6.052
 8677SOL    HW226931   2.217   4.808   6.011
 8678SOL     OW26932   6.996   0.395   2.236
 8678SOL    HW126933   7.017   0.488   2.208
 8678SOL    HW226934   6.906   0.368   2.201
 8679SOL     OW26935   0.133   1.773   3.164
 8679SOL    HW126936   0.143   1.727   3.075
 8679SOL    HW226937   0.184   1.859   3.163
 8680SOL     OW26938   0.637   3.744   0.037
 8680SOL    HW126939   0.652   3.839   0.062
 8680SOL    HW226940   0.667   3.684   0.112
 8681SOL     OW26941   4.993   5.078   0.712
 8681SOL    HW126942   4.977   5.081   0.811
 8681SOL    HW226943   4.917   5.031   0.667
 8682SOL     OW26944   5.206   6.564   1.937
 8682SOL    HW126945   5.138   6.491   1.949
 8682SOL    HW226946   5.255   6.578   2.023
 8683SOL     OW26947   2.235   1.786   4.418
 8683SOL    HW126948   2.277   1.711   4.365
 8683SOL    HW226949   2.307   1.836   4.467
 8684SOL     OW26950   6.652   3.043   5.215
 8684SOL    HW126951   6.606   3.112   5.271
 8684SOL    HW226952   6.692   2.973   5.274
 8685SOL     OW26953   0.506   2.333   6.927
 8685SOL    HW126954   0.462   2.368   6.844
 8685SOL    HW226955   0.602   2.362   6.929
 8686SOL     OW26956   7.001   1.321   2.700
 8686SOL    HW126957   0.026   1.252   2.759
 8686SOL    HW226958   6.996   1.287   2.606
 8687SOL     OW26959   5.101   4.558   1.395
 8687SOL    HW126960   5.185   4.548   1.342
 8687SOL    HW226961   5.123   4.555   1.493
 8688SOL     OW26962   1.941   5.403   6.888
 8688SOL    HW126963   1.888   5.380   6.806
 8688SOL    HW226964   1.996   5.324   6.915
 8689SOL     OW26965   3.857   3.672   1.485
 8689SOL    HW126966   3.866   3.771   1.499
 8689SOL    HW226967   3.765   3.652   1.450
 8690SOL     OW26968   1.362   3.980   3.544
 8690SOL    HW126969   1.279   3.956   3.493
 8690SOL    HW226970   1.394   3.900   3.594
 8691SOL     OW26971   3.146   1.867   5.896
 8691SOL    HW126972   3.193   1.786   5.930
 8691SOL    HW226973   3.048   1.857   5.911
 8692SOL     OW26974   2.488   1.168   5.138
 8692SOL    HW126975   2.405   1.134   5.182
 8692SOL    HW226976   2.488   1.143   5.042
 8693SOL     OW26977   5.668   1.040   7.011
 8693SOL    HW126978   5.687   0.959   6.955
 8693SOL    HW226979   5.726   1.116   6.981
 8694SOL     OW26980   4.727   0.330   5.140
 8694SOL    HW126981   4.715   0.232   5.157
 8694SOL    HW226982   4.820   0.347   5.108
 8695SOL     OW26983   4.332   3.555   6.341
 8695SOL    HW126984   4.386   3.542   6.258
 8695SOL    HW226985   4.293   3.648   6.342
 8696SOL     OW26986   1.820   4.978   5.911
 8696SOL    HW126987   1.730   4.936   5.915
 8696SOL    HW226988   1.881   4.921   5.857
 8697SOL     OW26989   0.075   3.037   6.583
 8697SOL    HW126990   0.115   2.982   6.510
 8697SOL    HW226991   6.993   3.025   6.582
 8698SOL     OW26992   5.069   5.661   4.874
 8698SOL    HW126993   5.064   5.579   4.931
 8698SOL    HW226994   5.017   5.735   4.918
 8699SOL     OW26995   1.576   2.461   5.156
 8699SOL    HW126996   1.616   2.400   5.224
 8699SOL    HW226997   1.493   2.420   5.119
 8700SOL     OW26998   1.304   1.615   3.818
 8700SOL    HW126999   1.396   1.628   3.856
 8700SOL    HW227000   1.294   1.520   3.788
 8701SOL     OW27001   0.925   0.877   0.067
 8701SOL    HW127002   0.954   0.812   7.014
 8701SOL    HW227003   0.987   0.871   0.145
 8702SOL     OW27004   5.607   4.809   1.652
 8702SOL    HW127005   5.583   4.904   1.629
 8702SOL    HW227006   5.553   4.746   1.596
 8703SOL     OW27007   2.719   4.601   6.836
 8703SOL    HW127008   2.735   4.695   6.868
 8703SOL    HW227009   2.694   4.543   6.914
 8704SOL     OW27010   0.244   4.121   3.484
 8704SOL    HW127011   0.343   4.120   3.503
 8704SOL    HW227012   0.227   4.177   3.403
 8705SOL     OW27013   5.248   1.201   6.286
 8705SOL    HW127014   5.320   1.270   6.278
 8705SOL    HW227015   5.161   1.242   6.259
 8706SOL     OW27016   4.942   2.253   6.871
 8706SOL    HW127017   5.002   2.248   6.791
 8706SOL    HW227018   4.849   2.278   6.842
 8707SOL     OW27019   6.766   1.160   6.419
 8707SOL    HW127020   6.825   1.080   6.428
 8707SOL    HW227021   6.678   1.132   6.380
 8708SOL     OW27022   4.545   1.688   2.112
 8708SOL    HW127023   4.493   1.695   2.196
 8708SOL    HW227024   4.485   1.707   2.034
 8709SOL     OW27025   0.136   6.538   0.340
 8709SOL    HW127026   0.136   6.629   0.299
 8709SOL    HW227027   0.130   6.469   0.268
 8710SOL     OW27028   1.916   3.059   3.968
 8710SOL    HW127029   1.954   2.978   3.924
 8710SOL    HW227030   1.973   3.086   4.045
 8711SOL     OW27031   1.965   0.051   3.051
 8711SOL    HW127032   1.942   0.096   3.138
 8711SOL    HW227033   2.048   0.093   3.014
 8712SOL     OW27034   4.144   2.047   4.581
 8712SOL    HW127035   4.176   2.133   4.541
 8712SOL    HW227036   4.206   2.020   4.655
 8713SOL     OW27037   6.567   3.287   4.232
 8713SOL    HW127038   6.580   3.262   4.136
 8713SOL    HW227039   6.540   3.205   4.284
 8714SOL     OW27040   0.679   0.380   5.851
 8714SOL    HW127041   0.612   0.310   5.826
 8714SOL    HW227042   0.643   0.437   5.924
 8715SOL     OW27043   4.711   6.709   0.729
 8715SOL    HW127044   4.613   6.727   0.716
 8715SOL    HW227045   4.726   6.673   0.821
 8716SOL     OW27046   6.833   0.221   1.204
 8716SOL    HW127047   6.832   0.301   1.145
 8716SOL    HW227048   6.758   0.227   1.270
 8717SOL     OW27049   3.102   3.099   4.627
 8717SOL    HW127050   3.160   3.178   4.646
 8717SOL    HW227051   3.151   3.035   4.569
 8718SOL     OW27052   1.877   3.433   5.074
 8718SOL    HW127053   1.782   3.463   5.088
 8718SOL    HW227054   1.881   3.333   5.075
 8719SOL     OW27055   3.896   0.552   6.923
 8719SOL    HW127056   3.959   0.480   6.952
 8719SOL    HW227057   3.802   0.524   6.943
 8720SOL     OW27058   0.106   5.308   6.130
 8720SOL    HW127059   0.056   5.274   6.050
 8720SOL    HW227060   0.060   5.390   6.166
 8721SOL     OW27061   6.928   2.921   1.789
 8721SOL    HW127062   6.959   2.948   1.880
 8721SOL    HW227063   6.962   2.987   1.721
 8722SOL     OW27064   3.515   1.232   6.895
 8722SOL    HW127065   3.429   1.190   6.866
 8722SOL    HW227066   3.497   1.322   6.935
 8723SOL     OW27067   5.305   5.912   1.251
 8723SOL    HW127068   5.315   5.936   1.348
 8723SOL    HW227069   5.222   5.953   1.215
 8724SOL     OW27070   4.779   6.779   5.083
 8724SOL    HW127071   4.857   6.736   5.128
 8724SOL    HW227072   4.752   6.860   5.136
 8725SOL     OW27073   1.767   6.196   5.672
 8725SOL    HW127074   1.735   6.103   5.655
 8725SOL    HW227075   1.867   6.198   5.670
 8726SOL     OW27076   0.009   1.654   3.390
 8726SOL    HW127077   0.076   1.709   3.341
 8726SOL    HW227078   0.043   1.634   3.482
 8727SOL     OW27079   6.058   6.569   2.237
 8727SOL    HW127080   6.052   6.485   2.290
 8727SOL    HW227081   6.155   6.593   2.222
 8728SOL     OW27082   6.423   0.527   2.331
 8728SOL    HW127083   6.456   0.439   2.365
 8728SOL    HW227084   6.359   0.567   2.397
 8729SOL     OW27085   3.559   5.648   5.068
 8729SOL    HW127086   3.498   5.640   5.147
 8729SOL    HW227087   3.526   5.591   4.994
 8730SOL     OW27088   6.311   4.688   2.583
 8730SOL    HW127089   6.374   4.621   2.545
 8730SOL    HW227090   6.342   4.717   2.673
 8731SOL     OW27091   1.767   2.823   2.761
 8731SOL    HW127092   1.704   2.884   2.713
 8731SOL    HW227093   1.851   2.813   2.708
 8732SOL     OW27094   5.914   4.756   1.730
 8732SOL    HW127095   5.919   4.735   1.827
 8732SOL    HW227096   5.819   4.759   1.701
 8733SOL     OW27097   1.905   5.326   1.332
 8733SOL    HW127098   1.819   5.360   1.293
 8733SOL    HW227099   1.888   5.292   1.424
 8734SOL     OW27100   0.773   4.479   2.101
 8734SOL    HW127101   0.831   4.552   2.136
 8734SOL    HW227102   0.828   4.398   2.082
 8735SOL     OW27103   0.984   2.500   0.681
 8735SOL    HW127104   0.939   2.474   0.595
 8735SOL    HW227105   0.958   2.435   0.752
 8736SOL     OW27106   0.291   5.589   0.318
 8736SOL    HW127107   0.206   5.544   0.290
 8736SOL    HW227108   0.345   5.611   0.237
 8737SOL     OW27109   1.877   6.662   6.948
 8737SOL    HW127110   1.902   6.588   6.886
 8737SOL    HW227111   1.952   6.728   6.954
 8738SOL     OW27112   2.747   5.502   4.317
 8738SOL    HW127113   2.758   5.403   4.303
 8738SOL    HW227114   2.681   5.518   4.390
 8739SOL     OW27115   6.174   5.501   6.836
 8739SOL    HW127116   6.108   5.575   6.854
 8739SOL    HW227117   6.236   5.492   6.914
 8740SOL     OW27118   4.650   1.143   4.453
 8740SOL    HW127119   4.737   1.138   4.404
 8740SOL    HW227120   4.595   1.062   4.431
 8741SOL     OW27121   2.612   1.084   2.168
 8741SOL    HW127122   2.532   1.029   2.145
 8741SOL    HW227123   2.590   1.148   2.242
 8742SOL     OW27124   5.198   6.255   1.340
 8742SOL    HW127125   5.154   6.171   1.373
 8742SOL    HW227126   5.200   6.323   1.414
 8743SOL     OW27127   1.901   0.017   2.153
 8743SOL    HW127128   1.996   7.005   2.150
 8743SOL    HW227129   1.842   6.956   2.170
 8744SOL     OW27130   4.105   2.851   6.311
 8744SOL    HW127131   4.033   2.861   6.380
 8744SOL    HW227132   4.149   2.761   6.323
 8745SOL     OW27133   6.410   2.559   6.633
 8745SOL    HW127134   6.326   2.539   6.582
 8745SOL    HW227135   6.463   2.475   6.643
 8746SOL     OW27136   4.399   5.423   4.515
 8746SOL    HW127137   4.340   5.492   4.557
 8746SOL    HW227138   4.478   5.407   4.574
 8747SOL     OW27139   0.602   2.574   3.149
 8747SOL    HW127140   0.562   2.600   3.237
 8747SOL    HW227141   0.701   2.586   3.152
 8748SOL     OW27142   6.493   1.213   4.635
 8748SOL    HW127143   6.592   1.201   4.628
 8748SOL    HW227144   6.472   1.310   4.645
 8749SOL     OW27145   2.185   0.272   4.511
 8749SOL    HW127146   2.176   0.304   4.416
 8749SOL    HW227147   2.282   0.275   4.537
 8750SOL     OW27148   2.947   3.833   4.838
 8750SOL    HW127149   3.046   3.830   4.837
 8750SOL    HW227150   2.915   3.875   4.923
 8751SOL     OW27151   5.522   1.462   2.270
 8751SOL    HW127152   5.539   1.560   2.262
 8751SOL    HW227153   5.592   1.412   2.218
 8752SOL     OW27154   3.273   3.436   6.998
 8752SOL    HW127155   3.258   3.452   6.901
 8752SOL    HW227156   3.240   3.345   0.004
 8753SOL     OW27157   4.011   2.242   5.921
 8753SOL    HW127158   4.057   2.155   5.907
 8753SOL    HW227159   4.067   2.302   5.977
 8754SOL     OW27160   2.363   3.516   5.574
 8754SOL    HW127161   2.330   3.535   5.482
 8754SOL    HW227162   2.432   3.585   5.600
 8755SOL     OW27163   2.155   0.759   0.807
 8755SOL    HW127164   2.075   0.723   0.757
 8755SOL    HW227165   2.153   0.725   0.901
 8756SOL     OW27166   0.714   3.315   4.258
 8756SOL    HW127167   0.771   3.238   4.287
 8756SOL    HW227168   0.658   3.287   4.180
 8757SOL     OW27169   4.025   5.705   6.281
 8757SOL    HW127170   3.949   5.756   6.320
 8757SOL    HW227171   4.079   5.663   6.355
 8758SOL     OW27172   4.861   5.850   2.329
 8758SOL    HW127173   4.940   5.900   2.364
 8758SOL    HW227174   4.830   5.784   2.398
 8759SOL     OW27175   5.221   2.498   6.847
 8759SOL    HW127176   5.296   2.553   6.882
 8759SOL    HW227177   5.258   2.420   6.796
 8760SOL     OW27178   2.123   0.915   5.389
 8760SOL    HW127179   2.071   0.930   5.305
 8760SOL    HW227180   2.211   0.874   5.366
 8761SOL     OW27181   6.473   2.086   1.911
 8761SOL    HW127182   6.520   2.054   1.828
 8761SOL    HW227183   6.436   2.177   1.894
 8762SOL     OW27184   1.220   4.197   3.251
 8762SOL    HW127185   1.262   4.112   3.219
 8762SOL    HW227186   1.134   4.175   3.298
 8763SOL     OW27187   6.786   6.512   6.045
 8763SOL    HW127188   6.830   6.540   6.130
 8763SOL    HW227189   6.765   6.593   5.990
 8764SOL     OW27190   4.884   0.098   4.966
 8764SOL    HW127191   4.874   0.180   4.910
 8764SOL    HW227192   4.921   0.023   4.911
 8765SOL     OW27193   5.161   0.281   4.449
 8765SOL    HW127194   5.120   0.371   4.430
 8765SOL    HW227195   5.241   0.268   4.391
 8766SOL     OW27196   4.782   4.663   4.365
 8766SOL    HW127197   4.741   4.684   4.276
 8766SOL    HW227198   4.840   4.582   4.356
 8767SOL     OW27199   4.662   5.280   3.019
 8767SOL    HW127200   4.590   5.346   2.999
 8767SOL    HW227201   4.622   5.198   3.062
 8768SOL     OW27202   1.203   2.639   0.380
 8768SOL    HW127203   1.283   2.676   0.427
 8768SOL    HW227204   1.189   2.544   0.407
 8769SOL     OW27205   6.936   0.524   4.044
 8769SOL    HW127206   6.910   0.466   3.967
 8769SOL    HW227207   6.931   0.620   4.017
 8770SOL     OW27208   4.495   4.465   2.303
 8770SOL    HW127209   4.502   4.429   2.209
 8770SOL    HW227210   4.466   4.560   2.300
 8771SOL     OW27211   1.373   1.837   6.357
 8771SOL    HW127212   1.343   1.781   6.280
 8771SOL    HW227213   1.294   1.869   6.409
 8772SOL     OW27214   5.140   0.589   6.416
 8772SOL    HW127215   5.086   0.561   6.336
 8772SOL    HW227216   5.234   0.610   6.387
 8773SOL     OW27217   4.867   2.060   3.697
 8773SOL    HW127218   4.829   2.143   3.736
 8773SOL    HW227219   4.842   2.053   3.600
 8774SOL     OW27220   1.448   0.782   6.911
 8774SOL    HW127221   1.366   0.726   6.922
 8774SOL    HW227222   1.527   0.722   6.895
 8775SOL     OW27223   5.886   6.732   5.615
 8775SOL    HW127224   5.794   6.747   5.579
 8775SOL    HW227225   5.888   6.647   5.667
 8776SOL     OW27226   3.821   2.707   6.972
 8776SOL    HW127227   3.915   2.715   6.937
 8776SOL    HW227228   3.811   2.618   7.016
 8777SOL     OW27229   6.950   4.068   2.660
 8777SOL    HW127230   6.929   4.155   2.704
 8777SOL    HW227231   6.870   4.037   2.608
 8778SOL     OW27232   5.443   2.881   5.477
 8778SOL    HW127233   5.482   2.952   5.536
 8778SOL    HW227234   5.470   2.899   5.382
 8779SOL     OW27235   2.721   5.044   2.692
 8779SOL    HW127236   2.781   5.031   2.771
 8779SOL    HW227237   2.635   4.994   2.707
 8780SOL     OW27238   0.667   6.233   3.100
 8780SOL    HW127239   0.649   6.159   3.036
 8780SOL    HW227240   0.737   6.205   3.166
 8781SOL     OW27241   5.292   0.928   2.831
 8781SOL    HW127242   5.302   1.014   2.881
 8781SOL    HW227243   5.195   0.905   2.825
 8782SOL     OW27244   6.186   6.413   1.446
 8782SOL    HW127245   6.158   6.506   1.421
 8782SOL    HW227246   6.266   6.418   1.506
 8783SOL     OW27247   6.450   4.647   3.846
 8783SOL    HW127248   6.424   4.555   3.818
 8783SOL    HW227249   6.440   4.710   3.769
 8784SOL     OW27250   6.152   3.896   5.987
 8784SOL    HW127251   6.115   3.805   5.971
 8784SOL    HW227252   6.172   3.907   6.084
 8785SOL     OW27253   5.634   3.595   0.171
 8785SOL    HW127254   5.630   3.685   0.215
 8785SOL    HW227255   5.700   3.537   0.220
 8786SOL     OW27256   2.659   0.618   0.792
 8786SOL    HW127257   2.750   0.651   0.819
 8786SOL    HW227258   2.641   0.530   0.835
 8787SOL     OW27259   3.531   1.473   1.624
 8787SOL    HW127260   3.500   1.511   1.710
 8787SOL    HW227261   3.453   1.436   1.573
 8788SOL     OW27262   6.209   1.294   5.561
 8788SOL    HW127263   6.158   1.282   5.476
 8788SOL    HW227264   6.153   1.346   5.626
 8789SOL     OW27265   6.107   6.597   4.709
 8789SOL    HW127266   6.082   6.555   4.796
 8789SOL    HW227267   6.206   6.598   4.699
 8790SOL     OW27268   0.665   0.293   6.180
 8790SOL    HW127269   0.647   0.318   6.275
 8790SOL    HW227270   0.616   0.357   6.119
 8791SOL     OW27271   5.310   6.744   5.179
 8791SOL    HW127272   5.348   6.656   5.152
 8791SOL    HW227273   5.213   6.734   5.199
 8792SOL     OW27274   2.361   5.734   3.002
 8792SOL    HW127275   2.330   5.797   2.930
 8792SOL    HW227276   2.323   5.762   3.090
 8793SOL     OW27277   1.250   4.591   3.069
 8793SOL    HW127278   1.259   4.496   3.098
 8793SOL    HW227279   1.160   4.604   3.025
 8794SOL     OW27280   4.734   0.139   2.116
 8794SOL    HW127281   4.815   0.184   2.155
 8794SOL    HW227282   4.761   0.053   2.075
 8795SOL     OW27283   1.247   4.942   5.762
 8795SOL    HW127284   1.263   4.930   5.664
 8795SOL    HW227285   1.299   5.021   5.795
 8796SOL     OW27286   4.120   2.274   4.443
 8796SOL    HW127287   4.111   2.245   4.348
 8796SOL    HW227288   4.191   2.344   4.450
 8797SOL     OW27289   0.030   0.053   0.057
 8797SOL    HW127290   0.122   0.057   0.095
 8797SOL    HW227291   6.981   0.047   0.132
 8798SOL     OW27292   5.612   5.904   6.424
 8798SOL    HW127293   5.603   5.935   6.329
 8798SOL    HW227294   5.586   5.808   6.430
 8799SOL     OW27295   2.551   4.612   3.461
 8799SOL    HW127296   2.629   4.651   3.508
 8799SOL    HW227297   2.529   4.523   3.500
 8800SOL     OW27298   6.692   4.019   5.621
 8800SOL    HW127299   6.719   4.113   5.642
 8800SOL    HW227300   6.773   3.967   5.592
 8801SOL     OW27301   6.898   1.150   5.294
 8801SOL    HW127302   6.891   1.152   5.394
 8801SOL    HW227303   6.839   1.078   5.258
 8802SOL     OW27304   2.079   6.863   0.006
 8802SOL    HW127305   2.030   6.932   6.971
 8802SOL    HW227306   2.103   6.899   0.096
 8803SOL     OW27307   6.800   6.156   6.998
 8803SOL    HW127308   6.787   6.145   0.079
 8803SOL    HW227309   6.737   6.095   6.949
 8804SOL     OW27310   2.474   6.707   2.225
 8804SOL    HW127311   2.444   6.796   2.191
 8804SOL    HW227312   2.546   6.720   2.294
 8805SOL     OW27313   2.866   6.171   3.451
 8805SOL    HW127314   2.861   6.134   3.359
 8805SOL    HW227315   2.825   6.262   3.453
 8806SOL     OW27316   3.315   4.952   2.263
 8806SOL    HW127317   3.318   4.913   2.355
 8806SOL    HW227318   3.233   4.919   2.216
 8807SOL     OW27319   5.140   0.507   0.282
 8807SOL    HW127320   5.086   0.425   0.302
 8807SOL    HW227321   5.142   0.566   0.362
 8808SOL     OW27322   6.123   2.516   6.898
 8808SOL    HW127323   6.130   2.421   6.868
 8808SOL    HW227324   6.063   2.567   6.837
 8809SOL     OW27325   4.898   5.738   3.026
 8809SOL    HW127326   4.844   5.659   2.998
 8809SOL    HW227327   4.854   5.822   2.992
 8810SOL     OW27328   6.168   0.607   4.972
 8810SOL    HW127329   6.250   0.660   4.950
 8810SOL    HW227330   6.178   0.567   5.064
 8811SOL     OW27331   3.423   0.649   2.724
 8811SOL    HW127332   3.514   0.677   2.754
 8811SOL    HW227333   3.407   0.679   2.630
 8812SOL     OW27334   1.960   0.698   0.626
 8812SOL    HW127335   1.884   0.649   0.668
 8812SOL    HW227336   1.924   0.763   0.558
 8813SOL     OW27337   2.188   4.831   1.886
 8813SOL    HW127338   2.286   4.849   1.873
 8813SOL    HW227339   2.165   4.844   1.982
 8814SOL     OW27340   5.895   6.940   1.014
 8814SOL    HW127341   5.856   6.848   1.008
 8814SOL    HW227342   5.839   6.996   1.073
 8815SOL     OW27343   5.630   0.065   0.968
 8815SOL    HW127344   5.702   0.119   1.011
 8815SOL    HW227345   5.613   7.000   1.022
 8816SOL     OW27346   1.252   6.695   0.269
 8816SOL    HW127347   1.334   6.680   0.325
 8816SOL    HW227348   1.170   6.680   0.325
 8817SOL     OW27349   0.068   5.052   3.993
 8817SOL    HW127350   0.134   5.024   4.062
 8817SOL    HW227351   7.010   4.987   3.991
 8818SOL     OW27352   0.369   4.431   4.775
 8818SOL    HW127353   0.304   4.445   4.700
 8818SOL    HW227354   0.373   4.512   4.833
 8819SOL     OW27355   5.634   5.409   5.449
 8819SOL    HW127356   5.558   5.381   5.391
 8819SOL    HW227357   5.720   5.389   5.403
 8820SOL     OW27358   2.588   0.340   4.903
 8820SOL    HW127359   2.518   0.381   4.845
 8820SOL    HW227360   2.614   0.405   4.975
 8821SOL     OW27361   1.618   6.206   0.482
 8821SOL    HW127362   1.528   6.222   0.523
 8821SOL    HW227363   1.630   6.108   0.465
 8822SOL     OW27364   0.560   0.112   3.924
 8822SOL    HW127365   0.639   0.090   3.981
 8822SOL    HW227366   0.586   0.178   3.854
 8823SOL     OW27367   2.411   0.907   2.682
 8823SOL    HW127368   2.502   0.938   2.711
 8823SOL    HW227369   2.415   0.875   2.588
 8824SOL     OW27370   1.471   2.334   0.251
 8824SOL    HW127371   1.443   2.325   0.346
 8824SOL    HW227372   1.554   2.281   0.235
 8825SOL     OW27373   2.321   1.119   1.902
 8825SOL    HW127374   2.355   1.060   1.976
 8825SOL    HW227375   2.373   1.204   1.900
 8826SOL     OW27376   0.166   3.816   0.303
 8826SOL    HW127377   0.255   3.856   0.282
 8826SOL    HW227378   0.174   3.755   0.382
 8827SOL     OW27379   4.321   1.403   1.520
 8827SOL    HW127380   4.354   1.425   1.612
 8827SOL    HW227381   4.231   1.444   1.506
 8828SOL     OW27382   3.822   5.858   5.990
 8828SOL    HW127383   3.813   5.913   5.907
 8828SOL    HW227384   3.911   5.875   6.032
 8829SOL     OW27385   5.017   3.035   0.836
 8829SOL    HW127386   5.054   3.074   0.921
 8829SOL    HW227387   5.084   3.048   0.762
 8830SOL     OW27388   1.671   2.070   2.606
 8830SOL    HW127389   1.624   2.103   2.688
 8830SOL    HW227390   1.671   1.970   2.605
 8831SOL     OW27391   4.362   2.397   4.436
 8831SOL    HW127392   4.397   2.304   4.433
 8831SOL    HW227393   4.391   2.446   4.353
 8832SOL     OW27394   0.075   6.716   3.088
 8832SOL    HW127395   0.002   6.676   3.033
 8832SOL    HW227396   0.072   6.815   3.080
 8833SOL     OW27397   2.058   4.960   5.731
 8833SOL    HW127398   2.136   4.985   5.673
 8833SOL    HW227399   2.091   4.914   5.813
 8834SOL     OW27400   5.482   4.194   4.794
 8834SOL    HW127401   5.432   4.271   4.833
 8834SOL    HW227402   5.473   4.114   4.853
 8835SOL     OW27403   4.676   0.817   5.573
 8835SOL    HW127404   4.699   0.820   5.670
 8835SOL    HW227405   4.636   0.905   5.546
 8836SOL     OW27406   4.792   2.393   0.527
 8836SOL    HW127407   4.834   2.394   0.436
 8836SOL    HW227408   4.696   2.417   0.520
 8837SOL     OW27409   6.802   6.422   2.363
 8837SOL    HW127410   6.844   6.513   2.364
 8837SOL    HW227411   6.842   6.368   2.288
 8838SOL     OW27412   2.176   5.366   3.635
 8838SOL    HW127413   2.128   5.433   3.692
 8838SOL    HW227414   2.151   5.273   3.664
 8839SOL     OW27415   5.524   5.373   1.874
 8839SOL    HW127416   5.526   5.412   1.965
 8839SOL    HW227417   5.580   5.290   1.872
 8840SOL     OW27418   0.229   1.751   2.638
 8840SOL    HW127419   0.323   1.735   2.609
 8840SOL    HW227420   0.178   1.793   2.563
 8841SOL     OW27421   0.428   0.952   4.687
 8841SOL    HW127422   0.382   0.888   4.749
 8841SOL    HW227423   0.527   0.945   4.698
 8842SOL     OW27424   3.543   2.886   2.481
 8842SOL    HW127425   3.630   2.907   2.525
 8842SOL    HW227426   3.560   2.851   2.389
 8843SOL     OW27427   2.155   3.396   5.692
 8843SOL    HW127428   2.201   3.318   5.735
 8843SOL    HW227429   2.223   3.452   5.645
 8844SOL     OW27430   0.168   1.284   6.210
 8844SOL    HW127431   0.234   1.359   6.216
 8844SOL    HW227432   0.211   1.198   6.236
 8845SOL     OW27433   3.447   3.952   1.120
 8845SOL    HW127434   3.390   3.919   1.045
 8845SOL    HW227435   3.512   4.020   1.086
 8846SOL     OW27436   3.530   5.432   3.896
 8846SOL    HW127437   3.519   5.403   3.801
 8846SOL    HW227438   3.504   5.528   3.905
 8847SOL     OW27439   2.434   0.783   2.939
 8847SOL    HW127440   2.441   0.795   2.840
 8847SOL    HW227441   2.337   0.778   2.965
 8848SOL     OW27442   3.068   2.139   2.094
 8848SOL    HW127443   2.998   2.210   2.082
 8848SOL    HW227444   3.058   2.098   2.185
 8849SOL     OW27445   3.128   6.515   3.049
 8849SOL    HW127446   3.071   6.440   3.014
 8849SOL    HW227447   3.159   6.493   3.141
 8850SOL     OW27448   1.562   1.850   0.014
 8850SOL    HW127449   1.490   1.834   6.964
 8850SOL    HW227450   1.611   1.764   0.031
 8851SOL     OW27451   1.316   5.594   2.129
 8851SOL    HW127452   1.404   5.556   2.157
 8851SOL    HW227453   1.270   5.632   2.209
 8852SOL     OW27454   5.366   3.213   5.930
 8852SOL    HW127455   5.375   3.297   5.876
 8852SOL    HW227456   5.279   3.169   5.908
 8853SOL     OW27457   2.924   1.729   0.650
 8853SOL    HW127458   2.887   1.775   0.730
 8853SOL    HW227459   3.021   1.710   0.663
 8854SOL     OW27460   3.522   1.653   5.356
 8854SOL    HW127461   3.453   1.690   5.418
 8854SOL    HW227462   3.477   1.600   5.285
 8855SOL     OW27463   0.176   5.944   1.446
 8855SOL    HW127464   0.251   5.973   1.386
 8855SOL    HW227465   0.171   6.007   1.524
 8856SOL     OW27466   0.223   6.474   6.339
 8856SOL    HW127467   0.322   6.477   6.329
 8856SOL    HW227468   0.190   6.383   6.316
 8857SOL     OW27469   6.893   1.535   3.972
 8857SOL    HW127470   6.851   1.537   3.881
 8857SOL    HW227471   6.823   1.514   4.040
 8858SOL     OW27472   0.904   3.029   5.476
 8858SOL    HW127473   0.878   2.971   5.553
 8858SOL    HW227474   0.929   2.971   5.398
 8859SOL     OW27475   0.271   0.380   4.208
 8859SOL    HW127476   0.185   0.417   4.244
 8859SOL    HW227477   0.348   0.426   4.252
 8860SOL     OW27478   6.843   2.733   2.960
 8860SOL    HW127479   6.840   2.742   2.860
 8860SOL    HW227480   6.858   2.823   3.001
 8861SOL     OW27481   4.126   1.532   5.936
 8861SOL    HW127482   4.184   1.473   5.993
 8861SOL    HW227483   4.056   1.575   5.993
 8862SOL     OW27484   5.665   0.558   4.035
 8862SOL    HW127485   5.615   0.641   4.059
 8862SOL    HW227486   5.655   0.540   3.937
 8863SOL     OW27487   1.314   4.962   4.446
 8863SOL    HW127488   1.267   5.035   4.496
 8863SOL    HW227489   1.249   4.890   4.422
 8864SOL     OW27490   3.486   4.943   6.193
 8864SOL    HW127491   3.560   4.923   6.257
 8864SOL    HW227492   3.420   5.005   6.236
 8865SOL     OW27493   3.430   0.298   6.029
 8865SOL    HW127494   3.361   0.234   5.995
 8865SOL    HW227495   3.405   0.391   6.001
 8866SOL     OW27496   5.299   0.388   3.486
 8866SOL    HW127497   5.289   0.289   3.499
 8866SOL    HW227498   5.345   0.406   3.399
 8867SOL     OW27499   5.635   4.262   3.126
 8867SOL    HW127500   5.696   4.190   3.158
 8867SOL    HW227501   5.569   4.223   3.062
 8868SOL     OW27502   6.591   2.988   1.120
 8868SOL    HW127503   6.655   2.995   1.196
 8868SOL    HW227504   6.628   2.927   1.051
 8869SOL     OW27505   4.025   5.755   4.620
 8869SOL    HW127506   4.079   5.702   4.684
 8869SOL    HW227507   4.007   5.846   4.658
 8870SOL     OW27508   3.012   0.615   0.635
 8870SOL    HW127509   3.079   0.614   0.560
 8870SOL    HW227510   3.026   0.535   0.693
 8871SOL     OW27511   2.148   1.254   4.193
 8871SOL    HW127512   2.075   1.229   4.256
 8871SOL    HW227513   2.226   1.192   4.206
 8872SOL     OW27514   1.519   4.538   4.934
 8872SOL    HW127515   1.443   4.482   4.967
 8872SOL    HW227516   1.562   4.494   4.856
 8873SOL     OW27517   0.925   6.909   1.811
 8873SOL    HW127518   0.833   6.930   1.846
 8873SOL    HW227519   0.978   6.993   1.803
 8874SOL     OW27520   1.686   6.404   2.236
 8874SOL    HW127521   1.775   6.362   2.217
 8874SOL    HW227522   1.632   6.405   2.152
 8875SOL     OW27523   0.238   3.577   5.190
 8875SOL    HW127524   0.217   3.639   5.265
 8875SOL    HW227525   0.155   3.530   5.161
 8876SOL     OW27526   2.295   6.350   4.941
 8876SOL    HW127527   2.207   6.350   4.988
 8876SOL    HW227528   2.281   6.355   4.843
 8877SOL     OW27529   3.121   1.648   4.203
 8877SOL    HW127530   3.080   1.653   4.294
 8877SOL    HW227531   3.068   1.703   4.139
 8878SOL     OW27532   6.426   4.670   0.464
 8878SOL    HW127533   6.401   4.584   0.419
 8878SOL    HW227534   6.467   4.732   0.397
 8879SOL     OW27535   4.931   4.890   3.054
 8879SOL    HW127536   4.976   4.803   3.076
 8879SOL    HW227537   4.951   4.916   2.960
 8880SOL     OW27538   5.308   5.941   4.742
 8880SOL    HW127539   5.245   5.874   4.703
 8880SOL    HW227540   5.257   6.021   4.773
 8881SOL     OW27541   5.245   6.819   4.278
 8881SOL    HW127542   5.332   6.770   4.283
 8881SOL    HW227543   5.202   6.802   4.190
 8882SOL     OW27544   5.664   1.218   1.124
 8882SOL    HW127545   5.759   1.203   1.096
 8882SOL    HW227546   5.623   1.131   1.149
 8883SOL     OW27547   1.356   6.350   5.938
 8883SOL    HW127548   1.320   6.269   5.984
 8883SOL    HW227549   1.456   6.347   5.937
 8884SOL     OW27550   6.650   4.075   5.979
 8884SOL    HW127551   6.651   3.982   5.942
 8884SOL    HW227552   6.555   4.108   5.981
 8885SOL     OW27553   6.437   3.612   1.847
 8885SOL    HW127554   6.402   3.624   1.754
 8885SOL    HW227555   6.396   3.680   1.907
 8886SOL     OW27556   2.813   6.593   4.496
 8886SOL    HW127557   2.857   6.665   4.550
 8886SOL    HW227558   2.732   6.560   4.544
 8887SOL     OW27559   4.006   0.722   0.413
 8887SOL    HW127560   4.041   0.653   0.477
 8887SOL    HW227561   4.011   0.812   0.457
 8888SOL     OW27562   1.754   1.724   5.736
 8888SOL    HW127563   1.821   1.661   5.696
 8888SOL    HW227564   1.741   1.802   5.674
 8889SOL     OW27565   6.854   0.282   6.540
 8889SOL    HW127566   6.802   0.237   6.613
 8889SOL    HW227567   6.792   0.337   6.484
 8890SOL     OW27568   6.636   5.993   4.530
 8890SOL    HW127569   6.593   6.081   4.513
 8890SOL    HW227570   6.728   6.007   4.566
 8891SOL     OW27571   4.336   3.325   0.031
 8891SOL    HW127572   4.352   3.423   0.026
 8891SOL    HW227573   4.413   3.280   0.076
 8892SOL     OW27574   3.317   5.403   3.220
 8892SOL    HW127575   3.291   5.336   3.149
 8892SOL    HW227576   3.412   5.431   3.206
 8893SOL     OW27577   0.927   5.482   4.026
 8893SOL    HW127578   0.905   5.507   4.120
 8893SOL    HW227579   0.946   5.565   3.973
 8894SOL     OW27580   3.710   2.181   6.739
 8894SOL    HW127581   3.747   2.266   6.702
 8894SOL    HW227582   3.656   2.201   6.821
 8895SOL     OW27583   6.485   2.987   2.157
 8895SOL    HW127584   6.464   3.039   2.074
 8895SOL    HW227585   6.576   2.947   2.150
 8896SOL     OW27586   2.870   3.185   5.406
 8896SOL    HW127587   2.932   3.178   5.328
 8896SOL    HW227588   2.791   3.126   5.391
 8897SOL     OW27589   2.208   3.079   3.379
 8897SOL    HW127590   2.236   3.078   3.475
 8897SOL    HW227591   2.190   2.986   3.348
 8898SOL     OW27592   5.376   2.793   2.612
 8898SOL    HW127593   5.332   2.703   2.602
 8898SOL    HW227594   5.346   2.835   2.697
 8899SOL     OW27595   1.625   5.650   1.603
 8899SOL    HW127596   1.643   5.560   1.642
 8899SOL    HW227597   1.558   5.698   1.659
 8900SOL     OW27598   5.568   2.729   2.883
 8900SOL    HW127599   5.621   2.764   2.806
 8900SOL    HW227600   5.511   2.653   2.853
 8901SOL     OW27601   1.928   0.974   4.899
 8901SOL    HW127602   1.888   0.932   4.818
 8901SOL    HW227603   2.026   0.952   4.904
 8902SOL     OW27604   1.888   6.595   0.634
 8902SOL    HW127605   1.906   6.682   0.589
 8902SOL    HW227606   1.895   6.521   0.567
 8903SOL     OW27607   0.569   1.636   4.871
 8903SOL    HW127608   0.610   1.629   4.780
 8903SOL    HW227609   0.518   1.722   4.877
 8904SOL     OW27610   6.562   0.069   4.479
 8904SOL    HW127611   6.573   0.094   4.383
 8904SOL    HW227612   6.498   0.131   4.523
 8905SOL     OW27613   1.780   4.150   3.736
 8905SOL    HW127614   1.744   4.109   3.652
 8905SOL    HW227615   1.869   4.110   3.757
 8906SOL     OW27616   0.488   6.471   6.471
 8906SOL    HW127617   0.525   6.378   6.475
 8906SOL    HW227618   0.472   6.505   6.564
 8907SOL     OW27619   2.746   2.711   5.474
 8907SOL    HW127620   2.744   2.639   5.544
 8907SOL    HW227621   2.666   2.700   5.414
 8908SOL     OW27622   1.150   4.732   0.055
 8908SOL    HW127623   1.209   4.761   6.998
 8908SOL    HW227624   1.115   4.813   0.102
 8909SOL     OW27625   2.455   1.039   6.071
 8909SOL    HW127626   2.408   0.976   6.132
 8909SOL    HW227627   2.391   1.071   6.001
 8910SOL     OW27628   0.045   2.529   5.546
 8910SOL    HW127629   7.015   2.454   5.592
 8910SOL    HW227630   6.999   2.579   5.488
 8911SOL     OW27631   4.131   2.200   4.847
 8911SOL    HW127632   4.089   2.242   4.767
 8911SOL    HW227633   4.117   2.260   4.926
 8912SOL     OW27634   3.623   3.576   6.438
 8912SOL    HW127635   3.595   3.503   6.501
 8912SOL    HW227636   3.548   3.642   6.429
 8913SOL     OW27637   4.764   4.968   5.821
 8913SOL    HW127638   4.734   5.001   5.731
 8913SOL    HW227639   4.850   4.918   5.811
 8914SOL     OW27640   4.561   0.503   4.688
 8914SOL    HW127641   4.474   0.465   4.720
 8914SOL    HW227642   4.634   0.476   4.750
 8915SOL     OW27643   0.433   2.707   4.061
 8915SOL    HW127644   0.532   2.721   4.061
 8915SOL    HW227645   0.392   2.758   3.985
 8916SOL     OW27646   6.786   2.796   0.558
 8916SOL    HW127647   6.806   2.807   0.461
 8916SOL    HW227648   6.855   2.844   0.612
 8917SOL     OW27649   6.539   3.505   6.937
 8917SOL    HW127650   6.442   3.480   6.930
 8917SOL    HW227651   6.587   3.438   6.994
 8918SOL     OW27652   6.368   4.126   0.935
 8918SOL    HW127653   6.363   4.041   0.989
 8918SOL    HW227654   6.294   4.127   0.868
 8919SOL     OW27655   3.941   4.025   0.823
 8919SOL    HW127656   4.024   3.969   0.821
 8919SOL    HW227657   3.964   4.118   0.851
 8920SOL     OW27658   6.894   1.075   6.970
 8920SOL    HW127659   6.795   1.090   6.965
 8920SOL    HW227660   6.925   1.086   0.047
 8921SOL     OW27661   2.171   2.171   2.361
 8921SOL    HW127662   2.099   2.140   2.300
 8921SOL    HW227663   2.165   2.270   2.373
 8922SOL     OW27664   4.349   4.663   1.348
 8922SOL    HW127665   4.372   4.566   1.341
 8922SOL    HW227666   4.253   4.672   1.374
 8923SOL     OW27667   1.741   2.570   6.491
 8923SOL    HW127668   1.693   2.530   6.569
 8923SOL    HW227669   1.773   2.497   6.430
 8924SOL     OW27670   3.549   5.215   5.047
 8924SOL    HW127671   3.562   5.214   5.146
 8924SOL    HW227672   3.472   5.274   5.024
 8925SOL     OW27673   1.018   2.131   3.081
 8925SOL    HW127674   0.939   2.087   3.124
 8925SOL    HW227675   1.102   2.091   3.117
 8926SOL     OW27676   6.479   3.150   5.732
 8926SOL    HW127677   6.485   3.248   5.713
 8926SOL    HW227678   6.430   3.105   5.658
 8927SOL     OW27679   6.859   1.124   4.601
 8927SOL    HW127680   6.923   1.198   4.581
 8927SOL    HW227681   6.863   1.102   4.699
 8928SOL     OW27682   0.753   6.837   6.223
 8928SOL    HW127683   0.673   6.886   6.259
 8928SOL    HW227684   0.792   6.780   6.296
 8929SOL     OW27685   5.882   2.288   4.156
 8929SOL    HW127686   5.850   2.254   4.068
 8929SOL    HW227687   5.966   2.239   4.182
 8930SOL     OW27688   1.836   3.273   4.179
 8930SOL    HW127689   1.895   3.288   4.100
 8930SOL    HW227690   1.869   3.326   4.256
 8931SOL     OW27691   2.313   3.469   0.522
 8931SOL    HW127692   2.298   3.456   0.620
 8931SOL    HW227693   2.245   3.534   0.486
 8932SOL     OW27694   6.347   1.375   1.260
 8932SOL    HW127695   6.374   1.438   1.332
 8932SOL    HW227696   6.339   1.424   1.173
 8933SOL     OW27697   2.387   2.813   6.186
 8933SOL    HW127698   2.310   2.761   6.150
 8933SOL    HW227699   2.443   2.753   6.243
 8934SOL     OW27700   3.167   4.892   4.482
 8934SOL    HW127701   3.169   4.886   4.382
 8934SOL    HW227702   3.260   4.896   4.517
 8935SOL     OW27703   0.007   4.383   0.389
 8935SOL    HW127704   0.087   4.426   0.348
 8935SOL    HW227705   0.034   4.299   0.435
 8936SOL     OW27706   1.574   3.229   3.021
 8936SOL    HW127707   1.608   3.313   3.063
 8936SOL    HW227708   1.624   3.151   3.059
 8937SOL     OW27709   0.238   0.290   5.081
 8937SOL    HW127710   0.224   0.325   4.988
 8937SOL    HW227711   0.150   0.266   5.121
 8938SOL     OW27712   0.218   6.961   0.905
 8938SOL    HW127713   0.130   7.003   0.884
 8938SOL    HW227714   0.203   6.869   0.943
 8939SOL     OW27715   6.018   4.311   4.304
 8939SOL    HW127716   6.047   4.354   4.390
 8939SOL    HW227717   6.088   4.325   4.234
 8940SOL     OW27718   6.573   0.867   2.058
 8940SOL    HW127719   6.617   0.778   2.043
 8940SOL    HW227720   6.479   0.852   2.090
 8941SOL     OW27721   5.641   2.533   4.797
 8941SOL    HW127722   5.552   2.562   4.763
 8941SOL    HW227723   5.704   2.521   4.721
 8942SOL     OW27724   6.418   5.450   5.764
 8942SOL    HW127725   6.405   5.523   5.831
 8942SOL    HW227726   6.408   5.488   5.672
 8943SOL     OW27727   3.929   5.311   0.666
 8943SOL    HW127728   3.903   5.255   0.587
 8943SOL    HW227729   3.847   5.348   0.709
 8944SOL     OW27730   5.173   5.387   5.102
 8944SOL    HW127731   5.151   5.290   5.111
 8944SOL    HW227732   5.157   5.433   5.189
 8945SOL     OW27733   1.134   1.202   3.162
 8945SOL    HW127734   1.134   1.151   3.249
 8945SOL    HW227735   1.040   1.214   3.131
 8946SOL     OW27736   2.826   1.572   4.576
 8946SOL    HW127737   2.864   1.520   4.652
 8946SOL    HW227738   2.828   1.516   4.493
 8947SOL     OW27739   2.724   3.336   5.909
 8947SOL    HW127740   2.685   3.272   5.843
 8947SOL    HW227741   2.821   3.316   5.923
 8948SOL     OW27742   6.406   5.973   4.180
 8948SOL    HW127743   6.439   6.016   4.264
 8948SOL    HW227744   6.406   6.040   4.106
 8949SOL     OW27745   3.287   5.690   0.508
 8949SOL    HW127746   3.244   5.631   0.575
 8949SOL    HW227747   3.387   5.681   0.515
 8950SOL     OW27748   4.421   4.191   6.689
 8950SOL    HW127749   4.399   4.212   6.593
 8950SOL    HW227750   4.413   4.274   6.744
 8951SOL     OW27751   1.756   0.873   4.489
 8951SOL    HW127752   1.688   0.859   4.417
 8951SOL    HW227753   1.813   0.952   4.466
 8952SOL     OW27754   0.758   5.843   2.240
 8952SOL    HW127755   0.843   5.889   2.214
 8952SOL    HW227756   0.780   5.758   2.288
 8953SOL     OW27757   1.416   3.662   0.420
 8953SOL    HW127758   1.341   3.704   0.472
 8953SOL    HW227759   1.499   3.717   0.431
 8954SOL     OW27760   6.682   6.787   4.630
 8954SOL    HW127761   6.736   6.871   4.632
 8954SOL    HW227762   6.647   6.767   4.722
 8955SOL     OW27763   6.920   5.523   2.372
 8955SOL    HW127764   6.972   5.516   2.287
 8955SOL    HW227765   6.959   5.463   2.441
 8956SOL     OW27766   2.232   1.355   6.583
 8956SOL    HW127767   2.141   1.374   6.547
 8956SOL    HW227768   2.224   1.323   6.677
 8957SOL     OW27769   1.568   4.475   1.286
 8957SOL    HW127770   1.664   4.504   1.276
 8957SOL    HW227771   1.555   4.433   1.375
 8958SOL     OW27772   0.379   1.840   4.867
 8958SOL    HW127773   0.309   1.892   4.817
 8958SOL    HW227774   0.414   1.896   4.942
 8959SOL     OW27775   1.595   4.137   1.995
 8959SOL    HW127776   1.551   4.193   1.925
 8959SOL    HW227777   1.694   4.140   1.983
 8960SOL     OW27778   4.111   5.434   2.849
 8960SOL    HW127779   4.145   5.440   2.755
 8960SOL    HW227780   4.035   5.499   2.861
 8961SOL     OW27781   3.296   0.864   3.610
 8961SOL    HW127782   3.241   0.875   3.527
 8961SOL    HW227783   3.240   0.820   3.680
 8962SOL     OW27784   6.445   5.743   2.876
 8962SOL    HW127785   6.388   5.661   2.872
 8962SOL    HW227786   6.465   5.766   2.971
 8963SOL     OW27787   4.306   6.854   5.004
 8963SOL    HW127788   4.254   6.780   4.961
 8963SOL    HW227789   4.292   6.850   5.103
 8964SOL     OW27790   5.200   3.413   3.086
 8964SOL    HW127791   5.104   3.397   3.111
 8964SOL    HW227792   5.254   3.425   3.169
 8965SOL     OW27793   2.656   5.266   0.781
 8965SOL    HW127794   2.723   5.301   0.846
 8965SOL    HW227795   2.568   5.312   0.794
 8966SOL     OW27796   6.703   4.030   0.559
 8966SOL    HW127797   6.690   3.936   0.589
 8966SOL    HW227798   6.742   4.030   0.467
 8967SOL     OW27799   3.982   0.418   1.095
 8967SOL    HW127800   4.073   0.458   1.105
 8967SOL    HW227801   3.920   0.455   1.164
 8968SOL     OW27802   4.671   5.644   2.829
 8968SOL    HW127803   4.652   5.740   2.849
 8968SOL    HW227804   4.589   5.601   2.792
 8969SOL     OW27805   6.383   0.706   4.223
 8969SOL    HW127806   6.382   0.797   4.182
 8969SOL    HW227807   6.321   0.704   4.301
 8970SOL     OW27808   2.690   3.058   6.673
 8970SOL    HW127809   2.650   3.141   6.634
 8970SOL    HW227810   2.784   3.078   6.703
 8971SOL     OW27811   6.173   4.804   1.664
 8971SOL    HW127812   6.178   4.860   1.582
 8971SOL    HW227813   6.077   4.793   1.691
 8972SOL     OW27814   5.210   3.163   6.816
 8972SOL    HW127815   5.287   3.101   6.830
 8972SOL    HW227816   5.156   3.131   6.738
 8973SOL     OW27817   0.520   3.757   3.236
 8973SOL    HW127818   0.521   3.682   3.303
 8973SOL    HW227819   0.515   3.719   3.144
 8974SOL     OW27820   1.160   4.797   4.730
 8974SOL    HW127821   1.237   4.803   4.793
 8974SOL    HW227822   1.091   4.735   4.768
 8975SOL     OW27823   1.422   6.202   6.247
 8975SOL    HW127824   1.340   6.180   6.194
 8975SOL    HW227825   1.437   6.131   6.316
 8976SOL     OW27826   0.119   5.655   6.364
 8976SOL    HW127827   0.045   5.717   6.390
 8976SOL    HW227828   0.173   5.696   6.291
 8977SOL     OW27829   0.054   3.349   6.728
 8977SOL    HW127830   0.076   3.367   6.824
 8977SOL    HW227831   0.121   3.285   6.690
 8978SOL     OW27832   5.227   6.491   3.836
 8978SOL    HW127833   5.302   6.425   3.828
 8978SOL    HW227834   5.264   6.584   3.829
 8979SOL     OW27835   1.155   4.130   4.742
 8979SOL    HW127836   1.141   4.045   4.793
 8979SOL    HW227837   1.169   4.108   4.645
 8980SOL     OW27838   4.090   2.884   5.480
 8980SOL    HW127839   4.062   2.897   5.575
 8980SOL    HW227840   4.023   2.826   5.434
 8981SOL     OW27841   4.353   0.863   5.976
 8981SOL    HW127842   4.436   0.915   5.999
 8981SOL    HW227843   4.379   0.773   5.941
 8982SOL     OW27844   1.550   2.248   1.921
 8982SOL    HW127845   1.477   2.229   1.987
 8982SOL    HW227846   1.567   2.167   1.866
 8983SOL     OW27847   1.348   5.496   6.400
 8983SOL    HW127848   1.302   5.476   6.486
 8983SOL    HW227849   1.341   5.418   6.339
 8984SOL     OW27850   6.700   6.942   3.711
 8984SOL    HW127851   6.648   6.861   3.737
 8984SOL    HW227852   6.777   6.914   3.653
 8985SOL     OW27853   2.235   1.749   0.711
 8985SOL    HW127854   2.303   1.818   0.684
 8985SOL    HW227855   2.278   1.679   0.768
 8986SOL     OW27856   3.925   5.343   1.775
 8986SOL    HW127857   3.993   5.366   1.844
 8986SOL    HW227858   3.853   5.413   1.774
 8987SOL     OW27859   5.293   0.100   0.538
 8987SOL    HW127860   5.393   0.098   0.529
 8987SOL    HW227861   5.252   0.059   0.456
 8988SOL     OW27862   1.380   3.950   6.452
 8988SOL    HW127863   1.445   3.900   6.510
 8988SOL    HW227864   1.304   3.889   6.428
 8989SOL     OW27865   5.462   4.386   2.318
 8989SOL    HW127866   5.516   4.323   2.373
 8989SOL    HW227867   5.389   4.336   2.271
 8990SOL     OW27868   2.058   5.900   2.298
 8990SOL    HW127869   2.142   5.851   2.276
 8990SOL    HW227870   2.064   5.993   2.263
 8991SOL     OW27871   2.393   2.299   0.294
 8991SOL    HW127872   2.421   2.212   0.255
 8991SOL    HW227873   2.305   2.288   0.341
 8992SOL     OW27874   6.398   2.247   6.889
 8992SOL    HW127875   6.433   2.315   6.953
 8992SOL    HW227876   6.432   2.157   6.914
 8993SOL     OW27877   4.610   2.336   2.335
 8993SOL    HW127878   4.636   2.255   2.281
 8993SOL    HW227879   4.572   2.405   2.274
 8994SOL     OW27880   1.281   5.209   4.753
 8994SOL    HW127881   1.187   5.177   4.758
 8994SOL    HW227882   1.327   5.192   4.840
 8995SOL     OW27883   1.252   2.507   6.621
 8995SOL    HW127884   1.265   2.552   6.709
 8995SOL    HW227885   1.261   2.574   6.547
 8996SOL     OW27886   6.570   5.178   1.486
 8996SOL    HW127887   6.497   5.153   1.550
 8996SOL    HW227888   6.652   5.205   1.538
 8997SOL     OW27889   4.372   1.308   6.365
 8997SOL    HW127890   4.344   1.224   6.318
 8997SOL    HW227891   4.316   1.321   6.447
 8998SOL     OW27892   6.518   3.410   4.804
 8998SOL    HW127893   6.478   3.448   4.720
 8998SOL    HW227894   6.490   3.465   4.882
 8999SOL     OW27895   5.320   6.745   6.717
 8999SOL    HW127896   5.307   6.842   6.737
 8999SOL    HW227897   5.310   6.730   6.618
 9000SOL     OW27898   2.450   4.354   0.654
 9000SOL    HW127899   2.518   4.409   0.606
 9000SOL    HW227900   2.494   4.270   0.687
 9001SOL     OW27901   1.238   5.667   2.370
 9001SOL    HW127902   1.298   5.715   2.434
 9001SOL    HW227903   1.148   5.711   2.370
 9002SOL     OW27904   6.937   5.021   5.005
 9002SOL    HW127905   6.948   4.923   5.025
 9002SOL    HW227906   6.842   5.047   5.023
 9003SOL     OW27907   5.331   2.942   1.847
 9003SOL    HW127908   5.258   2.917   1.910
 9003SOL    HW227909   5.381   2.861   1.819
 9004SOL     OW27910   4.958   6.474   0.913
 9004SOL    HW127911   5.001   6.551   0.866
 9004SOL    HW227912   4.879   6.507   0.965
 9005SOL     OW27913   5.053   2.431   4.924
 9005SOL    HW127914   5.065   2.529   4.939
 9005SOL    HW227915   5.121   2.381   4.978
 9006SOL     OW27916   3.078   6.404   0.869
 9006SOL    HW127917   3.094   6.410   0.770
 9006SOL    HW227918   3.005   6.468   0.895
 9007SOL     OW27919   4.520   0.466   4.273
 9007SOL    HW127920   4.423   0.489   4.264
 9007SOL    HW227921   4.547   0.475   4.369
 9008SOL     OW27922   0.236   6.072   3.309
 9008SOL    HW127923   0.332   6.059   3.333
 9008SOL    HW227924   0.181   6.074   3.393
 9009SOL     OW27925   2.532   1.391   0.337
 9009SOL    HW127926   2.560   1.341   0.419
 9009SOL    HW227927   2.548   1.489   0.351
 9010SOL     OW27928   0.965   6.980   3.997
 9010SOL    HW127929   0.994   6.958   3.904
 9010SOL    HW227930   0.956   6.896   4.050
 9011SOL     OW27931   4.355   2.546   1.720
 9011SOL    HW127932   4.281   2.479   1.706
 9011SOL    HW227933   4.322   2.637   1.696
 9012SOL     OW27934   3.249   4.283   1.442
 9012SOL    HW127935   3.303   4.240   1.515
 9012SOL    HW227936   3.239   4.219   1.366
 9013SOL     OW27937   0.094   6.489   4.932
 9013SOL    HW127938   0.048   6.577   4.924
 9013SOL    HW227939   0.100   6.446   4.842
 9014SOL     OW27940   0.295   1.257   0.350
 9014SOL    HW127941   0.356   1.206   0.410
 9014SOL    HW227942   0.346   1.331   0.306
 9015SOL     OW27943   5.708   1.676   1.346
 9015SOL    HW127944   5.609   1.666   1.355
 9015SOL    HW227945   5.754   1.598   1.390
 9016SOL     OW27946   0.902   6.654   6.387
 9016SOL    HW127947   0.976   6.661   6.321
 9016SOL    HW227948   0.915   6.573   6.444
 9017SOL     OW27949   4.297   2.035   2.024
 9017SOL    HW127950   4.392   2.025   1.992
 9017SOL    HW227951   4.236   1.982   1.966
 9018SOL     OW27952   4.325   1.708   6.508
 9018SOL    HW127953   4.329   1.671   6.601
 9018SOL    HW227954   4.400   1.671   6.453
 9019SOL     OW27955   0.875   0.916   1.829
 9019SOL    HW127956   0.784   0.876   1.812
 9019SOL    HW227957   0.887   0.996   1.770
 9020SOL     OW27958   1.012   3.502   1.450
 9020SOL    HW127959   0.934   3.466   1.501
 9020SOL    HW227960   1.002   3.479   1.353
 9021SOL     OW27961   6.976   0.158   4.026
 9021SOL    HW127962   6.885   0.147   3.985
 9021SOL    HW227963   0.020   0.197   3.958
 9022SOL     OW27964   2.760   1.810   0.408
 9022SOL    HW127965   2.810   1.871   0.346
 9022SOL    HW227966   2.815   1.793   0.490
 9023SOL     OW27967   3.348   3.807   2.608
 9023SOL    HW127968   3.442   3.774   2.620
 9023SOL    HW227969   3.290   3.732   2.576
 9024SOL     OW27970   0.192   5.071   4.632
 9024SOL    HW127971   0.244   5.032   4.708
 9024SOL    HW227972   0.248   5.068   4.549
 9025SOL     OW27973   1.098   5.561   0.210
 9025SOL    HW127974   1.107   5.497   0.286
 9025SOL    HW227975   1.010   5.546   0.165
 9026SOL     OW27976   3.922   3.155   1.136
 9026SOL    HW127977   3.986   3.180   1.209
 9026SOL    HW227978   3.880   3.067   1.158
 9027SOL     OW27979   1.170   2.110   4.230
 9027SOL    HW127980   1.226   2.171   4.286
 9027SOL    HW227981   1.201   2.015   4.242
 9028SOL     OW27982   2.259   3.892   5.783
 9028SOL    HW127983   2.311   3.875   5.699
 9028SOL    HW227984   2.210   3.979   5.775
 9029SOL     OW27985   2.809   5.784   4.691
 9029SOL    HW127986   2.828   5.836   4.607
 9029SOL    HW227987   2.814   5.686   4.670
 9030SOL     OW27988   2.175   2.234   3.453
 9030SOL    HW127989   2.203   2.142   3.426
 9030SOL    HW227990   2.240   2.270   3.521
 9031SOL     OW27991   4.777   6.017   4.028
 9031SOL    HW127992   4.844   5.969   3.971
 9031SOL    HW227993   4.698   5.958   4.044
 9032SOL     OW27994   3.676   3.161   0.327
 9032SOL    HW127995   3.773   3.180   0.341
 9032SOL    HW227996   3.622   3.211   0.394
 9033SOL     OW27997   1.317   5.329   4.253
 9033SOL    HW127998   1.367   5.309   4.337
 9033SOL    HW227999   1.219   5.314   4.267
 9034SOL     OW28000   2.990   0.504   5.668
 9034SOL    HW128001   2.949   0.577   5.722
 9034SOL    HW228002   2.977   0.522   5.571
 9035SOL     OW28003   1.788   4.725   6.316
 9035SOL    HW128004   1.713   4.743   6.253
 9035SOL    HW228005   1.823   4.633   6.302
 9036SOL     OW28006   2.340   0.792   5.331
 9036SOL    HW128007   2.416   0.784   5.395
 9036SOL    HW228008   2.375   0.811   5.240
 9037SOL     OW28009   1.398   3.786   5.677
 9037SOL    HW128010   1.341   3.854   5.723
 9037SOL    HW228011   1.469   3.755   5.740
 9038SOL     OW28012   4.670   6.086   6.152
 9038SOL    HW128013   4.723   6.013   6.109
 9038SOL    HW228014   4.572   6.070   6.137
 9039SOL     OW28015   2.888   5.063   4.890
 9039SOL    HW128016   2.839   4.980   4.863
 9039SOL    HW228017   2.827   5.123   4.940
 9040SOL     OW28018   3.131   1.990   2.788
 9040SOL    HW128019   3.228   1.979   2.767
 9040SOL    HW228020   3.097   2.074   2.746
 9041SOL     OW28021   1.810   2.347   1.983
 9041SOL    HW128022   1.716   2.340   1.951
 9041SOL    HW228023   1.822   2.432   2.035
 9042SOL     OW28024   2.643   0.181   4.103
 9042SOL    HW128025   2.673   0.271   4.134
 9042SOL    HW228026   2.598   0.190   4.014
 9043SOL     OW28027   2.302   1.943   6.857
 9043SOL    HW128028   2.305   2.040   6.879
 9043SOL    HW228029   2.212   1.919   6.822
 9044SOL     OW28030   5.324   1.001   1.556
 9044SOL    HW128031   5.277   0.921   1.595
 9044SOL    HW228032   5.305   1.081   1.613
 9045SOL     OW28033   2.790   0.728   2.213
 9045SOL    HW128034   2.824   0.820   2.230
 9045SOL    HW228035   2.737   0.728   2.128
 9046SOL     OW28036   3.671   4.121   4.029
 9046SOL    HW128037   3.678   4.147   3.933
 9046SOL    HW228038   3.578   4.138   4.061
 9047SOL     OW28039   1.131   3.573   5.703
 9047SOL    HW128040   1.223   3.598   5.734
 9047SOL    HW228041   1.138   3.529   5.613
 9048SOL     OW28042   5.898   1.782   5.976
 9048SOL    HW128043   5.965   1.770   6.049
 9048SOL    HW228044   5.840   1.861   5.997
 9049SOL     OW28045   3.662   0.059   6.424
 9049SOL    HW128046   3.599   0.004   6.479
 9049SOL    HW228047   3.635   0.156   6.430
 9050SOL     OW28048   0.324   3.482   6.929
 9050SOL    HW128049   0.367   3.409   6.876
 9050SOL    HW228050   0.347   3.471   0.008
 9051SOL     OW28051   4.612   6.385   0.801
 9051SOL    HW128052   4.619   6.335   0.888
 9051SOL    HW228053   4.663   6.471   0.808
 9052SOL     OW28054   1.927   2.332   3.787
 9052SOL    HW128055   2.004   2.267   3.786
 9052SOL    HW228056   1.901   2.352   3.881
 9053SOL     OW28057   1.906   1.736   2.826
 9053SOL    HW128058   1.847   1.753   2.747
 9053SOL    HW228059   1.859   1.678   2.892
 9054SOL     OW28060   1.525   6.765   1.967
 9054SOL    HW128061   1.437   6.750   2.011
 9054SOL    HW228062   1.528   6.857   1.927
 9055SOL     OW28063   5.958   3.078   3.851
 9055SOL    HW128064   6.030   3.082   3.782
 9055SOL    HW228065   5.948   2.983   3.883
 9056SOL     OW28066   0.699   1.211   1.949
 9056SOL    HW128067   0.667   1.297   1.989
 9056SOL    HW228068   0.659   1.134   1.999
 9057SOL     OW28069   5.578   4.970   5.793
 9057SOL    HW128070   5.507   5.040   5.799
 9057SOL    HW228071   5.625   4.963   5.881
 9058SOL     OW28072   2.628   1.750   3.178
 9058SOL    HW128073   2.542   1.799   3.168
 9058SOL    HW228074   2.691   1.803   3.235
 9059SOL     OW28075   1.380   2.197   5.240
 9059SOL    HW128076   1.307   2.209   5.307
 9059SOL    HW228077   1.360   2.117   5.183
 9060SOL     OW28078   6.212   3.259   2.500
 9060SOL    HW128079   6.130   3.214   2.536
 9060SOL    HW228080   6.208   3.259   2.400
 9061SOL     OW28081   2.804   5.561   1.736
 9061SOL    HW128082   2.738   5.549   1.662
 9061SOL    HW228083   2.803   5.480   1.795
 9062SOL     OW28084   2.069   5.965   1.665
 9062SOL    HW128085   2.032   6.053   1.637
 9062SOL    HW228086   2.141   5.937   1.601
 9063SOL     OW28087   2.556   0.365   2.915
 9063SOL    HW128088   2.650   0.332   2.922
 9063SOL    HW228089   2.524   0.393   3.006
 9064SOL     OW28090   6.351   2.322   5.759
 9064SOL    HW128091   6.427   2.383   5.779
 9064SOL    HW228092   6.313   2.344   5.669
 9065SOL     OW28093   3.106   6.457   5.993
 9065SOL    HW128094   3.198   6.436   6.027
 9065SOL    HW228095   3.040   6.446   6.068
 9066SOL     OW28096   5.527   6.612   0.526
 9066SOL    HW128097   5.518   6.569   0.436
 9066SOL    HW228098   5.575   6.551   0.588
 9067SOL     OW28099   5.922   0.493   4.558
 9067SOL    HW128100   6.002   0.441   4.529
 9067SOL    HW228101   5.840   0.454   4.516
 9068SOL     OW28102   2.847   6.940   5.193
 9068SOL    HW128103   2.876   7.009   5.260
 9068SOL    HW228104   2.776   6.978   5.134
 9069SOL     OW28105   2.383   2.494   1.663
 9069SOL    HW128106   2.336   2.479   1.576
 9069SOL    HW228107   2.425   2.408   1.694
 9070SOL     OW28108   1.579   3.959   5.409
 9070SOL    HW128109   1.520   3.884   5.439
 9070SOL    HW228110   1.615   3.939   5.318
 9071SOL     OW28111   5.756   0.532   1.339
 9071SOL    HW128112   5.827   0.472   1.302
 9071SOL    HW228113   5.704   0.572   1.264
 9072SOL     OW28114   6.781   0.991   2.198
 9072SOL    HW128115   6.704   0.968   2.139
 9072SOL    HW228116   6.782   0.930   2.278
 9073SOL     OW28117   3.126   6.464   1.366
 9073SOL    HW128118   3.182   6.409   1.304
 9073SOL    HW228119   3.144   6.436   1.460
 9074SOL     OW28120   2.170   1.643   1.618
 9074SOL    HW128121   2.263   1.659   1.650
 9074SOL    HW228122   2.133   1.560   1.660
 9075SOL     OW28123   1.315   1.273   2.933
 9075SOL    HW128124   1.232   1.218   2.926
 9075SOL    HW228125   1.290   1.369   2.948
 9076SOL     OW28126   5.490   2.168   4.728
 9076SOL    HW128127   5.491   2.230   4.807
 9076SOL    HW228128   5.577   2.176   4.679
 9077SOL     OW28129   5.702   6.766   7.016
 9077SOL    HW128130   5.706   6.769   0.098
 9077SOL    HW228131   5.669   6.853   6.981
 9078SOL     OW28132   4.646   3.733   6.439
 9078SOL    HW128133   4.725   3.706   6.494
 9078SOL    HW228134   4.669   3.726   6.342
 9079SOL     OW28135   3.305   6.906   3.904
 9079SOL    HW128136   3.207   6.920   3.889
 9079SOL    HW228137   3.343   6.852   3.830
 9080SOL     OW28138   5.207   2.827   6.633
 9080SOL    HW128139   5.145   2.906   6.636
 9080SOL    HW228140   5.154   2.743   6.644
 9081SOL     OW28141   4.208   5.860   2.786
 9081SOL    HW128142   4.243   5.777   2.741
 9081SOL    HW228143   4.248   5.868   2.877
 9082SOL     OW28144   2.534   0.486   5.605
 9082SOL    HW128145   2.491   0.464   5.517
 9082SOL    HW228146   2.546   0.402   5.657
 9083SOL     OW28147   3.116   5.674   5.899
 9083SOL    HW128148   3.197   5.674   5.958
 9083SOL    HW228149   3.120   5.596   5.837
 9084SOL     OW28150   3.104   3.952   5.304
 9084SOL    HW128151   3.094   4.051   5.295
 9084SOL    HW228152   3.135   3.930   5.396
 9085SOL     OW28153   2.577   4.582   1.352
 9085SOL    HW128154   2.574   4.676   1.384
 9085SOL    HW228155   2.509   4.569   1.280
 9086SOL     OW28156   1.080   4.803   0.351
 9086SOL    HW128157   1.082   4.858   0.267
 9086SOL    HW228158   1.163   4.748   0.356
 9087SOL     OW28159   4.896   2.854   1.861
 9087SOL    HW128160   4.820   2.893   1.911
 9087SOL    HW228161   4.916   2.910   1.781
 9088SOL     OW28162   5.523   6.005   0.420
 9088SOL    HW128163   5.466   5.992   0.339
 9088SOL    HW228164   5.619   5.987   0.397
 9089SOL     OW28165   5.343   5.935   5.891
 9089SOL    HW128166   5.421   5.892   5.937
 9089SOL    HW228167   5.376   5.995   5.819
 9090SOL     OW28168   6.891   0.405   3.366
 9090SOL    HW128169   6.800   0.400   3.327
 9090SOL    HW228170   6.903   0.494   3.411
 9091SOL     OW28171   3.078   4.666   0.507
 9091SOL    HW128172   3.176   4.680   0.492
 9091SOL    HW228173   3.054   4.571   0.488
 9092SOL     OW28174   1.045   1.184   0.894
 9092SOL    HW128175   1.001   1.185   0.804
 9092SOL    HW228176   1.127   1.127   0.891
 9093SOL     OW28177   1.301   6.633   5.923
 9093SOL    HW128178   1.384   6.678   5.954
 9093SOL    HW228179   1.316   6.534   5.920
 9094SOL     OW28180   6.324   5.011   2.723
 9094SOL    HW128181   6.338   4.969   2.812
 9094SOL    HW228182   6.267   5.093   2.733
 9095SOL     OW28183   5.147   4.611   5.915
 9095SOL    HW128184   5.154   4.711   5.909
 9095SOL    HW228185   5.236   4.571   5.892
 9096SOL     OW28186   5.887   4.358   2.587
 9096SOL    HW128187   5.919   4.277   2.538
 9096SOL    HW228188   5.807   4.334   2.642
 9097SOL     OW28189   1.327   1.519   0.796
 9097SOL    HW128190   1.268   1.507   0.717
 9097SOL    HW228191   1.410   1.463   0.784
 9098SOL     OW28192   3.743   1.685   5.217
 9098SOL    HW128193   3.660   1.666   5.269
 9098SOL    HW228194   3.788   1.766   5.254
 9099SOL     OW28195   3.233   2.266   5.662
 9099SOL    HW128196   3.256   2.281   5.758
 9099SOL    HW228197   3.157   2.327   5.636
 9100SOL     OW28198   0.144   3.313   3.621
 9100SOL    HW128199   0.060   3.304   3.567
 9100SOL    HW228200   0.122   3.303   3.718
 9101SOL     OW28201   2.192   2.622   2.942
 9101SOL    HW128202   2.243   2.708   2.948
 9101SOL    HW228203   2.233   2.554   3.002
 9102SOL     OW28204   2.712   6.879   1.923
 9102SOL    HW128205   2.665   6.804   1.968
 9102SOL    HW228206   2.724   6.857   1.826
 9103SOL     OW28207   6.744   3.192   6.714
 9103SOL    HW128208   6.732   3.151   6.623
 9103SOL    HW228209   6.729   3.291   6.708
 9104SOL     OW28210   0.514   6.267   2.513
 9104SOL    HW128211   0.469   6.177   2.512
 9104SOL    HW228212   0.548   6.288   2.422
 9105SOL     OW28213   1.245   1.717   6.122
 9105SOL    HW128214   1.179   1.657   6.167
 9105SOL    HW228215   1.204   1.808   6.109
 9106SOL     OW28216   0.216   2.965   1.183
 9106SOL    HW128217   0.211   2.878   1.232
 9106SOL    HW228218   0.234   3.039   1.248
 9107SOL     OW28219   3.148   0.893   6.761
 9107SOL    HW128220   3.143   0.896   6.661
 9107SOL    HW228221   3.128   0.799   6.792
 9108SOL     OW28222   5.217   4.476   5.568
 9108SOL    HW128223   5.237   4.568   5.535
 9108SOL    HW228224   5.261   4.408   5.509
 9109SOL     OW28225   6.511   3.402   3.661
 9109SOL    HW128226   6.531   3.426   3.566
 9109SOL    HW228227   6.570   3.327   3.690
 9110SOL     OW28228   1.932   4.988   4.215
 9110SOL    HW128229   1.959   4.899   4.251
 9110SOL    HW228230   1.957   4.995   4.119
 9111SOL     OW28231   5.588   1.950   0.414
 9111SOL    HW128232   5.569   1.902   0.500
 9111SOL    HW228233   5.518   2.020   0.398
 9112SOL     OW28234   0.795   5.133   2.953
 9112SOL    HW128235   0.878   5.109   3.002
 9112SOL    HW228236   0.740   5.196   3.008
 9113SOL     OW28237   4.682   2.703   2.936
 9113SOL    HW128238   4.671   2.673   2.841
 9113SOL    HW228239   4.771   2.674   2.970
 9114SOL     OW28240   0.693   4.739   3.304
 9114SOL    HW128241   0.745   4.823   3.289
 9114SOL    HW228242   0.712   4.704   3.396
 9115SOL     OW28243   6.517   6.230   4.446
 9115SOL    HW128244   6.505   6.292   4.369
 9115SOL    HW228245   6.453   6.255   4.519
 9116SOL     OW28246   7.004   6.814   2.807
 9116SOL    HW128247   0.038   6.895   2.835
 9116SOL    HW228248   0.043   6.759   2.745
 9117SOL     OW28249   4.067   2.718   6.855
 9117SOL    HW128250   4.107   2.803   6.889
 9117SOL    HW228251   4.090   2.707   6.758
 9118SOL     OW28252   0.198   3.023   0.853
 9118SOL    HW128253   0.220   3.097   0.790
 9118SOL    HW228254   0.279   2.998   0.906
 9119SOL     OW28255   4.335   0.705   2.607
 9119SOL    HW128256   4.267   0.662   2.666
 9119SOL    HW228257   4.391   0.767   2.661
 9120SOL     OW28258   6.539   1.541   5.400
 9120SOL    HW128259   6.572   1.526   5.493
 9120SOL    HW228260   6.568   1.465   5.342
 9121SOL     OW28261   4.018   6.885   5.194
 9121SOL    HW128262   4.113   6.906   5.216
 9121SOL    HW228263   3.959   6.959   5.228
 9122SOL     OW28264   2.394   4.595   2.192
 9122SOL    HW128265   2.350   4.577   2.104
 9122SOL    HW228266   2.482   4.640   2.177
 9123SOL     OW28267   1.933   1.066   4.388
 9123SOL    HW128268   1.950   1.161   4.414
 9123SOL    HW228269   2.018   1.014   4.393
 9124SOL     OW28270   4.403   5.138   0.284
 9124SOL    HW128271   4.426   5.144   0.187
 9124SOL    HW228272   4.307   5.110   0.294
 9125SOL     OW28273   4.288   4.116   0.852
 9125SOL    HW128274   4.279   4.022   0.883
 9125SOL    HW228275   4.245   4.126   0.762
 9126SOL     OW28276   6.262   3.387   1.251
 9126SOL    HW128277   6.360   3.408   1.256
 9126SOL    HW228278   6.219   3.410   1.338
 9127SOL     OW28279   6.394   1.220   5.968
 9127SOL    HW128280   6.411   1.137   5.915
 9127SOL    HW228281   6.450   1.219   6.051
 9128SOL     OW28282   5.554   2.352   5.291
 9128SOL    HW128283   5.594   2.417   5.356
 9128SOL    HW228284   5.618   2.278   5.274
 9129SOL     OW28285   0.224   2.435   0.160
 9129SOL    HW128286   0.226   2.499   0.083
 9129SOL    HW228287   0.176   2.352   0.132
 9130SOL     OW28288   1.552   3.752   6.110
 9130SOL    HW128289   1.453   3.757   6.098
 9130SOL    HW228290   1.595   3.723   6.025
 9131SOL     OW28291   5.383   2.792   6.181
 9131SOL    HW128292   5.406   2.888   6.199
 9131SOL    HW228293   5.378   2.777   6.083
 9132SOL     OW28294   0.488   5.610   4.120
 9132SOL    HW128295   0.503   5.544   4.194
 9132SOL    HW228296   0.574   5.628   4.073
 9133SOL     OW28297   3.718   6.153   1.349
 9133SOL    HW128298   3.750   6.245   1.327
 9133SOL    HW228299   3.623   6.158   1.381
 9134SOL     OW28300   3.544   5.226   1.683
 9134SOL    HW128301   3.478   5.152   1.670
 9134SOL    HW228302   3.556   5.276   1.597
 9135SOL     OW28303   0.285   0.494   1.356
 9135SOL    HW128304   0.300   0.396   1.353
 9135SOL    HW228305   0.308   0.528   1.447
 9136SOL     OW28306   4.514   5.534   6.731
 9136SOL    HW128307   4.531   5.543   6.829
 9136SOL    HW228308   4.575   5.465   6.692
 9137SOL     OW28309   4.028   0.933   6.869
 9137SOL    HW128310   4.017   1.014   6.811
 9137SOL    HW228311   4.118   0.894   6.853
 9138SOL     OW28312   0.011   4.841   6.475
 9138SOL    HW128313   0.011   4.929   6.427
 9138SOL    HW228314   0.001   4.767   6.409
 9139SOL     OW28315   1.975   1.382   2.743
 9139SOL    HW128316   2.065   1.425   2.749
 9139SOL    HW228317   1.913   1.441   2.691
 9140SOL     OW28318   0.054   3.909   2.872
 9140SOL    HW128319   0.014   3.957   2.794
 9140SOL    HW228320   0.144   3.946   2.891
 9141SOL     OW28321   5.574   6.413   1.295
 9141SOL    HW128322   5.557   6.366   1.208
 9141SOL    HW228323   5.488   6.453   1.328
 9142SOL     OW28324   0.625   3.904   1.694
 9142SOL    HW128325   0.560   3.934   1.764
 9142SOL    HW228326   0.660   3.813   1.716
 9143SOL     OW28327   6.374   2.835   0.239
 9143SOL    HW128328   6.379   2.736   0.226
 9143SOL    HW228329   6.466   2.874   0.237
 9144SOL     OW28330   2.532   5.546   4.489
 9144SOL    HW128331   2.499   5.485   4.562
 9144SOL    HW228332   2.470   5.624   4.481
 9145SOL     OW28333   0.503   5.615   6.522
 9145SOL    HW128334   0.409   5.629   6.553
 9145SOL    HW228335   0.567   5.650   6.590
 9146SOL     OW28336   5.483   2.918   3.071
 9146SOL    HW128337   5.508   2.839   3.015
 9146SOL    HW228338   5.406   2.894   3.130
 9147SOL     OW28339   5.949   0.404   5.140
 9147SOL    HW128340   5.961   0.307   5.117
 9147SOL    HW228341   6.038   0.447   5.150
 9148SOL     OW28342   5.199   6.145   2.257
 9148SOL    HW128343   5.232   6.216   2.319
 9148SOL    HW228344   5.271   6.123   2.191
 9149SOL     OW28345   5.103   3.395   2.413
 9149SOL    HW128346   5.069   3.473   2.465
 9149SOL    HW228347   5.193   3.369   2.448
 9150SOL     OW28348   3.291   4.951   1.199
 9150SOL    HW128349   3.220   5.017   1.175
 9150SOL    HW228350   3.256   4.889   1.270
 9151SOL     OW28351   1.510   4.587   3.946
 9151SOL    HW128352   1.589   4.632   3.986
 9151SOL    HW228353   1.541   4.509   3.890
 9152SOL     OW28354   2.260   4.233   4.519
 9152SOL    HW128355   2.267   4.256   4.616
 9152SOL    HW228356   2.213   4.145   4.509
 9153SOL     OW28357   0.443   2.769   6.917
 9153SOL    HW128358   0.465   2.712   6.996
 9153SOL    HW228359   0.527   2.795   6.870
 9154SOL     OW28360   5.099   4.797   4.869
 9154SOL    HW128361   5.118   4.720   4.809
 9154SOL    HW228362   5.115   4.883   4.821
 9155SOL     OW28363   1.765   4.777   2.733
 9155SOL    HW128364   1.679   4.738   2.701
 9155SOL    HW228365   1.767   4.875   2.712
 9156SOL     OW28366   6.718   2.011   1.173
 9156SOL    HW128367   6.817   1.996   1.167
 9156SOL    HW228368   6.670   1.925   1.151
 9157SOL     OW28369   2.948   3.796   6.806
 9157SOL    HW128370   3.010   3.785   6.884
 9157SOL    HW228371   2.932   3.894   6.790
 9158SOL     OW28372   6.221   4.116   4.442
 9158SOL    HW128373   6.294   4.177   4.410
 9158SOL    HW228374   6.179   4.154   4.525
 9159SOL     OW28375   1.657   0.589   3.457
 9159SOL    HW128376   1.661   0.573   3.358
 9159SOL    HW228377   1.680   0.685   3.475
 9160SOL     OW28378   1.034   6.296   5.935
 9160SOL    HW128379   1.020   6.394   5.951
 9160SOL    HW228380   0.945   6.252   5.919
 9161SOL     OW28381   6.108   4.762   3.014
 9161SOL    HW128382   6.021   4.787   3.057
 9161SOL    HW228383   6.122   4.664   3.021
 9162SOL     OW28384   4.505   0.266   2.755
 9162SOL    HW128385   4.590   0.261   2.808
 9162SOL    HW228386   4.430   0.296   2.815
 9163SOL     OW28387   6.941   3.357   4.072
 9163SOL    HW128388   6.892   3.270   4.066
 9163SOL    HW228389   6.940   3.390   4.166
 9164SOL     OW28390   1.857   0.728   6.837
 9164SOL    HW128391   1.794   0.742   6.761
 9164SOL    HW228392   1.812   0.673   6.908
 9165SOL     OW28393   5.294   1.804   6.208
 9165SOL    HW128394   5.260   1.720   6.167
 9165SOL    HW228395   5.253   1.817   6.298
 9166SOL     OW28396   4.524   5.124   0.711
 9166SOL    HW128397   4.476   5.205   0.746
 9166SOL    HW228398   4.499   5.044   0.766
 9167SOL     OW28399   2.212   2.180   5.786
 9167SOL    HW128400   2.124   2.136   5.765
 9167SOL    HW228401   2.204   2.230   5.872
 9168SOL     OW28402   6.939   5.862   6.455
 9168SOL    HW128403   7.015   5.920   6.426
 9168SOL    HW228404   6.860   5.919   6.479
 9169SOL     OW28405   0.259   6.744   6.306
 9169SOL    HW128406   0.190   6.795   6.254
 9169SOL    HW228407   0.226   6.651   6.322
 9170SOL     OW28408   2.152   0.169   6.313
 9170SOL    HW128409   2.145   0.229   6.393
 9170SOL    HW228410   2.231   0.196   6.259
 9171SOL     OW28411   3.591   6.002   0.514
 9171SOL    HW128412   3.527   6.061   0.565
 9171SOL    HW228413   3.614   5.922   0.569
 9172SOL     OW28414   4.713   1.004   3.590
 9172SOL    HW128415   4.694   1.085   3.533
 9172SOL    HW228416   4.752   1.033   3.677
 9173SOL     OW28417   6.492   3.638   5.542
 9173SOL    HW128418   6.578   3.657   5.495
 9173SOL    HW228419   6.416   3.647   5.477
 9174SOL     OW28420   0.746   5.761   6.944
 9174SOL    HW128421   0.843   5.785   6.940
 9174SOL    HW228422   0.692   5.843   6.922
 9175SOL     OW28423   1.079   0.295   6.567
 9175SOL    HW128424   1.099   0.302   6.469
 9175SOL    HW228425   1.072   0.198   6.592
 9176SOL     OW28426   2.619   0.769   1.979
 9176SOL    HW128427   2.560   0.817   2.044
 9176SOL    HW228428   2.564   0.736   1.902
 9177SOL     OW28429   1.261   2.701   4.241
 9177SOL    HW128430   1.317   2.775   4.280
 9177SOL    HW228431   1.170   2.737   4.220
 9178SOL     OW28432   1.990   5.529   6.577
 9178SOL    HW128433   1.950   5.560   6.663
 9178SOL    HW228434   2.040   5.444   6.592
 9179SOL     OW28435   1.572   5.629   5.068
 9179SOL    HW128436   1.610   5.699   5.008
 9179SOL    HW228437   1.614   5.540   5.046
 9180SOL     OW28438   6.301   2.493   3.351
 9180SOL    HW128439   6.302   2.433   3.430
 9180SOL    HW228440   6.246   2.452   3.278
 9181SOL     OW28441   4.920   2.512   3.644
 9181SOL    HW128442   4.880   2.598   3.613
 9181SOL    HW228443   4.959   2.523   3.735
 9182SOL     OW28444   3.091   0.398   2.959
 9182SOL    HW128445   3.132   0.320   3.004
 9182SOL    HW228446   3.020   0.438   3.017
 9183SOL     OW28447   4.665   4.477   6.566
 9183SOL    HW128448   4.659   4.539   6.488
 9183SOL    HW228449   4.639   4.526   6.650
 9184SOL     OW28450   3.588   2.254   1.052
 9184SOL    HW128451   3.687   2.256   1.056
 9184SOL    HW228452   3.557   2.281   0.961
 9185SOL     OW28453   6.849   0.077   5.046
 9185SOL    HW128454   6.755   0.057   5.074
 9185SOL    HW228455   6.857   0.175   5.026
 9186SOL     OW28456   5.485   0.680   5.316
 9186SOL    HW128457   5.432   0.641   5.392
 9186SOL    HW228458   5.449   0.770   5.293
 9187SOL     OW28459   4.080   2.089   6.975
 9187SOL    HW128460   3.995   2.140   6.991
 9187SOL    HW228461   4.086   2.013   0.022
 9188SOL     OW28462   1.994   0.509   1.514
 9188SOL    HW128463   1.949   0.571   1.578
 9188SOL    HW228464   1.959   0.524   1.422
 9189SOL     OW28465   3.272   6.241   2.724
 9189SOL    HW128466   3.362   6.272   2.756
 9189SOL    HW228467   3.205   6.313   2.736
 9190SOL     OW28468   1.001   3.699   5.143
 9190SOL    HW128469   0.955   3.659   5.064
 9190SOL    HW228470   0.953   3.672   5.227
 9191SOL     OW28471   5.661   1.151   6.492
 9191SOL    HW128472   5.565   1.169   6.471
 9191SOL    HW228473   5.668   1.072   6.552
 9192SOL     OW28474   6.148   2.769   5.713
 9192SOL    HW128475   6.142   2.683   5.764
 9192SOL    HW228476   6.201   2.756   5.630
 9193SOL     OW28477   3.975   3.871   4.527
 9193SOL    HW128478   4.073   3.862   4.547
 9193SOL    HW228479   3.963   3.917   4.439
 9194SOL     OW28480   3.518   6.087   2.595
 9194SOL    HW128481   3.574   6.086   2.513
 9194SOL    HW228482   3.426   6.119   2.572
 9195SOL     OW28483   1.737   3.077   3.160
 9195SOL    HW128484   1.681   3.002   3.195
 9195SOL    HW228485   1.812   3.096   3.223
 9196SOL     OW28486   5.446   6.802   3.553
 9196SOL    HW128487   5.471   6.705   3.548
 9196SOL    HW228488   5.437   6.839   3.461
 9197SOL     OW28489   3.224   5.108   0.770
 9197SOL    HW128490   3.282   5.077   0.844
 9197SOL    HW228491   3.271   5.180   0.718
 9198SOL     OW28492   5.968   4.306   6.697
 9198SOL    HW128493   6.065   4.327   6.706
 9198SOL    HW228494   5.914   4.384   6.730
 9199SOL     OW28495   0.161   3.059   6.280
 9199SOL    HW128496   0.084   3.106   6.237
 9199SOL    HW228497   0.205   3.119   6.346
 9200SOL     OW28498   2.235   5.563   5.859
 9200SOL    HW128499   2.173   5.540   5.934
 9200SOL    HW228500   2.183   5.607   5.786
 9201SOL     OW28501   0.518   2.994   0.868
 9201SOL    HW128502   0.570   3.012   0.784
 9201SOL    HW228503   0.548   2.906   0.907
 9202SOL     OW28504   1.073   5.800   4.314
 9202SOL    HW128505   1.146   5.781   4.248
 9202SOL    HW228506   1.060   5.720   4.373
 9203SOL     OW28507   5.664   2.944   5.851
 9203SOL    HW128508   5.578   2.926   5.898
 9203SOL    HW228509   5.700   2.858   5.815
 9204SOL     OW28510   4.852   3.586   4.305
 9204SOL    HW128511   4.842   3.667   4.247
 9204SOL    HW228512   4.849   3.612   4.401
 9205SOL     OW28513   4.967   5.621   2.695
 9205SOL    HW128514   4.969   5.647   2.791
 9205SOL    HW228515   5.040   5.555   2.676
 9206SOL     OW28516   3.502   0.046   4.059
 9206SOL    HW128517   3.592   0.035   4.016
 9206SOL    HW228518   3.441   6.991   4.028
 9207SOL     OW28519   3.713   5.262   7.011
 9207SOL    HW128520   3.635   5.322   6.995
 9207SOL    HW228521   3.795   5.301   6.970
 9208SOL     OW28522   5.368   4.031   2.488
 9208SOL    HW128523   5.449   3.976   2.468
 9208SOL    HW228524   5.396   4.120   2.524
 9209SOL     OW28525   4.261   0.362   1.557
 9209SOL    HW128526   4.318   0.442   1.578
 9209SOL    HW228527   4.202   0.342   1.635
 9210SOL     OW28528   0.427   0.644   1.578
 9210SOL    HW128529   0.501   0.699   1.539
 9210SOL    HW228530   0.462   0.553   1.600
 9211SOL     OW28531   5.537   3.236   6.611
 9211SOL    HW128532   5.553   3.248   6.513
 9211SOL    HW228533   5.449   3.275   6.636
 9212SOL     OW28534   4.756   4.175   5.019
 9212SOL    HW128535   4.674   4.231   5.029
 9212SOL    HW228536   4.828   4.230   4.976
 9213SOL     OW28537   4.808   5.582   4.612
 9213SOL    HW128538   4.771   5.674   4.617
 9213SOL    HW228539   4.747   5.518   4.659
 9214SOL     OW28540   6.994   2.944   4.881
 9214SOL    HW128541   0.053   3.009   4.882
 9214SOL    HW228542   6.908   2.994   4.870
 9215SOL     OW28543   1.149   4.929   2.662
 9215SOL    HW128544   1.132   4.882   2.749
 9215SOL    HW228545   1.165   5.026   2.680
 9216SOL     OW28546   2.427   6.697   4.007
 9216SOL    HW128547   2.480   6.642   4.071
 9216SOL    HW228548   2.359   6.752   4.057
 9217SOL     OW28549   6.006   2.237   0.257
 9217SOL    HW128550   5.968   2.189   0.177
 9217SOL    HW228551   5.966   2.198   0.340
 9218SOL     OW28552   3.770   0.818   6.892
 9218SOL    HW128553   3.856   0.865   6.875
 9218SOL    HW228554   3.788   0.722   6.913
 9219SOL     OW28555   4.213   3.456   5.982
 9219SOL    HW128556   4.276   3.513   6.035
 9219SOL    HW228557   4.154   3.405   6.044
 9220SOL     OW28558   1.792   6.754   2.050
 9220SOL    HW128559   1.837   6.677   2.095
 9220SOL    HW228560   1.703   6.724   2.016
 9221SOL     OW28561   2.603   6.961   4.253
 9221SOL    HW128562   2.674   6.892   4.239
 9221SOL    HW228563   2.620   0.021   4.193
 9222SOL     OW28564   2.684   5.244   5.018
 9222SOL    HW128565   2.679   5.214   5.113
 9222SOL    HW228566   2.591   5.258   4.982
 9223SOL     OW28567   0.977   2.499   4.206
 9223SOL    HW128568   0.900   2.468   4.151
 9223SOL    HW228569   0.962   2.593   4.235
 9224SOL     OW28570   1.392   4.713   3.412
 9224SOL    HW128571   1.402   4.625   3.366
 9224SOL    HW228572   1.384   4.698   3.511
 9225SOL     OW28573   3.842   5.609   5.663
 9225SOL    HW128574   3.817   5.520   5.626
 9225SOL    HW228575   3.761   5.655   5.700
 9226SOL     OW28576   0.743   0.286   1.535
 9226SOL    HW128577   0.697   0.320   1.453
 9226SOL    HW228578   0.782   0.196   1.517
 9227SOL     OW28579   1.783   6.197   1.295
 9227SOL    HW128580   1.866   6.220   1.245
 9227SOL    HW228581   1.761   6.101   1.279
 9228SOL     OW28582   2.472   2.550   0.356
 9228SOL    HW128583   2.471   2.450   0.359
 9228SOL    HW228584   2.553   2.581   0.306
 9229SOL     OW28585   1.021   4.992   6.072
 9229SOL    HW128586   1.108   4.951   6.099
 9229SOL    HW228587   1.039   5.067   6.008
 9230SOL     OW28588   4.867   3.448   2.896
 9230SOL    HW128589   4.865   3.397   2.810
 9230SOL    HW228590   4.811   3.530   2.888
 9231SOL     OW28591   1.005   3.474   5.463
 9231SOL    HW128592   0.951   3.551   5.430
 9231SOL    HW228593   0.958   3.388   5.441
 9232SOL     OW28594   2.915   4.966   0.930
 9232SOL    HW128595   2.983   5.020   0.880
 9232SOL    HW228596   2.958   4.884   0.968
 9233SOL     OW28597   0.209   6.640   0.849
 9233SOL    HW128598   0.265   6.562   0.877
 9233SOL    HW228599   0.196   6.638   0.750
 9234SOL     OW28600   2.290   5.710   0.904
 9234SOL    HW128601   2.199   5.671   0.922
 9234SOL    HW228602   2.351   5.688   0.981
 9235SOL     OW28603   2.156   3.246   3.147
 9235SOL    HW128604   2.166   3.209   3.054
 9235SOL    HW228605   2.212   3.192   3.210
 9236SOL     OW28606   2.753   3.862   6.533
 9236SOL    HW128607   2.730   3.821   6.621
 9236SOL    HW228608   2.784   3.791   6.470
 9237SOL     OW28609   0.669   5.692   3.383
 9237SOL    HW128610   0.765   5.690   3.410
 9237SOL    HW228611   0.612   5.669   3.463
 9238SOL     OW28612   2.944   2.266   5.949
 9238SOL    HW128613   2.993   2.350   5.975
 9238SOL    HW228614   2.859   2.260   6.001
 9239SOL     OW28615   6.841   4.263   6.775
 9239SOL    HW128616   6.928   4.218   6.756
 9239SOL    HW228617   6.857   4.346   6.829
 9240SOL     OW28618   5.205   3.125   2.091
 9240SOL    HW128619   5.105   3.121   2.096
 9240SOL    HW228620   5.235   3.220   2.090
 9241SOL     OW28621   0.427   5.513   1.002
 9241SOL    HW128622   0.496   5.565   0.951
 9241SOL    HW228623   0.351   5.574   1.026
 9242SOL     OW28624   1.379   3.909   1.486
 9242SOL    HW128625   1.445   3.851   1.534
 9242SOL    HW228626   1.420   3.942   1.401
 9243SOL     OW28627   6.931   0.819   2.045
 9243SOL    HW128628   6.918   0.900   2.102
 9243SOL    HW228629   6.842   0.776   2.028
 9244SOL     OW28630   2.738   5.943   5.660
 9244SOL    HW128631   2.679   5.926   5.739
 9244SOL    HW228632   2.696   6.013   5.602
 9245SOL     OW28633   0.831   4.537   3.842
 9245SOL    HW128634   0.890   4.592   3.783
 9245SOL    HW228635   0.853   4.555   3.938
 9246SOL     OW28636   5.352   0.333   3.194
 9246SOL    HW128637   5.448   0.347   3.220
 9246SOL    HW228638   5.335   0.236   3.180
 9247SOL     OW28639   2.796   5.852   2.348
 9247SOL    HW128640   2.829   5.790   2.419
 9247SOL    HW228641   2.787   5.944   2.385
 9248SOL     OW28642   3.363   2.016   4.584
 9248SOL    HW128643   3.374   1.948   4.657
 9248SOL    HW228644   3.445   2.018   4.527
 9249SOL     OW28645   4.588   5.033   1.339
 9249SOL    HW128646   4.588   5.036   1.239
 9249SOL    HW228647   4.515   5.092   1.375
 9250SOL     OW28648   6.458   2.915   4.006
 9250SOL    HW128649   6.531   2.849   3.988
 9250SOL    HW228650   6.371   2.878   3.974
 9251SOL     OW28651   3.947   1.271   2.702
 9251SOL    HW128652   3.938   1.301   2.797
 9251SOL    HW228653   3.870   1.306   2.649
 9252SOL     OW28654   5.807   0.176   4.847
 9252SOL    HW128655   5.818   0.145   4.753
 9252SOL    HW228656   5.762   0.266   4.847
 9253SOL     OW28657   5.681   4.845   5.576
 9253SOL    HW128658   5.609   4.779   5.556
 9253SOL    HW228659   5.653   4.903   5.653
 9254SOL     OW28660   4.289   4.621   3.021
 9254SOL    HW128661   4.341   4.707   3.017
 9254SOL    HW228662   4.271   4.598   3.117
 9255SOL     OW28663   5.239   3.782   0.102
 9255SOL    HW128664   5.303   3.706   0.086
 9255SOL    HW228665   5.168   3.752   0.166
 9256SOL     OW28666   2.567   0.428   2.266
 9256SOL    HW128667   2.543   0.408   2.361
 9256SOL    HW228668   2.652   0.481   2.264
 9257SOL     OW28669   5.933   5.315   3.418
 9257SOL    HW128670   5.908   5.408   3.443
 9257SOL    HW228671   5.850   5.263   3.398
 9258SOL     OW28672   3.979   2.848   1.848
 9258SOL    HW128673   4.073   2.827   1.822
 9258SOL    HW228674   3.979   2.907   1.928
 9259SOL     OW28675   1.560   1.371   0.719
 9259SOL    HW128676   1.627   1.430   0.673
 9259SOL    HW228677   1.608   1.294   0.763
 9260SOL     OW28678   6.093   2.123   5.725
 9260SOL    HW128679   6.015   2.119   5.663
 9260SOL    HW228680   6.167   2.176   5.682
 9261SOL     OW28681   4.205   1.417   6.943
 9261SOL    HW128682   4.107   1.395   6.948
 9261SOL    HW228683   4.248   1.395   0.012
 9262SOL     OW28684   0.658   5.949   5.109
 9262SOL    HW128685   0.645   6.048   5.102
 9262SOL    HW228686   0.589   5.903   5.052
 9263SOL     OW28687   2.719   5.730   2.762
 9263SOL    HW128688   2.787   5.732   2.689
 9263SOL    HW228689   2.642   5.671   2.734
 9264SOL     OW28690   4.782   4.023   7.004
 9264SOL    HW128691   4.788   4.115   6.967
 9264SOL    HW228692   4.838   3.961   6.949
 9265SOL     OW28693   3.255   2.512   0.300
 9265SOL    HW128694   3.160   2.492   0.278
 9265SOL    HW228695   3.308   2.427   0.298
 9266SOL     OW28696   1.157   6.257   0.961
 9266SOL    HW128697   1.058   6.264   0.952
 9266SOL    HW228698   1.201   6.281   0.875
 9267SOL     OW28699   0.171   1.863   4.301
 9267SOL    HW128700   0.263   1.843   4.266
 9267SOL    HW228701   0.150   1.802   4.377
 9268SOL     OW28702   1.387   0.479   2.570
 9268SOL    HW128703   1.445   0.472   2.489
 9268SOL    HW228704   1.331   0.561   2.564
 9269SOL     OW28705   4.077   0.264   6.263
 9269SOL    HW128706   4.062   0.349   6.312
 9269SOL    HW228707   3.991   0.214   6.254
 9270SOL     OW28708   4.184   6.879   5.540
 9270SOL    HW128709   4.227   6.805   5.591
 9270SOL    HW228710   4.112   6.921   5.595
 9271SOL     OW28711   6.151   7.000   0.378
 9271SOL    HW128712   6.212   0.028   0.443
 9271SOL    HW228713   6.070   0.038   0.363
 9272SOL     OW28714   1.205   5.552   6.083
 9272SOL    HW128715   1.274   5.621   6.061
 9272SOL    HW228716   1.219   5.472   6.025
 9273SOL     OW28717   6.511   5.972   3.394
 9273SOL    HW128718   6.596   5.920   3.388
 9273SOL    HW228719   6.512   6.028   3.477
 9274SOL     OW28720   0.056   1.572   0.233
 9274SOL    HW128721   0.135   1.551   0.176
 9274SOL    HW228722   0.055   1.671   0.252
 9275SOL     OW28723   6.392   0.872   0.158
 9275SOL    HW128724   6.451   0.879   0.239
 9275SOL    HW228725   6.448   0.845   0.079
 9276SOL     OW28726   1.746   4.614   0.714
 9276SOL    HW128727   1.716   4.577   0.802
 9276SOL    HW228728   1.750   4.714   0.720
 9277SOL     OW28729   4.335   4.607   1.999
 9277SOL    HW128730   4.241   4.573   1.985
 9277SOL    HW228731   4.400   4.542   1.960
 9278SOL     OW28732   2.154   0.500   5.549
 9278SOL    HW128733   2.100   0.577   5.581
 9278SOL    HW228734   2.151   0.427   5.617
 9279SOL     OW28735   3.017   6.928   1.782
 9279SOL    HW128736   2.929   6.950   1.826
 9279SOL    HW228737   3.083   6.900   1.852
 9280SOL     OW28738   2.746   1.008   2.734
 9280SOL    HW128739   2.808   0.932   2.753
 9280SOL    HW228740   2.790   1.071   2.670
 9281SOL     OW28741   3.087   4.178   6.974
 9281SOL    HW128742   3.002   4.191   6.922
 9281SOL    HW228743   3.164   4.216   6.922
 9282SOL     OW28744   4.772   0.832   4.035
 9282SOL    HW128745   4.823   0.769   4.095
 9282SOL    HW228746   4.811   0.923   4.042
 9283SOL     OW28747   5.332   0.573   4.440
 9283SOL    HW128748   5.386   0.656   4.425
 9283SOL    HW228749   5.377   0.516   4.508
 9284SOL     OW28750   2.883   2.940   5.543
 9284SOL    HW128751   2.819   2.865   5.523
 9284SOL    HW228752   2.917   2.978   5.458
 9285SOL     OW28753   5.235   3.564   1.525
 9285SOL    HW128754   5.300   3.634   1.493
 9285SOL    HW228755   5.148   3.607   1.546
 9286SOL     OW28756   5.181   4.959   1.137
 9286SOL    HW128757   5.163   5.018   1.216
 9286SOL    HW228758   5.138   4.997   1.056
 9287SOL     OW28759   3.838   4.940   6.105
 9287SOL    HW128760   3.927   4.949   6.150
 9287SOL    HW228761   3.849   4.946   6.006
 9288SOL     OW28762   4.660   2.059   2.658
 9288SOL    HW128763   4.682   2.156   2.670
 9288SOL    HW228764   4.578   2.038   2.710
 9289SOL     OW28765   4.772   0.165   0.865
 9289SOL    HW128766   4.806   0.077   0.834
 9289SOL    HW228767   4.806   0.237   0.804
 9290SOL     OW28768   5.449   0.931   3.731
 9290SOL    HW128769   5.536   0.967   3.765
 9290SOL    HW228770   5.434   0.963   3.637
 9291SOL     OW28771   1.234   5.308   5.912
 9291SOL    HW128772   1.273   5.327   5.822
 9291SOL    HW228773   1.143   5.268   5.901
 9292SOL     OW28774   2.594   2.317   6.707
 9292SOL    HW128775   2.592   2.284   6.801
 9292SOL    HW228776   2.676   2.373   6.692
 9293SOL     OW28777   6.265   3.913   6.534
 9293SOL    HW128778   6.290   4.010   6.525
 9293SOL    HW228779   6.232   3.896   6.626
 9294SOL     OW28780   5.477   1.363   5.974
 9294SOL    HW128781   5.491   1.459   5.951
 9294SOL    HW228782   5.565   1.316   5.976
 9295SOL     OW28783   5.806   0.312   5.720
 9295SOL    HW128784   5.775   0.378   5.789
 9295SOL    HW228785   5.759   0.331   5.633
 9296SOL     OW28786   1.925   5.271   0.292
 9296SOL    HW128787   1.890   5.351   0.242
 9296SOL    HW228788   1.915   5.189   0.234
 9297SOL     OW28789   1.121   0.050   2.563
 9297SOL    HW128790   1.126   0.084   2.469
 9297SOL    HW228791   1.147   6.971   2.565
 9298SOL     OW28792   1.324   6.454   6.250
 9298SOL    HW128793   1.290   6.450   6.156
 9298SOL    HW228794   1.351   6.362   6.279
 9299SOL     OW28795   1.392   2.071   4.557
 9299SOL    HW128796   1.375   2.136   4.482
 9299SOL    HW228797   1.304   2.036   4.590
 9300SOL     OW28798   0.337   4.937   5.889
 9300SOL    HW128799   0.307   5.031   5.906
 9300SOL    HW228800   0.428   4.923   5.926
 9301SOL     OW28801   5.931   5.385   4.492
 9301SOL    HW128802   6.003   5.409   4.557
 9301SOL    HW228803   5.906   5.289   4.504
 9302SOL     OW28804   2.150   3.371   4.321
 9302SOL    HW128805   2.234   3.374   4.376
 9302SOL    HW228806   2.100   3.456   4.332
 9303SOL     OW28807   3.188   3.738   0.715
 9303SOL    HW128808   3.143   3.649   0.723
 9303SOL    HW228809   3.164   3.780   0.627
 9304SOL     OW28810   4.555   4.598   0.846
 9304SOL    HW128811   4.461   4.563   0.836
 9304SOL    HW228812   4.574   4.664   0.774
 9305SOL     OW28813   3.440   0.247   0.657
 9305SOL    HW128814   3.461   0.235   0.560
 9305SOL    HW228815   3.434   0.345   0.678
 9306SOL     OW28816   1.371   3.728   5.434
 9306SOL    HW128817   1.314   3.791   5.381
 9306SOL    HW228818   1.366   3.752   5.531
 9307SOL     OW28819   0.848   4.055   0.418
 9307SOL    HW128820   0.845   4.059   0.518
 9307SOL    HW228821   0.941   4.037   0.387
 9308SOL     OW28822   1.735   3.720   2.178
 9308SOL    HW128823   1.673   3.771   2.119
 9308SOL    HW228824   1.798   3.666   2.122
 9309SOL     OW28825   3.558   5.641   5.722
 9309SOL    HW128826   3.543   5.677   5.630
 9309SOL    HW228827   3.511   5.553   5.732
 9310SOL     OW28828   5.514   6.441   5.789
 9310SOL    HW128829   5.496   6.390   5.705
 9310SOL    HW228830   5.570   6.386   5.851
 9311SOL     OW28831   5.328   4.414   1.272
 9311SOL    HW128832   5.337   4.392   1.369
 9311SOL    HW228833   5.407   4.377   1.222
 9312SOL     OW28834   1.971   2.617   0.946
 9312SOL    HW128835   2.051   2.665   0.911
 9312SOL    HW228836   1.947   2.542   0.884
 9313SOL     OW28837   0.244   0.494   1.909
 9313SOL    HW128838   0.229   0.535   1.820
 9313SOL    HW228839   0.167   0.514   1.969
 9314SOL     OW28840   0.049   3.464   6.975
 9314SOL    HW128841   0.136   3.511   6.988
 9314SOL    HW228842   7.003   3.525   6.928
 9315SOL     OW28843   6.774   6.995   5.681
 9315SOL    HW128844   6.804   6.905   5.649
 9315SOL    HW228845   6.694   0.007   5.629
 9316SOL     OW28846   6.348   6.647   5.640
 9316SOL    HW128847   6.308   6.702   5.714
 9316SOL    HW228848   6.275   6.612   5.582
 9317SOL     OW28849   4.381   5.747   4.223
 9317SOL    HW128850   4.290   5.773   4.255
 9317SOL    HW228851   4.382   5.648   4.204
 9318SOL     OW28852   6.017   0.127   6.881
 9318SOL    HW128853   5.958   0.062   6.831
 9318SOL    HW228854   5.980   0.142   6.972
 9319SOL     OW28855   2.473   2.801   0.968
 9319SOL    HW128856   2.440   2.857   1.043
 9319SOL    HW228857   2.546   2.741   1.000
 9320SOL     OW28858   3.999   0.316   5.415
 9320SOL    HW128859   3.917   0.360   5.451
 9320SOL    HW228860   3.973   0.252   5.342
 9321SOL     OW28861   0.677   0.923   4.854
 9321SOL    HW128862   0.679   1.022   4.865
 9321SOL    HW228863   0.637   0.881   4.935
 9322SOL     OW28864   0.301   4.296   6.961
 9322SOL    HW128865   0.381   4.355   6.955
 9322SOL    HW228866   0.301   4.246   0.030
 9323SOL     OW28867   1.461   1.455   4.727
 9323SOL    HW128868   1.452   1.363   4.764
 9323SOL    HW228869   1.453   1.452   4.628
 9324SOL     OW28870   1.821   3.924   2.585
 9324SOL    HW128871   1.814   3.833   2.627
 9324SOL    HW228872   1.855   3.989   2.652
 9325SOL     OW28873   6.916   0.298   0.491
 9325SOL    HW128874   6.853   0.221   0.484
 9325SOL    HW228875   6.990   0.276   0.554
 9326SOL     OW28876   2.609   4.999   0.242
 9326SOL    HW128877   2.581   5.071   0.179
 9326SOL    HW228878   2.576   5.021   0.334
 9327SOL     OW28879   4.385   6.975   2.369
 9327SOL    HW128880   4.477   7.013   2.379
 9327SOL    HW228881   4.384   6.910   2.293
 9328SOL     OW28882   1.754   0.174   4.725
 9328SOL    HW128883   1.707   0.206   4.808
 9328SOL    HW228884   1.799   0.251   4.681
 9329SOL     OW28885   6.483   4.873   1.043
 9329SOL    HW128886   6.536   4.789   1.056
 9329SOL    HW228887   6.473   4.891   0.945
 9330SOL     OW28888   0.020   0.039   5.648
 9330SOL    HW128889   0.070   6.971   5.638
 9330SOL    HW228890   6.946   0.021   5.683
 9331SOL     OW28891   2.113   1.596   6.095
 9331SOL    HW128892   2.035   1.600   6.033
 9331SOL    HW228893   2.111   1.676   6.156
 9332SOL     OW28894   3.791   5.172   0.468
 9332SOL    HW128895   3.708   5.157   0.523
 9332SOL    HW228896   3.787   5.115   0.386
 9333SOL     OW28897   4.067   5.372   6.423
 9333SOL    HW128898   3.995   5.407   6.364
 9333SOL    HW228899   4.027   5.319   6.497
 9334SOL     OW28900   4.885   6.110   4.967
 9334SOL    HW128901   4.856   6.168   5.043
 9334SOL    HW228902   4.837   6.138   4.884
 9335SOL     OW28903   1.541   1.538   0.106
 9335SOL    HW128904   1.516   1.611   0.170
 9335SOL    HW228905   1.459   1.503   0.062
 9336SOL     OW28906   4.861   6.667   4.310
 9336SOL    HW128907   4.835   6.761   4.331
 9336SOL    HW228908   4.788   6.624   4.257
 9337SOL     OW28909   4.951   1.429   5.755
 9337SOL    HW128910   5.017   1.364   5.793
 9337SOL    HW228911   4.961   1.517   5.802
 9338SOL     OW28912   5.902   6.481   0.959
 9338SOL    HW128913   5.818   6.440   0.923
 9338SOL    HW228914   5.950   6.415   1.017
 9339SOL     OW28915   6.181   5.816   0.160
 9339SOL    HW128916   6.091   5.860   0.164
 9339SOL    HW228917   6.177   5.729   0.209
 9340SOL     OW28918   3.607   4.890   2.847
 9340SOL    HW128919   3.549   4.889   2.766
 9340SOL    HW228920   3.552   4.913   2.928
 9341SOL     OW28921   5.933   4.564   1.148
 9341SOL    HW128922   5.994   4.609   1.214
 9341SOL    HW228923   5.931   4.466   1.168
 9342SOL     OW28924   2.260   0.405   4.889
 9342SOL    HW128925   2.297   0.465   4.960
 9342SOL    HW228926   2.308   0.422   4.803
 9343SOL     OW28927   5.353   4.266   2.056
 9343SOL    HW128928   5.284   4.338   2.056
 9343SOL    HW228929   5.329   4.197   1.987
 9344SOL     OW28930   5.334   5.913   0.606
 9344SOL    HW128931   5.245   5.959   0.610
 9344SOL    HW228932   5.389   5.952   0.533
 9345SOL     OW28933   6.498   4.729   1.952
 9345SOL    HW128934   6.437   4.808   1.945
 9345SOL    HW228935   6.458   4.662   2.015
 9346SOL     OW28936   4.602   0.356   1.714
 9346SOL    HW128937   4.702   0.355   1.712
 9346SOL    HW228938   4.570   0.376   1.806
 9347SOL     OW28939   3.151   5.922   0.475
 9347SOL    HW128940   3.185   5.828   0.484
 9347SOL    HW228941   3.073   5.924   0.413
 9348SOL     OW28942   2.492   5.572   2.721
 9348SOL    HW128943   2.474   5.540   2.814
 9348SOL    HW228944   2.537   5.499   2.669
 9349SOL     OW28945   6.509   5.551   2.520
 9349SOL    HW128946   6.501   5.478   2.588
 9349SOL    HW228947   6.598   5.596   2.530
 9350SOL     OW28948   6.726   1.872   4.335
 9350SOL    HW128949   6.725   1.810   4.413
 9350SOL    HW228950   6.814   1.865   4.288
 9351SOL     OW28951   3.470   0.326   6.289
 9351SOL    HW128952   3.417   0.281   6.362
 9351SOL    HW228953   3.456   0.277   6.203
 9352SOL     OW28954   3.382   2.586   6.184
 9352SOL    HW128955   3.463   2.604   6.240
 9352SOL    HW228956   3.409   2.541   6.099
 9353SOL     OW28957   1.630   4.224   0.804
 9353SOL    HW128958   1.717   4.187   0.770
 9353SOL    HW228959   1.586   4.278   0.733
 9354SOL     OW28960   6.859   2.178   6.410
 9354SOL    HW128961   6.763   2.163   6.430
 9354SOL    HW228962   6.915   2.118   6.468
 9355SOL     OW28963   6.702   1.725   4.550
 9355SOL    HW128964   6.665   1.713   4.642
 9355SOL    HW228965   6.680   1.646   4.494
 9356SOL     OW28966   4.749   5.661   1.728
 9356SOL    HW128967   4.702   5.663   1.640
 9356SOL    HW228968   4.848   5.648   1.713
 9357SOL     OW28969   3.450   3.008   6.494
 9357SOL    HW128970   3.371   2.947   6.499
 9357SOL    HW228971   3.444   3.077   6.567
 9358SOL     OW28972   6.682   3.490   2.978
 9358SOL    HW128973   6.727   3.535   2.901
 9358SOL    HW228974   6.636   3.558   3.035
 9359SOL     OW28975   1.036   3.816   5.646
 9359SOL    HW128976   0.938   3.834   5.632
 9359SOL    HW228977   1.047   3.727   5.690
 9360SOL     OW28978   1.634   6.303   6.126
 9360SOL    HW128979   1.722   6.275   6.164
 9360SOL    HW228980   1.560   6.260   6.178
 9361SOL     OW28981   1.221   6.361   3.121
 9361SOL    HW128982   1.263   6.370   3.031
 9361SOL    HW228983   1.186   6.450   3.150
 9362SOL     OW28984   2.005   2.685   2.350
 9362SOL    HW128985   2.094   2.723   2.326
 9362SOL    HW228986   1.937   2.711   2.281
 9363SOL     OW28987   3.486   6.184   1.463
 9363SOL    HW128988   3.491   6.109   1.529
 9363SOL    HW228989   3.406   6.240   1.482
 9364SOL     OW28990   3.876   2.961   5.660
 9364SOL    HW128991   3.860   3.058   5.676
 9364SOL    HW228992   3.835   2.934   5.573
 9365SOL     OW28993   2.456   2.310   5.227
 9365SOL    HW128994   2.496   2.390   5.182
 9365SOL    HW228995   2.373   2.338   5.275
 9366SOL     OW28996   3.503   7.015   6.800
 9366SOL    HW128997   3.572   0.070   6.795
 9366SOL    HW228998   3.441   0.016   6.876
 9367SOL     OW28999   6.862   6.154   2.596
 9367SOL    HW129000   6.917   6.220   2.546
 9367SOL    HW229001   6.774   6.142   2.551
 9368SOL     OW29002   2.924   1.498   3.747
 9368SOL    HW129003   2.894   1.532   3.658
 9368SOL    HW229004   2.975   1.413   3.735
 9369SOL     OW29005   7.008   6.984   4.853
 9369SOL    HW129006   6.935   0.015   4.901
 9369SOL    HW229007   0.065   0.030   4.833
 9370SOL     OW29008   5.184   0.252   2.007
 9370SOL    HW129009   5.127   0.197   1.947
 9370SOL    HW229010   5.179   0.217   2.101
 9371SOL     OW29011   2.201   4.758   0.678
 9371SOL    HW129012   2.170   4.779   0.770
 9371SOL    HW229013   2.205   4.659   0.665
 9372SOL     OW29014   5.302   6.378   2.776
 9372SOL    HW129015   5.400   6.389   2.792
 9372SOL    HW229016   5.258   6.468   2.775
 9373SOL     OW29017   4.724   1.874   1.785
 9373SOL    HW129018   4.636   1.830   1.795
 9373SOL    HW229019   4.797   1.812   1.816
 9374SOL     OW29020   0.825   3.515   0.817
 9374SOL    HW129021   0.734   3.474   0.807
 9374SOL    HW229022   0.893   3.443   0.830
 9375SOL     OW29023   6.374   1.365   3.142
 9375SOL    HW129024   6.311   1.288   3.152
 9375SOL    HW229025   6.421   1.358   3.055
 9376SOL     OW29026   3.068   4.240   0.957
 9376SOL    HW129027   3.030   4.311   0.897
 9376SOL    HW229028   3.165   4.257   0.971
 9377SOL     OW29029   1.883   5.430   3.976
 9377SOL    HW129030   1.959   5.484   3.937
 9377SOL    HW229031   1.914   5.336   3.990
 9378SOL     OW29032   1.527   1.502   5.266
 9378SOL    HW129033   1.589   1.472   5.194
 9378SOL    HW229034   1.495   1.422   5.317
 9379SOL     OW29035   3.837   5.628   5.323
 9379SOL    HW129036   3.906   5.571   5.278
 9379SOL    HW229037   3.883   5.697   5.379
 9380SOL     OW29038   5.727   5.324   5.081
 9380SOL    HW129039   5.729   5.228   5.054
 9380SOL    HW229040   5.762   5.380   5.006
 9381SOL     OW29041   3.451   2.666   5.823
 9381SOL    HW129042   3.389   2.744   5.825
 9381SOL    HW229043   3.521   2.679   5.753
 9382SOL     OW29044   3.561   0.744   2.991
 9382SOL    HW129045   3.603   0.803   3.060
 9382SOL    HW229046   3.625   0.671   2.966
 9383SOL     OW29047   1.404   5.913   4.511
 9383SOL    HW129048   1.503   5.915   4.524
 9383SOL    HW229049   1.369   5.825   4.542
 9384SOL     OW29050   3.387   6.957   2.177
 9384SOL    HW129051   3.454   6.896   2.220
 9384SOL    HW229052   3.429   0.028   2.160
 9385SOL     OW29053   4.084   0.262   3.281
 9385SOL    HW129054   4.015   0.248   3.210
 9385SOL    HW229055   4.087   0.359   3.305
 9386SOL     OW29056   1.884   6.163   4.820
 9386SOL    HW129057   1.954   6.215   4.869
 9386SOL    HW229058   1.889   6.067   4.846
 9387SOL     OW29059   2.376   1.650   6.877
 9387SOL    HW129060   2.455   1.662   6.937
 9387SOL    HW229061   2.350   1.738   6.837
 9388SOL     OW29062   2.402   5.225   3.040
 9388SOL    HW129063   2.327   5.213   3.106
 9388SOL    HW229064   2.419   5.323   3.027
 9389SOL     OW29065   1.450   0.227   4.309
 9389SOL    HW129066   1.432   0.132   4.282
 9389SOL    HW229067   1.448   0.285   4.228
 9390SOL     OW29068   4.433   4.820   4.925
 9390SOL    HW129069   4.410   4.888   4.855
 9390SOL    HW229070   4.386   4.734   4.905
 9391SOL     OW29071   2.307   1.668   4.896
 9391SOL    HW129072   2.316   1.679   4.995
 9391SOL    HW229073   2.226   1.718   4.864
 9392SOL     OW29074   6.656   0.750   6.067
 9392SOL    HW129075   6.612   0.661   6.056
 9392SOL    HW229076   6.723   0.764   5.995
 9393SOL     OW29077   3.462   6.764   6.104
 9393SOL    HW129078   3.461   6.745   6.202
 9393SOL    HW229079   3.399   6.839   6.084
 9394SOL     OW29080   0.561   1.486   2.187
 9394SOL    HW129081   0.621   1.562   2.161
 9394SOL    HW229082   0.492   1.519   2.252
 9395SOL     OW29083   2.900   1.876   1.172
 9395SOL    HW129084   2.924   1.832   1.086
 9395SOL    HW229085   2.867   1.969   1.154
 9396SOL     OW29086   1.908   4.985   3.920
 9396SOL    HW129087   1.956   4.899   3.905
 9396SOL    HW229088   1.851   5.006   3.841
 9397SOL     OW29089   4.246   6.943   6.650
 9397SOL    HW129090   4.293   7.001   6.716
 9397SOL    HW229091   4.222   6.856   6.693
 9398SOL     OW29092   0.169   0.597   4.940
 9398SOL    HW129093   0.229   0.601   4.861
 9398SOL    HW229094   0.078   0.568   4.912
 9399SOL     OW29095   0.189   1.871   5.397
 9399SOL    HW129096   0.227   1.960   5.425
 9399SOL    HW229097   0.235   1.798   5.447
 9400SOL     OW29098   4.162   1.367   1.893
 9400SOL    HW129099   4.219   1.397   1.970
 9400SOL    HW229100   4.107   1.444   1.861
 9401SOL     OW29101   5.870   0.450   3.298
 9401SOL    HW129102   5.898   0.374   3.240
 9401SOL    HW229103   5.944   0.516   3.306
 9402SOL     OW29104   1.357   4.940   3.939
 9402SOL    HW129105   1.447   4.919   3.900
 9402SOL    HW229106   1.367   4.963   4.035
 9403SOL     OW29107   6.025   1.621   3.152
 9403SOL    HW129108   5.939   1.659   3.117
 9403SOL    HW229109   6.019   1.522   3.155
 9404SOL     OW29110   1.186   3.471   6.865
 9404SOL    HW129111   1.203   3.548   6.927
 9404SOL    HW229112   1.223   3.492   6.775
 9405SOL     OW29113   1.504   5.552   2.820
 9405SOL    HW129114   1.579   5.548   2.886
 9405SOL    HW229115   1.513   5.476   2.755
 9406SOL     OW29116   6.711   3.012   5.635
 9406SOL    HW129117   6.778   3.074   5.595
 9406SOL    HW229118   6.626   3.062   5.652
 9407SOL     OW29119   2.740   5.329   2.680
 9407SOL    HW129120   2.723   5.230   2.685
 9407SOL    HW229121   2.768   5.362   2.770
 9408SOL     OW29122   5.703   1.863   6.384
 9408SOL    HW129123   5.679   1.817   6.299
 9408SOL    HW229124   5.655   1.951   6.390
 9409SOL     OW29125   6.144   5.522   0.270
 9409SOL    HW129126   6.132   5.563   0.361
 9409SOL    HW229127   6.100   5.432   0.268
 9410SOL     OW29128   2.979   0.086   2.007
 9410SOL    HW129129   3.000   0.176   2.044
 9410SOL    HW229130   2.880   0.073   2.004
 9411SOL     OW29131   3.102   2.946   2.150
 9411SOL    HW129132   3.100   2.882   2.073
 9411SOL    HW229133   3.041   3.023   2.130
 9412SOL     OW29134   6.892   2.352   2.666
 9412SOL    HW129135   6.837   2.293   2.608
 9412SOL    HW229136   6.836   2.387   2.741
 9413SOL     OW29137   3.211   6.158   3.625
 9413SOL    HW129138   3.291   6.103   3.601
 9413SOL    HW229139   3.219   6.189   3.720
 9414SOL     OW29140   3.209   0.536   3.464
 9414SOL    HW129141   3.233   0.553   3.559
 9414SOL    HW229142   3.279   0.574   3.404
 9415SOL     OW29143   2.855   6.699   1.664
 9415SOL    HW129144   2.936   6.758   1.670
 9415SOL    HW229145   2.883   6.607   1.639
 9416SOL     OW29146   0.618   2.745   0.944
 9416SOL    HW129147   0.551   2.676   0.973
 9416SOL    HW229148   0.710   2.714   0.968
 9417SOL     OW29149   3.968   0.452   6.436
 9417SOL    HW129150   3.880   0.407   6.421
 9417SOL    HW229151   3.964   0.505   6.521
 9418SOL     OW29152   3.718   6.835   1.042
 9418SOL    HW129153   3.767   6.875   0.965
 9418SOL    HW229154   3.644   6.777   1.008
 9419SOL     OW29155   3.920   5.164   5.645
 9419SOL    HW129156   3.984   5.178   5.721
 9419SOL    HW229157   3.851   5.096   5.672
 9420SOL     OW29158   6.634   3.848   5.816
 9420SOL    HW129159   6.654   3.762   5.770
 9420SOL    HW229160   6.642   3.924   5.751
 9421SOL     OW29161   2.090   6.556   4.298
 9421SOL    HW129162   2.048   6.647   4.296
 9421SOL    HW229163   2.036   6.497   4.358
 9422SOL     OW29164   3.766   5.530   3.708
 9422SOL    HW129165   3.676   5.570   3.692
 9422SOL    HW229166   3.836   5.584   3.661
 9423SOL     OW29167   3.261   0.214   3.913
 9423SOL    HW129168   3.355   0.246   3.924
 9423SOL    HW229169   3.258   0.115   3.921
 9424SOL     OW29170   5.458   0.829   4.453
 9424SOL    HW129171   5.448   0.836   4.354
 9424SOL    HW229172   5.403   0.900   4.497
 9425SOL     OW29173   6.683   2.818   6.969
 9425SOL    HW129174   6.613   2.809   6.898
 9425SOL    HW229175   6.759   2.872   6.934
 9426SOL     OW29176   3.600   1.591   6.243
 9426SOL    HW129177   3.614   1.689   6.261
 9426SOL    HW229178   3.510   1.564   6.276
 9427SOL     OW29179   2.732   4.842   3.391
 9427SOL    HW129180   2.639   4.875   3.405
 9427SOL    HW229181   2.774   4.823   3.480
 9428SOL     OW29182   6.323   0.372   0.811
 9428SOL    HW129183   6.340   0.468   0.788
 9428SOL    HW229184   6.396   0.339   0.870
 9429SOL     OW29185   2.029   3.762   2.361
 9429SOL    HW129186   1.935   3.729   2.355
 9429SOL    HW229187   2.087   3.708   2.301
 9430SOL     OW29188   0.670   4.197   2.956
 9430SOL    HW129189   0.580   4.226   2.923
 9430SOL    HW229190   0.705   4.266   3.020
 9431SOL     OW29191   6.468   3.877   1.286
 9431SOL    HW129192   6.393   3.911   1.343
 9431SOL    HW229193   6.434   3.803   1.228
 9432SOL     OW29194   4.730   0.183   2.926
 9432SOL    HW129195   4.646   0.145   2.965
 9432SOL    HW229196   4.808   0.125   2.950
 9433SOL     OW29197   2.862   5.482   2.525
 9433SOL    HW129198   2.814   5.424   2.592
 9433SOL    HW229199   2.808   5.487   2.441
 9434SOL     OW29200   5.569   4.870   2.772
 9434SOL    HW129201   5.509   4.936   2.727
 9434SOL    HW229202   5.641   4.842   2.708
 9435SOL     OW29203   0.328   2.562   4.657
 9435SOL    HW129204   0.368   2.513   4.580
 9435SOL    HW229205   0.369   2.653   4.663
 9436SOL     OW29206   1.499   2.533   1.478
 9436SOL    HW129207   1.499   2.527   1.577
 9436SOL    HW229208   1.419   2.584   1.447
 9437SOL     OW29209   1.664   5.767   3.247
 9437SOL    HW129210   1.635   5.862   3.232
 9437SOL    HW229211   1.675   5.751   3.345
 9438SOL     OW29212   6.870   0.232   1.596
 9438SOL    HW129213   6.780   0.253   1.634
 9438SOL    HW229214   6.940   0.283   1.646
 9439SOL     OW29215   0.922   3.428   1.189
 9439SOL    HW129216   0.882   3.337   1.200
 9439SOL    HW229217   0.855   3.488   1.145
 9440SOL     OW29218   4.102   4.830   3.438
 9440SOL    HW129219   4.159   4.757   3.401
 9440SOL    HW229220   4.159   4.895   3.488
 9441SOL     OW29221   0.442   3.298   5.143
 9441SOL    HW129222   0.488   3.255   5.065
 9441SOL    HW229223   0.358   3.343   5.112
 9442SOL     OW29224   4.536   2.652   0.735
 9442SOL    HW129225   4.522   2.655   0.834
 9442SOL    HW229226   4.632   2.672   0.715
 9443SOL     OW29227   2.154   5.377   0.894
 9443SOL    HW129228   2.126   5.471   0.877
 9443SOL    HW229229   2.076   5.316   0.882
 9444SOL     OW29230   1.296   3.558   0.193
 9444SOL    HW129231   1.335   3.582   0.104
 9444SOL    HW229232   1.346   3.605   0.266
 9445SOL     OW29233   5.741   3.357   3.653
 9445SOL    HW129234   5.742   3.288   3.726
 9445SOL    HW229235   5.655   3.408   3.655
 9446SOL     OW29236   6.504   5.588   4.157
 9446SOL    HW129237   6.447   5.665   4.186
 9446SOL    HW229238   6.461   5.502   4.184
 9447SOL     OW29239   5.935   3.690   4.594
 9447SOL    HW129240   6.023   3.642   4.595
 9447SOL    HW229241   5.949   3.784   4.565
 9448SOL     OW29242   0.344   0.074   6.734
 9448SOL    HW129243   0.384   0.095   6.645
 9448SOL    HW229244   0.244   0.070   6.726
 9449SOL     OW29245   6.551   5.936   0.346
 9449SOL    HW129246   6.499   5.890   0.418
 9449SOL    HW229247   6.499   5.931   0.261
 9450SOL     OW29248   2.366   5.577   4.928
 9450SOL    HW129249   2.277   5.552   4.968
 9450SOL    HW229250   2.393   5.506   4.863
 9451SOL     OW29251   4.223   6.774   5.829
 9451SOL    HW129252   4.176   6.687   5.844
 9451SOL    HW229253   4.182   6.845   5.886
 9452SOL     OW29254   2.000   4.294   0.409
 9452SOL    HW129255   1.915   4.332   0.373
 9452SOL    HW229256   2.050   4.249   0.335
 9453SOL     OW29257   1.785   4.961   3.657
 9453SOL    HW129258   1.801   5.035   3.591
 9453SOL    HW229259   1.799   4.873   3.613
 9454SOL     OW29260   3.670   2.872   6.807
 9454SOL    HW129261   3.735   2.799   6.829
 9454SOL    HW229262   3.679   2.946   6.874
 9455SOL     OW29263   3.060   1.808   3.263
 9455SOL    HW129264   3.041   1.732   3.200
 9455SOL    HW229265   3.065   1.893   3.211
 9456SOL     OW29266   0.825   3.135   1.171
 9456SOL    HW129267   0.731   3.165   1.188
 9456SOL    HW229268   0.872   3.122   1.258
 9457SOL     OW29269   2.193   3.832   5.246
 9457SOL    HW129270   2.240   3.744   5.252
 9457SOL    HW229271   2.249   3.896   5.194
 9458SOL     OW29272   1.238   3.201   6.810
 9458SOL    HW129273   1.239   3.293   6.849
 9458SOL    HW229274   1.192   3.202   6.721
 9459SOL     OW29275   5.394   4.705   3.531
 9459SOL    HW129276   5.422   4.620   3.575
 9459SOL    HW229277   5.319   4.687   3.467
 9460SOL     OW29278   0.087   3.042   4.085
 9460SOL    HW129279   0.003   3.046   4.139
 9460SOL    HW229280   0.145   2.969   4.120
 9461SOL     OW29281   6.810   1.671   2.085
 9461SOL    HW129282   6.808   1.769   2.105
 9461SOL    HW229283   6.871   1.625   2.149
 9462SOL     OW29284   2.159   3.826   3.438
 9462SOL    HW129285   2.110   3.739   3.441
 9462SOL    HW229286   2.145   3.869   3.349
 9463SOL     OW29287   6.355   0.327   2.071
 9463SOL    HW129288   6.273   0.319   2.128
 9463SOL    HW229289   6.392   0.419   2.079
 9464SOL     OW29290   6.111   0.289   0.956
 9464SOL    HW129291   6.062   0.353   1.015
 9464SOL    HW229292   6.177   0.340   0.899
 9465SOL     OW29293   1.657   4.752   2.980
 9465SOL    HW129294   1.714   4.776   2.902
 9465SOL    HW229295   1.636   4.654   2.977
 9466SOL     OW29296   4.285   4.676   6.143
 9466SOL    HW129297   4.372   4.632   6.167
 9466SOL    HW229298   4.302   4.746   6.074
 9467SOL     OW29299   1.697   2.588   2.129
 9467SOL    HW129300   1.756   2.658   2.170
 9467SOL    HW229301   1.611   2.630   2.098
 9468SOL     OW29302   5.649   3.451   6.162
 9468SOL    HW129303   5.613   3.541   6.186
 9468SOL    HW229304   5.709   3.459   6.082
 9469SOL     OW29305   6.561   5.884   1.914
 9469SOL    HW129306   6.527   5.972   1.947
 9469SOL    HW229307   6.617   5.898   1.833
 9470SOL     OW29308   4.780   3.300   5.571
 9470SOL    HW129309   4.710   3.280   5.639
 9470SOL    HW229310   4.871   3.283   5.610
 9471SOL     OW29311   7.012   1.869   4.734
 9471SOL    HW129312   0.019   1.957   4.776
 9471SOL    HW229313   6.974   1.808   4.804
 9472SOL     OW29314   6.295   3.600   5.356
 9472SOL    HW129315   6.202   3.638   5.367
 9472SOL    HW229316   6.288   3.505   5.325
 9473SOL     OW29317   2.644   5.265   6.499
 9473SOL    HW129318   2.606   5.185   6.545
 9473SOL    HW229319   2.613   5.268   6.405
 9474SOL     OW29320   0.612   2.621   0.085
 9474SOL    HW129321   0.635   2.566   0.165
 9474SOL    HW229322   0.649   2.577   0.003
 9475SOL     OW29323   3.192   3.630   6.208
 9475SOL    HW129324   3.222   3.630   6.303
 9475SOL    HW229325   3.213   3.541   6.167
 9476SOL     OW29326   3.624   4.026   4.543
 9476SOL    HW129327   3.563   4.068   4.475
 9476SOL    HW229328   3.645   3.932   4.515
 9477SOL     OW29329   0.641   3.345   1.260
 9477SOL    HW129330   0.698   3.378   1.335
 9477SOL    HW229331   0.546   3.368   1.278
 9478SOL     OW29332   5.015   3.132   0.064
 9478SOL    HW129333   5.105   3.138   0.022
 9478SOL    HW229334   5.005   3.204   0.133
 9479SOL     OW29335   4.108   6.388   6.896
 9479SOL    HW129336   4.026   6.332   6.884
 9479SOL    HW229337   4.084   6.472   6.945
 9480SOL     OW29338   4.797   3.666   0.641
 9480SOL    HW129339   4.703   3.654   0.671
 9480SOL    HW229340   4.811   3.620   0.554
 9481SOL     OW29341   4.910   3.136   2.399
 9481SOL    HW129342   4.978   3.194   2.354
 9481SOL    HW229343   4.859   3.190   2.466
 9482SOL     OW29344   0.326   1.170   2.994
 9482SOL    HW129345   0.311   1.141   2.899
 9482SOL    HW229346   0.332   1.089   3.052
 9483SOL     OW29347   1.560   2.076   1.715
 9483SOL    HW129348   1.625   2.016   1.670
 9483SOL    HW229349   1.517   2.135   1.647
 9484SOL     OW29350   4.069   0.861   3.516
 9484SOL    HW129351   4.050   0.954   3.548
 9484SOL    HW229352   4.072   0.798   3.594
 9485SOL     OW29353   0.110   0.287   0.653
 9485SOL    HW129354   0.126   0.279   0.751
 9485SOL    HW229355   0.135   0.379   0.623
 9486SOL     OW29356   3.317   6.503   0.999
 9486SOL    HW129357   3.267   6.580   1.039
 9486SOL    HW229358   3.253   6.446   0.947
 9487SOL     OW29359   3.895   3.543   3.953
 9487SOL    HW129360   3.921   3.612   4.021
 9487SOL    HW229361   3.951   3.461   3.965
 9488SOL     OW29362   2.143   6.721   1.006
 9488SOL    HW129363   2.061   6.700   0.952
 9488SOL    HW229364   2.166   6.641   1.062
 9489SOL     OW29365   4.460   4.472   1.760
 9489SOL    HW129366   4.388   4.465   1.691
 9489SOL    HW229367   4.470   4.384   1.806
 9490SOL     OW29368   0.029   5.225   1.873
 9490SOL    HW129369   0.032   5.145   1.933
 9490SOL    HW229370   0.014   5.195   1.778
 9491SOL     OW29371   6.322   4.957   4.079
 9491SOL    HW129372   6.322   4.968   3.980
 9491SOL    HW229373   6.416   4.956   4.113
 9492SOL     OW29374   3.605   2.948   3.457
 9492SOL    HW129375   3.703   2.957   3.472
 9492SOL    HW229376   3.587   2.923   3.362
 9493SOL     OW29377   3.081   5.206   3.609
 9493SOL    HW129378   3.036   5.275   3.553
 9493SOL    HW229379   3.042   5.205   3.700
 9494SOL     OW29380   4.807   4.000   1.691
 9494SOL    HW129381   4.783   4.097   1.700
 9494SOL    HW229382   4.855   3.970   1.773
 9495SOL     OW29383   6.417   1.836   3.695
 9495SOL    HW129384   6.370   1.757   3.656
 9495SOL    HW229385   6.498   1.805   3.745
 9496SOL     OW29386   6.258   4.220   1.674
 9496SOL    HW129387   6.316   4.288   1.630
 9496SOL    HW229388   6.272   4.222   1.772
 9497SOL     OW29389   5.292   6.184   6.395
 9497SOL    HW129390   5.352   6.238   6.453
 9497SOL    HW229391   5.298   6.216   6.300
 9498SOL     OW29392   4.416   6.637   4.430
 9498SOL    HW129393   4.412   6.679   4.340
 9498SOL    HW229394   4.371   6.548   4.427
 9499SOL     OW29395   2.100   5.283   6.615
 9499SOL    HW129396   2.015   5.244   6.648
 9499SOL    HW229397   2.165   5.209   6.595
 9500SOL     OW29398   5.283   0.518   0.903
 9500SOL    HW129399   5.192   0.554   0.927
 9500SOL    HW229400   5.274   0.455   0.826
 9501SOL     OW29401   2.980   1.211   4.454
 9501SOL    HW129402   2.998   1.118   4.421
 9501SOL    HW229403   3.067   1.261   4.461
 9502SOL     OW29404   5.335   2.586   5.167
 9502SOL    HW129405   5.300   2.500   5.129
 9502SOL    HW229406   5.427   2.603   5.131
 9503SOL     OW29407   0.302   1.759   1.930
 9503SOL    HW129408   0.283   1.793   1.838
 9503SOL    HW229409   0.327   1.835   1.990
 9504SOL     OW29410   0.464   2.524   1.069
 9504SOL    HW129411   0.374   2.567   1.079
 9504SOL    HW229412   0.453   2.429   1.041
 9505SOL     OW29413   5.192   4.685   3.350
 9505SOL    HW129414   5.144   4.617   3.295
 9505SOL    HW229415   5.142   4.772   3.346
 9506SOL     OW29416   0.489   2.158   6.262
 9506SOL    HW129417   0.535   2.106   6.190
 9506SOL    HW229418   0.474   2.099   6.341
 9507SOL     OW29419   0.855   2.567   3.477
 9507SOL    HW129420   0.854   2.512   3.393
 9507SOL    HW229421   0.827   2.660   3.456
 9508SOL     OW29422   6.717   2.593   0.712
 9508SOL    HW129423   6.636   2.613   0.767
 9508SOL    HW229424   6.724   2.659   0.638
 9509SOL     OW29425   0.945   1.404   3.883
 9509SOL    HW129426   1.042   1.392   3.864
 9509SOL    HW229427   0.921   1.500   3.870
 9510SOL     OW29428   1.380   3.446   2.985
 9510SOL    HW129429   1.307   3.446   3.053
 9510SOL    HW229430   1.426   3.358   2.986
 9511SOL     OW29431   1.201   0.345   0.683
 9511SOL    HW129432   1.177   0.273   0.617
 9511SOL    HW229433   1.265   0.409   0.640
 9512SOL     OW29434   5.676   1.743   1.063
 9512SOL    HW129435   5.669   1.645   1.041
 9512SOL    HW229436   5.657   1.756   1.160
 9513SOL     OW29437   1.960   3.882   6.457
 9513SOL    HW129438   1.882   3.895   6.396
 9513SOL    HW229439   2.036   3.842   6.405
 9514SOL     OW29440   2.411   4.998   6.323
 9514SOL    HW129441   2.361   4.911   6.317
 9514SOL    HW229442   2.453   5.018   6.234
 9515SOL     OW29443   1.781   5.589   1.099
 9515SOL    HW129444   1.805   5.663   1.162
 9515SOL    HW229445   1.694   5.610   1.054
 9516SOL     OW29446   5.057   4.286   5.209
 9516SOL    HW129447   5.012   4.196   5.211
 9516SOL    HW229448   5.068   4.316   5.115
 9517SOL     OW29449   1.269   5.162   1.031
 9517SOL    HW129450   1.270   5.140   1.129
 9517SOL    HW229451   1.322   5.246   1.016
 9518SOL     OW29452   2.247   2.474   0.082
 9518SOL    HW129453   2.298   2.559   0.079
 9518SOL    HW229454   2.290   2.411   0.147
 9519SOL     OW29455   4.137   3.496   4.594
 9519SOL    HW129456   4.155   3.400   4.616
 9519SOL    HW229457   4.178   3.554   4.665
 9520SOL     OW29458   1.447   1.399   3.689
 9520SOL    HW129459   1.508   1.478   3.687
 9520SOL    HW229460   1.449   1.352   3.600
 9521SOL     OW29461   4.942   5.127   1.355
 9521SOL    HW129462   4.879   5.182   1.301
 9521SOL    HW229463   4.905   5.035   1.367
 9522SOL     OW29464   3.777   5.316   1.264
 9522SOL    HW129465   3.751   5.411   1.278
 9522SOL    HW229466   3.864   5.298   1.308
 9523SOL     OW29467   2.569   4.748   5.115
 9523SOL    HW129468   2.492   4.686   5.127
 9523SOL    HW229469   2.654   4.695   5.114
 9524SOL     OW29470   3.443   3.564   0.752
 9524SOL    HW129471   3.379   3.631   0.715
 9524SOL    HW229472   3.399   3.513   0.826
 9525SOL     OW29473   2.469   2.615   5.618
 9525SOL    HW129474   2.412   2.538   5.646
 9525SOL    HW229475   2.565   2.595   5.640
 9526SOL     OW29476   6.541   4.878   1.312
 9526SOL    HW129477   6.629   4.874   1.359
 9526SOL    HW229478   6.555   4.908   1.217
 9527SOL     OW29479   0.215   0.716   4.377
 9527SOL    HW129480   0.159   0.767   4.443
 9527SOL    HW229481   0.244   0.629   4.418
 9528SOL     OW29482   6.870   1.412   0.572
 9528SOL    HW129483   6.964   1.395   0.601
 9528SOL    HW229484   6.864   1.408   0.473
 9529SOL     OW29485   6.488   3.409   6.464
 9529SOL    HW129486   6.403   3.382   6.418
 9529SOL    HW229487   6.549   3.453   6.397
 9530SOL     OW29488   2.158   3.508   2.598
 9530SOL    HW129489   2.238   3.567   2.584
 9530SOL    HW229490   2.102   3.545   2.672
 9531SOL     OW29491   4.597   5.096   2.622
 9531SOL    HW129492   4.636   5.168   2.680
 9531SOL    HW229493   4.533   5.041   2.675
 9532SOL     OW29494   6.562   6.270   1.479
 9532SOL    HW129495   6.599   6.230   1.395
 9532SOL    HW229496   6.594   6.365   1.487
 9533SOL     OW29497   6.970   6.066   5.383
 9533SOL    HW129498   0.021   6.086   5.453
 9533SOL    HW229499   7.005   5.997   5.320
 9534SOL     OW29500   0.371   3.812   4.985
 9534SOL    HW129501   0.307   3.736   4.997
 9534SOL    HW229502   0.415   3.832   5.072
 9535SOL     OW29503   2.027   1.176   6.377
 9535SOL    HW129504   2.127   1.168   6.371
 9535SOL    HW229505   2.003   1.225   6.460
 9536SOL     OW29506   2.839   3.822   5.554
 9536SOL    HW129507   2.839   3.726   5.583
 9536SOL    HW229508   2.829   3.827   5.455
 9537SOL     OW29509   2.646   6.602   3.586
 9537SOL    HW129510   2.605   6.652   3.662
 9537SOL    HW229511   2.701   6.527   3.621
 9538SOL     OW29512   5.750   1.967   3.584
 9538SOL    HW129513   5.692   2.048   3.591
 9538SOL    HW229514   5.716   1.908   3.511
 9539SOL     OW29515   3.271   3.840   4.988
 9539SOL    HW129516   3.339   3.814   4.919
 9539SOL    HW229517   3.317   3.860   5.074
 9540SOL     OW29518   5.859   4.101   4.255
 9540SOL    HW129519   5.928   4.171   4.275
 9540SOL    HW229520   5.870   4.070   4.161
 9541SOL     OW29521   3.651   0.815   5.384
 9541SOL    HW129522   3.732   0.783   5.334
 9541SOL    HW229523   3.581   0.844   5.319
 9542SOL     OW29524   4.807   4.830   4.806
 9542SOL    HW129525   4.800   4.900   4.877
 9542SOL    HW229526   4.902   4.821   4.777
 9543SOL     OW29527   3.733   0.758   5.729
 9543SOL    HW129528   3.697   0.852   5.730
 9543SOL    HW229529   3.747   0.727   5.823
 9544SOL     OW29530   6.871   2.144   3.414
 9544SOL    HW129531   6.856   2.068   3.351
 9544SOL    HW229532   6.785   2.193   3.429
 9545SOL     OW29533   6.288   5.772   4.059
 9545SOL    HW129534   6.344   5.845   4.098
 9545SOL    HW229535   6.200   5.811   4.030
 9546SOL     OW29536   3.621   2.309   5.330
 9546SOL    HW129537   3.662   2.378   5.390
 9546SOL    HW229538   3.522   2.317   5.333
 9547SOL     OW29539   1.910   6.461   4.526
 9547SOL    HW129540   1.936   6.366   4.509
 9547SOL    HW229541   1.812   6.466   4.543
 9548SOL     OW29542   6.347   5.401   6.322
 9548SOL    HW129543   6.255   5.388   6.359
 9548SOL    HW229544   6.358   5.347   6.239
 9549SOL     OW29545   2.672   2.687   1.133
 9549SOL    HW129546   2.602   2.658   1.199
 9549SOL    HW229547   2.726   2.762   1.173
 9550SOL     OW29548   0.468   1.464   0.313
 9550SOL    HW129549   0.564   1.452   0.339
 9550SOL    HW229550   0.455   1.555   0.274
 9551SOL     OW29551   5.214   1.193   4.371
 9551SOL    HW129552   5.186   1.143   4.453
 9551SOL    HW229553   5.278   1.265   4.396
 9552SOL     OW29554   1.524   0.026   3.502
 9552SOL    HW129555   1.550   0.001   3.595
 9552SOL    HW229556   1.472   0.112   3.504
 9553SOL     OW29557   6.303   3.532   6.146
 9553SOL    HW129558   6.386   3.492   6.105
 9553SOL    HW229559   6.328   3.581   6.230
 9554SOL     OW29560   1.586   6.768   1.084
 9554SOL    HW129561   1.566   6.670   1.076
 9554SOL    HW229562   1.589   6.793   1.181
 9555SOL     OW29563   1.103   0.965   3.035
 9555SOL    HW129564   1.133   1.053   3.073
 9555SOL    HW229565   1.180   0.902   3.032
 9556SOL     OW29566   1.140   3.211   1.489
 9556SOL    HW129567   1.094   3.289   1.530
 9556SOL    HW229568   1.128   3.214   1.390
 9557SOL     OW29569   0.790   0.027   2.575
 9557SOL    HW129570   0.877   0.018   2.528
 9557SOL    HW229571   0.718   0.051   2.509
 9558SOL     OW29572   6.398   6.443   4.990
 9558SOL    HW129573   6.455   6.497   4.929
 9558SOL    HW229574   6.418   6.466   5.085
 9559SOL     OW29575   6.883   4.562   0.954
 9559SOL    HW129576   6.842   4.492   1.013
 9559SOL    HW229577   6.980   4.542   0.941
 9560SOL     OW29578   1.796   1.787   3.133
 9560SOL    HW129579   1.801   1.881   3.100
 9560SOL    HW229580   1.852   1.778   3.215
 9561SOL     OW29581   1.625   6.460   6.996
 9561SOL    HW129582   1.594   6.555   6.988
 9561SOL    HW229583   1.637   6.438   0.075
 9562SOL     OW29584   3.060   0.231   5.851
 9562SOL    HW129585   2.997   0.251   5.926
 9562SOL    HW229586   3.087   0.316   5.807
 9563SOL     OW29587   5.660   6.391   0.852
 9563SOL    HW129588   5.690   6.363   0.760
 9563SOL    HW229589   5.599   6.469   0.844
 9564SOL     OW29590   3.108   6.936   0.003
 9564SOL    HW129591   3.055   6.858   6.986
 9564SOL    HW229592   3.146   6.988   6.944
 9565SOL     OW29593   4.093   0.073   4.704
 9565SOL    HW129594   4.047   7.003   4.717
 9565SOL    HW229595   4.186   0.057   4.670
 9566SOL     OW29596   1.832   5.448   0.115
 9566SOL    HW129597   1.885   5.439   0.031
 9566SOL    HW229598   1.738   5.475   0.093
 9567SOL     OW29599   5.286   4.829   6.926
 9567SOL    HW129600   5.232   4.778   6.858
 9567SOL    HW229601   5.270   4.791   7.017
 9568SOL     OW29602   4.425   2.572   6.508
 9568SOL    HW129603   4.486   2.651   6.502
 9568SOL    HW229604   4.397   2.560   6.604
 9569SOL     OW29605   0.700   1.755   3.088
 9569SOL    HW129606   0.787   1.791   3.055
 9569SOL    HW229607   0.656   1.823   3.146
 9570SOL     OW29608   0.949   3.553   2.670
 9570SOL    HW129609   0.952   3.650   2.650
 9570SOL    HW229610   0.863   3.514   2.637
 9571SOL     OW29611   3.661   4.011   6.878
 9571SOL    HW129612   3.737   4.048   6.824
 9571SOL    HW229613   3.575   4.038   6.836
 9572SOL     OW29614   1.782   5.458   1.989
 9572SOL    HW129615   1.783   5.558   1.987
 9572SOL    HW229616   1.757   5.426   2.080
 9573SOL     OW29617   1.125   1.209   6.825
 9573SOL    HW129618   1.126   1.262   6.910
 9573SOL    HW229619   1.030   1.184   6.803
 9574SOL     OW29620   3.951   3.152   4.113
 9574SOL    HW129621   3.870   3.103   4.082
 9574SOL    HW229622   3.972   3.125   4.207
 9575SOL     OW29623   6.774   1.180   1.473
 9575SOL    HW129624   6.741   1.174   1.379
 9575SOL    HW229625   6.784   1.087   1.510
 9576SOL     OW29626   2.326   0.674   1.832
 9576SOL    HW129627   2.305   0.667   1.930
 9576SOL    HW229628   2.409   0.622   1.813
 9577SOL     OW29629   1.228   0.762   5.670
 9577SOL    HW129630   1.188   0.848   5.702
 9577SOL    HW229631   1.327   0.769   5.671
 9578SOL     OW29632   0.870   3.826   3.623
 9578SOL    HW129633   0.931   3.816   3.701
 9578SOL    HW229634   0.847   3.923   3.612
 9579SOL     OW29635   1.734   5.238   3.002
 9579SOL    HW129636   1.761   5.164   3.065
 9579SOL    HW229637   1.672   5.300   3.048
 9580SOL     OW29638   3.921   3.277   0.885
 9580SOL    HW129639   3.952   3.260   0.979
 9580SOL    HW229640   3.852   3.349   0.885
 9581SOL     OW29641   0.675   5.232   6.749
 9581SOL    HW129642   0.759   5.183   6.724
 9581SOL    HW229643   0.637   5.275   6.667
 9582SOL     OW29644   4.978   5.170   5.578
 9582SOL    HW129645   4.885   5.191   5.548
 9582SOL    HW229646   5.019   5.103   5.516
 9583SOL     OW29647   4.072   4.485   1.293
 9583SOL    HW129648   4.146   4.481   1.226
 9583SOL    HW229649   3.985   4.501   1.246
 9584SOL     OW29650   6.584   6.410   6.835
 9584SOL    HW129651   6.496   6.362   6.845
 9584SOL    HW229652   6.605   6.459   6.919
 9585SOL     OW29653   6.220   0.049   4.313
 9585SOL    HW129654   6.231   0.020   4.218
 9585SOL    HW229655   6.184   6.991   4.367
 9586SOL     OW29656   6.322   4.410   2.888
 9586SOL    HW129657   6.244   4.406   2.825
 9586SOL    HW229658   6.310   4.341   2.959
 9587SOL     OW29659   0.387   1.345   2.018
 9587SOL    HW129660   0.449   1.388   2.083
 9587SOL    HW229661   0.311   1.304   2.067
 9588SOL     OW29662   0.803   1.922   2.263
 9588SOL    HW129663   0.850   1.948   2.178
 9588SOL    HW229664   0.796   1.822   2.267
 9589SOL     OW29665   2.368   5.359   5.708
 9589SOL    HW129666   2.459   5.387   5.680
 9589SOL    HW229667   2.329   5.429   5.769
 9590SOL     OW29668   0.533   3.638   2.303
 9590SOL    HW129669   0.500   3.731   2.289
 9590SOL    HW229670   0.537   3.591   2.215
 9591SOL     OW29671   3.030   6.069   6.766
 9591SOL    HW129672   3.074   6.125   6.696
 9591SOL    HW229673   2.932   6.065   6.749
 9592SOL     OW29674   3.245   4.065   1.275
 9592SOL    HW129675   3.309   4.067   1.199
 9592SOL    HW229676   3.232   3.970   1.305
 9593SOL     OW29677   6.686   0.020   4.716
 9593SOL    HW129678   6.613   0.006   4.783
 9593SOL    HW229679   6.645   0.029   4.624
 9594SOL     OW29680   1.478   6.747   2.807
 9594SOL    HW129681   1.431   6.835   2.813
 9594SOL    HW229682   1.463   6.696   2.891
 9595SOL     OW29683   1.895   4.591   5.273
 9595SOL    HW129684   1.962   4.630   5.209
 9595SOL    HW229685   1.929   4.503   5.307
 9596SOL     OW29686   0.339   6.059   0.281
 9596SOL    HW129687   0.263   6.123   0.270
 9596SOL    HW229688   0.307   5.977   0.329
 9597SOL     OW29689   0.641   4.571   0.635
 9597SOL    HW129690   0.729   4.616   0.648
 9597SOL    HW229691   0.611   4.530   0.722
 9598SOL     OW29692   1.505   3.635   4.569
 9598SOL    HW129693   1.543   3.565   4.508
 9598SOL    HW229694   1.456   3.704   4.516
 9599SOL     OW29695   3.643   0.327   5.686
 9599SOL    HW129696   3.675   0.311   5.779
 9599SOL    HW229697   3.697   0.399   5.643
 9600SOL     OW29698   2.343   0.223   0.154
 9600SOL    HW129699   2.286   0.175   0.220
 9600SOL    HW229700   2.358   0.165   0.074
 9601SOL     OW29701   6.364   3.833   0.713
 9601SOL    HW129702   6.378   3.928   0.685
 9601SOL    HW229703   6.370   3.826   0.813
 9602SOL     OW29704   6.463   4.520   6.537
 9602SOL    HW129705   6.415   4.562   6.614
 9602SOL    HW229706   6.525   4.450   6.571
 9603SOL     OW29707   3.372   1.503   5.134
 9603SOL    HW129708   3.386   1.456   5.048
 9603SOL    HW229709   3.286   1.554   5.131
 9604SOL     OW29710   4.018   0.364   0.270
 9604SOL    HW129711   4.068   0.286   0.233
 9604SOL    HW229712   4.059   0.449   0.236
 9605SOL     OW29713   0.447   4.861   4.429
 9605SOL    HW129714   0.483   4.792   4.367
 9605SOL    HW229715   0.397   4.817   4.503
 9606SOL     OW29716   1.323   5.947   5.594
 9606SOL    HW129717   1.411   5.914   5.629
 9606SOL    HW229718   1.338   6.005   5.514
 9607SOL     OW29719   1.407   1.616   1.721
 9607SOL    HW129720   1.365   1.706   1.709
 9607SOL    HW229721   1.501   1.628   1.755
 9608SOL     OW29722   6.325   6.621   2.040
 9608SOL    HW129723   6.270   6.655   1.963
 9608SOL    HW229724   6.382   6.695   2.075
 9609SOL     OW29725   1.993   3.202   6.522
 9609SOL    HW129726   1.921   3.149   6.566
 9609SOL    HW229727   2.057   3.140   6.477
 9610SOL     OW29728   1.654   5.124   4.112
 9610SOL    HW129729   1.571   5.071   4.132
 9610SOL    HW229730   1.735   5.066   4.125
 9611SOL     OW29731   0.279   6.919   0.173
 9611SOL    HW129732   0.208   6.902   0.242
 9611SOL    HW229733   0.320   6.833   0.146
 9612SOL     OW29734   0.350   3.410   1.902
 9612SOL    HW129735   0.419   3.427   1.972
 9612SOL    HW229736   0.265   3.380   1.945
 9613SOL     OW29737   4.017   6.465   3.131
 9613SOL    HW129738   3.972   6.473   3.220
 9613SOL    HW229739   4.002   6.549   3.078
 9614SOL     OW29740   3.835   2.733   0.732
 9614SOL    HW129741   3.736   2.738   0.723
 9614SOL    HW229742   3.876   2.813   0.688
 9615SOL     OW29743   0.760   7.012   2.160
 9615SOL    HW129744   0.718   6.965   2.083
 9615SOL    HW229745   0.695   0.001   2.235
 9616SOL     OW29746   4.715   3.223   1.028
 9616SOL    HW129747   4.770   3.257   0.951
 9616SOL    HW229748   4.712   3.292   1.100
 9617SOL     OW29749   1.356   3.663   4.148
 9617SOL    HW129750   1.403   3.575   4.154
 9617SOL    HW229751   1.322   3.676   4.055
 9618SOL     OW29752   4.043   6.875   6.152
 9618SOL    HW129753   4.034   6.951   6.215
 9618SOL    HW229754   3.981   6.801   6.178
 9619SOL     OW29755   0.890   6.959   0.165
 9619SOL    HW129756   0.902   7.012   0.249
 9619SOL    HW229757   0.802   6.982   0.123
 9620SOL     OW29758   5.328   2.315   6.676
 9620SOL    HW129759   5.359   2.364   6.594
 9620SOL    HW229760   5.361   2.220   6.672
 9621SOL     OW29761   1.334   1.482   2.710
 9621SOL    HW129762   1.430   1.487   2.736
 9621SOL    HW229763   1.314   1.554   2.644
 9622SOL     OW29764   5.613   1.071   0.293
 9622SOL    HW129765   5.644   1.045   0.202
 9622SOL    HW229766   5.648   1.006   0.360
 9623SOL     OW29767   4.188   5.042   5.367
 9623SOL    HW129768   4.209   4.976   5.439
 9623SOL    HW229769   4.271   5.094   5.345
 9624SOL     OW29770   6.026   4.286   3.736
 9624SOL    HW129771   6.047   4.372   3.782
 9624SOL    HW229772   6.014   4.213   3.804
 9625SOL     OW29773   5.199   5.514   6.716
 9625SOL    HW129774   5.260   5.558   6.782
 9625SOL    HW229775   5.110   5.558   6.718
 9626SOL     OW29776   2.362   6.156   6.758
 9626SOL    HW129777   2.334   6.208   6.839
 9626SOL    HW229778   2.387   6.063   6.785
 9627SOL     OW29779   6.931   4.113   4.519
 9627SOL    HW129780   6.925   4.128   4.420
 9627SOL    HW229781   6.841   4.123   4.560
 9628SOL     OW29782   6.359   4.439   0.355
 9628SOL    HW129783   6.353   4.401   0.447
 9628SOL    HW229784   6.397   4.371   0.293
 9629SOL     OW29785   6.910   6.510   3.001
 9629SOL    HW129786   6.927   6.485   2.905
 9629SOL    HW229787   6.922   6.429   3.059
 9630SOL     OW29788   6.590   6.347   5.372
 9630SOL    HW129789   6.643   6.269   5.339
 9630SOL    HW229790   6.611   6.364   5.468
 9631SOL     OW29791   5.258   1.754   0.386
 9631SOL    HW129792   5.192   1.686   0.355
 9631SOL    HW229793   5.341   1.708   0.417
 9632SOL     OW29794   2.261   5.218   2.112
 9632SOL    HW129795   2.218   5.146   2.167
 9632SOL    HW229796   2.190   5.279   2.077
 9633SOL     OW29797   3.849   4.387   0.192
 9633SOL    HW129798   3.787   4.375   0.115
 9633SOL    HW229799   3.868   4.485   0.204
 9634SOL     OW29800   6.899   6.901   4.092
 9634SOL    HW129801   6.939   6.985   4.057
 9634SOL    HW229802   6.922   6.825   4.031
 9635SOL     OW29803   2.538   4.642   5.554
 9635SOL    HW129804   2.611   4.643   5.485
 9635SOL    HW229805   2.569   4.692   5.635
 9636SOL     OW29806   4.704   2.181   6.515
 9636SOL    HW129807   4.664   2.174   6.424
 9636SOL    HW229808   4.631   2.193   6.583
 9637SOL     OW29809   3.461   2.162   0.120
 9637SOL    HW129810   3.380   2.104   0.119
 9637SOL    HW229811   3.473   2.201   0.211
 9638SOL     OW29812   0.404   3.436   5.934
 9638SOL    HW129813   0.329   3.496   5.906
 9638SOL    HW229814   0.392   3.346   5.891
 9639SOL     OW29815   4.462   1.826   1.760
 9639SOL    HW129816   4.503   1.863   1.676
 9639SOL    HW229817   4.369   1.862   1.770
 9640SOL     OW29818   3.144   0.634   2.783
 9640SOL    HW129819   3.236   0.635   2.744
 9640SOL    HW229820   3.135   0.555   2.844
 9641SOL     OW29821   5.600   5.409   1.562
 9641SOL    HW129822   5.677   5.362   1.519
 9641SOL    HW229823   5.603   5.393   1.661
 9642SOL     OW29824   1.988   5.313   4.598
 9642SOL    HW129825   1.943   5.291   4.512
 9642SOL    HW229826   2.064   5.376   4.582
 9643SOL     OW29827   5.677   4.348   3.912
 9643SOL    HW129828   5.736   4.303   3.845
 9643SOL    HW229829   5.733   4.387   3.985
 9644SOL     OW29830   0.439   5.052   5.186
 9644SOL    HW129831   0.519   5.108   5.162
 9644SOL    HW229832   0.461   4.996   5.266
 9645SOL     OW29833   2.679   4.876   3.951
 9645SOL    HW129834   2.778   4.864   3.938
 9645SOL    HW229835   2.655   4.851   4.044
 9646SOL     OW29836   2.334   4.880   2.430
 9646SOL    HW129837   2.263   4.942   2.462
 9646SOL    HW229838   2.421   4.930   2.421
 9647SOL     OW29839   0.483   5.860   2.750
 9647SOL    HW129840   0.522   5.917   2.677
 9647SOL    HW229841   0.515   5.766   2.739
 9648SOL     OW29842   3.269   1.800   0.108
 9648SOL    HW129843   3.263   1.894   0.143
 9648SOL    HW229844   3.312   1.801   0.017
 9649SOL     OW29845   2.271   4.565   6.889
 9649SOL    HW129846   2.322   4.512   6.821
 9649SOL    HW229847   2.173   4.548   6.879
 9650SOL     OW29848   4.791   4.488   2.995
 9650SOL    HW129849   4.740   4.422   2.940
 9650SOL    HW229850   4.741   4.574   3.000
 9651SOL     OW29851   5.758   1.316   0.598
 9651SOL    HW129852   5.718   1.345   0.685
 9651SOL    HW229853   5.857   1.314   0.607
 9652SOL     OW29854   1.882   4.512   1.330
 9652SOL    HW129855   1.978   4.497   1.354
 9652SOL    HW229856   1.862   4.610   1.337
 9653SOL     OW29857   4.838   5.545   5.288
 9653SOL    HW129858   4.797   5.631   5.317
 9653SOL    HW229859   4.935   5.543   5.316
 9654SOL     OW29860   3.447   3.175   2.827
 9654SOL    HW129861   3.489   3.090   2.793
 9654SOL    HW229862   3.509   3.252   2.810
 9655SOL     OW29863   0.306   1.501   0.549
 9655SOL    HW129864   0.213   1.474   0.575
 9655SOL    HW229865   0.324   1.474   0.455
 9656SOL     OW29866   4.121   1.946   0.638
 9656SOL    HW129867   4.180   1.918   0.562
 9656SOL    HW229868   4.177   1.986   0.710
 9657SOL     OW29869   5.890   2.934   3.248
 9657SOL    HW129870   5.796   2.910   3.273
 9657SOL    HW229871   5.934   2.855   3.204
 9658SOL     OW29872   5.616   2.268   2.083
 9658SOL    HW129873   5.576   2.188   2.039
 9658SOL    HW229874   5.637   2.248   2.179
 9659SOL     OW29875   0.070   3.089   0.391
 9659SOL    HW129876   0.055   3.058   0.297
 9659SOL    HW229877   0.108   3.014   0.445
 9660SOL     OW29878   0.576   0.107   2.764
 9660SOL    HW129879   0.495   0.070   2.718
 9660SOL    HW229880   0.658   0.078   2.716
 9661SOL     OW29881   3.394   5.834   0.863
 9661SOL    HW129882   3.420   5.917   0.913
 9661SOL    HW229883   3.310   5.849   0.813
 9662SOL     OW29884   4.132   2.882   5.788
 9662SOL    HW129885   4.081   2.968   5.785
 9662SOL    HW229886   4.144   2.854   5.883
 9663SOL     OW29887   6.443   6.753   2.728
 9663SOL    HW129888   6.435   6.785   2.633
 9663SOL    HW229889   6.368   6.690   2.748
 9664SOL     OW29890   5.757   5.488   4.839
 9664SOL    HW129891   5.768   5.398   4.798
 9664SOL    HW229892   5.661   5.516   4.834
 9665SOL     OW29893   5.790   6.426   6.567
 9665SOL    HW129894   5.800   6.526   6.567
 9665SOL    HW229895   5.852   6.386   6.499
 9666SOL     OW29896   6.824   3.806   2.321
 9666SOL    HW129897   6.751   3.777   2.258
 9666SOL    HW229898   6.837   3.736   2.391
 9667SOL     OW29899   4.385   3.449   6.614
 9667SOL    HW129900   4.295   3.455   6.656
 9667SOL    HW229901   4.382   3.491   6.522
 9668SOL     OW29902   6.786   0.372   6.164
 9668SOL    HW129903   6.790   0.460   6.118
 9668SOL    HW229904   6.863   0.315   6.135
 9669SOL     OW29905   2.208   6.675   2.025
 9669SOL    HW129906   2.297   6.686   2.070
 9669SOL    HW229907   2.222   6.670   1.926
 9670SOL     OW29908   6.707   5.108   6.071
 9670SOL    HW129909   6.635   5.176   6.056
 9670SOL    HW229910   6.696   5.067   6.161
 9671SOL     OW29911   6.498   4.255   0.149
 9671SOL    HW129912   6.543   4.338   0.115
 9671SOL    HW229913   6.566   4.184   0.164
 9672SOL     OW29914   1.497   5.616   3.805
 9672SOL    HW129915   1.457   5.532   3.842
 9672SOL    HW229916   1.576   5.643   3.860
 9673SOL     OW29917   5.045   3.543   1.211
 9673SOL    HW129918   4.957   3.549   1.163
 9673SOL    HW229919   5.029   3.525   1.308
 9674SOL     OW29920   2.962   6.677   3.316
 9674SOL    HW129921   2.984   6.610   3.245
 9674SOL    HW229922   3.038   6.741   3.327
 9675SOL     OW29923   5.354   2.894   6.870
 9675SOL    HW129924   5.336   2.874   6.773
 9675SOL    HW229925   5.395   2.814   6.914
 9676SOL     OW29926   2.000   3.623   5.596
 9676SOL    HW129927   2.071   3.563   5.634
 9676SOL    HW229928   1.965   3.683   5.667
 9677SOL     OW29929   6.988   5.590   4.632
 9677SOL    HW129930   7.012   5.655   4.560
 9677SOL    HW229931   6.905   5.621   4.678
 9678SOL     OW29932   2.915   3.823   3.528
 9678SOL    HW129933   2.923   3.725   3.545
 9678SOL    HW229934   2.899   3.839   3.431
 9679SOL     OW29935   3.435   1.136   3.183
 9679SOL    HW129936   3.521   1.099   3.218
 9679SOL    HW229937   3.392   1.193   3.253
 9680SOL     OW29938   4.778   1.035   2.876
 9680SOL    HW129939   4.816   1.091   2.803
 9680SOL    HW229940   4.713   0.969   2.837
 9681SOL     OW29941   2.543   1.748   0.814
 9681SOL    HW129942   2.547   1.665   0.758
 9681SOL    HW229943   2.490   1.731   0.897
 9682SOL     OW29944   4.695   4.314   3.670
 9682SOL    HW129945   4.699   4.386   3.739
 9682SOL    HW229946   4.601   4.282   3.661
 9683SOL     OW29947   3.083   5.629   1.325
 9683SOL    HW129948   3.153   5.617   1.396
 9683SOL    HW229949   3.101   5.713   1.275
 9684SOL     OW29950   0.601   3.150   6.286
 9684SOL    HW129951   0.631   3.182   6.376
 9684SOL    HW229952   0.542   3.070   6.297
 9685SOL     OW29953   3.475   4.486   1.294
 9685SOL    HW129954   3.412   4.435   1.354
 9685SOL    HW229955   3.526   4.421   1.238
 9686SOL     OW29956   0.178   2.110   0.157
 9686SOL    HW129957   0.155   2.032   0.099
 9686SOL    HW229958   0.121   2.108   0.240
 9687SOL     OW29959   1.798   0.952   4.036
 9687SOL    HW129960   1.744   1.012   4.094
 9687SOL    HW229961   1.895   0.968   4.052
 9688SOL     OW29962   1.179   3.439   2.555
 9688SOL    HW129963   1.091   3.468   2.594
 9688SOL    HW229964   1.183   3.466   2.459
 9689SOL     OW29965   0.861   4.788   5.953
 9689SOL    HW129966   0.789   4.764   6.018
 9689SOL    HW229967   0.916   4.863   5.989
 9690SOL     OW29968   6.244   5.085   6.751
 9690SOL    HW129969   6.162   5.064   6.804
 9690SOL    HW229970   6.321   5.032   6.787
 9691SOL     OW29971   3.412   5.065   0.953
 9691SOL    HW129972   3.504   5.030   0.937
 9691SOL    HW229973   3.391   5.058   1.051
 9692SOL     OW29974   3.394   5.833   2.336
 9692SOL    HW129975   3.377   5.736   2.323
 9692SOL    HW229976   3.477   5.845   2.391
 9693SOL     OW29977   5.810   4.496   2.322
 9693SOL    HW129978   5.853   4.586   2.334
 9693SOL    HW229979   5.847   4.432   2.389
 9694SOL     OW29980   2.472   0.798   0.711
 9694SOL    HW129981   2.549   0.736   0.727
 9694SOL    HW229982   2.403   0.784   0.781
 9695SOL     OW29983   6.482   3.128   3.348
 9695SOL    HW129984   6.389   3.161   3.335
 9695SOL    HW229985   6.545   3.181   3.291
 9696SOL     OW29986   5.508   3.262   1.140
 9696SOL    HW129987   5.533   3.280   1.045
 9696SOL    HW229988   5.415   3.292   1.156
 9697SOL     OW29989   0.435   5.175   0.065
 9697SOL    HW129990   0.466   5.113   7.010
 9697SOL    HW229991   0.407   5.262   0.025
 9698SOL     OW29992   4.459   2.058   6.281
 9698SOL    HW129993   4.384   2.041   6.216
 9698SOL    HW229994   4.510   1.973   6.295
 9699SOL     OW29995   6.301   5.482   0.058
 9699SOL    HW129996   6.247   5.523   0.132
 9699SOL    HW229997   6.337   5.394   0.088
 9700SOL     OW29998   4.748   5.610   4.997
 9700SOL    HW129999   4.711   5.679   4.935
 9700SOL    HW230000   4.757   5.649   5.089
 9701SOL     OW30001   4.541   5.014   5.981
 9701SOL    HW130002   4.633   4.996   5.948
 9701SOL    HW230003   4.482   4.936   5.961
 9702SOL     OW30004   4.704   0.381   6.555
 9702SOL    HW130005   4.729   0.356   6.649
 9702SOL    HW230006   4.784   0.421   6.509
 9703SOL     OW30007   4.921   3.779   3.854
 9703SOL    HW130008   4.927   3.739   3.945
 9703SOL    HW230009   5.001   3.754   3.800
 9704SOL     OW30010   3.567   0.262   1.923
 9704SOL    HW130011   3.590   0.255   1.826
 9704SOL    HW230012   3.481   0.213   1.941
 9705SOL     OW30013   5.358   4.435   5.776
 9705SOL    HW130014   5.422   4.510   5.757
 9705SOL    HW230015   5.284   4.437   5.708
 9706SOL     OW30016   1.490   3.368   0.364
 9706SOL    HW130017   1.461   3.457   0.330
 9706SOL    HW230018   1.428   3.338   0.437
 9707SOL     OW30019   6.632   4.645   2.249
 9707SOL    HW130020   6.668   4.737   2.232
 9707SOL    HW230021   6.564   4.623   2.179
 9708SOL     OW30022   1.661   1.840   4.227
 9708SOL    HW130023   1.739   1.792   4.189
 9708SOL    HW230024   1.669   1.938   4.207
 9709SOL     OW30025   5.346   6.769   3.019
 9709SOL    HW130026   5.421   6.765   2.953
 9709SOL    HW230027   5.259   6.755   2.972
 9710SOL     OW30028   6.907   1.831   1.507
 9710SOL    HW130029   6.996   1.784   1.504
 9710SOL    HW230030   6.835   1.768   1.478
 9711SOL     OW30031   3.106   5.460   5.739
 9711SOL    HW130032   3.076   5.369   5.768
 9711SOL    HW230033   3.176   5.452   5.668
 9712SOL     OW30034   5.534   3.865   6.809
 9712SOL    HW130035   5.625   3.880   6.847
 9712SOL    HW230036   5.516   3.930   6.736
 9713SOL     OW30037   0.953   4.632   3.226
 9713SOL    HW130038   0.867   4.597   3.264
 9713SOL    HW230039   0.949   4.732   3.221
 9714SOL     OW30040   4.343   6.107   6.547
 9714SOL    HW130041   4.409   6.179   6.569
 9714SOL    HW230042   4.389   6.035   6.494
 9715SOL     OW30043   5.780   3.806   6.527
 9715SOL    HW130044   5.785   3.859   6.611
 9715SOL    HW230045   5.778   3.868   6.448
 9716SOL     OW30046   3.846   4.611   6.878
 9716SOL    HW130047   3.822   4.542   6.947
 9716SOL    HW230048   3.942   4.635   6.887
 9717SOL     OW30049   5.569   5.840   6.017
 9717SOL    HW130050   5.616   5.920   6.055
 9717SOL    HW230051   5.596   5.758   6.068
 9718SOL     OW30052   4.784   3.057   6.967
 9718SOL    HW130053   4.696   3.091   7.000
 9718SOL    HW230054   4.858   3.094   0.006
 9719SOL     OW30055   6.078   1.415   5.767
 9719SOL    HW130056   5.987   1.457   5.760
 9719SOL    HW230057   6.078   1.349   5.843
 9720SOL     OW30058   6.787   5.264   1.621
 9720SOL    HW130059   6.771   5.352   1.576
 9720SOL    HW230060   6.860   5.215   1.574
 9721SOL     OW30061   6.868   1.543   0.807
 9721SOL    HW130062   6.855   1.495   0.721
 9721SOL    HW230063   6.927   1.623   0.793
 9722SOL     OW30064   5.631   0.949   4.084
 9722SOL    HW130065   5.632   0.986   3.991
 9722SOL    HW230066   5.721   0.910   4.105
 9723SOL     OW30067   2.499   6.738   2.729
 9723SOL    HW130068   2.449   6.652   2.717
 9723SOL    HW230069   2.463   6.807   2.665
 9724SOL     OW30070   1.687   4.656   0.260
 9724SOL    HW130071   1.722   4.581   0.315
 9724SOL    HW230072   1.734   4.741   0.285
 9725SOL     OW30073   3.917   4.878   6.411
 9725SOL    HW130074   3.951   4.864   6.504
 9725SOL    HW230075   3.818   4.891   6.413
 9726SOL     OW30076   5.253   1.359   3.952
 9726SOL    HW130077   5.324   1.415   3.995
 9726SOL    HW230078   5.286   1.265   3.944
 9727SOL     OW30079   1.129   2.919   6.575
 9727SOL    HW130080   1.055   2.866   6.534
 9727SOL    HW230081   1.134   2.898   6.673
 9728SOL     OW30082   0.756   1.030   5.681
 9728SOL    HW130083   0.820   0.989   5.616
 9728SOL    HW230084   0.773   1.128   5.687
 9729SOL     OW30085   0.944   4.118   3.617
 9729SOL    HW130086   1.029   4.169   3.601
 9729SOL    HW230087   0.954   4.061   3.698
 9730SOL     OW30088   1.121   4.072   3.870
 9730SOL    HW130089   1.194   4.101   3.807
 9730SOL    HW230090   1.101   4.146   3.934
 9731SOL     OW30091   4.802   4.410   0.859
 9731SOL    HW130092   4.790   4.350   0.780
 9731SOL    HW230093   4.745   4.491   0.848
 9732SOL     OW30094   6.826   5.841   3.181
 9732SOL    HW130095   6.886   5.913   3.147
 9732SOL    HW230096   6.819   5.768   3.112
 9733SOL     OW30097   5.900   4.943   0.486
 9733SOL    HW130098   5.936   5.023   0.535
 9733SOL    HW230099   5.977   4.888   0.452
 9734SOL     OW30100   6.791   1.857   1.748
 9734SOL    HW130101   6.847   1.880   1.828
 9734SOL    HW230102   6.851   1.830   1.672
 9735SOL     OW30103   1.919   4.064   4.294
 9735SOL    HW130104   1.958   4.001   4.227
 9735SOL    HW230105   1.967   4.151   4.290
 9736SOL     OW30106   6.527   1.648   6.626
 9736SOL    HW130107   6.499   1.688   6.713
 9736SOL    HW230108   6.460   1.581   6.596
 9737SOL     OW30109   5.250   2.872   3.212
 9737SOL    HW130110   5.203   2.957   3.235
 9737SOL    HW230111   5.191   2.816   3.154
 9738SOL     OW30112   1.591   0.110   0.922
 9738SOL    HW130113   1.528   0.100   0.999
 9738SOL    HW230114   1.540   0.140   0.841
 9739SOL     OW30115   5.826   4.942   2.032
 9739SOL    HW130116   5.925   4.952   2.042
 9739SOL    HW230117   5.782   4.945   2.122
 9740SOL     OW30118   6.710   1.711   3.312
 9740SOL    HW130119   6.665   1.719   3.223
 9740SOL    HW230120   6.663   1.641   3.366
 9741SOL     OW30121   4.029   1.019   2.605
 9741SOL    HW130122   4.013   1.116   2.626
 9741SOL    HW230123   4.113   1.010   2.551
 9742SOL     OW30124   4.076   0.506   0.812
 9742SOL    HW130125   4.173   0.494   0.834
 9742SOL    HW230126   4.021   0.458   0.880
 9743SOL     OW30127   6.949   2.660   4.920
 9743SOL    HW130128   6.961   2.758   4.902
 9743SOL    HW230129   6.882   2.623   4.856
 9744SOL     OW30130   1.657   6.818   2.403
 9744SOL    HW130131   1.689   6.725   2.424
 9744SOL    HW230132   1.723   6.885   2.436
 9745SOL     OW30133   5.058   3.075   6.164
 9745SOL    HW130134   5.108   3.078   6.251
 9745SOL    HW230135   5.031   3.168   6.138
 9746SOL     OW30136   6.503   0.276   5.948
 9746SOL    HW130137   6.563   0.334   6.004
 9746SOL    HW230138   6.468   0.201   6.004
 9747SOL     OW30139   2.687   1.037   1.753
 9747SOL    HW130140   2.754   0.963   1.757
 9747SOL    HW230141   2.596   1.000   1.733
 9748SOL     OW30142   0.155   1.095   3.610
 9748SOL    HW130143   0.255   1.095   3.608
 9748SOL    HW230144   0.123   1.184   3.644
 9749SOL     OW30145   2.444   0.415   4.686
 9749SOL    HW130146   2.453   0.322   4.651
 9749SOL    HW230147   2.502   0.477   4.633
 9750SOL     OW30148   5.521   3.971   3.218
 9750SOL    HW130149   5.593   4.035   3.245
 9750SOL    HW230150   5.477   3.935   3.300
 9751SOL     OW30151   1.494   0.410   1.025
 9751SOL    HW130152   1.534   0.326   1.061
 9751SOL    HW230153   1.501   0.410   0.925
 9752SOL     OW30154   4.546   2.214   5.369
 9752SOL    HW130155   4.643   2.190   5.362
 9752SOL    HW230156   4.500   2.150   5.430
 9753SOL     OW30157   6.027   5.615   6.312
 9753SOL    HW130158   6.078   5.675   6.373
 9753SOL    HW230159   6.046   5.520   6.336
 9754SOL     OW30160   1.621   1.210   6.578
 9754SOL    HW130161   1.543   1.185   6.636
 9754SOL    HW230162   1.650   1.129   6.525
 9755SOL     OW30163   3.128   3.556   4.631
 9755SOL    HW130164   3.162   3.647   4.652
 9755SOL    HW230165   3.032   3.549   4.658
 9756SOL     OW30166   6.644   3.681   0.897
 9756SOL    HW130167   6.617   3.589   0.869
 9756SOL    HW230168   6.574   3.719   0.958
 9757SOL     OW30169   5.708   3.636   4.237
 9757SOL    HW130170   5.619   3.680   4.248
 9757SOL    HW230171   5.695   3.536   4.233
 9758SOL     OW30172   2.709   6.965   6.895
 9758SOL    HW130173   2.728   6.930   6.803
 9758SOL    HW230174   2.638   0.017   6.889
 9759SOL     OW30175   1.160   0.432   0.143
 9759SOL    HW130176   1.164   0.372   0.063
 9759SOL    HW230177   1.247   0.427   0.193
 9760SOL     OW30178   4.632   2.804   4.858
 9760SOL    HW130179   4.590   2.713   4.860
 9760SOL    HW230180   4.588   2.863   4.925
 9761SOL     OW30181   6.129   1.465   2.434
 9761SOL    HW130182   6.129   1.372   2.397
 9761SOL    HW230183   6.051   1.476   2.495
 9762SOL     OW30184   3.242   0.967   4.547
 9762SOL    HW130185   3.194   1.032   4.487
 9762SOL    HW230186   3.337   0.995   4.556
 9763SOL     OW30187   5.535   2.056   1.906
 9763SOL    HW130188   5.503   1.993   1.835
 9763SOL    HW230189   5.456   2.095   1.954
 9764SOL     OW30190   7.010   2.544   3.041
 9764SOL    HW130191   7.011   2.552   3.141
 9764SOL    HW230192   6.944   2.608   3.003
 9765SOL     OW30193   6.844   0.435   3.764
 9765SOL    HW130194   6.800   0.401   3.681
 9765SOL    HW230195   6.878   0.528   3.748
 9766SOL     OW30196   3.220   6.656   2.526
 9766SOL    HW130197   3.224   6.748   2.565
 9766SOL    HW230198   3.313   6.625   2.505
 9767SOL     OW30199   4.823   0.689   4.871
 9767SOL    HW130200   4.835   0.780   4.830
 9767SOL    HW230201   4.832   0.619   4.800
 9768SOL     OW30202   5.920   1.507   2.601
 9768SOL    HW130203   5.895   1.462   2.687
 9768SOL    HW230204   5.943   1.602   2.618
 9769SOL     OW30205   3.986   0.997   3.107
 9769SOL    HW130206   3.908   1.017   3.048
 9769SOL    HW230207   3.958   0.934   3.180
 9770SOL     OW30208   5.250   1.035   6.544
 9770SOL    HW130209   5.259   1.086   6.458
 9770SOL    HW230210   5.169   0.977   6.540
 9771SOL     OW30211   2.952   5.861   0.287
 9771SOL    HW130212   2.879   5.929   0.297
 9771SOL    HW230213   2.913   5.769   0.297
 9772SOL     OW30214   1.992   6.577   2.148
 9772SOL    HW130215   2.072   6.620   2.107
 9772SOL    HW230216   2.011   6.555   2.244
 9773SOL     OW30217   5.323   5.302   4.147
 9773SOL    HW130218   5.265   5.378   4.177
 9773SOL    HW230219   5.360   5.321   4.057
 9774SOL     OW30220   0.280   5.048   2.455
 9774SOL    HW130221   0.306   5.143   2.439
 9774SOL    HW230222   0.259   5.004   2.368
 9775SOL     OW30223   2.841   0.399   3.146
 9775SOL    HW130224   2.925   0.432   3.189
 9775SOL    HW230225   2.821   0.307   3.179
 9776SOL     OW30226   1.966   4.293   4.667
 9776SOL    HW130227   2.015   4.209   4.640
 9776SOL    HW230228   2.020   4.342   4.735
 9777SOL     OW30229   6.449   5.769   6.644
 9777SOL    HW130230   6.451   5.670   6.657
 9777SOL    HW230231   6.514   5.795   6.572
 9778SOL     OW30232   0.276   0.795   3.826
 9778SOL    HW130233   0.276   0.780   3.925
 9778SOL    HW230234   0.197   0.852   3.801
 9779SOL     OW30235   1.581   1.629   4.899
 9779SOL    HW130236   1.574   1.586   4.990
 9779SOL    HW230237   1.547   1.565   4.830
 9780SOL     OW30238   2.583   1.683   1.384
 9780SOL    HW130239   2.630   1.768   1.357
 9780SOL    HW230240   2.572   1.625   1.304
 9781SOL     OW30241   2.092   4.009   4.548
 9781SOL    HW130242   2.013   3.958   4.515
 9781SOL    HW230243   2.096   4.003   4.648
 9782SOL     OW30244   6.747   1.526   1.172
 9782SOL    HW130245   6.707   1.581   1.099
 9782SOL    HW230246   6.722   1.430   1.158
 9783SOL     OW30247   4.470   2.533   3.054
 9783SOL    HW130248   4.501   2.621   3.016
 9783SOL    HW230249   4.379   2.512   3.020
 9784SOL     OW30250   3.912   1.051   4.463
 9784SOL    HW130251   3.892   1.074   4.368
 9784SOL    HW230252   3.937   1.134   4.513
 9785SOL     OW30253   0.637   3.224   5.816
 9785SOL    HW130254   0.680   3.303   5.772
 9785SOL    HW230255   0.538   3.239   5.821
 9786SOL     OW30256   2.068   4.524   0.256
 9786SOL    HW130257   2.147   4.578   0.227
 9786SOL    HW230258   2.008   4.581   0.312
 9787SOL     OW30259   4.711   4.231   1.739
 9787SOL    HW130260   4.777   4.268   1.804
 9787SOL    HW230261   4.619   4.242   1.776
 9788SOL     OW30262   0.474   0.879   3.638
 9788SOL    HW130263   0.441   0.838   3.722
 9788SOL    HW230264   0.467   0.979   3.645
 9789SOL     OW30265   0.999   5.466   1.199
 9789SOL    HW130266   1.004   5.439   1.295
 9789SOL    HW230267   0.926   5.532   1.186
 9790SOL     OW30268   5.893   4.855   6.718
 9790SOL    HW130269   5.953   4.878   6.795
 9790SOL    HW230270   5.850   4.939   6.683
 9791SOL     OW30271   0.952   1.416   2.113
 9791SOL    HW130272   1.033   1.414   2.172
 9791SOL    HW230273   0.978   1.448   2.022
 9792SOL     OW30274   4.457   4.934   0.889
 9792SOL    HW130275   4.503   4.849   0.913
 9792SOL    HW230276   4.358   4.921   0.889
 9793SOL     OW30277   4.565   6.243   3.245
 9793SOL    HW130278   4.659   6.257   3.215
 9793SOL    HW230279   4.556   6.271   3.341
 9794SOL     OW30280   0.128   4.526   0.886
 9794SOL    HW130281   0.140   4.521   0.787
 9794SOL    HW230282   0.210   4.566   0.927
 9795SOL     OW30283   2.480   1.852   4.508
 9795SOL    HW130284   2.536   1.836   4.427
 9795SOL    HW230285   2.529   1.820   4.589
 9796SOL     OW30286   3.562   2.173   1.451
 9796SOL    HW130287   3.493   2.158   1.381
 9796SOL    HW230288   3.552   2.102   1.522
 9797SOL     OW30289   2.566   5.239   6.218
 9797SOL    HW130290   2.536   5.174   6.149
 9797SOL    HW230291   2.617   5.313   6.175
 9798SOL     OW30292   3.440   0.495   1.664
 9798SOL    HW130293   3.518   0.499   1.726
 9798SOL    HW230294   3.375   0.568   1.686
 9799SOL     OW30295   4.108   3.590   4.321
 9799SOL    HW130296   4.153   3.522   4.263
 9799SOL    HW230297   4.118   3.563   4.417
 9800SOL     OW30298   3.933   6.464   4.744
 9800SOL    HW130299   3.884   6.459   4.831
 9800SOL    HW230300   4.020   6.415   4.752
 9801SOL     OW30301   4.919   3.844   6.832
 9801SOL    HW130302   4.841   3.883   6.782
 9801SOL    HW230303   4.963   3.775   6.775
 9802SOL     OW30304   0.113   3.620   1.634
 9802SOL    HW130305   0.102   3.661   1.543
 9802SOL    HW230306   0.174   3.677   1.689
 9803SOL     OW30307   1.001   2.070   0.019
 9803SOL    HW130308   1.036   2.127   0.094
 9803SOL    HW230309   1.078   2.022   6.995
 9804SOL     OW30310   1.523   0.055   2.579
 9804SOL    HW130311   1.475   0.044   2.666
 9804SOL    HW230312   1.530   6.985   2.533
 9805SOL     OW30313   1.087   0.392   4.993
 9805SOL    HW130314   1.145   0.447   5.053
 9805SOL    HW230315   1.119   0.401   4.899
 9806SOL     OW30316   1.291   1.017   0.485
 9806SOL    HW130317   1.360   0.948   0.510
 9806SOL    HW230318   1.292   1.090   0.553
 9807SOL     OW30319   2.706   3.856   0.377
 9807SOL    HW130320   2.712   3.805   0.291
 9807SOL    HW230321   2.703   3.954   0.357
 9808SOL     OW30322   4.457   0.617   5.534
 9808SOL    HW130323   4.515   0.697   5.550
 9808SOL    HW230324   4.515   0.538   5.512
 9809SOL     OW30325   0.760   2.425   6.918
 9809SOL    HW130326   0.771   2.408   6.820
 9809SOL    HW230327   0.829   2.490   6.949
 9810SOL     OW30328   2.235   2.997   3.663
 9810SOL    HW130329   2.211   3.081   3.712
 9810SOL    HW230330   2.153   2.942   3.649
 9811SOL     OW30331   5.776   4.541   3.694
 9811SOL    HW130332   5.762   4.553   3.792
 9811SOL    HW230333   5.852   4.599   3.663
 9812SOL     OW30334   3.495   2.210   5.816
 9812SOL    HW130335   3.444   2.125   5.801
 9812SOL    HW230336   3.583   2.206   5.770
 9813SOL     OW30337   5.400   1.229   0.398
 9813SOL    HW130338   5.318   1.174   0.383
 9813SOL    HW230339   5.480   1.179   0.365
 9814SOL     OW30340   0.040   0.385   0.257
 9814SOL    HW130341   6.994   0.431   0.195
 9814SOL    HW230342   7.007   0.340   0.330
 9815SOL     OW30343   5.540   3.601   3.315
 9815SOL    HW130344   5.526   3.588   3.413
 9815SOL    HW230345   5.607   3.673   3.299
 9816SOL     OW30346   6.901   0.920   6.371
 9816SOL    HW130347   6.907   0.948   6.275
 9816SOL    HW230348   6.991   0.928   6.414
 9817SOL     OW30349   2.860   6.550   2.819
 9817SOL    HW130350   2.826   6.540   2.726
 9817SOL    HW230351   2.821   6.478   2.877
 9818SOL     OW30352   1.463   1.183   5.071
 9818SOL    HW130353   1.476   1.267   5.123
 9818SOL    HW230354   1.379   1.189   5.018
 9819SOL     OW30355   4.716   2.754   4.145
 9819SOL    HW130356   4.809   2.730   4.172
 9819SOL    HW230357   4.706   2.746   4.046
 9820SOL     OW30358   4.506   3.160   6.286
 9820SOL    HW130359   4.536   3.192   6.376
 9820SOL    HW230360   4.416   3.119   6.294
 9821SOL     OW30361   5.382   0.469   0.497
 9821SOL    HW130362   5.290   0.505   0.509
 9821SOL    HW230363   5.394   0.439   0.402
 9822SOL     OW30364   2.657   6.046   3.596
 9822SOL    HW130365   2.747   6.063   3.554
 9822SOL    HW230366   2.664   6.059   3.695
 9823SOL     OW30367   2.635   0.339   0.706
 9823SOL    HW130368   2.646   0.284   0.789
 9823SOL    HW230369   2.552   0.311   0.658
 9824SOL     OW30370   2.054   5.222   3.940
 9824SOL    HW130371   2.150   5.194   3.943
 9824SOL    HW230372   1.996   5.141   3.933
 9825SOL     OW30373   5.548   6.203   4.294
 9825SOL    HW130374   5.490   6.182   4.373
 9825SOL    HW230375   5.636   6.237   4.327
 9826SOL     OW30376   4.036   5.424   5.559
 9826SOL    HW130377   4.027   5.490   5.633
 9826SOL    HW230378   3.965   5.354   5.568
 9827SOL     OW30379   1.777   4.390   4.103
 9827SOL    HW130380   1.744   4.480   4.132
 9827SOL    HW230381   1.701   4.325   4.104
 9828SOL     OW30382   2.995   2.441   5.399
 9828SOL    HW130383   3.054   2.434   5.318
 9828SOL    HW230384   2.956   2.351   5.419
 9829SOL     OW30385   4.426   5.298   6.339
 9829SOL    HW130386   4.506   5.238   6.337
 9829SOL    HW230387   4.450   5.385   6.383
 9830SOL     OW30388   5.151   1.477   2.033
 9830SOL    HW130389   5.243   1.497   2.000
 9830SOL    HW230390   5.142   1.379   2.049
 9831SOL     OW30391   0.957   5.023   2.408
 9831SOL    HW130392   1.049   5.005   2.443
 9831SOL    HW230393   0.946   5.122   2.395
 9832SOL     OW30394   5.247   5.365   2.546
 9832SOL    HW130395   5.286   5.425   2.477
 9832SOL    HW230396   5.248   5.411   2.635
 9833SOL     OW30397   3.398   3.394   4.273
 9833SOL    HW130398   3.461   3.452   4.325
 9833SOL    HW230399   3.319   3.448   4.243
 9834SOL     OW30400   2.516   4.476   5.192
 9834SOL    HW130401   2.475   4.525   5.269
 9834SOL    HW230402   2.476   4.385   5.186
 9835SOL     OW30403   3.260   3.328   4.641
 9835SOL    HW130404   3.341   3.325   4.583
 9835SOL    HW230405   3.217   3.418   4.632
 9836SOL     OW30406   0.378   3.887   3.882
 9836SOL    HW130407   0.349   3.792   3.871
 9836SOL    HW230408   0.434   3.914   3.804
 9837SOL     OW30409   4.128   0.993   2.209
 9837SOL    HW130410   4.171   1.029   2.292
 9837SOL    HW230411   4.029   0.987   2.222
 9838SOL     OW30412   1.469   6.663   0.398
 9838SOL    HW130413   1.535   6.589   0.385
 9838SOL    HW230414   1.494   6.717   0.478
 9839SOL     OW30415   5.276   6.770   3.825
 9839SOL    HW130416   5.261   6.866   3.850
 9839SOL    HW230417   5.374   6.751   3.822
 9840SOL     OW30418   6.007   1.805   0.752
 9840SOL    HW130419   6.067   1.838   0.679
 9840SOL    HW230420   6.062   1.783   0.833
 9841SOL     OW30421   1.394   4.306   5.044
 9841SOL    HW130422   1.333   4.296   5.122
 9841SOL    HW230423   1.340   4.311   4.960
 9842SOL     OW30424   3.501   3.084   1.220
 9842SOL    HW130425   3.447   3.012   1.263
 9842SOL    HW230426   3.496   3.167   1.276
 9843SOL     OW30427   6.941   0.614   3.097
 9843SOL    HW130428   6.947   0.674   3.018
 9843SOL    HW230429   6.849   0.576   3.104
 9844SOL     OW30430   6.166   1.275   3.694
 9844SOL    HW130431   6.135   1.367   3.720
 9844SOL    HW230432   6.262   1.264   3.719
 9845SOL     OW30433   2.281   2.588   3.743
 9845SOL    HW130434   2.302   2.572   3.839
 9845SOL    HW230435   2.184   2.568   3.726
 9846SOL     OW30436   3.330   2.566   1.530
 9846SOL    HW130437   3.290   2.612   1.609
 9846SOL    HW230438   3.419   2.528   1.555
 9847SOL     OW30439   3.746   2.954   2.897
 9847SOL    HW130440   3.649   2.932   2.907
 9847SOL    HW230441   3.784   2.978   2.987
 9848SOL     OW30442   4.238   3.621   5.102
 9848SOL    HW130443   4.223   3.705   5.154
 9848SOL    HW230444   4.337   3.607   5.090
 9849SOL     OW30445   0.949   0.211   6.154
 9849SOL    HW130446   0.896   0.232   6.072
 9849SOL    HW230447   1.043   0.188   6.128
 9850SOL     OW30448   6.721   0.148   3.914
 9850SOL    HW130449   6.723   0.061   3.865
 9850SOL    HW230450   6.671   0.216   3.861
 9851SOL     OW30451   0.776   0.376   3.974
 9851SOL    HW130452   0.772   0.306   4.044
 9851SOL    HW230453   0.684   0.408   3.953
 9852SOL     OW30454   2.658   1.784   4.309
 9852SOL    HW130455   2.754   1.810   4.320
 9852SOL    HW230456   2.653   1.689   4.277
 9853SOL     OW30457   5.562   3.192   5.235
 9853SOL    HW130458   5.578   3.095   5.249
 9853SOL    HW230459   5.593   3.218   5.143
 9854SOL     OW30460   7.017   6.298   4.399
 9854SOL    HW130461   0.076   6.247   4.360
 9854SOL    HW230462   0.024   6.394   4.409
 9855SOL     OW30463   1.756   3.404   1.658
 9855SOL    HW130464   1.843   3.360   1.637
 9855SOL    HW230465   1.686   3.335   1.673
 9856SOL     OW30466   4.669   4.263   4.430
 9856SOL    HW130467   4.700   4.261   4.525
 9856SOL    HW230468   4.606   4.340   4.417
 9857SOL     OW30469   4.783   2.617   2.442
 9857SOL    HW130470   4.740   2.558   2.374
 9857SOL    HW230471   4.810   2.703   2.400
 9858SOL     OW30472   6.773   6.717   1.549
 9858SOL    HW130473   6.816   6.739   1.637
 9858SOL    HW230474   6.823   6.763   1.476
 9859SOL     OW30475   6.307   6.001   3.034
 9859SOL    HW130476   6.235   6.009   2.966
 9859SOL    HW230477   6.333   6.092   3.066
 9860SOL     OW30478   2.280   2.340   4.305
 9860SOL    HW130479   2.248   2.343   4.211
 9860SOL    HW230480   2.299   2.245   4.331
 9861SOL     OW30481   2.842   0.407   2.827
 9861SOL    HW130482   2.804   0.477   2.886
 9861SOL    HW230483   2.935   0.383   2.858
 9862SOL     OW30484   2.693   3.269   0.011
 9862SOL    HW130485   2.643   3.185   0.033
 9862SOL    HW230486   2.761   3.287   0.082
 9863SOL     OW30487   3.151   5.756   1.975
 9863SOL    HW130488   3.126   5.774   2.070
 9863SOL    HW230489   3.223   5.687   1.971
 9864SOL     OW30490   3.341   0.716   3.990
 9864SOL    HW130491   3.329   0.781   4.065
 9864SOL    HW230492   3.388   0.634   4.023
 9865SOL     OW30493   1.140   6.952   4.775
 9865SOL    HW130494   1.190   0.016   4.747
 9865SOL    HW230495   1.185   6.871   4.739
 9866SOL     OW30496   5.557   5.193   6.091
 9866SOL    HW130497   5.607   5.112   6.061
 9866SOL    HW230498   5.621   5.267   6.108
 9867SOL     OW30499   6.605   2.043   1.659
 9867SOL    HW130500   6.602   2.054   1.560
 9867SOL    HW230501   6.675   1.975   1.683
 9868SOL     OW30502   0.464   2.867   4.712
 9868SOL    HW130503   0.423   2.866   4.803
 9868SOL    HW230504   0.398   2.902   4.646
 9869SOL     OW30505   0.392   2.153   1.530
 9869SOL    HW130506   0.446   2.217   1.585
 9869SOL    HW230507   0.359   2.199   1.447
 9870SOL     OW30508   3.899   5.639   2.902
 9870SOL    HW130509   3.879   5.731   2.867
 9870SOL    HW230510   3.818   5.581   2.894
 9871SOL     OW30511   6.267   4.622   6.071
 9871SOL    HW130512   6.288   4.578   6.158
 9871SOL    HW230513   6.314   4.572   5.997
 9872SOL     OW30514   3.726   5.871   5.133
 9872SOL    HW130515   3.741   5.877   5.232
 9872SOL    HW230516   3.672   5.789   5.113
 9873SOL     OW30517   2.150   2.851   0.646
 9873SOL    HW130518   2.098   2.934   0.669
 9873SOL    HW230519   2.214   2.870   0.572
 9874SOL     OW30520   6.792   2.877   5.405
 9874SOL    HW130521   6.757   2.879   5.499
 9874SOL    HW230522   6.892   2.870   5.406
 9875SOL     OW30523   6.124   5.690   2.553
 9875SOL    HW130524   6.212   5.730   2.575
 9875SOL    HW230525   6.051   5.744   2.593
 9876SOL     OW30526   5.181   6.977   4.703
 9876SOL    HW130527   5.206   6.890   4.660
 9876SOL    HW230528   5.192   6.970   4.802
 9877SOL     OW30529   0.027   4.719   4.100
 9877SOL    HW130530   0.017   4.777   4.019
 9877SOL    HW230531   0.114   4.670   4.095
 9878SOL     OW30532   3.169   3.323   6.189
 9878SOL    HW130533   3.169   3.318   6.289
 9878SOL    HW230534   3.076   3.315   6.155
 9879SOL     OW30535   5.353   5.188   5.821
 9879SOL    HW130536   5.389   5.270   5.866
 9879SOL    HW230537   5.253   5.189   5.825
 9880SOL     OW30538   3.015   1.005   0.923
 9880SOL    HW130539   2.994   1.009   1.021
 9880SOL    HW230540   3.098   0.950   0.910
 9881SOL     OW30541   6.761   1.407   4.776
 9881SOL    HW130542   6.750   1.307   4.774
 9881SOL    HW230543   6.792   1.439   4.687
 9882SOL     OW30544   2.552   3.712   5.785
 9882SOL    HW130545   2.506   3.662   5.858
 9882SOL    HW230546   2.563   3.808   5.812
 9883SOL     OW30547   0.716   6.475   0.799
 9883SOL    HW130548   0.630   6.433   0.828
 9883SOL    HW230549   0.738   6.552   0.859
 9884SOL     OW30550   4.415   1.603   0.611
 9884SOL    HW130551   4.345   1.580   0.678
 9884SOL    HW230552   4.456   1.692   0.632
 9885SOL     OW30553   0.361   3.044   4.509
 9885SOL    HW130554   0.277   2.989   4.506
 9885SOL    HW230555   0.376   3.086   4.419
 9886SOL     OW30556   0.760   6.017   1.128
 9886SOL    HW130557   0.755   6.036   1.029
 9886SOL    HW230558   0.803   5.928   1.143
 9887SOL     OW30559   4.091   0.044   6.898
 9887SOL    HW130560   4.190   0.037   6.885
 9887SOL    HW230561   4.044   0.012   6.815
 9888SOL     OW30562   5.756   4.997   3.381
 9888SOL    HW130563   5.660   5.024   3.385
 9888SOL    HW230564   5.791   5.012   3.288
 9889SOL     OW30565   6.677   4.206   2.151
 9889SOL    HW130566   6.680   4.142   2.074
 9889SOL    HW230567   6.714   4.161   2.232
 9890SOL     OW30568   0.739   2.050   1.215
 9890SOL    HW130569   0.649   2.013   1.192
 9890SOL    HW230570   0.758   2.034   1.312
 9891SOL     OW30571   6.182   3.870   1.444
 9891SOL    HW130572   6.217   3.786   1.488
 9891SOL    HW230573   6.127   3.845   1.365
 9892SOL     OW30574   1.430   5.645   3.164
 9892SOL    HW130575   1.419   5.639   3.065
 9892SOL    HW230576   1.501   5.711   3.186
 9893SOL     OW30577   6.623   0.132   2.309
 9893SOL    HW130578   6.664   0.050   2.350
 9893SOL    HW230579   6.562   0.104   2.234
 9894SOL     OW30580   2.629   1.625   6.328
 9894SOL    HW130581   2.634   1.525   6.324
 9894SOL    HW230582   2.608   1.654   6.421
 9895SOL     OW30583   5.558   3.110   5.600
 9895SOL    HW130584   5.634   3.140   5.542
 9895SOL    HW230585   5.593   3.076   5.687
 9896SOL     OW30586   5.130   1.973   0.506
 9896SOL    HW130587   5.067   1.917   0.559
 9896SOL    HW230588   5.184   1.915   0.445
 9897SOL     OW30589   4.849   6.806   2.705
 9897SOL    HW130590   4.869   6.900   2.677
 9897SOL    HW230591   4.930   6.767   2.748
 9898SOL     OW30592   0.502   4.733   5.709
 9898SOL    HW130593   0.413   4.687   5.701
 9898SOL    HW230594   0.536   4.723   5.802
 9899SOL     OW30595   0.062   5.947   2.452
 9899SOL    HW130596   0.044   5.997   2.537
 9899SOL    HW230597   0.012   5.860   2.453
 9900SOL     OW30598   1.869   3.076   2.906
 9900SOL    HW130599   1.790   3.090   2.847
 9900SOL    HW230600   1.839   3.063   3.000
 9901SOL     OW30601   2.365   1.063   0.311
 9901SOL    HW130602   2.441   1.113   0.270
 9901SOL    HW230603   2.394   0.970   0.334
 9902SOL     OW30604   4.532   3.708   1.000
 9902SOL    HW130605   4.562   3.801   1.022
 9902SOL    HW230606   4.527   3.697   0.901
 9903SOL     OW30607   5.242   0.314   1.510
 9903SOL    HW130608   5.270   0.325   1.606
 9903SOL    HW230609   5.285   0.386   1.456
 9904SOL     OW30610   6.942   3.735   6.317
 9904SOL    HW130611   7.003   3.809   6.291
 9904SOL    HW230612   6.995   3.661   6.359
 9905SOL     OW30613   1.634   0.136   6.552
 9905SOL    HW130614   1.558   0.196   6.578
 9905SOL    HW230615   1.681   0.175   6.473
 9906SOL     OW30616   2.283   3.885   6.777
 9906SOL    HW130617   2.226   3.831   6.839
 9906SOL    HW230618   2.328   3.959   6.829
 9907SOL     OW30619   1.364   0.870   3.005
 9907SOL    HW130620   1.425   0.949   2.996
 9907SOL    HW230621   1.388   0.819   3.088
 9908SOL     OW30622   0.919   3.416   5.768
 9908SOL    HW130623   0.954   3.323   5.760
 9908SOL    HW230624   0.995   3.479   5.787
 9909SOL     OW30625   3.971   0.757   2.683
 9909SOL    HW130626   3.881   0.739   2.644
 9909SOL    HW230627   3.996   0.853   2.666
 9910SOL     OW30628   1.107   5.259   1.828
 9910SOL    HW130629   1.140   5.181   1.774
 9910SOL    HW230630   1.174   5.333   1.824
 9911SOL     OW30631   3.926   5.919   1.916
 9911SOL    HW130632   3.928   5.834   1.864
 9911SOL    HW230633   3.844   5.971   1.892
 9912SOL     OW30634   4.088   1.111   1.491
 9912SOL    HW130635   4.153   1.174   1.448
 9912SOL    HW230636   4.037   1.160   1.562
 9913SOL     OW30637   6.531   3.479   1.300
 9913SOL    HW130638   6.595   3.403   1.314
 9913SOL    HW230639   6.554   3.554   1.361
 9914SOL     OW30640   0.687   0.218   4.969
 9914SOL    HW130641   0.604   0.253   5.013
 9914SOL    HW230642   0.663   0.148   4.902
 9915SOL     OW30643   5.076   2.325   3.469
 9915SOL    HW130644   5.078   2.344   3.371
 9915SOL    HW230645   5.034   2.402   3.517
 9916SOL     OW30646   1.999   2.012   3.347
 9916SOL    HW130647   2.025   2.031   3.252
 9916SOL    HW230648   1.956   2.093   3.387
 9917SOL     OW30649   3.471   3.585   4.545
 9917SOL    HW130650   3.513   3.639   4.618
 9917SOL    HW230651   3.383   3.624   4.521
 9918SOL     OW30652   1.036   2.350   1.869
 9918SOL    HW130653   1.016   2.437   1.823
 9918SOL    HW230654   1.001   2.353   1.963
 9919SOL     OW30655   2.711   6.013   1.750
 9919SOL    HW130656   2.773   6.078   1.708
 9919SOL    HW230657   2.648   5.977   1.681
 9920SOL     OW30658   4.057   6.829   2.131
 9920SOL    HW130659   4.153   6.812   2.153
 9920SOL    HW230660   4.046   6.837   2.032
 9921SOL     OW30661   4.530   6.814   4.585
 9921SOL    HW130662   4.506   6.736   4.526
 9921SOL    HW230663   4.627   6.835   4.574
 9922SOL     OW30664   4.945   4.527   1.163
 9922SOL    HW130665   4.940   4.445   1.221
 9922SOL    HW230666   5.018   4.587   1.195
 9923SOL     OW30667   6.846   3.198   0.120
 9923SOL    HW130668   6.867   3.129   0.050
 9923SOL    HW230669   6.932   3.239   0.152
 9924SOL     OW30670   4.682   1.964   2.970
 9924SOL    HW130671   4.736   2.046   2.991
 9924SOL    HW230672   4.625   1.981   2.890
 9925SOL     OW30673   1.341   4.674   3.682
 9925SOL    HW130674   1.394   4.651   3.764
 9925SOL    HW230675   1.309   4.769   3.688
 9926SOL     OW30676   3.192   2.531   0.559
 9926SOL    HW130677   3.203   2.562   0.464
 9926SOL    HW230678   3.243   2.446   0.572
 9927SOL     OW30679   1.295   1.683   0.999
 9927SOL    HW130680   1.290   1.606   0.934
 9927SOL    HW230681   1.235   1.757   0.967
 9928SOL     OW30682   5.259   3.858   2.943
 9928SOL    HW130683   5.211   3.780   2.902
 9928SOL    HW230684   5.193   3.920   2.985
 9929SOL     OW30685   3.235   4.163   4.651
 9929SOL    HW130686   3.218   4.108   4.569
 9929SOL    HW230687   3.215   4.259   4.632
 9930SOL     OW30688   0.895   0.481   6.241
 9930SOL    HW130689   0.858   0.512   6.154
 9930SOL    HW230690   0.916   0.383   6.237
 9931SOL     OW30691   6.867   5.553   4.153
 9931SOL    HW130692   6.818   5.490   4.214
 9931SOL    HW230693   6.876   5.642   4.198
 9932SOL     OW30694   2.410   2.114   6.603
 9932SOL    HW130695   2.462   2.149   6.681
 9932SOL    HW230696   2.451   2.029   6.570
 9933SOL     OW30697   1.697   1.217   4.200
 9933SOL    HW130698   1.609   1.173   4.214
 9933SOL    HW230699   1.752   1.211   4.283
 9934SOL     OW30700   6.339   1.953   0.244
 9934SOL    HW130701   6.267   1.920   0.183
 9934SOL    HW230702   6.299   2.016   0.311
 9935SOL     OW30703   2.887   0.699   0.868
 9935SOL    HW130704   2.950   0.708   0.945
 9935SOL    HW230705   2.935   0.657   0.791
 9936SOL     OW30706   7.013   5.040   0.325
 9936SOL    HW130707   6.988   5.083   0.411
 9936SOL    HW230708   0.093   5.019   0.325
 9937SOL     OW30709   1.612   1.487   2.803
 9937SOL    HW130710   1.673   1.488   2.883
 9937SOL    HW230711   1.660   1.447   2.725
 9938SOL     OW30712   5.767   6.290   4.470
 9938SOL    HW130713   5.838   6.354   4.501
 9938SOL    HW230714   5.710   6.263   4.547
 9939SOL     OW30715   2.564   2.834   0.691
 9939SOL    HW130716   2.527   2.752   0.649
 9939SOL    HW230717   2.523   2.848   0.781
 9940SOL     OW30718   1.135   0.209   2.787
 9940SOL    HW130719   1.099   0.302   2.779
 9940SOL    HW230720   1.131   0.164   2.697
 9941SOL     OW30721   2.848   5.866   5.305
 9941SOL    HW130722   2.928   5.926   5.303
 9941SOL    HW230723   2.823   5.847   5.400
 9942SOL     OW30724   4.599   5.535   1.921
 9942SOL    HW130725   4.648   5.609   1.874
 9942SOL    HW230726   4.617   5.448   1.874
 9943SOL     OW30727   1.135   3.956   6.668
 9943SOL    HW130728   1.048   3.908   6.674
 9943SOL    HW230729   1.137   4.011   6.585
 9944SOL     OW30730   0.313   4.780   6.548
 9944SOL    HW130731   0.395   4.837   6.543
 9944SOL    HW230732   0.232   4.836   6.531
 9945SOL     OW30733   5.633   4.297   6.811
 9945SOL    HW130734   5.546   4.248   6.809
 9945SOL    HW230735   5.666   4.311   6.718
 9946SOL     OW30736   5.932   0.235   3.166
 9946SOL    HW130737   5.996   0.176   3.117
 9946SOL    HW230738   5.922   0.203   3.260
 9947SOL     OW30739   2.963   1.404   4.734
 9947SOL    HW130740   2.942   1.307   4.749
 9947SOL    HW230741   3.039   1.412   4.670
 9948SOL     OW30742   0.024   5.845   5.207
 9948SOL    HW130743   6.995   5.872   5.123
 9948SOL    HW230744   0.012   5.747   5.222
 9949SOL     OW30745   6.965   5.106   3.744
 9949SOL    HW130746   6.895   5.165   3.784
 9949SOL    HW230747   0.013   5.079   3.814
 9950SOL     OW30748   6.951   5.851   6.087
 9950SOL    HW130749   0.011   5.891   6.040
 9950SOL    HW230750   6.950   5.752   6.073
 9951SOL     OW30751   1.858   2.288   3.143
 9951SOL    HW130752   1.792   2.331   3.081
 9951SOL    HW230753   1.857   2.189   3.128
 9952SOL     OW30754   1.486   3.585   0.765
 9952SOL    HW130755   1.556   3.619   0.827
 9952SOL    HW230756   1.497   3.486   0.753
 9953SOL     OW30757   5.804   2.732   4.185
 9953SOL    HW130758   5.743   2.810   4.199
 9953SOL    HW230759   5.783   2.690   4.096
 9954SOL     OW30760   1.052   0.253   4.455
 9954SOL    HW130761   0.994   0.335   4.451
 9954SOL    HW230762   1.121   0.258   4.383
 9955SOL     OW30763   3.380   3.694   6.668
 9955SOL    HW130764   3.434   3.763   6.620
 9955SOL    HW230765   3.420   3.678   6.759
 9956SOL     OW30766   0.700   3.775   2.781
 9956SOL    HW130767   0.711   3.832   2.862
 9956SOL    HW230768   0.769   3.703   2.780
 9957SOL     OW30769   5.895   0.152   2.774
 9957SOL    HW130770   5.888   0.237   2.827
 9957SOL    HW230771   5.961   0.091   2.818
 9958SOL     OW30772   2.989   5.772   6.128
 9958SOL    HW130773   2.911   5.833   6.120
 9958SOL    HW230774   3.034   5.763   6.039
 9959SOL     OW30775   4.112   3.645   3.147
 9959SOL    HW130776   4.208   3.672   3.158
 9959SOL    HW230777   4.095   3.626   3.050
 9960SOL     OW30778   0.468   6.688   1.874
 9960SOL    HW130779   0.411   6.726   1.947
 9960SOL    HW230780   0.437   6.596   1.851
 9961SOL     OW30781   1.680   5.066   3.267
 9961SOL    HW130782   1.654   5.044   3.173
 9961SOL    HW230783   1.602   5.050   3.328
 9962SOL     OW30784   4.569   0.583   2.032
 9962SOL    HW130785   4.637   0.635   1.980
 9962SOL    HW230786   4.506   0.647   2.077
 9963SOL     OW30787   2.738   2.545   5.696
 9963SOL    HW130788   2.701   2.537   5.789
 9963SOL    HW230789   2.810   2.476   5.683
 9964SOL     OW30790   4.334   5.210   5.954
 9964SOL    HW130791   4.274   5.217   6.033
 9964SOL    HW230792   4.397   5.133   5.966
 9965SOL     OW30793   3.512   4.902   5.051
 9965SOL    HW130794   3.558   4.970   4.994
 9965SOL    HW230795   3.420   4.886   5.016
 9966SOL     OW30796   1.811   5.190   1.977
 9966SOL    HW130797   1.813   5.289   1.961
 9966SOL    HW230798   1.874   5.145   1.913
 9967SOL     OW30799   5.398   4.987   2.110
 9967SOL    HW130800   5.472   4.938   2.064
 9967SOL    HW230801   5.361   5.057   2.049
 9968SOL     OW30802   3.329   5.555   6.390
 9968SOL    HW130803   3.250   5.532   6.334
 9968SOL    HW230804   3.332   5.653   6.406
 9969SOL     OW30805   1.006   2.961   3.904
 9969SOL    HW130806   1.105   2.964   3.887
 9969SOL    HW230807   0.968   3.053   3.897
 9970SOL     OW30808   6.992   4.430   2.235
 9970SOL    HW130809   6.983   4.398   2.141
 9970SOL    HW230810   6.902   4.446   2.274
 9971SOL     OW30811   2.275   4.196   0.481
 9971SOL    HW130812   2.296   4.115   0.535
 9971SOL    HW230813   2.323   4.275   0.520
 9972SOL     OW30814   3.343   4.307   0.973
 9972SOL    HW130815   3.432   4.302   1.018
 9972SOL    HW230816   3.306   4.400   0.982
 9973SOL     OW30817   4.249   1.620   4.791
 9973SOL    HW130818   4.340   1.655   4.766
 9973SOL    HW230819   4.215   1.562   4.717
 9974SOL     OW30820   6.620   3.896   3.091
 9974SOL    HW130821   6.587   3.955   3.165
 9974SOL    HW230822   6.720   3.895   3.091
 9975SOL     OW30823   6.864   4.519   6.852
 9975SOL    HW130824   6.942   4.573   6.818
 9975SOL    HW230825   6.801   4.579   6.901
 9976SOL     OW30826   6.454   4.621   5.089
 9976SOL    HW130827   6.504   4.704   5.114
 9976SOL    HW230828   6.403   4.588   5.168
 9977SOL     OW30829   6.641   4.986   5.822
 9977SOL    HW130830   6.649   5.033   5.910
 9977SOL    HW230831   6.548   4.953   5.810
 9978SOL     OW30832   5.748   1.236   4.643
 9978SOL    HW130833   5.678   1.306   4.630
 9978SOL    HW230834   5.836   1.269   4.608
 9979SOL     OW30835   6.328   4.527   5.835
 9979SOL    HW130836   6.310   4.526   5.736
 9979SOL    HW230837   6.424   4.550   5.851
 9980SOL     OW30838   1.462   0.825   0.291
 9980SOL    HW130839   1.522   0.892   0.247
 9980SOL    HW230840   1.449   0.747   0.230
 9981SOL     OW30841   2.390   1.952   0.618
 9981SOL    HW130842   2.349   2.043   0.630
 9981SOL    HW230843   2.486   1.956   0.645
 9982SOL     OW30844   1.226   1.679   3.221
 9982SOL    HW130845   1.216   1.597   3.277
 9982SOL    HW230846   1.232   1.653   3.125
 9983SOL     OW30847   1.364   0.948   1.695
 9983SOL    HW130848   1.275   0.902   1.690
 9983SOL    HW230849   1.431   0.897   1.641
 9984SOL     OW30850   0.576   0.273   0.487
 9984SOL    HW130851   0.514   0.232   0.420
 9984SOL    HW230852   0.641   0.332   0.439
 9985SOL     OW30853   3.759   6.715   1.431
 9985SOL    HW130854   3.684   6.655   1.403
 9985SOL    HW230855   3.770   6.788   1.363
 9986SOL     OW30856   5.046   4.117   6.502
 9986SOL    HW130857   4.999   4.204   6.485
 9986SOL    HW230858   5.133   4.116   6.452
 9987SOL     OW30859   6.204   1.889   2.174
 9987SOL    HW130860   6.134   1.953   2.141
 9987SOL    HW230861   6.294   1.934   2.171
 9988SOL     OW30862   6.954   5.118   4.741
 9988SOL    HW130863   0.025   5.111   4.695
 9988SOL    HW230864   6.966   5.098   4.838
 9989SOL     OW30865   5.606   3.396   3.101
 9989SOL    HW130866   5.637   3.322   3.161
 9989SOL    HW230867   5.572   3.472   3.157
 9990SOL     OW30868   2.371   0.174   3.604
 9990SOL    HW130869   2.330   0.134   3.522
 9990SOL    HW230870   2.360   0.273   3.601
 9991SOL     OW30871   1.362   2.739   4.840
 9991SOL    HW130872   1.414   2.748   4.925
 9991SOL    HW230873   1.391   2.808   4.775
 9992SOL     OW30874   4.266   3.122   0.611
 9992SOL    HW130875   4.171   3.150   0.608
 9992SOL    HW230876   4.287   3.081   0.700
 9993SOL     OW30877   4.010   6.107   2.819
 9993SOL    HW130878   4.033   6.115   2.916
 9993SOL    HW230879   4.093   6.105   2.764
 9994SOL     OW30880   6.974   4.195   3.869
 9994SOL    HW130881   6.931   4.233   3.951
 9994SOL    HW230882   0.008   4.114   3.894
 9995SOL     OW30883   3.178   0.147   3.075
 9995SOL    HW130884   3.266   0.119   3.113
 9995SOL    HW230885   3.126   0.067   3.048
 9996SOL     OW30886   2.792   2.713   0.833
 9996SOL    HW130887   2.779   2.615   0.845
 9996SOL    HW230888   2.704   2.756   0.812
 9997SOL     OW30889   4.650   1.175   1.150
 9997SOL    HW130890   4.714   1.117   1.098
 9997SOL    HW230891   4.671   1.168   1.248
 9998SOL     OW30892   5.610   3.867   2.970
 9998SOL    HW130893   5.603   3.880   3.069
 9998SOL    HW230894   5.534   3.913   2.925
 9999SOL     OW30895   6.536   5.724   4.948
 9999SOL    HW130896   6.508   5.792   4.880
 9999SOL    HW230897   6.636   5.719   4.952
10000SOL     OW30898   6.121   1.898   0.065
10000SOL    HW130899   6.053   1.965   0.037
10000SOL    HW230900   6.122   1.822   7.017
10001SOL     OW30901   4.490   0.210   1.514
10001SOL    HW130902   4.397   0.232   1.486
10001SOL    HW230903   4.518   0.270   1.589
10002SOL     OW30904   1.420   1.204   1.650
10002SOL    HW130905   1.404   1.109   1.676
10002SOL    HW230906   1.492   1.242   1.708
10003SOL     OW30907   3.837   2.107   2.874
10003SOL    HW130908   3.747   2.081   2.837
10003SOL    HW230909   3.889   2.155   2.803
10004SOL     OW30910   5.610   2.902   4.692
10004SOL    HW130911   5.565   2.816   4.716
10004SOL    HW230912   5.698   2.883   4.650
10005SOL     OW30913   4.466   5.498   2.694
10005SOL    HW130914   4.382   5.549   2.678
10005SOL    HW230915   4.473   5.423   2.629
10006SOL     OW30916   4.985   1.523   5.010
10006SOL    HW130917   4.940   1.559   5.092
10006SOL    HW230918   5.067   1.578   4.990
10007SOL     OW30919   0.734   3.889   4.974
10007SOL    HW130920   0.704   3.836   4.895
10007SOL    HW230921   0.782   3.971   4.942
10008SOL     OW30922   4.183   1.089   3.280
10008SOL    HW130923   4.276   1.055   3.298
10008SOL    HW230924   4.150   1.051   3.194
10009SOL     OW30925   1.873   4.112   1.801
10009SOL    HW130926   1.796   4.058   1.768
10009SOL    HW230927   1.959   4.067   1.776
10010SOL     OW30928   2.449   6.517   0.292
10010SOL    HW130929   2.448   6.448   0.220
10010SOL    HW230930   2.542   6.524   0.330
10011SOL     OW30931   0.794   3.489   6.436
10011SOL    HW130932   0.725   3.430   6.477
10011SOL    HW230933   0.850   3.437   6.372
10012SOL     OW30934   4.908   6.847   2.376
10012SOL    HW130935   4.880   6.921   2.437
10012SOL    HW230936   4.835   6.778   2.372
10013SOL     OW30937   2.184   2.009   4.873
10013SOL    HW130938   2.189   2.055   4.785
10013SOL    HW230939   2.267   2.028   4.925
10014SOL     OW30940   6.983   2.066   1.399
10014SOL    HW130941   6.991   2.040   1.303
10014SOL    HW230942   6.951   1.988   1.453
10015SOL     OW30943   3.671   4.345   0.861
10015SOL    HW130944   3.758   4.364   0.815
10015SOL    HW230945   3.595   4.383   0.809
10016SOL     OW30946   1.929   0.127   5.084
10016SOL    HW130947   1.835   0.160   5.079
10016SOL    HW230948   1.934   0.049   5.145
10017SOL     OW30949   2.528   1.684   2.603
10017SOL    HW130950   2.527   1.640   2.512
10017SOL    HW230951   2.442   1.732   2.618
10018SOL     OW30952   6.221   5.312   5.890
10018SOL    HW130953   6.289   5.356   5.831
10018SOL    HW230954   6.141   5.371   5.898
10019SOL     OW30955   0.573   2.003   3.152
10019SOL    HW130956   0.653   2.027   3.207
10019SOL    HW230957   0.578   2.050   3.064
10020SOL     OW30958   0.326   1.342   1.203
10020SOL    HW130959   0.255   1.285   1.162
10020SOL    HW230960   0.406   1.286   1.223
10021SOL     OW30961   1.298   2.668   2.311
10021SOL    HW130962   1.290   2.610   2.393
10021SOL    HW230963   1.386   2.651   2.267
10022SOL     OW30964   3.737   6.963   1.264
10022SOL    HW130965   3.798   0.024   1.254
10022SOL    HW230966   3.730   6.916   1.176
10023SOL     OW30967   2.183   5.559   5.506
10023SOL    HW130968   2.167   5.593   5.414
10023SOL    HW230969   2.228   5.629   5.561
10024SOL     OW30970   2.170   6.347   1.713
10024SOL    HW130971   2.108   6.287   1.763
10024SOL    HW230972   2.139   6.441   1.721
10025SOL     OW30973   1.624   1.993   1.200
10025SOL    HW130974   1.573   1.912   1.229
10025SOL    HW230975   1.710   1.965   1.157
10026SOL     OW30976   4.273   6.173   3.591
10026SOL    HW130977   4.252   6.251   3.651
10026SOL    HW230978   4.204   6.102   3.604
10027SOL     OW30979   1.201   4.731   5.003
10027SOL    HW130980   1.284   4.784   5.019
10027SOL    HW230981   1.121   4.784   5.031
10028SOL     OW30982   1.416   1.873   2.057
10028SOL    HW130983   1.370   1.784   2.064
10028SOL    HW230984   1.499   1.863   2.002
10029SOL     OW30985   2.838   2.018   4.076
10029SOL    HW130986   2.916   1.968   4.038
10029SOL    HW230987   2.866   2.066   4.158
10030SOL     OW30988   2.114   0.041   4.390
10030SOL    HW130989   2.201   7.016   4.365
10030SOL    HW230990   2.132   0.119   4.451
10031SOL     OW30991   5.966   4.768   4.180
10031SOL    HW130992   5.887   4.776   4.242
10031SOL    HW230993   6.050   4.784   4.232
10032SOL     OW30994   3.703   0.528   5.204
10032SOL    HW130995   3.614   0.566   5.180
10032SOL    HW230996   3.776   0.589   5.173
10033SOL     OW30997   4.685   1.955   4.196
10033SOL    HW130998   4.694   1.884   4.127
10033SOL    HW230999   4.686   1.913   4.287
10034SOL     OW31000   3.764   0.329   3.761
10034SOL    HW131001   3.829   0.308   3.834
10034SOL    HW231002   3.812   0.332   3.673
10035SOL     OW31003   0.055   4.734   2.580
10035SOL    HW131004   6.982   4.763   2.609
10035SOL    HW231005   0.123   4.764   2.646
10036SOL     OW31006   5.898   1.167   1.003
10036SOL    HW131007   5.947   1.239   0.954
10036SOL    HW231008   5.964   1.109   1.052
10037SOL     OW31009   6.480   1.884   1.127
10037SOL    HW131010   6.478   1.850   1.221
10037SOL    HW231011   6.428   1.970   1.122
10038SOL     OW31012   4.241   1.068   6.253
10038SOL    HW131013   4.248   1.050   6.155
10038SOL    HW231014   4.160   1.123   6.272
10039SOL     OW31015   3.627   0.321   4.922
10039SOL    HW131016   3.596   0.228   4.942
10039SOL    HW231017   3.707   0.317   4.861
10040SOL     OW31018   4.325   5.887   6.351
10040SOL    HW131019   4.388   5.828   6.402
10040SOL    HW231020   4.348   5.883   6.254
10041SOL     OW31021   4.107   5.932   6.522
10041SOL    HW131022   4.198   5.974   6.524
10041SOL    HW231023   4.116   5.834   6.505
10042SOL     OW31024   0.932   2.065   4.481
10042SOL    HW131025   1.032   2.066   4.491
10042SOL    HW231026   0.895   1.983   4.524
10043SOL     OW31027   6.558   2.196   4.396
10043SOL    HW131028   6.613   2.243   4.465
10043SOL    HW231029   6.538   2.259   4.321
10044SOL     OW31030   3.117   1.148   4.884
10044SOL    HW131031   3.154   1.065   4.925
10044SOL    HW231032   3.037   1.125   4.828
10045SOL     OW31033   4.450   6.846   3.786
10045SOL    HW131034   4.438   6.945   3.793
10045SOL    HW231035   4.547   6.824   3.780
10046SOL     OW31036   1.941   3.505   1.241
10046SOL    HW131037   1.854   3.499   1.289
10046SOL    HW231038   1.946   3.433   1.172
10047SOL     OW31039   6.806   3.647   5.468
10047SOL    HW131040   6.825   3.728   5.525
10047SOL    HW231041   6.807   3.673   5.372
10048SOL     OW31042   6.269   1.065   3.114
10048SOL    HW131043   6.182   1.040   3.157
10048SOL    HW231044   6.345   1.024   3.165
10049SOL     OW31045   0.062   0.424   6.404
10049SOL    HW131046   0.019   0.507   6.367
10049SOL    HW231047   7.010   0.368   6.448
10050SOL     OW31048   5.140   3.481   5.331
10050SOL    HW131049   5.212   3.412   5.339
10050SOL    HW231050   5.115   3.492   5.234
10051SOL     OW31051   5.505   2.909   5.186
10051SOL    HW131052   5.540   2.838   5.125
10051SOL    HW231053   5.469   2.984   5.131
10052SOL     OW31054   2.145   1.734   2.959
10052SOL    HW131055   2.138   1.830   2.986
10052SOL    HW231056   2.058   1.704   2.920
10053SOL     OW31057   3.563   5.560   2.936
10053SOL    HW131058   3.491   5.590   2.875
10053SOL    HW231059   3.573   5.625   3.012
10054SOL     OW31060   5.363   5.829   6.708
10054SOL    HW131061   5.419   5.803   6.629
10054SOL    HW231062   5.327   5.921   6.695
10055SOL     OW31063   5.463   1.720   4.898
10055SOL    HW131064   5.467   1.754   4.804
10055SOL    HW231065   5.377   1.670   4.911
10056SOL     OW31066   5.408   4.233   3.538
10056SOL    HW131067   5.410   4.176   3.621
10056SOL    HW231068   5.464   4.315   3.553
10057SOL     OW31069   4.421   2.119   5.632
10057SOL    HW131070   4.476   2.124   5.716
10057SOL    HW231071   4.358   2.042   5.637
10058SOL     OW31072   0.380   3.720   4.716
10058SOL    HW131073   0.421   3.756   4.800
10058SOL    HW231074   0.291   3.680   4.737
10059SOL     OW31075   6.836   0.486   1.092
10059SOL    HW131076   6.872   0.494   0.999
10059SOL    HW231077   6.881   0.552   1.151
10060SOL     OW31078   2.030   2.550   1.787
10060SOL    HW131079   2.061   2.479   1.851
10060SOL    HW231080   2.041   2.640   1.828
10061SOL     OW31081   4.337   0.806   3.989
10061SOL    HW131082   4.357   0.812   3.892
10061SOL    HW231083   4.422   0.789   4.040
10062SOL     OW31084   5.868   0.410   4.106
10062SOL    HW131085   5.932   0.455   4.167
10062SOL    HW231086   5.783   0.463   4.102
10063SOL     OW31087   2.514   0.830   4.092
10063SOL    HW131088   2.472   0.840   4.002
10063SOL    HW231089   2.552   0.738   4.101
10064SOL     OW31090   4.947   0.161   6.998
10064SOL    HW131091   4.875   0.231   7.010
10064SOL    HW231092   4.990   0.172   6.909
10065SOL     OW31093   3.294   0.333   2.317
10065SOL    HW131094   3.299   0.352   2.415
10065SOL    HW231095   3.378   0.363   2.272
10066SOL     OW31096   0.489   2.256   3.957
10066SOL    HW131097   0.485   2.298   3.866
10066SOL    HW231098   0.573   2.202   3.965
10067SOL     OW31099   0.193   4.004   5.159
10067SOL    HW131100   0.283   4.048   5.165
10067SOL    HW231101   0.191   3.944   5.079
10068SOL     OW31102   6.925   3.272   3.509
10068SOL    HW131103   6.965   3.197   3.457
10068SOL    HW231104   6.861   3.236   3.576
10069SOL     OW31105   2.440   5.332   2.565
10069SOL    HW131106   2.526   5.280   2.563
10069SOL    HW231107   2.406   5.344   2.472
10070SOL     OW31108   0.049   6.336   5.366
10070SOL    HW131109   6.996   6.265   5.370
10070SOL    HW231110   0.081   6.345   5.272
10071SOL     OW31111   5.985   6.151   4.923
10071SOL    HW131112   6.021   6.081   4.985
10071SOL    HW231113   6.062   6.200   4.882
10072SOL     OW31114   6.647   6.955   4.171
10072SOL    HW131115   6.625   6.897   4.249
10072SOL    HW231116   6.743   6.943   4.147
10073SOL     OW31117   6.237   4.683   4.941
10073SOL    HW131118   6.241   4.600   4.886
10073SOL    HW231119   6.306   4.680   5.012
10074SOL     OW31120   1.826   0.318   5.341
10074SOL    HW131121   1.764   0.378   5.289
10074SOL    HW231122   1.772   0.255   5.397
10075SOL     OW31123   1.531   2.713   2.612
10075SOL    HW131124   1.616   2.689   2.660
10075SOL    HW231125   1.545   2.798   2.560
10076SOL     OW31126   6.219   6.443   3.852
10076SOL    HW131127   6.265   6.431   3.939
10076SOL    HW231128   6.120   6.451   3.867
10077SOL     OW31129   4.377   2.893   6.643
10077SOL    HW131130   4.356   2.945   6.726
10077SOL    HW231131   4.292   2.860   6.602
10078SOL     OW31132   0.518   5.686   3.628
10078SOL    HW131133   0.521   5.605   3.687
10078SOL    HW231134   0.422   5.708   3.608
10079SOL     OW31135   5.523   2.959   3.643
10079SOL    HW131136   5.556   2.877   3.596
10079SOL    HW231137   5.475   2.933   3.727
10080SOL     OW31138   4.249   0.718   5.733
10080SOL    HW131139   4.187   0.788   5.697
10080SOL    HW231140   4.326   0.707   5.670
10081SOL     OW31141   6.807   0.925   0.487
10081SOL    HW131142   6.826   0.848   0.548
10081SOL    HW231143   6.787   1.007   0.542
10082SOL     OW31144   6.995   5.136   1.489
10082SOL    HW131145   0.018   5.170   1.405
10082SOL    HW231146   0.043   5.080   1.538
10083SOL     OW31147   3.683   0.095   3.335
10083SOL    HW131148   3.737   0.023   3.290
10083SOL    HW231149   3.639   0.058   3.416
10084SOL     OW31150   1.906   0.592   5.954
10084SOL    HW131151   2.001   0.562   5.955
10084SOL    HW231152   1.902   0.690   5.934
10085SOL     OW31153   2.696   5.696   1.183
10085SOL    HW131154   2.611   5.644   1.176
10085SOL    HW231155   2.769   5.637   1.216
10086SOL     OW31156   4.872   5.756   2.041
10086SOL    HW131157   4.811   5.808   1.981
10086SOL    HW231158   4.869   5.793   2.134
10087SOL     OW31159   6.807   6.693   4.269
10087SOL    HW131160   6.720   6.711   4.313
10087SOL    HW231161   6.839   6.776   4.223
10088SOL     OW31162   6.465   0.308   2.453
10088SOL    HW131163   6.527   0.236   2.422
10088SOL    HW231164   6.393   0.269   2.511
10089SOL     OW31165   2.817   1.915   3.343
10089SOL    HW131166   2.814   2.013   3.363
10089SOL    HW231167   2.911   1.883   3.347
10090SOL     OW31168   0.546   4.958   1.936
10090SOL    HW131169   0.587   4.906   2.011
10090SOL    HW231170   0.501   5.039   1.973
10091SOL     OW31171   0.105   4.670   6.749
10091SOL    HW131172   0.164   4.715   6.681
10091SOL    HW231173   0.077   4.738   6.818
10092SOL     OW31174   2.280   2.789   5.780
10092SOL    HW131175   2.254   2.849   5.704
10092SOL    HW231176   2.371   2.751   5.763
10093SOL     OW31177   5.084   3.327   5.758
10093SOL    HW131178   5.082   3.422   5.789
10093SOL    HW231179   5.177   3.304   5.729
10094SOL     OW31180   3.718   5.337   0.824
10094SOL    HW131181   3.667   5.275   0.764
10094SOL    HW231182   3.768   5.284   0.893
10095SOL     OW31183   5.719   1.995   4.226
10095SOL    HW131184   5.666   2.079   4.220
10095SOL    HW231185   5.781   1.999   4.305
10096SOL     OW31186   4.173   5.396   2.577
10096SOL    HW131187   4.137   5.303   2.565
10096SOL    HW231188   4.206   5.430   2.489
10097SOL     OW31189   1.232   1.905   0.087
10097SOL    HW131190   1.300   1.834   0.106
10097SOL    HW231191   1.142   1.862   0.074
10098SOL     OW31192   3.050   0.612   5.403
10098SOL    HW131193   3.079   0.667   5.325
10098SOL    HW231194   3.095   0.645   5.486
10099SOL     OW31195   0.567   4.875   1.051
10099SOL    HW131196   0.491   4.939   1.063
10099SOL    HW231197   0.567   4.809   1.127
10100SOL     OW31198   4.725   6.089   5.712
10100SOL    HW131199   4.761   6.125   5.626
10100SOL    HW231200   4.689   6.164   5.767
10101SOL     OW31201   6.771   3.105   2.003
10101SOL    HW131202   6.688   3.071   1.958
10101SOL    HW231203   6.844   3.038   1.992
10102SOL     OW31204   6.915   1.158   1.960
10102SOL    HW131205   6.888   1.253   1.946
10102SOL    HW231206   6.901   1.134   2.056
10103SOL     OW31207   3.485   0.543   5.497
10103SOL    HW131208   3.482   0.630   5.449
10103SOL    HW231209   3.580   0.521   5.520
10104SOL     OW31210   1.345   1.981   5.088
10104SOL    HW131211   1.326   2.048   5.017
10104SOL    HW231212   1.275   1.910   5.086
10105SOL     OW31213   1.615   0.624   6.708
10105SOL    HW131214   1.640   0.540   6.756
10105SOL    HW231215   1.588   0.601   6.614
10106SOL     OW31216   3.732   6.375   0.631
10106SOL    HW131217   3.820   6.400   0.672
10106SOL    HW231218   3.740   6.376   0.532
10107SOL     OW31219   5.435   1.406   5.642
10107SOL    HW131220   5.421   1.446   5.551
10107SOL    HW231221   5.442   1.478   5.710
10108SOL     OW31222   0.031   1.238   0.441
10108SOL    HW131223   0.120   1.237   0.395
10108SOL    HW231224   0.035   1.182   0.524
10109SOL     OW31225   6.464   1.259   7.017
10109SOL    HW131226   6.392   1.233   0.063
10109SOL    HW231227   6.496   1.351   0.020
10110SOL     OW31228   4.948   5.209   4.123
10110SOL    HW131229   4.971   5.299   4.086
10110SOL    HW231230   4.858   5.212   4.165
10111SOL     OW31231   5.879   3.739   3.955
10111SOL    HW131232   5.895   3.715   4.051
10111SOL    HW231233   5.942   3.687   3.898
10112SOL     OW31234   5.800   3.908   3.716
10112SOL    HW131235   5.886   3.868   3.684
10112SOL    HW231236   5.771   3.863   3.800
10113SOL     OW31237   4.207   6.665   6.727
10113SOL    HW131238   4.290   6.621   6.761
10113SOL    HW231239   4.134   6.654   6.794
10114SOL     OW31240   4.168   1.874   1.849
10114SOL    HW131241   4.131   1.801   1.792
10114SOL    HW231242   4.141   1.963   1.812
10115SOL     OW31243   3.993   1.096   5.225
10115SOL    HW131244   3.974   1.123   5.319
10115SOL    HW231245   3.977   1.174   5.164
10116SOL     OW31246   0.917   0.468   0.258
10116SOL    HW131247   1.006   0.467   0.213
10116SOL    HW231248   0.895   0.561   0.287
10117SOL     OW31249   6.805   6.277   6.206
10117SOL    HW131250   6.795   6.337   6.126
10117SOL    HW231251   6.748   6.311   6.281
10118SOL     OW31252   1.996   4.256   3.296
10118SOL    HW131253   1.941   4.186   3.251
10118SOL    HW231254   1.978   4.345   3.253
10119SOL     OW31255   6.768   5.283   4.593
10119SOL    HW131256   6.708   5.209   4.564
10119SOL    HW231257   6.848   5.245   4.638
10120SOL     OW31258   2.132   3.057   4.514
10120SOL    HW131259   2.196   2.996   4.561
10120SOL    HW231260   2.147   3.151   4.544
10121SOL     OW31261   5.983   4.078   6.842
10121SOL    HW131262   5.938   4.151   6.792
10121SOL    HW231263   6.069   4.055   6.798
10122SOL     OW31264   5.336   3.091   2.922
10122SOL    HW131265   5.406   3.054   2.983
10122SOL    HW231266   5.255   3.034   2.926
10123SOL     OW31267   5.679   5.752   1.230
10123SOL    HW131268   5.728   5.836   1.253
10123SOL    HW231269   5.628   5.720   1.311
10124SOL     OW31270   1.489   5.424   0.451
10124SOL    HW131271   1.584   5.394   0.456
10124SOL    HW231272   1.429   5.352   0.487
10125SOL     OW31273   1.938   1.375   1.410
10125SOL    HW131274   2.014   1.429   1.374
10125SOL    HW231275   1.907   1.414   1.497
10126SOL     OW31276   6.823   6.989   0.507
10126SOL    HW131277   6.724   7.002   0.508
10126SOL    HW231278   6.847   6.913   0.567
10127SOL     OW31279   2.566   3.961   6.972
10127SOL    HW131280   2.641   3.956   0.020
10127SOL    HW231281   2.604   3.975   6.880
10128SOL     OW31282   2.844   0.938   6.701
10128SOL    HW131283   2.832   0.960   6.604
10128SOL    HW231284   2.941   0.945   6.724
10129SOL     OW31285   6.292   1.640   3.138
10129SOL    HW131286   6.334   1.550   3.151
10129SOL    HW231287   6.193   1.632   3.153
10130SOL     OW31288   1.025   2.906   1.363
10130SOL    HW131289   1.025   2.852   1.447
10130SOL    HW231290   0.977   2.857   1.291
10131SOL     OW31291   1.667   6.801   3.928
10131SOL    HW131292   1.756   6.836   3.957
10131SOL    HW231293   1.673   6.702   3.913
10132SOL     OW31294   2.830   0.202   3.630
10132SOL    HW131295   2.813   0.168   3.538
10132SOL    HW231296   2.918   0.169   3.663
10133SOL     OW31297   4.664   6.179   0.527
10133SOL    HW131298   4.675   6.248   0.598
10133SOL    HW231299   4.747   6.176   0.470
10134SOL     OW31300   6.092   0.880   2.426
10134SOL    HW131301   6.068   0.928   2.342
10134SOL    HW231302   6.090   0.782   2.410
10135SOL     OW31303   5.099   3.121   3.657
10135SOL    HW131304   5.163   3.078   3.721
10135SOL    HW231305   5.017   3.149   3.706
10136SOL     OW31306   5.166   1.840   2.014
10136SOL    HW131307   5.181   1.784   2.096
10136SOL    HW231308   5.104   1.915   2.036
10137SOL     OW31309   0.166   4.143   4.607
10137SOL    HW131310   0.070   4.157   4.583
10137SOL    HW231311   0.214   4.103   4.529
10138SOL     OW31312   5.932   3.563   0.496
10138SOL    HW131313   6.032   3.552   0.492
10138SOL    HW231314   5.891   3.533   0.410
10139SOL     OW31315   3.079   3.298   3.591
10139SOL    HW131316   3.038   3.378   3.548
10139SOL    HW231317   3.178   3.305   3.588
10140SOL     OW31318   6.989   6.301   6.850
10140SOL    HW131319   0.059   6.317   6.896
10140SOL    HW231320   6.929   6.250   6.910
10141SOL     OW31321   4.246   1.090   5.835
10141SOL    HW131322   4.298   1.006   5.847
10141SOL    HW231323   4.151   1.068   5.814
10142SOL     OW31324   6.270   6.620   6.054
10142SOL    HW131325   6.368   6.624   6.034
10142SOL    HW231326   6.221   6.683   5.994
10143SOL     OW31327   5.775   1.669   0.622
10143SOL    HW131328   5.777   1.644   0.525
10143SOL    HW231329   5.852   1.729   0.643
10144SOL     OW31330   3.860   0.120   6.221
10144SOL    HW131331   3.801   0.109   6.301
10144SOL    HW231332   3.819   0.076   6.142
10145SOL     OW31333   3.122   5.566   3.061
10145SOL    HW131334   3.165   5.504   3.127
10145SOL    HW231335   3.035   5.599   3.097
10146SOL     OW31336   5.192   4.432   4.760
10146SOL    HW131337   5.108   4.482   4.739
10146SOL    HW231338   5.240   4.478   4.834
10147SOL     OW31339   5.097   3.979   6.194
10147SOL    HW131340   5.139   4.048   6.254
10147SOL    HW231341   4.998   3.991   6.193
10148SOL     OW31342   5.271   5.235   6.786
10148SOL    HW131343   5.209   5.165   6.749
10148SOL    HW231344   5.244   5.325   6.750
10149SOL     OW31345   5.608   3.678   1.605
10149SOL    HW131346   5.526   3.704   1.655
10149SOL    HW231347   5.589   3.596   1.550
10150SOL     OW31348   3.373   2.877   1.432
10150SOL    HW131349   3.452   2.816   1.421
10150SOL    HW231350   3.378   2.922   1.521
10151SOL     OW31351   0.861   6.321   6.753
10151SOL    HW131352   0.907   6.243   6.795
10151SOL    HW231353   0.888   6.405   6.801
10152SOL     OW31354   6.838   6.371   3.637
10152SOL    HW131355   6.776   6.390   3.713
10152SOL    HW231356   6.869   6.276   3.642
10153SOL     OW31357   4.424   5.937   3.581
10153SOL    HW131358   4.516   5.957   3.549
10153SOL    HW231359   4.374   6.022   3.597
10154SOL     OW31360   3.560   6.270   4.764
10154SOL    HW131361   3.562   6.227   4.854
10154SOL    HW231362   3.477   6.325   4.755
10155SOL     OW31363   5.123   1.971   6.460
10155SOL    HW131364   5.110   2.016   6.372
10155SOL    HW231365   5.102   2.034   6.534
10156SOL     OW31366   5.595   0.608   2.057
10156SOL    HW131367   5.498   0.630   2.044
10156SOL    HW231368   5.607   0.565   2.146
10157SOL     OW31369   0.423   2.191   0.347
10157SOL    HW131370   0.353   2.254   0.381
10157SOL    HW231371   0.412   2.178   0.248
10158SOL     OW31372   7.012   5.967   1.163
10158SOL    HW131373   0.047   5.891   1.126
10158SOL    HW231374   0.015   6.050   1.113
10159SOL     OW31375   2.843   2.226   1.348
10159SOL    HW131376   2.744   2.235   1.365
10159SOL    HW231377   2.887   2.187   1.428
10160SOL     OW31378   1.276   2.727   2.825
10160SOL    HW131379   1.177   2.742   2.825
10160SOL    HW231380   1.302   2.679   2.741
10161SOL     OW31381   3.412   4.092   0.568
10161SOL    HW131382   3.508   4.111   0.589
10161SOL    HW231383   3.359   4.088   0.653
10162SOL     OW31384   3.069   4.958   0.616
10162SOL    HW131385   3.153   4.994   0.657
10162SOL    HW231386   3.065   4.859   0.629
10163SOL     OW31387   0.186   3.771   0.005
10163SOL    HW131388   0.216   3.781   0.100
10163SOL    HW231389   0.130   3.850   6.997
10164SOL     OW31390   6.447   3.937   5.068
10164SOL    HW131391   6.504   3.917   4.989
10164SOL    HW231392   6.356   3.898   5.054
10165SOL     OW31393   6.883   1.932   3.244
10165SOL    HW131394   6.970   1.932   3.293
10165SOL    HW231395   6.833   1.847   3.264
10166SOL     OW31396   2.663   1.687   1.643
10166SOL    HW131397   2.762   1.675   1.644
10166SOL    HW231398   2.633   1.713   1.551
10167SOL     OW31399   0.747   5.572   0.389
10167SOL    HW131400   0.791   5.570   0.299
10167SOL    HW231401   0.678   5.500   0.394
10168SOL     OW31402   6.530   2.222   6.178
10168SOL    HW131403   6.438   2.253   6.155
10168SOL    HW231404   6.579   2.197   6.094
10169SOL     OW31405   0.633   4.347   4.100
10169SOL    HW131406   0.594   4.265   4.060
10169SOL    HW231407   0.643   4.417   4.029
10170SOL     OW31408   6.614   5.235   6.412
10170SOL    HW131409   6.568   5.258   6.326
10170SOL    HW231410   6.547   5.199   6.477
10171SOL     OW31411   1.178   2.979   5.216
10171SOL    HW131412   1.136   2.934   5.295
10171SOL    HW231413   1.185   3.077   5.234
10172SOL     OW31414   0.808   5.954   4.220
10172SOL    HW131415   0.881   5.887   4.235
10172SOL    HW231416   0.830   6.039   4.268
10173SOL     OW31417   1.672   1.822   0.438
10173SOL    HW131418   1.635   1.875   0.515
10173SOL    HW231419   1.763   1.856   0.415
10174SOL     OW31420   5.094   4.936   3.320
10174SOL    HW131421   5.175   4.938   3.262
10174SOL    HW231422   5.021   4.989   3.278
10175SOL     OW31423   5.020   2.713   3.123
10175SOL    HW131424   4.942   2.709   3.186
10175SOL    HW231425   4.996   2.665   3.039
10176SOL     OW31426   0.434   2.956   5.026
10176SOL    HW131427   0.339   2.939   5.050
10176SOL    HW231428   0.438   3.025   4.952
10177SOL     OW31429   1.610   0.672   1.116
10177SOL    HW131430   1.567   0.585   1.091
10177SOL    HW231431   1.614   0.731   1.036
10178SOL     OW31432   0.113   0.686   0.119
10178SOL    HW131433   0.018   0.654   0.115
10178SOL    HW231434   0.173   0.611   0.145
10179SOL     OW31435   0.262   2.791   6.538
10179SOL    HW131436   0.269   2.760   6.444
10179SOL    HW231437   0.349   2.833   6.566
10180SOL     OW31438   4.080   0.847   0.175
10180SOL    HW131439   4.060   0.786   0.251
10180SOL    HW231440   4.003   0.846   0.111
10181SOL     OW31441   7.014   2.506   1.543
10181SOL    HW131442   0.094   2.509   1.525
10181SOL    HW231443   6.981   2.412   1.529
10182SOL     OW31444   4.677   0.664   0.908
10182SOL    HW131445   4.621   0.613   0.973
10182SOL    HW231446   4.704   0.605   0.833
10183SOL     OW31447   5.749   2.343   5.657
10183SOL    HW131448   5.729   2.362   5.753
10183SOL    HW231449   5.823   2.403   5.625
10184SOL     OW31450   4.488   2.207   6.718
10184SOL    HW131451   4.419   2.212   6.645
10184SOL    HW231452   4.446   2.173   6.802
10185SOL     OW31453   6.183   6.480   2.516
10185SOL    HW131454   6.096   6.432   2.519
10185SOL    HW231455   6.252   6.423   2.472
10186SOL     OW31456   5.254   4.247   4.567
10186SOL    HW131457   5.188   4.174   4.583
10186SOL    HW231458   5.251   4.311   4.644
10187SOL     OW31459   1.040   4.283   6.685
10187SOL    HW131460   1.048   4.195   6.637
10187SOL    HW231461   1.010   4.353   6.620
10188SOL     OW31462   3.197   4.830   0.075
10188SOL    HW131463   3.169   4.912   0.024
10188SOL    HW231464   3.172   4.749   0.023
10189SOL     OW31465   0.604   0.921   6.443
10189SOL    HW131466   0.519   0.900   6.394
10189SOL    HW231467   0.593   1.007   6.494
10190SOL     OW31468   3.799   2.798   1.595
10190SOL    HW131469   3.728   2.759   1.653
10190SOL    HW231470   3.864   2.850   1.652
10191SOL     OW31471   4.543   4.896   6.339
10191SOL    HW131472   4.586   4.984   6.318
10191SOL    HW231473   4.458   4.887   6.287
10192SOL     OW31474   4.228   0.961   5.104
10192SOL    HW131475   4.157   1.026   5.132
10192SOL    HW231476   4.316   1.010   5.096
10193SOL     OW31477   3.210   3.333   2.769
10193SOL    HW131478   3.280   3.314   2.837
10193SOL    HW231479   3.228   3.421   2.726
10194SOL     OW31480   5.011   0.362   4.923
10194SOL    HW131481   5.084   0.375   4.989
10194SOL    HW231482   5.006   0.441   4.862
10195SOL     OW31483   6.322   6.717   0.456
10195SOL    HW131484   6.297   6.767   0.373
10195SOL    HW231485   6.406   6.755   0.494
10196SOL     OW31486   3.903   2.119   4.103
10196SOL    HW131487   3.866   2.135   4.195
10196SOL    HW231488   4.003   2.121   4.107
10197SOL     OW31489   5.177   2.033   4.075
10197SOL    HW131490   5.259   2.050   4.019
10197SOL    HW231491   5.121   1.964   4.031
10198SOL     OW31492   3.901   6.520   1.882
10198SOL    HW131493   3.813   6.543   1.838
10198SOL    HW231494   3.899   6.550   1.977
10199SOL     OW31495   0.730   1.689   0.735
10199SOL    HW131496   0.647   1.723   0.689
10199SOL    HW231497   0.797   1.763   0.741
10200SOL     OW31498   4.832   3.315   5.255
10200SOL    HW131499   4.867   3.323   5.348
10200SOL    HW231500   4.735   3.337   5.254
10201SOL     OW31501   0.903   6.144   0.200
10201SOL    HW131502   0.919   6.242   0.188
10201SOL    HW231503   0.981   6.093   0.163
10202SOL     OW31504   2.292   4.640   0.154
10202SOL    HW131505   2.286   4.603   0.062
10202SOL    HW231506   2.326   4.734   0.151
10203SOL     OW31507   6.944   2.669   2.696
10203SOL    HW131508   6.893   2.644   2.615
10203SOL    HW231509   0.009   2.614   2.702
10204SOL     OW31510   4.169   5.347   6.775
10204SOL    HW131511   4.173   5.447   6.775
10204SOL    HW231512   4.208   5.312   6.861
10205SOL     OW31513   3.262   1.165   2.070
10205SOL    HW131514   3.351   1.154   2.024
10205SOL    HW231515   3.217   1.248   2.036
10206SOL     OW31516   6.548   6.651   6.688
10206SOL    HW131517   6.519   6.568   6.737
10206SOL    HW231518   6.471   6.715   6.681
10207SOL     OW31519   1.490   2.005   0.244
10207SOL    HW131520   1.507   1.983   0.147
10207SOL    HW231521   1.553   2.076   0.274
10208SOL     OW31522   6.592   5.132   3.468
10208SOL    HW131523   6.680   5.119   3.512
10208SOL    HW231524   6.586   5.074   3.387
10209SOL     OW31525   0.081   0.114   6.656
10209SOL    HW131526   0.099   0.154   6.566
10209SOL    HW231527   7.001   0.117   6.675
10210SOL     OW31528   4.938   6.221   0.721
10210SOL    HW131529   4.920   6.288   0.794
10210SOL    HW231530   4.943   6.268   0.633
10211SOL     OW31531   4.107   6.196   5.004
10211SOL    HW131532   4.180   6.204   5.071
10211SOL    HW231533   4.070   6.103   5.006
10212SOL     OW31534   6.953   7.000   5.283
10212SOL    HW131535   7.005   0.043   5.343
10212SOL    HW231536   6.946   0.023   5.192
10213SOL     OW31537   5.636   3.084   2.743
10213SOL    HW131538   5.585   3.158   2.786
10213SOL    HW231539   5.584   3.048   2.665
10214SOL     OW31540   0.921   1.498   1.624
10214SOL    HW131541   0.830   1.458   1.613
10214SOL    HW231542   0.975   1.481   1.541
10215SOL     OW31543   3.148   2.999   3.525
10215SOL    HW131544   3.167   3.033   3.432
10215SOL    HW231545   3.061   3.037   3.557
10216SOL     OW31546   0.934   0.858   1.180
10216SOL    HW131547   0.866   0.807   1.128
10216SOL    HW231548   0.932   0.954   1.152
10217SOL     OW31549   2.015   2.670   3.362
10217SOL    HW131550   1.958   2.688   3.282
10217SOL    HW231551   2.075   2.592   3.343
10218SOL     OW31552   1.708   0.755   1.687
10218SOL    HW131553   1.741   0.776   1.778
10218SOL    HW231554   1.784   0.761   1.621
10219SOL     OW31555   0.635   2.907   2.796
10219SOL    HW131556   0.595   2.974   2.859
10219SOL    HW231557   0.729   2.932   2.776
10220SOL     OW31558   3.664   0.956   0.806
10220SOL    HW131559   3.725   0.987   0.878
10220SOL    HW231560   3.630   1.035   0.755
10221SOL     OW31561   2.094   3.769   4.349
10221SOL    HW131562   2.078   3.779   4.250
10221SOL    HW231563   2.113   3.859   4.388
10222SOL     OW31564   2.379   3.213   5.539
10222SOL    HW131565   2.378   3.311   5.521
10222SOL    HW231566   2.394   3.197   5.637
10223SOL     OW31567   1.962   5.785   6.878
10223SOL    HW131568   2.008   5.697   6.884
10223SOL    HW231569   1.947   5.822   6.970
10224SOL     OW31570   6.488   1.962   5.182
10224SOL    HW131571   6.409   2.015   5.211
10224SOL    HW231572   6.524   1.911   5.261
10225SOL     OW31573   2.148   6.163   6.009
10225SOL    HW131574   2.132   6.144   6.106
10225SOL    HW231575   2.243   6.141   5.986
10226SOL     OW31576   2.142   0.905   6.368
10226SOL    HW131577   2.229   0.905   6.317
10226SOL    HW231578   2.104   0.812   6.368
10227SOL     OW31579   5.174   4.233   0.607
10227SOL    HW131580   5.171   4.135   0.589
10227SOL    HW231581   5.185   4.283   0.521
10228SOL     OW31582   1.013   6.188   1.644
10228SOL    HW131583   1.012   6.132   1.726
10228SOL    HW231584   1.104   6.187   1.604
10229SOL     OW31585   1.445   1.736   4.082
10229SOL    HW131586   1.480   1.748   3.989
10229SOL    HW231587   1.505   1.784   4.146
10230SOL     OW31588   6.301   6.586   2.964
10230SOL    HW131589   6.323   6.653   3.035
10230SOL    HW231590   6.373   6.517   2.958
10231SOL     OW31591   6.416   5.546   5.510
10231SOL    HW131592   6.460   5.558   5.421
10231SOL    HW231593   6.341   5.481   5.501
10232SOL     OW31594   2.677   1.180   4.230
10232SOL    HW131595   2.631   1.247   4.171
10232SOL    HW231596   2.728   1.228   4.302
10233SOL     OW31597   4.569   3.378   5.337
10233SOL    HW131598   4.470   3.390   5.334
10233SOL    HW231599   4.612   3.452   5.286
10234SOL     OW31600   5.748   0.128   0.160
10234SOL    HW131601   5.654   0.118   0.191
10234SOL    HW231602   5.806   0.154   0.238
10235SOL     OW31603   3.284   2.295   0.650
10235SOL    HW131604   3.193   2.274   0.613
10235SOL    HW231605   3.336   2.210   0.661
10236SOL     OW31606   1.797   0.855   1.415
10236SOL    HW131607   1.811   0.756   1.421
10236SOL    HW231608   1.885   0.900   1.402
10237SOL     OW31609   6.980   4.373   0.066
10237SOL    HW131610   6.980   4.441   7.010
10237SOL    HW231611   6.886   4.358   0.097
10238SOL     OW31612   3.826   4.014   2.321
10238SOL    HW131613   3.886   4.017   2.241
10238SOL    HW231614   3.731   4.023   2.291
10239SOL     OW31615   2.275   4.342   5.866
10239SOL    HW131616   2.186   4.387   5.861
10239SOL    HW231617   2.341   4.391   5.810
10240SOL     OW31618   1.762   4.463   2.286
10240SOL    HW131619   1.755   4.500   2.193
10240SOL    HW231620   1.700   4.385   2.296
10241SOL     OW31621   6.678   6.884   2.862
10241SOL    HW131622   6.610   6.858   2.794
10241SOL    HW231623   6.762   6.915   2.817
10242SOL     OW31624   0.002   1.679   1.743
10242SOL    HW131625   0.058   1.603   1.775
10242SOL    HW231626   7.001   1.741   1.819
10243SOL     OW31627   1.208   4.677   1.952
10243SOL    HW131628   1.177   4.721   2.037
10243SOL    HW231629   1.272   4.738   1.905
10244SOL     OW31630   1.726   4.193   0.507
10244SOL    HW131631   1.763   4.104   0.536
10244SOL    HW231632   1.704   4.189   0.409
10245SOL     OW31633   2.880   4.826   0.393
10245SOL    HW131634   2.809   4.851   0.458
10245SOL    HW231635   2.947   4.767   0.438
10246SOL     OW31636   3.249   3.821   3.317
10246SOL    HW131637   3.315   3.749   3.298
10246SOL    HW231638   3.245   3.838   3.416
10247SOL     OW31639   6.736   4.970   5.567
10247SOL    HW131640   6.694   4.964   5.658
10247SOL    HW231641   6.715   4.887   5.516
10248SOL     OW31642   1.729   6.943   3.003
10248SOL    HW131643   1.821   6.980   3.015
10248SOL    HW231644   1.732   6.869   2.935
10249SOL     OW31645   3.007   6.939   6.720
10249SOL    HW131646   2.992   6.983   6.631
10249SOL    HW231647   3.056   6.853   6.706
10250SOL     OW31648   6.772   3.348   1.726
10250SOL    HW131649   6.747   3.437   1.763
10250SOL    HW231650   6.795   3.357   1.629
10251SOL     OW31651   2.642   1.375   4.880
10251SOL    HW131652   2.561   1.430   4.864
10251SOL    HW231653   2.649   1.304   4.810
10252SOL     OW31654   4.198   4.463   0.085
10252SOL    HW131655   4.172   4.510   0.170
10252SOL    HW231656   4.247   4.379   0.107
10253SOL     OW31657   2.642   5.666   0.673
10253SOL    HW131658   2.651   5.747   0.616
10253SOL    HW231659   2.703   5.594   0.639
10254SOL     OW31660   4.912   0.862   4.621
10254SOL    HW131661   4.994   0.818   4.657
10254SOL    HW231662   4.901   0.952   4.664
10255SOL     OW31663   1.871   6.588   1.164
10255SOL    HW131664   1.905   6.507   1.211
10255SOL    HW231665   1.890   6.580   1.066
10256SOL     OW31666   6.462   1.275   1.866
10256SOL    HW131667   6.497   1.335   1.794
10256SOL    HW231668   6.370   1.244   1.842
10257SOL     OW31669   2.301   5.052   4.828
10257SOL    HW131670   2.224   5.103   4.789
10257SOL    HW231671   2.360   5.019   4.755
10258SOL     OW31672   3.163   1.118   4.241
10258SOL    HW131673   3.206   1.082   4.158
10258SOL    HW231674   3.121   1.043   4.292
10259SOL     OW31675   1.044   4.259   2.897
10259SOL    HW131676   1.142   4.249   2.876
10259SOL    HW231677   1.022   4.356   2.907
10260SOL     OW31678   0.746   0.975   3.332
10260SOL    HW131679   0.667   0.993   3.274
10260SOL    HW231680   0.829   0.980   3.276
10261SOL     OW31681   6.954   6.107   3.610
10261SOL    HW131682   6.910   6.017   3.608
10261SOL    HW231683   0.028   6.098   3.648
10262SOL     OW31684   1.595   6.422   5.078
10262SOL    HW131685   1.573   6.508   5.032
10262SOL    HW231686   1.628   6.356   5.012
10263SOL     OW31687   5.375   0.983   6.124
10263SOL    HW131688   5.345   1.049   6.193
10263SOL    HW231689   5.297   0.957   6.067
10264SOL     OW31690   5.764   1.389   6.578
10264SOL    HW131691   5.749   1.296   6.546
10264SOL    HW231692   5.703   1.408   6.655
10265SOL     OW31693   2.674   2.383   2.447
10265SOL    HW131694   2.743   2.333   2.395
10265SOL    HW231695   2.667   2.344   2.539
10266SOL     OW31696   3.318   3.074   3.900
10266SOL    HW131697   3.309   2.993   3.958
10266SOL    HW231698   3.374   3.052   3.821
10267SOL     OW31699   6.516   2.325   6.646
10267SOL    HW131700   6.498   2.272   6.729
10267SOL    HW231701   6.524   2.262   6.569
10268SOL     OW31702   5.868   5.403   2.612
10268SOL    HW131703   5.852   5.496   2.579
10268SOL    HW231704   5.885   5.405   2.710
10269SOL     OW31705   0.588   3.307   0.127
10269SOL    HW131706   0.562   3.402   0.109
10269SOL    HW231707   0.506   3.250   0.132
10270SOL     OW31708   2.951   4.794   3.112
10270SOL    HW131709   3.021   4.820   3.180
10270SOL    HW231710   2.911   4.707   3.138
10271SOL     OW31711   3.291   2.209   6.684
10271SOL    HW131712   3.335   2.153   6.614
10271SOL    HW231713   3.323   2.303   6.678
10272SOL     OW31714   0.942   0.696   4.761
10272SOL    HW131715   0.886   0.675   4.682
10272SOL    HW231716   1.001   0.618   4.782
10273SOL     OW31717   3.396   5.608   2.730
10273SOL    HW131718   3.327   5.674   2.761
10273SOL    HW231719   3.365   5.565   2.645
10274SOL     OW31720   6.988   5.081   4.416
10274SOL    HW131721   0.035   5.036   4.478
10274SOL    HW231722   7.012   5.178   4.407
10275SOL     OW31723   0.849   0.303   2.040
10275SOL    HW131724   0.874   0.244   2.117
10275SOL    HW231725   0.872   0.398   2.063
10276SOL     OW31726   6.225   5.342   5.476
10276SOL    HW131727   6.144   5.386   5.514
10276SOL    HW231728   6.199   5.256   5.432
10277SOL     OW31729   2.094   5.637   3.753
10277SOL    HW131730   2.146   5.678   3.678
10277SOL    HW231731   2.131   5.669   3.840
10278SOL     OW31732   6.933   1.487   4.564
10278SOL    HW131733   7.006   1.439   4.515
10278SOL    HW231734   6.844   1.461   4.525
10279SOL     OW31735   3.007   5.186   3.867
10279SOL    HW131736   2.942   5.259   3.848
10279SOL    HW231737   3.048   5.200   3.957
10280SOL     OW31738   0.186   3.495   0.740
10280SOL    HW131739   0.213   3.484   0.836
10280SOL    HW231740   0.221   3.417   0.687
10281SOL     OW31741   5.779   1.031   2.222
10281SOL    HW131742   5.685   1.000   2.236
10281SOL    HW231743   5.792   1.057   2.127
10282SOL     OW31744   5.487   4.802   4.890
10282SOL    HW131745   5.493   4.884   4.946
10282SOL    HW231746   5.512   4.824   4.796
10283SOL     OW31747   0.788   3.799   0.883
10283SOL    HW131748   0.790   3.704   0.916
10283SOL    HW231749   0.802   3.861   0.961
10284SOL     OW31750   5.083   3.136   5.194
10284SOL    HW131751   4.992   3.163   5.165
10284SOL    HW231752   5.078   3.049   5.243
10285SOL     OW31753   5.325   0.633   1.972
10285SOL    HW131754   5.253   0.695   2.000
10285SOL    HW231755   5.285   0.545   1.944
10286SOL     OW31756   3.113   1.712   3.811
10286SOL    HW131757   3.116   1.758   3.722
10286SOL    HW231758   3.040   1.643   3.811
10287SOL     OW31759   2.618   6.930   0.978
10287SOL    HW131760   2.574   6.922   1.067
10287SOL    HW231761   2.594   6.851   0.922
10288SOL     OW31762   4.420   5.999   3.248
10288SOL    HW131763   4.495   6.065   3.237
10288SOL    HW231764   4.456   5.912   3.281
10289SOL     OW31765   1.752   0.023   1.586
10289SOL    HW131766   1.715   0.011   1.494
10289SOL    HW231767   1.684   7.012   1.653
10290SOL     OW31768   2.874   3.382   2.364
10290SOL    HW131769   2.894   3.466   2.415
10290SOL    HW231770   2.862   3.306   2.428
10291SOL     OW31771   3.749   1.563   3.201
10291SOL    HW131772   3.786   1.635   3.143
10291SOL    HW231773   3.788   1.570   3.293
10292SOL     OW31774   1.328   0.534   5.149
10292SOL    HW131775   1.367   0.517   5.240
10292SOL    HW231776   1.331   0.632   5.129
10293SOL     OW31777   1.897   4.430   3.494
10293SOL    HW131778   1.797   4.430   3.505
10293SOL    HW231779   1.925   4.354   3.437
10294SOL     OW31780   5.513   3.501   2.680
10294SOL    HW131781   5.420   3.525   2.652
10294SOL    HW231782   5.509   3.430   2.750
10295SOL     OW31783   5.583   4.697   6.060
10295SOL    HW131784   5.634   4.674   5.977
10295SOL    HW231785   5.487   4.671   6.047
10296SOL     OW31786   4.847   2.636   0.699
10296SOL    HW131787   4.868   2.566   0.630
10296SOL    HW231788   4.925   2.644   0.761
10297SOL     OW31789   2.251   6.960   6.790
10297SOL    HW131790   2.229   6.922   6.880
10297SOL    HW231791   2.242   6.889   6.721
10298SOL     OW31792   3.209   4.742   1.651
10298SOL    HW131793   3.177   4.744   1.556
10298SOL    HW231794   3.180   4.656   1.694
10299SOL     OW31795   4.690   5.005   3.063
10299SOL    HW131796   4.774   4.951   3.053
10299SOL    HW231797   4.632   4.963   3.133
10300SOL     OW31798   1.012   3.823   3.175
10300SOL    HW131799   0.949   3.745   3.168
10300SOL    HW231800   0.995   3.887   3.100
10301SOL     OW31801   5.558   2.220   4.201
10301SOL    HW131802   5.485   2.244   4.139
10301SOL    HW231803   5.604   2.302   4.233
10302SOL     OW31804   1.893   6.548   4.022
10302SOL    HW131805   1.861   6.516   3.933
10302SOL    HW231806   1.991   6.531   4.030
10303SOL     OW31807   1.749   6.077   2.517
10303SOL    HW131808   1.669   6.121   2.558
10303SOL    HW231809   1.809   6.044   2.590
10304SOL     OW31810   4.895   0.311   1.730
10304SOL    HW131811   4.903   0.339   1.826
10304SOL    HW231812   4.924   0.386   1.671
10305SOL     OW31813   0.840   4.269   0.241
10305SOL    HW131814   0.802   4.198   0.301
10305SOL    HW231815   0.917   4.231   0.189
10306SOL     OW31816   4.433   6.499   6.151
10306SOL    HW131817   4.504   6.433   6.173
10306SOL    HW231818   4.388   6.528   6.236
10307SOL     OW31819   2.354   2.084   5.492
10307SOL    HW131820   2.400   2.016   5.549
10307SOL    HW231821   2.421   2.125   5.429
10308SOL     OW31822   2.314   4.697   3.355
10308SOL    HW131823   2.259   4.620   3.387
10308SOL    HW231824   2.408   4.688   3.388
10309SOL     OW31825   5.491   1.833   4.622
10309SOL    HW131826   5.486   1.930   4.599
10309SOL    HW231827   5.452   1.779   4.547
10310SOL     OW31828   2.976   3.310   1.536
10310SOL    HW131829   2.907   3.371   1.574
10310SOL    HW231830   2.973   3.222   1.584
10311SOL     OW31831   0.971   6.531   6.890
10311SOL    HW131832   1.036   6.470   6.936
10311SOL    HW231833   1.018   6.615   6.863
10312SOL     OW31834   2.433   6.249   1.722
10312SOL    HW131835   2.488   6.329   1.745
10312SOL    HW231836   2.339   6.278   1.705
10313SOL     OW31837   5.212   0.072   1.322
10313SOL    HW131838   5.113   0.075   1.309
10313SOL    HW231839   5.236   0.120   1.406
10314SOL     OW31840   6.430   0.077   2.129
10314SOL    HW131841   6.422   0.024   2.045
10314SOL    HW231842   6.394   0.169   2.114
10315SOL     OW31843   5.993   5.961   4.679
10315SOL    HW131844   6.005   6.032   4.610
10315SOL    HW231845   5.948   6.001   4.760
10316SOL     OW31846   6.349   2.790   4.923
10316SOL    HW131847   6.413   2.757   4.992
10316SOL    HW231848   6.394   2.861   4.868
10317SOL     OW31849   3.111   5.799   5.442
10317SOL    HW131850   3.028   5.757   5.480
10317SOL    HW231851   3.093   5.895   5.421
10318SOL     OW31852   5.801   5.601   6.518
10318SOL    HW131853   5.853   5.618   6.434
10318SOL    HW231854   5.846   5.645   6.595
10319SOL     OW31855   1.282   2.207   5.627
10319SOL    HW131856   1.297   2.267   5.706
10319SOL    HW231857   1.328   2.120   5.642
10320SOL     OW31858   0.852   0.555   2.829
10320SOL    HW131859   0.843   0.651   2.857
10320SOL    HW231860   0.766   0.507   2.846
10321SOL     OW31861   4.891   0.364   2.774
10321SOL    HW131862   4.868   0.360   2.677
10321SOL    HW231863   4.828   0.305   2.826
10322SOL     OW31864   6.408   5.323   6.795
10322SOL    HW131865   6.376   5.240   6.750
10322SOL    HW231866   6.331   5.386   6.807
10323SOL     OW31867   6.721   3.574   5.960
10323SOL    HW131868   6.650   3.503   5.959
10323SOL    HW231869   6.684   3.656   6.002
10324SOL     OW31870   3.498   2.906   2.789
10324SOL    HW131871   3.433   2.853   2.843
10324SOL    HW231872   3.519   2.857   2.704
10325SOL     OW31873   0.059   3.702   3.303
10325SOL    HW131874   0.090   3.676   3.395
10325SOL    HW231875   0.081   3.799   3.287
10326SOL     OW31876   4.009   3.179   0.654
10326SOL    HW131877   3.976   3.201   0.746
10326SOL    HW231878   3.965   3.239   0.587
10327SOL     OW31879   2.641   2.463   2.059
10327SOL    HW131880   2.727   2.420   2.087
10327SOL    HW231881   2.575   2.458   2.134
10328SOL     OW31882   6.502   2.737   1.672
10328SOL    HW131883   6.443   2.813   1.648
10328SOL    HW231884   6.480   2.657   1.616
10329SOL     OW31885   3.609   0.389   2.783
10329SOL    HW131886   3.647   0.470   2.828
10329SOL    HW231887   3.682   0.325   2.762
10330SOL     OW31888   3.933   6.266   1.768
10330SOL    HW131889   3.850   6.215   1.792
10330SOL    HW231890   3.932   6.355   1.813
10331SOL     OW31891   6.811   0.929   4.426
10331SOL    HW131892   6.883   0.939   4.357
10331SOL    HW231893   6.819   1.002   4.494
10332SOL     OW31894   6.511   0.886   1.104
10332SOL    HW131895   6.476   0.975   1.134
10332SOL    HW231896   6.541   0.834   1.184
10333SOL     OW31897   6.684   4.785   4.430
10333SOL    HW131898   6.728   4.816   4.345
10333SOL    HW231899   6.752   4.783   4.503
10334SOL     OW31900   3.128   6.433   4.264
10334SOL    HW131901   3.159   6.517   4.219
10334SOL    HW231902   3.207   6.375   4.283
10335SOL     OW31903   2.920   4.496   6.649
10335SOL    HW131904   2.951   4.570   6.589
10335SOL    HW231905   2.862   4.533   6.721
10336SOL     OW31906   5.607   0.389   2.983
10336SOL    HW131907   5.602   0.450   3.062
10336SOL    HW231908   5.703   0.378   2.956
10337SOL     OW31909   6.895   6.755   5.645
10337SOL    HW131910   6.926   6.714   5.559
10337SOL    HW231911   6.947   6.714   5.721
10338SOL     OW31912   2.149   6.349   1.435
10338SOL    HW131913   2.149   6.350   1.535
10338SOL    HW231914   2.201   6.271   1.403
10339SOL     OW31915   2.247   5.315   0.133
10339SOL    HW131916   2.340   5.278   0.136
10339SOL    HW231917   2.249   5.405   0.089
10340SOL     OW31918   0.942   5.874   0.373
10340SOL    HW131919   0.853   5.830   0.379
10340SOL    HW231920   1.001   5.840   0.446
10341SOL     OW31921   2.063   3.498   1.743
10341SOL    HW131922   2.134   3.478   1.810
10341SOL    HW231923   2.004   3.571   1.776
10342SOL     OW31924   1.085   6.617   4.882
10342SOL    HW131925   1.163   6.570   4.840
10342SOL    HW231926   1.080   6.592   4.979
10343SOL     OW31927   1.820   4.898   0.846
10343SOL    HW131928   1.778   4.931   0.762
10343SOL    HW231929   1.888   4.964   0.878
10344SOL     OW31930   4.323   3.657   1.671
10344SOL    HW131931   4.304   3.598   1.592
10344SOL    HW231932   4.416   3.693   1.664
10345SOL     OW31933   1.754   1.072   6.886
10345SOL    HW131934   1.824   1.002   6.872
10345SOL    HW231935   1.797   1.162   6.889
10346SOL     OW31936   6.018   0.566   1.594
10346SOL    HW131937   5.949   0.609   1.651
10346SOL    HW231938   5.988   0.474   1.568
10347SOL     OW31939   5.348   2.415   2.332
10347SOL    HW131940   5.415   2.400   2.404
10347SOL    HW231941   5.374   2.494   2.277
10348SOL     OW31942   6.484   1.418   0.519
10348SOL    HW131943   6.490   1.480   0.597
10348SOL    HW231944   6.541   1.452   0.444
10349SOL     OW31945   6.479   1.781   1.386
10349SOL    HW131946   6.434   1.696   1.413
10349SOL    HW231947   6.578   1.770   1.395
10350SOL     OW31948   1.905   5.823   5.636
10350SOL    HW131949   1.979   5.885   5.663
10350SOL    HW231950   1.918   5.734   5.680
10351SOL     OW31951   5.087   5.110   6.603
10351SOL    HW131952   5.058   5.018   6.630
10351SOL    HW231953   5.128   5.107   6.512
10352SOL     OW31954   5.112   2.305   0.075
10352SOL    HW131955   5.031   2.301   0.016
10352SOL    HW231956   5.194   2.287   0.020
10353SOL     OW31957   6.291   2.674   5.492
10353SOL    HW131958   6.375   2.650   5.541
10353SOL    HW231959   6.315   2.709   5.401
10354SOL     OW31960   6.614   2.213   2.119
10354SOL    HW131961   6.643   2.295   2.068
10354SOL    HW231962   6.563   2.152   2.057
10355SOL     OW31963   1.997   0.179   1.566
10355SOL    HW131964   1.998   0.279   1.563
10355SOL    HW231965   1.915   0.148   1.614
10356SOL     OW31966   6.936   4.158   5.891
10356SOL    HW131967   6.944   4.257   5.897
10356SOL    HW231968   6.867   4.126   5.956
10357SOL     OW31969   3.534   2.713   6.628
10357SOL    HW131970   3.583   2.775   6.690
10357SOL    HW231971   3.532   2.753   6.536
10358SOL     OW31972   6.311   3.547   3.873
10358SOL    HW131973   6.253   3.588   3.943
10358SOL    HW231974   6.390   3.606   3.855
10359SOL     OW31975   5.901   1.847   1.867
10359SOL    HW131976   5.908   1.832   1.966
10359SOL    HW231977   5.988   1.823   1.824
10360SOL     OW31978   4.546   5.682   1.509
10360SOL    HW131979   4.462   5.653   1.557
10360SOL    HW231980   4.521   5.734   1.428
10361SOL     OW31981   3.032   1.321   2.750
10361SOL    HW131982   2.977   1.251   2.704
10361SOL    HW231983   3.024   1.408   2.702
10362SOL     OW31984   0.115   5.259   3.249
10362SOL    HW131985   0.213   5.253   3.230
10362SOL    HW231986   0.093   5.207   3.332
10363SOL     OW31987   4.626   2.573   1.084
10363SOL    HW131988   4.711   2.520   1.082
10363SOL    HW231989   4.643   2.666   1.052
10364SOL     OW31990   3.847   3.952   1.535
10364SOL    HW131991   3.925   4.007   1.567
10364SOL    HW231992   3.810   3.994   1.452
10365SOL     OW31993   4.912   4.520   5.793
10365SOL    HW131994   4.845   4.584   5.832
10365SOL    HW231995   5.003   4.542   5.829
10366SOL     OW31996   3.589   0.273   4.188
10366SOL    HW131997   3.542   0.204   4.134
10366SOL    HW231998   3.610   0.237   4.279
10367SOL     OW31999   0.233   2.337   2.018
10367SOL    HW132000   0.203   2.371   2.108
10367SOL    HW232001   0.177   2.378   1.946
10368SOL     OW32002   2.506   1.205   2.642
10368SOL    HW132003   2.450   1.214   2.724
10368SOL    HW232004   2.578   1.138   2.658
10369SOL     OW32005   2.367   0.467   5.353
10369SOL    HW132006   2.295   0.507   5.409
10369SOL    HW232007   2.371   0.515   5.265
10370SOL     OW32008   5.765   1.223   5.374
10370SOL    HW132009   5.801   1.131   5.360
10370SOL    HW232010   5.817   1.288   5.319
10371SOL     OW32011   1.969   6.189   4.535
10371SOL    HW132012   1.941   6.183   4.631
10371SOL    HW232013   1.898   6.148   4.477
10372SOL     OW32014   1.923   1.356   6.969
10372SOL    HW132015   2.015   1.396   6.974
10372SOL    HW232016   1.881   1.359   0.041
10373SOL     OW32017   1.842   6.506   5.133
10373SOL    HW132018   1.839   6.606   5.133
10373SOL    HW232019   1.749   6.470   5.126
10374SOL     OW32020   3.248   1.009   4.012
10374SOL    HW132021   3.294   1.075   3.952
10374SOL    HW232022   3.179   0.960   3.959
10375SOL     OW32023   2.129   1.932   6.027
10375SOL    HW132024   2.222   1.909   6.055
10375SOL    HW232025   2.117   1.912   5.930
10376SOL     OW32026   1.078   5.322   3.880
10376SOL    HW132027   1.175   5.316   3.903
10376SOL    HW232028   1.029   5.367   3.954
10377SOL     OW32029   6.868   0.853   2.942
10377SOL    HW132030   6.826   0.855   2.851
10377SOL    HW232031   6.869   0.945   2.981
10378SOL     OW32032   5.705   5.976   5.679
10378SOL    HW132033   5.786   6.004   5.730
10378SOL    HW232034   5.729   5.964   5.582
10379SOL     OW32035   3.211   6.667   4.146
10379SOL    HW132036   3.194   6.702   4.054
10379SOL    HW232037   3.309   6.674   4.167
10380SOL     OW32038   0.639   2.484   4.932
10380SOL    HW132039   0.596   2.394   4.927
10380SOL    HW232040   0.577   2.549   4.975
10381SOL     OW32041   4.332   4.411   0.866
10381SOL    HW132042   4.306   4.474   0.939
10381SOL    HW232043   4.311   4.317   0.894
10382SOL     OW32044   1.502   5.086   1.589
10382SOL    HW132045   1.518   5.137   1.505
10382SOL    HW232046   1.550   4.999   1.586
10383SOL     OW32047   0.934   4.186   1.238
10383SOL    HW132048   0.874   4.257   1.274
10383SOL    HW232049   1.028   4.201   1.270
10384SOL     OW32050   6.621   0.189   1.385
10384SOL    HW132051   6.610   0.108   1.442
10384SOL    HW232052   6.573   0.267   1.426
10385SOL     OW32053   4.129   5.920   6.140
10385SOL    HW132054   4.115   5.835   6.191
10385SOL    HW232055   4.182   5.984   6.195
10386SOL     OW32056   6.773   1.899   5.568
10386SOL    HW132057   6.774   1.900   5.468
10386SOL    HW232058   6.684   1.865   5.600
10387SOL     OW32059   4.353   1.791   2.705
10387SOL    HW132060   4.284   1.789   2.632
10387SOL    HW232061   4.372   1.698   2.736
10388SOL     OW32062   1.824   5.865   1.633
10388SOL    HW132063   1.849   5.773   1.601
10388SOL    HW232064   1.903   5.908   1.676
10389SOL     OW32065   6.194   5.898   1.360
10389SOL    HW132066   6.168   5.801   1.360
10389SOL    HW232067   6.292   5.906   1.342
10390SOL     OW32068   1.650   2.482   1.059
10390SOL    HW132069   1.746   2.455   1.059
10390SOL    HW232070   1.641   2.571   1.013
10391SOL     OW32071   6.986   6.665   3.593
10391SOL    HW132072   0.047   6.606   3.610
10391SOL    HW232073   6.965   6.666   3.495
10392SOL     OW32074   6.606   4.692   5.662
10392SOL    HW132075   6.673   4.625   5.694
10392SOL    HW232076   6.534   4.703   5.731
10393SOL     OW32077   2.328   2.483   3.149
10393SOL    HW132078   2.359   2.565   3.196
10393SOL    HW232079   2.249   2.444   3.197
10394SOL     OW32080   2.048   5.886   4.631
10394SOL    HW132081   2.098   5.972   4.627
10394SOL    HW232082   2.101   5.818   4.683
10395SOL     OW32083   6.708   0.781   3.271
10395SOL    HW132084   6.805   0.790   3.249
10395SOL    HW232085   6.697   0.720   3.350
10396SOL     OW32086   3.707   1.334   3.474
10396SOL    HW132087   3.614   1.327   3.510
10396SOL    HW232088   3.730   1.250   3.424
10397SOL     OW32089   2.561   1.372   4.476
10397SOL    HW132090   2.475   1.391   4.429
10397SOL    HW232091   2.637   1.406   4.421
10398SOL     OW32092   4.908   2.324   0.792
10398SOL    HW132093   4.963   2.241   0.787
10398SOL    HW232094   4.866   2.342   0.703
10399SOL     OW32095   4.751   2.115   4.485
10399SOL    HW132096   4.685   2.161   4.426
10399SOL    HW232097   4.839   2.162   4.480
10400SOL     OW32098   4.344   5.599   0.136
10400SOL    HW132099   4.244   5.590   0.139
10400SOL    HW232100   4.386   5.526   0.190
10401SOL     OW32101   0.106   6.945   2.245
10401SOL    HW132102   0.064   6.864   2.203
10401SOL    HW232103   0.178   6.980   2.185
10402SOL     OW32104   6.403   1.744   4.998
10402SOL    HW132105   6.378   1.667   5.057
10402SOL    HW232106   6.448   1.815   5.053
10403SOL     OW32107   4.429   1.700   2.383
10403SOL    HW132108   4.396   1.785   2.342
10403SOL    HW232109   4.350   1.647   2.417
10404SOL     OW32110   6.384   6.557   4.374
10404SOL    HW132111   6.292   6.552   4.334
10404SOL    HW232112   6.378   6.548   4.473
10405SOL     OW32113   0.908   6.201   4.332
10405SOL    HW132114   0.970   6.156   4.396
10405SOL    HW232115   0.959   6.236   4.254
10406SOL     OW32116   2.186   3.237   5.330
10406SOL    HW132117   2.179   3.178   5.250
10406SOL    HW232118   2.246   3.194   5.398
10407SOL     OW32119   2.468   0.485   6.867
10407SOL    HW132120   2.565   0.475   6.889
10407SOL    HW232121   2.453   0.571   6.819
10408SOL     OW32122   4.122   6.498   1.675
10408SOL    HW132123   4.199   6.439   1.700
10408SOL    HW232124   4.066   6.515   1.756
10409SOL     OW32125   0.355   4.211   0.195
10409SOL    HW132126   0.271   4.160   0.216
10409SOL    HW232127   0.427   4.183   0.259
10410SOL     OW32128   6.204   2.985   1.881
10410SOL    HW132129   6.301   2.962   1.886
10410SOL    HW232130   6.194   3.083   1.862
10411SOL     OW32131   3.385   6.350   4.334
10411SOL    HW132132   3.410   6.262   4.374
10411SOL    HW232133   3.429   6.424   4.385
10412SOL     OW32134   6.868   1.392   6.875
10412SOL    HW132135   6.883   1.364   6.780
10412SOL    HW232136   6.916   1.329   6.936
10413SOL     OW32137   6.534   2.660   1.931
10413SOL    HW132138   6.530   2.696   1.838
10413SOL    HW232139   6.457   2.599   1.946
10414SOL     OW32140   3.590   5.709   5.968
10414SOL    HW132141   3.590   5.681   5.872
10414SOL    HW232142   3.684   5.727   5.997
10415SOL     OW32143   2.027   4.325   4.212
10415SOL    HW132144   2.018   4.374   4.299
10415SOL    HW232145   1.954   4.355   4.149
10416SOL     OW32146   6.157   6.557   5.442
10416SOL    HW132147   6.078   6.539   5.382
10416SOL    HW232148   6.157   6.492   5.518
10417SOL     OW32149   4.611   5.371   4.684
10417SOL    HW132150   4.619   5.276   4.654
10417SOL    HW232151   4.590   5.374   4.781
10418SOL     OW32152   6.590   4.466   6.290
10418SOL    HW132153   6.590   4.423   6.381
10418SOL    HW232154   6.577   4.565   6.301
10419SOL     OW32155   3.219   6.894   6.091
10419SOL    HW132156   3.170   6.952   6.156
10419SOL    HW232157   3.257   6.952   6.018
10420SOL     OW32158   6.856   4.518   4.127
10420SOL    HW132159   6.912   4.601   4.128
10420SOL    HW232160   6.909   4.442   4.166
10421SOL     OW32161   1.777   3.621   4.223
10421SOL    HW132162   1.765   3.633   4.124
10421SOL    HW232163   1.749   3.705   4.270
10422SOL     OW32164   6.918   3.159   5.509
10422SOL    HW132165   6.982   3.195   5.578
10422SOL    HW232166   6.869   3.235   5.467
10423SOL     OW32167   5.350   5.442   5.513
10423SOL    HW132168   5.409   5.522   5.499
10423SOL    HW232169   5.299   5.453   5.598
10424SOL     OW32170   4.263   2.997   0.234
10424SOL    HW132171   4.205   3.078   0.242
10424SOL    HW232172   4.353   3.015   0.273
10425SOL     OW32173   0.896   6.116   2.744
10425SOL    HW132174   0.821   6.181   2.740
10425SOL    HW232175   0.898   6.062   2.659
10426SOL     OW32176   5.274   4.563   6.571
10426SOL    HW132177   5.369   4.592   6.570
10426SOL    HW232178   5.253   4.519   6.659
10427SOL     OW32179   4.824   0.563   0.087
10427SOL    HW132180   4.738   0.613   0.096
10427SOL    HW232181   4.900   0.624   0.110
10428SOL     OW32182   3.331   1.467   3.835
10428SOL    HW132183   3.327   1.567   3.832
10428SOL    HW232184   3.288   1.434   3.919
10429SOL     OW32185   0.388   4.227   2.876
10429SOL    HW132186   0.360   4.202   2.783
10429SOL    HW232187   0.307   4.246   2.931
10430SOL     OW32188   3.690   6.452   4.908
10430SOL    HW132189   3.769   6.408   4.951
10430SOL    HW232190   3.664   6.399   4.827
10431SOL     OW32191   2.522   6.505   4.184
10431SOL    HW132192   2.587   6.437   4.218
10431SOL    HW232193   2.441   6.506   4.243
10432SOL     OW32194   6.365   0.765   4.878
10432SOL    HW132195   6.286   0.804   4.832
10432SOL    HW232196   6.449   0.797   4.834
10433SOL     OW32197   0.703   6.612   2.507
10433SOL    HW132198   0.702   6.519   2.546
10433SOL    HW232199   0.797   6.639   2.487
10434SOL     OW32200   3.101   6.409   3.526
10434SOL    HW132201   3.013   6.441   3.561
10434SOL    HW232202   3.127   6.325   3.572
10435SOL     OW32203   1.811   2.005   4.875
10435SOL    HW132204   1.783   2.059   4.795
10435SOL    HW232205   1.785   1.910   4.861
10436SOL     OW32206   5.950   4.142   4.703
10436SOL    HW132207   5.884   4.196   4.755
10436SOL    HW232208   6.039   4.189   4.704
10437SOL     OW32209   5.785   4.673   6.239
10437SOL    HW132210   5.714   4.687   6.170
10437SOL    HW232211   5.875   4.685   6.197
10438SOL     OW32212   0.735   5.935   5.982
10438SOL    HW132213   0.799   5.913   6.057
10438SOL    HW232214   0.659   5.989   6.018
10439SOL     OW32215   4.461   1.148   4.702
10439SOL    HW132216   4.441   1.050   4.698
10439SOL    HW232217   4.486   1.181   4.611
10440SOL     OW32218   0.205   6.589   0.580
10440SOL    HW132219   0.249   6.675   0.556
10440SOL    HW232220   0.161   6.550   0.499
10441SOL     OW32221   3.378   1.570   1.251
10441SOL    HW132222   3.430   1.523   1.180
10441SOL    HW232223   3.285   1.586   1.219
10442SOL     OW32224   4.312   6.304   5.163
10442SOL    HW132225   4.398   6.287   5.211
10442SOL    HW232226   4.269   6.388   5.198
10443SOL     OW32227   5.103   2.399   3.199
10443SOL    HW132228   5.019   2.454   3.203
10443SOL    HW232229   5.106   2.348   3.113
10444SOL     OW32230   4.248   5.655   2.610
10444SOL    HW132231   4.251   5.704   2.523
10444SOL    HW232232   4.183   5.579   2.603
10445SOL     OW32233   0.355   4.450   3.401
10445SOL    HW132234   0.326   4.514   3.472
10445SOL    HW232235   0.279   4.390   3.377
10446SOL     OW32236   1.954   2.720   6.316
10446SOL    HW132237   1.901   2.654   6.369
10446SOL    HW232238   1.894   2.767   6.251
10447SOL     OW32239   0.259   0.732   2.900
10447SOL    HW132240   0.346   0.693   2.929
10447SOL    HW232241   0.209   0.767   2.979
10448SOL     OW32242   4.355   0.573   2.367
10448SOL    HW132243   4.355   0.618   2.456
10448SOL    HW232244   4.263   0.537   2.349
10449SOL     OW32245   1.893   5.700   6.115
10449SOL    HW132246   1.930   5.609   6.094
10449SOL    HW232247   1.798   5.691   6.143
10450SOL     OW32248   0.636   1.215   6.773
10450SOL    HW132249   0.615   1.192   6.868
10450SOL    HW232250   0.734   1.225   6.762
10451SOL     OW32251   1.970   5.819   2.943
10451SOL    HW132252   1.921   5.736   2.967
10451SOL    HW232253   2.059   5.795   2.903
10452SOL     OW32254   6.031   3.142   2.681
10452SOL    HW132255   6.027   3.223   2.740
10452SOL    HW232256   6.071   3.066   2.732
10453SOL     OW32257   5.585   6.610   1.793
10453SOL    HW132258   5.487   6.612   1.772
10453SOL    HW232259   5.632   6.552   1.726
10454SOL     OW32260   5.267   3.012   0.326
10454SOL    HW132261   5.291   3.033   0.231
10454SOL    HW232262   5.338   2.954   0.365
10455SOL     OW32263   0.107   6.437   3.677
10455SOL    HW132264   0.012   6.418   3.654
10455SOL    HW232265   0.163   6.435   3.594
10456SOL     OW32266   1.396   5.600   0.803
10456SOL    HW132267   1.396   5.624   0.706
10456SOL    HW232268   1.304   5.613   0.840
10457SOL     OW32269   3.627   2.862   0.377
10457SOL    HW132270   3.666   2.953   0.364
10457SOL    HW232271   3.596   2.825   0.289
10458SOL     OW32272   6.521   6.901   6.216
10458SOL    HW132273   6.602   6.959   6.220
10458SOL    HW232274   6.440   6.958   6.201
10459SOL     OW32275   4.388   6.011   1.410
10459SOL    HW132276   4.293   5.986   1.390
10459SOL    HW232277   4.397   6.110   1.411
10460SOL     OW32278   1.214   4.279   1.322
10460SOL    HW132279   1.199   4.378   1.312
10460SOL    HW232280   1.278   4.262   1.397
10461SOL     OW32281   6.028   5.176   5.076
10461SOL    HW132282   5.939   5.137   5.052
10461SOL    HW232283   6.047   5.255   5.017
10462SOL     OW32284   5.117   2.176   3.008
10462SOL    HW132285   5.146   2.120   3.086
10462SOL    HW232286   5.136   2.128   2.923
10463SOL     OW32287   4.131   2.218   6.333
10463SOL    HW132288   4.204   2.210   6.264
10463SOL    HW232289   4.044   2.237   6.287
10464SOL     OW32290   6.272   6.361   2.037
10464SOL    HW132291   6.288   6.460   2.036
10464SOL    HW232292   6.356   6.314   2.063
10465SOL     OW32293   6.248   5.667   0.989
10465SOL    HW132294   6.228   5.756   1.031
10465SOL    HW232295   6.334   5.631   1.025
10466SOL     OW32296   4.525   5.005   5.586
10466SOL    HW132297   4.456   5.068   5.621
10466SOL    HW232298   4.515   4.916   5.632
10467SOL     OW32299   2.302   2.038   0.324
10467SOL    HW132300   2.202   2.041   0.323
10467SOL    HW232301   2.332   1.965   0.385
10468SOL     OW32302   3.855   5.206   3.386
10468SOL    HW132303   3.789   5.135   3.360
10468SOL    HW232304   3.854   5.217   3.485
10469SOL     OW32305   3.882   4.005   5.584
10469SOL    HW132306   3.946   3.931   5.607
10469SOL    HW232307   3.863   4.003   5.486
10470SOL     OW32308   1.993   2.413   4.030
10470SOL    HW132309   2.076   2.362   4.012
10470SOL    HW232310   1.970   2.408   4.127
10471SOL     OW32311   2.773   0.548   0.517
10471SOL    HW132312   2.864   0.557   0.557
10471SOL    HW232313   2.705   0.532   0.589
10472SOL     OW32314   3.530   5.551   0.585
10472SOL    HW132315   3.598   5.510   0.524
10472SOL    HW232316   3.563   5.640   0.616
10473SOL     OW32317   6.671   0.393   6.934
10473SOL    HW132318   6.660   0.339   6.851
10473SOL    HW232319   6.582   0.433   6.959
10474SOL     OW32320   4.658   1.212   3.813
10474SOL    HW132321   4.566   1.204   3.775
10474SOL    HW232322   4.661   1.168   3.903
10475SOL     OW32323   4.459   6.606   1.083
10475SOL    HW132324   4.378   6.594   1.026
10475SOL    HW232325   4.431   6.636   1.174
10476SOL     OW32326   6.843   6.546   6.759
10476SOL    HW132327   6.924   6.494   6.731
10476SOL    HW232328   6.760   6.500   6.725
10477SOL     OW32329   6.573   0.984   4.344
10477SOL    HW132330   6.498   0.928   4.380
10477SOL    HW232331   6.660   0.951   4.381
10478SOL     OW32332   6.559   0.614   0.698
10478SOL    HW132333   6.587   0.518   0.690
10478SOL    HW232334   6.520   0.644   0.610
10479SOL     OW32335   6.772   1.608   2.857
10479SOL    HW132336   6.856   1.611   2.803
10479SOL    HW232337   6.694   1.586   2.797
10480SOL     OW32338   0.661   0.818   1.762
10480SOL    HW132339   0.576   0.778   1.794
10480SOL    HW232340   0.648   0.855   1.670
10481SOL     OW32341   1.648   6.644   4.183
10481SOL    HW132342   1.617   6.719   4.124
10481SOL    HW232343   1.735   6.609   4.148
10482SOL     OW32344   6.513   5.099   4.253
10482SOL    HW132345   6.497   5.171   4.185
10482SOL    HW232346   6.562   5.023   4.211
10483SOL     OW32347   6.706   4.859   0.419
10483SOL    HW132348   6.736   4.790   0.354
10483SOL    HW232349   6.773   4.866   0.494
10484SOL     OW32350   6.065   1.700   1.449
10484SOL    HW132351   6.101   1.618   1.404
10484SOL    HW232352   5.991   1.674   1.511
10485SOL     OW32353   3.290   3.870   0.439
10485SOL    HW132354   3.192   3.854   0.443
10485SOL    HW232355   3.313   3.948   0.497
10486SOL     OW32356   0.317   0.852   0.043
10486SOL    HW132357   0.317   0.930   7.000
10486SOL    HW232358   0.231   0.802   0.034
10487SOL     OW32359   4.419   0.974   1.117
10487SOL    HW132360   4.381   0.892   1.074
10487SOL    HW232361   4.480   1.020   1.053
10488SOL     OW32362   3.380   0.798   5.738
10488SOL    HW132363   3.462   0.750   5.708
10488SOL    HW232364   3.404   0.891   5.765
10489SOL     OW32365   0.781   0.027   5.577
10489SOL    HW132366   0.817   0.047   5.668
10489SOL    HW232367   0.742   0.110   5.537
10490SOL     OW32368   5.981   1.549   1.096
10490SOL    HW132369   5.964   1.495   1.178
10490SOL    HW232370   5.899   1.550   1.039
10491SOL     OW32371   2.127   2.501   6.816
10491SOL    HW132372   2.179   2.468   6.894
10491SOL    HW232373   2.056   2.565   6.847
10492SOL     OW32374   5.753   5.110   6.607
10492SOL    HW132375   5.679   5.123   6.673
10492SOL    HW232376   5.773   5.198   6.562
10493SOL     OW32377   3.588   0.599   2.257
10493SOL    HW132378   3.540   0.616   2.343
10493SOL    HW232379   3.677   0.646   2.258
10494SOL     OW32380   5.387   4.248   5.951
10494SOL    HW132381   5.477   4.264   5.993
10494SOL    HW232382   5.375   4.310   5.874
10495SOL     OW32383   1.576   6.820   0.586
10495SOL    HW132384   1.547   6.812   0.682
10495SOL    HW232385   1.565   6.915   0.556
10496SOL     OW32386   7.015   3.917   5.820
10496SOL    HW132387   0.091   3.893   5.844
10496SOL    HW232388   6.999   4.014   5.843
10497SOL     OW32389   1.949   6.369   2.413
10497SOL    HW132390   1.882   6.332   2.477
10497SOL    HW232391   2.000   6.443   2.456
10498SOL     OW32392   4.475   5.504   0.621
10498SOL    HW132393   4.444   5.498   0.716
10498SOL    HW232394   4.442   5.590   0.580
10499SOL     OW32395   3.712   6.832   1.663
10499SOL    HW132396   3.686   6.761   1.729
10499SOL    HW232397   3.760   6.790   1.587
10500SOL     OW32398   6.058   1.474   6.343
10500SOL    HW132399   6.103   1.448   6.428
10500SOL    HW232400   5.981   1.413   6.326
10501SOL     OW32401   2.130   5.671   2.058
10501SOL    HW132402   2.218   5.630   2.082
10501SOL    HW232403   2.144   5.768   2.036
10502SOL     OW32404   2.859   0.835   1.684
10502SOL    HW132405   2.921   0.904   1.647
10502SOL    HW232406   2.894   0.801   1.771
10503SOL     OW32407   4.135   2.301   0.970
10503SOL    HW132408   4.038   2.297   0.947
10503SOL    HW232409   4.177   2.380   0.926
10504SOL     OW32410   0.535   1.959   5.453
10504SOL    HW132411   0.453   2.009   5.425
10504SOL    HW232412   0.611   1.986   5.394
10505SOL     OW32413   5.257   4.996   0.670
10505SOL    HW132414   5.161   5.024   0.681
10505SOL    HW232415   5.311   5.073   0.637
10506SOL     OW32416   6.872   4.813   0.665
10506SOL    HW132417   6.957   4.836   0.711
10506SOL    HW232418   6.865   4.713   0.655
10507SOL     OW32419   2.180   6.898   0.267
10507SOL    HW132420   2.245   6.839   0.315
10507SOL    HW232421   2.187   6.991   0.304
10508SOL     OW32422   6.258   6.240   4.905
10508SOL    HW132423   6.294   6.158   4.949
10508SOL    HW232424   6.286   6.321   4.957
10509SOL     OW32425   0.438   5.461   4.355
10509SOL    HW132426   0.376   5.396   4.312
10509SOL    HW232427   0.399   5.493   4.441
10510SOL     OW32428   4.679   5.647   6.326
10510SOL    HW132429   4.581   5.633   6.340
10510SOL    HW232430   4.727   5.559   6.333
10511SOL     OW32431   3.692   1.104   2.131
10511SOL    HW132432   3.741   1.130   2.047
10511SOL    HW232433   3.619   1.040   2.108
10512SOL     OW32434   3.961   0.603   6.657
10512SOL    HW132435   3.958   0.570   6.752
10512SOL    HW232436   3.876   0.651   6.636
10513SOL     OW32437   5.945   2.467   4.641
10513SOL    HW132438   5.984   2.556   4.664
10513SOL    HW232439   5.928   2.463   4.542
10514SOL     OW32440   0.607   3.627   1.361
10514SOL    HW132441   0.525   3.603   1.414
10514SOL    HW232442   0.623   3.726   1.368
10515SOL     OW32443   0.835   3.647   3.422
10515SOL    HW132444   0.844   3.723   3.486
10515SOL    HW232445   0.746   3.604   3.435
10516SOL     OW32446   4.103   1.387   0.592
10516SOL    HW132447   4.013   1.400   0.551
10516SOL    HW232448   4.131   1.292   0.581
10517SOL     OW32449   0.791   3.233   2.456
10517SOL    HW132450   0.761   3.326   2.473
10517SOL    HW232451   0.876   3.216   2.505
10518SOL     OW32452   0.638   5.990   6.754
10518SOL    HW132453   0.668   6.034   6.839
10518SOL    HW232454   0.538   5.997   6.747
10519SOL     OW32455   2.611   3.690   0.096
10519SOL    HW132456   2.511   3.686   0.105
10519SOL    HW232457   2.638   3.645   0.011
10520SOL     OW32458   0.317   2.548   6.056
10520SOL    HW132459   0.367   2.631   6.033
10520SOL    HW232460   0.227   2.550   6.013
10521SOL     OW32461   5.992   5.766   1.842
10521SOL    HW132462   5.976   5.863   1.821
10521SOL    HW232463   6.070   5.757   1.903
10522SOL     OW32464   0.769   1.005   5.330
10522SOL    HW132465   0.679   0.961   5.337
10522SOL    HW232466   0.824   0.981   5.411
10523SOL     OW32467   0.736   4.637   3.559
10523SOL    HW132468   0.778   4.666   3.645
10523SOL    HW232469   0.743   4.538   3.551
10524SOL     OW32470   1.513   0.248   4.574
10524SOL    HW132471   1.497   0.270   4.478
10524SOL    HW232472   1.587   0.181   4.581
10525SOL     OW32473   3.620   6.548   6.507
10525SOL    HW132474   3.691   6.600   6.555
10525SOL    HW232475   3.636   6.450   6.521
10526SOL     OW32476   1.853   0.129   3.776
10526SOL    HW132477   1.898   0.149   3.689
10526SOL    HW232478   1.897   0.049   3.818
10527SOL     OW32479   0.545   1.612   5.493
10527SOL    HW132480   0.455   1.651   5.511
10527SOL    HW232481   0.594   1.600   5.580
10528SOL     OW32482   1.710   2.993   6.000
10528SOL    HW132483   1.761   3.007   5.915
10528SOL    HW232484   1.767   2.943   6.065
10529SOL     OW32485   3.171   5.864   3.473
10529SOL    HW132486   3.265   5.854   3.505
10529SOL    HW232487   3.162   5.949   3.421
10530SOL     OW32488   1.843   0.007   6.647
10530SOL    HW132489   1.763   0.053   6.608
10530SOL    HW232490   1.924   0.031   6.594
10531SOL     OW32491   1.451   2.522   4.329
10531SOL    HW132492   1.535   2.519   4.274
10531SOL    HW232493   1.387   2.586   4.287
10532SOL     OW32494   1.200   6.145   6.100
10532SOL    HW132495   1.139   6.216   6.066
10532SOL    HW232496   1.150   6.058   6.107
10533SOL     OW32497   2.919   0.167   4.323
10533SOL    HW132498   2.871   0.241   4.277
10533SOL    HW232499   2.909   0.082   4.270
10534SOL     OW32500   6.162   6.130   1.556
10534SOL    HW132501   6.157   6.221   1.516
10534SOL    HW232502   6.214   6.070   1.495
10535SOL     OW32503   1.460   2.458   1.731
10535SOL    HW132504   1.393   2.403   1.681
10535SOL    HW232505   1.515   2.399   1.789
10536SOL     OW32506   4.477   0.126   3.826
10536SOL    HW132507   4.396   0.185   3.837
10536SOL    HW232508   4.554   0.165   3.876
10537SOL     OW32509   3.996   5.892   3.989
10537SOL    HW132510   4.062   5.817   3.992
10537SOL    HW232511   3.991   5.928   3.896
10538SOL     OW32512   5.410   2.250   1.169
10538SOL    HW132513   5.316   2.219   1.151
10538SOL    HW232514   5.467   2.231   1.089
10539SOL     OW32515   0.706   4.603   0.125
10539SOL    HW132516   0.672   4.534   0.063
10539SOL    HW232517   0.699   4.693   0.082
10540SOL     OW32518   1.480   1.787   5.373
10540SOL    HW132519   1.458   1.694   5.345
10540SOL    HW232520   1.496   1.843   5.291
10541SOL     OW32521   3.564   4.100   2.258
10541SOL    HW132522   3.486   4.133   2.205
10541SOL    HW232523   3.542   4.102   2.355
10542SOL     OW32524   0.045   0.214   5.423
10542SOL    HW132525   0.018   0.171   5.509
10542SOL    HW232526   0.138   0.187   5.400
10543SOL     OW32527   0.433   1.101   3.987
10543SOL    HW132528   0.429   1.166   4.063
10543SOL    HW232529   0.414   1.009   4.021
10544SOL     OW32530   2.568   6.497   1.830
10544SOL    HW132531   2.525   6.575   1.784
10544SOL    HW232532   2.665   6.518   1.845
10545SOL     OW32533   6.861   2.165   2.040
10545SOL    HW132534   6.850   2.197   1.946
10545SOL    HW232535   6.773   2.174   2.088
10546SOL     OW32536   2.046   0.629   0.201
10546SOL    HW132537   2.053   0.585   0.290
10546SOL    HW232538   2.130   0.612   0.149
10547SOL     OW32539   5.750   2.817   2.712
10547SOL    HW132540   5.706   2.904   2.733
10547SOL    HW232541   5.745   2.801   2.613
10548SOL     OW32542   5.357   4.253   4.314
10548SOL    HW132543   5.374   4.349   4.293
10548SOL    HW232544   5.301   4.246   4.396
10549SOL     OW32545   1.003   6.897   2.277
10549SOL    HW132546   1.066   6.975   2.288
10549SOL    HW232547   0.915   6.930   2.245
10550SOL     OW32548   4.649   6.053   3.499
10550SOL    HW132549   4.614   6.146   3.508
10550SOL    HW232550   4.693   6.043   3.410
10551SOL     OW32551   1.279   2.613   6.867
10551SOL    HW132552   1.303   2.589   6.961
10551SOL    HW232553   1.362   2.640   6.818
10552SOL     OW32554   3.434   0.580   5.981
10552SOL    HW132555   3.382   0.659   6.015
10552SOL    HW232556   3.532   0.601   5.984
10553SOL     OW32557   0.422   4.487   1.923
10553SOL    HW132558   0.360   4.530   1.989
10553SOL    HW232559   0.508   4.538   1.922
10554SOL     OW32560   5.562   4.893   6.965
10554SOL    HW132561   5.467   4.885   6.937
10554SOL    HW232562   5.596   4.805   6.997
10555SOL     OW32563   1.753   2.980   0.318
10555SOL    HW132564   1.826   3.044   0.340
10555SOL    HW232565   1.675   2.997   0.378
10556SOL     OW32566   2.123   1.844   5.776
10556SOL    HW132567   2.102   1.762   5.722
10556SOL    HW232568   2.062   1.918   5.748
10557SOL     OW32569   2.170   2.874   3.200
10557SOL    HW132570   2.086   2.819   3.203
10557SOL    HW232571   2.192   2.894   3.104
10558SOL     OW32572   3.859   0.840   3.319
10558SOL    HW132573   3.865   0.752   3.272
10558SOL    HW232574   3.916   0.838   3.401
10559SOL     OW32575   4.788   0.645   1.284
10559SOL    HW132576   4.883   0.637   1.312
10559SOL    HW232577   4.761   0.562   1.234
10560SOL     OW32578   4.021   6.166   3.082
10560SOL    HW132579   4.092   6.144   3.149
10560SOL    HW232580   4.010   6.265   3.077
10561SOL     OW32581   2.957   3.640   1.597
10561SOL    HW132582   3.047   3.632   1.640
10561SOL    HW232583   2.959   3.595   1.508
10562SOL     OW32584   4.826   5.099   0.321
10562SOL    HW132585   4.827   5.020   0.260
10562SOL    HW232586   4.918   5.138   0.327
10563SOL     OW32587   0.548   2.056   3.472
10563SOL    HW132588   0.551   2.109   3.387
10563SOL    HW232589   0.461   2.072   3.518
10564SOL     OW32590   5.713   5.879   2.386
10564SOL    HW132591   5.613   5.881   2.381
10564SOL    HW232592   5.743   5.795   2.431
10565SOL     OW32593   0.857   0.161   5.825
10565SOL    HW132594   0.825   0.099   5.895
10565SOL    HW232595   0.821   0.253   5.842
10566SOL     OW32596   3.352   1.527   6.307
10566SOL    HW132597   3.335   1.512   6.404
10566SOL    HW232598   3.286   1.593   6.272
10567SOL     OW32599   3.586   2.105   4.323
10567SOL    HW132600   3.610   2.010   4.346
10567SOL    HW232601   3.668   2.162   4.331
10568SOL     OW32602   6.469   3.089   1.905
10568SOL    HW132603   6.482   3.066   1.808
10568SOL    HW232604   6.452   3.188   1.914
10569SOL     OW32605   5.771   2.028   1.700
10569SOL    HW132606   5.757   2.007   1.603
10569SOL    HW232607   5.804   1.946   1.747
10570SOL     OW32608   1.085   5.504   3.663
10570SOL    HW132609   1.083   5.423   3.722
10570SOL    HW232610   1.178   5.543   3.664
10571SOL     OW32611   6.931   4.572   6.064
10571SOL    HW132612   6.974   4.533   5.983
10571SOL    HW232613   6.863   4.641   6.036
10572SOL     OW32614   0.154   4.311   3.721
10572SOL    HW132615   0.077   4.287   3.781
10572SOL    HW232616   0.132   4.287   3.627
10573SOL     OW32617   4.494   0.447   5.037
10573SOL    HW132618   4.577   0.404   5.073
10573SOL    HW232619   4.465   0.398   4.955
10574SOL     OW32620   1.718   1.537   4.508
10574SOL    HW132621   1.774   1.592   4.446
10574SOL    HW232622   1.777   1.483   4.567
10575SOL     OW32623   0.323   1.351   3.366
10575SOL    HW132624   0.422   1.363   3.359
10575SOL    HW232625   0.292   1.377   3.458
10576SOL     OW32626   0.147   6.322   4.727
10576SOL    HW132627   0.206   6.245   4.703
10576SOL    HW232628   0.057   6.288   4.753
10577SOL     OW32629   1.979   4.345   0.072
10577SOL    HW132630   1.933   4.411   0.013
10577SOL    HW232631   2.025   4.393   0.147
10578SOL     OW32632   4.926   1.426   2.417
10578SOL    HW132633   4.958   1.477   2.497
10578SOL    HW232634   4.943   1.329   2.431
10579SOL     OW32635   4.255   2.799   1.637
10579SOL    HW132636   4.217   2.874   1.583
10579SOL    HW232637   4.342   2.827   1.678
10580SOL     OW32638   6.852   0.103   6.796
10580SOL    HW132639   6.786   0.116   6.870
10580SOL    HW232640   6.888   0.010   6.799
10581SOL     OW32641   6.586   0.098   3.113
10581SOL    HW132642   6.654   0.090   3.040
10581SOL    HW232643   6.621   0.055   3.196
10582SOL     OW32644   5.712   4.974   6.026
10582SOL    HW132645   5.810   4.964   6.010
10582SOL    HW232646   5.690   4.945   6.119
10583SOL     OW32647   4.087   1.093   3.883
10583SOL    HW132648   3.995   1.102   3.921
10583SOL    HW232649   4.083   1.111   3.784
10584SOL     OW32650   6.562   6.914   1.504
10584SOL    HW132651   6.598   6.829   1.543
10584SOL    HW232652   6.561   6.907   1.404
10585SOL     OW32653   1.833   2.103   5.488
10585SOL    HW132654   1.930   2.103   5.465
10585SOL    HW232655   1.786   2.173   5.435
10586SOL     OW32656   6.364   5.832   5.227
10586SOL    HW132657   6.456   5.868   5.244
10586SOL    HW232658   6.354   5.811   5.130
10587SOL     OW32659   6.247   4.596   0.134
10587SOL    HW132660   6.228   4.504   0.100
10587SOL    HW232661   6.210   4.606   0.226
10588SOL     OW32662   1.052   3.041   4.277
10588SOL    HW132663   0.992   3.073   4.351
10588SOL    HW232664   1.062   3.113   4.209
10589SOL     OW32665   5.949   1.192   4.263
10589SOL    HW132666   5.858   1.184   4.304
10589SOL    HW232667   5.998   1.105   4.272
10590SOL     OW32668   1.050   0.530   1.872
10590SOL    HW132669   0.972   0.523   1.810
10590SOL    HW232670   1.134   0.504   1.823
10591SOL     OW32671   1.680   2.290   6.780
10591SOL    HW132672   1.674   2.201   6.825
10591SOL    HW232673   1.769   2.298   6.734
10592SOL     OW32674   5.257   3.584   2.597
10592SOL    HW132675   5.197   3.641   2.541
10592SOL    HW232676   5.210   3.559   2.682
10593SOL     OW32677   2.448   5.985   0.576
10593SOL    HW132678   2.541   5.985   0.612
10593SOL    HW232679   2.446   5.942   0.486
10594SOL     OW32680   5.211   0.443   1.781
10594SOL    HW132681   5.179   0.377   1.849
10594SOL    HW232682   5.133   0.480   1.731
10595SOL     OW32683   4.914   6.229   6.597
10595SOL    HW132684   4.930   6.203   6.501
10595SOL    HW232685   4.995   6.276   6.633
10596SOL     OW32686   4.292   6.831   0.059
10596SOL    HW132687   4.312   6.913   0.113
10596SOL    HW232688   4.360   6.761   0.080
10597SOL     OW32689   3.395   0.858   5.221
10597SOL    HW132690   3.340   0.932   5.260
10597SOL    HW232691   3.392   0.864   5.121
10598SOL     OW32692   2.905   3.126   0.146
10598SOL    HW132693   2.999   3.122   0.113
10598SOL    HW232694   2.870   3.034   0.161
10599SOL     OW32695   5.006   3.075   5.659
10599SOL    HW132696   5.068   3.031   5.595
10599SOL    HW232697   5.032   3.171   5.670
10600SOL     OW32698   2.248   3.149   0.370
10600SOL    HW132699   2.250   3.228   0.431
10600SOL    HW232700   2.237   3.179   0.276
10601SOL     OW32701   2.075   4.680   5.074
10601SOL    HW132702   2.160   4.639   5.041
10601SOL    HW232703   2.035   4.736   5.001
10602SOL     OW32704   3.541   1.392   1.976
10602SOL    HW132705   3.623   1.398   1.919
10602SOL    HW232706   3.547   1.458   2.050
10603SOL     OW32707   3.579   5.954   3.296
10603SOL    HW132708   3.637   6.023   3.251
10603SOL    HW232709   3.580   5.870   3.242
10604SOL     OW32710   6.106   5.693   5.713
10604SOL    HW132711   6.078   5.618   5.772
10604SOL    HW232712   6.091   5.669   5.618
10605SOL     OW32713   1.269   6.214   0.325
10605SOL    HW132714   1.306   6.207   0.417
10605SOL    HW232715   1.327   6.162   0.262
10606SOL     OW32716   6.810   0.785   2.376
10606SOL    HW132717   6.772   0.701   2.336
10606SOL    HW232718   6.900   0.764   2.416
10607SOL     OW32719   3.902   4.791   5.265
10607SOL    HW132720   3.899   4.864   5.334
10607SOL    HW232721   3.880   4.828   5.175
10608SOL     OW32722   5.300   2.474   5.632
10608SOL    HW132723   5.369   2.530   5.586
10608SOL    HW232724   5.209   2.514   5.617
10609SOL     OW32725   2.718   6.744   0.036
10609SOL    HW132726   2.732   6.827   6.999
10609SOL    HW232727   2.702   6.769   0.131
10610SOL     OW32728   0.699   2.327   5.158
10610SOL    HW132729   0.637   2.262   5.113
10610SOL    HW232730   0.736   2.390   5.089
10611SOL     OW32731   3.288   4.010   6.714
10611SOL    HW132732   3.255   3.939   6.652
10611SOL    HW232733   3.256   4.100   6.682
10612SOL     OW32734   3.525   1.038   4.542
10612SOL    HW132735   3.584   1.111   4.509
10612SOL    HW232736   3.528   1.034   4.642
10613SOL     OW32737   5.791   6.720   5.241
10613SOL    HW132738   5.886   6.741   5.263
10613SOL    HW232739   5.767   6.631   5.281
10614SOL     OW32740   5.863   1.966   4.460
10614SOL    HW132741   5.800   1.895   4.494
10614SOL    HW232742   5.953   1.952   4.500
10615SOL     OW32743   3.661   6.768   5.564
10615SOL    HW132744   3.658   6.708   5.644
10615SOL    HW232745   3.712   6.722   5.491
10616SOL     OW32746   2.923   6.079   1.361
10616SOL    HW132747   2.928   6.164   1.307
10616SOL    HW232748   3.012   6.033   1.360
10617SOL     OW32749   2.513   3.085   1.372
10617SOL    HW132750   2.607   3.088   1.340
10617SOL    HW232751   2.511   3.056   1.468
10618SOL     OW32752   0.480   3.462   6.193
10618SOL    HW132753   0.561   3.404   6.203
10618SOL    HW232754   0.421   3.425   6.121
10619SOL     OW32755   6.993   4.356   1.958
10619SOL    HW132756   0.075   4.345   1.959
10619SOL    HW232757   6.956   4.322   1.872
10620SOL     OW32758   1.607   5.345   5.013
10620SOL    HW132759   1.526   5.287   5.022
10620SOL    HW232760   1.673   5.301   4.952
10621SOL     OW32761   0.835   5.965   1.517
10621SOL    HW132762   0.913   6.004   1.468
10621SOL    HW232763   0.784   6.038   1.563
10622SOL     OW32764   5.470   1.970   1.325
10622SOL    HW132765   5.468   2.046   1.260
10622SOL    HW232766   5.424   1.891   1.286
10623SOL     OW32767   6.560   4.502   4.820
10623SOL    HW132768   6.653   4.481   4.788
10623SOL    HW232769   6.563   4.578   4.884
10624SOL     OW32770   0.690   2.712   4.780
10624SOL    HW132771   0.665   2.655   4.858
10624SOL    HW232772   0.629   2.791   4.776
10625SOL     OW32773   0.310   4.595   0.363
10625SOL    HW132774   0.232   4.651   0.388
10625SOL    HW232775   0.288   4.541   0.282
10626SOL     OW32776   2.538   3.350   0.401
10626SOL    HW132777   2.471   3.387   0.466
10626SOL    HW232778   2.625   3.335   0.447
10627SOL     OW32779   5.247   0.322   0.697
10627SOL    HW132780   5.307   0.384   0.647
10627SOL    HW232781   5.249   0.232   0.653
10628SOL     OW32782   5.115   6.102   0.221
10628SOL    HW132783   5.059   6.051   0.156
10628SOL    HW232784   5.204   6.057   0.230
10629SOL     OW32785   2.375   4.999   5.085
10629SOL    HW132786   2.433   4.917   5.077
10629SOL    HW232787   2.352   5.032   4.994
10630SOL     OW32788   6.631   1.298   3.543
10630SOL    HW132789   6.715   1.308   3.489
10630SOL    HW232790   6.598   1.204   3.537
10631SOL     OW32791   2.488   4.916   4.646
10631SOL    HW132792   2.531   4.826   4.655
10631SOL    HW232793   2.548   4.976   4.593
10632SOL     OW32794   5.933   1.873   4.051
10632SOL    HW132795   5.836   1.885   4.073
10632SOL    HW232796   5.949   1.895   3.955
10633SOL     OW32797   2.925   2.886   0.991
10633SOL    HW132798   2.884   2.818   0.929
10633SOL    HW232799   2.886   2.976   0.971
10634SOL     OW32800   3.326   5.305   0.583
10634SOL    HW132801   3.240   5.330   0.540
10634SOL    HW232802   3.397   5.371   0.559
10635SOL     OW32803   2.517   2.339   0.856
10635SOL    HW132804   2.444   2.396   0.820
10635SOL    HW232805   2.594   2.397   0.883
10636SOL     OW32806   1.357   1.878   1.679
10636SOL    HW132807   1.433   1.943   1.677
10636SOL    HW232808   1.271   1.927   1.674
10637SOL     OW32809   2.658   4.854   5.950
10637SOL    HW132810   2.700   4.818   5.866
10637SOL    HW232811   2.697   4.808   6.029
10638SOL     OW32812   6.701   5.653   2.835
10638SOL    HW132813   6.616   5.706   2.843
10638SOL    HW232814   6.739   5.665   2.743
10639SOL     OW32815   0.945   2.829   3.665
10639SOL    HW132816   0.982   2.737   3.662
10639SOL    HW232817   0.946   2.862   3.760
10640SOL     OW32818   3.686   0.296   5.343
10640SOL    HW132819   3.760   0.240   5.306
10640SOL    HW232820   3.676   0.379   5.288
10641SOL     OW32821   2.403   1.724   1.768
10641SOL    HW132822   2.488   1.697   1.722
10641SOL    HW232823   2.407   1.822   1.788
10642SOL     OW32824   0.110   3.311   2.016
10642SOL    HW132825   0.068   3.369   2.086
10642SOL    HW232826   0.040   3.276   1.955
10643SOL     OW32827   1.610   5.015   5.446
10643SOL    HW132828   1.682   5.083   5.463
10643SOL    HW232829   1.651   4.925   5.437
10644SOL     OW32830   5.307   2.576   3.273
10644SOL    HW132831   5.294   2.642   3.347
10644SOL    HW232832   5.225   2.519   3.265
10645SOL     OW32833   1.924   2.167   4.559
10645SOL    HW132834   1.842   2.135   4.606
10645SOL    HW232835   1.929   2.267   4.563
10646SOL     OW32836   6.815   0.604   6.768
10646SOL    HW132837   6.760   0.564   6.841
10646SOL    HW232838   6.761   0.606   6.683
10647SOL     OW32839   2.823   5.480   4.988
10647SOL    HW132840   2.788   5.390   5.017
10647SOL    HW232841   2.748   5.537   4.956
10648SOL     OW32842   5.637   4.457   6.325
10648SOL    HW132843   5.686   4.419   6.404
10648SOL    HW232844   5.690   4.532   6.286
10649SOL     OW32845   0.288   4.812   2.740
10649SOL    HW132846   0.361   4.789   2.675
10649SOL    HW232847   0.325   4.810   2.833
10650SOL     OW32848   0.578   6.418   3.688
10650SOL    HW132849   0.560   6.381   3.779
10650SOL    HW232850   0.570   6.346   3.620
10651SOL     OW32851   4.951   6.425   6.277
10651SOL    HW132852   4.967   6.429   6.376
10651SOL    HW232853   4.961   6.517   6.238
10652SOL     OW32854   3.521   6.544   5.910
10652SOL    HW132855   3.559   6.480   5.976
10652SOL    HW232856   3.501   6.631   5.956
10653SOL     OW32857   4.395   4.757   4.317
10653SOL    HW132858   4.378   4.659   4.311
10653SOL    HW232859   4.320   4.807   4.273
10654SOL     OW32860   4.692   0.864   1.079
10654SOL    HW132861   4.703   0.784   1.021
10654SOL    HW232862   4.781   0.896   1.110
10655SOL     OW32863   2.657   5.378   0.392
10655SOL    HW132864   2.745   5.363   0.437
10655SOL    HW232865   2.588   5.318   0.433
10656SOL     OW32866   6.627   2.332   2.370
10656SOL    HW132867   6.666   2.269   2.437
10656SOL    HW232868   6.618   2.286   2.282
10657SOL     OW32869   6.547   6.686   6.003
10657SOL    HW132870   6.542   6.784   6.024
10657SOL    HW232871   6.577   6.673   5.909
10658SOL     OW32872   5.866   4.684   5.467
10658SOL    HW132873   5.893   4.612   5.531
10658SOL    HW232874   5.795   4.741   5.510
10659SOL     OW32875   6.564   5.604   1.365
10659SOL    HW132876   6.534   5.513   1.336
10659SOL    HW232877   6.638   5.635   1.305
10660SOL     OW32878   5.358   3.995   6.984
10660SOL    HW132879   5.429   3.950   6.929
10660SOL    HW232880   5.317   3.927   0.027
10661SOL     OW32881   1.084   0.416   2.437
10661SOL    HW132882   0.991   0.451   2.443
10661SOL    HW232883   1.136   0.443   2.518
10662SOL     OW32884   5.548   0.621   3.524
10662SOL    HW132885   5.645   0.629   3.550
10662SOL    HW232886   5.493   0.608   3.606
10663SOL     OW32887   0.742   1.097   1.466
10663SOL    HW132888   0.718   1.160   1.539
10663SOL    HW232889   0.767   1.148   1.384
10664SOL     OW32890   0.750   4.740   5.588
10664SOL    HW132891   0.654   4.735   5.615
10664SOL    HW232892   0.788   4.828   5.617
10665SOL     OW32893   1.073   0.885   0.561
10665SOL    HW132894   1.155   0.919   0.514
10665SOL    HW232895   1.091   0.882   0.660
10666SOL     OW32896   3.249   3.823   1.380
10666SOL    HW132897   3.301   3.769   1.446
10666SOL    HW232898   3.231   3.767   1.299
10667SOL     OW32899   4.059   3.399   5.580
10667SOL    HW132900   4.055   3.344   5.663
10667SOL    HW232901   3.986   3.468   5.583
10668SOL     OW32902   1.481   0.991   4.832
10668SOL    HW132903   1.411   1.052   4.869
10668SOL    HW232904   1.496   0.915   4.896
10669SOL     OW32905   5.578   6.222   1.036
10669SOL    HW132906   5.602   6.286   0.962
10669SOL    HW232907   5.547   6.135   0.996
10670SOL     OW32908   5.203   3.970   5.145
10670SOL    HW132909   5.118   3.923   5.168
10670SOL    HW232910   5.259   3.980   5.228
10671SOL     OW32911   2.661   2.395   3.207
10671SOL    HW132912   2.612   2.392   3.120
10671SOL    HW232913   2.758   2.377   3.191
10672SOL     OW32914   5.972   2.704   0.325
10672SOL    HW132915   6.017   2.657   0.250
10672SOL    HW232916   5.956   2.640   0.400
10673SOL     OW32917   1.302   1.137   0.167
10673SOL    HW132918   1.350   1.114   0.083
10673SOL    HW232919   1.368   1.139   0.243
10674SOL     OW32920   3.202   3.675   1.764
10674SOL    HW132921   3.147   3.757   1.745
10674SOL    HW232922   3.156   3.620   1.833
10675SOL     OW32923   1.950   6.444   6.607
10675SOL    HW132924   1.927   6.533   6.570
10675SOL    HW232925   1.890   6.424   6.685
10676SOL     OW32926   5.862   6.798   5.916
10676SOL    HW132927   5.903   6.821   6.004
10676SOL    HW232928   5.802   6.873   5.886
10677SOL     OW32929   0.618   0.776   2.610
10677SOL    HW132930   0.519   0.771   2.625
10677SOL    HW232931   0.639   0.753   2.515
10678SOL     OW32932   3.229   5.549   3.497
10678SOL    HW132933   3.310   5.492   3.487
10678SOL    HW232934   3.251   5.629   3.553
10679SOL     OW32935   4.949   5.666   6.763
10679SOL    HW132936   4.896   5.613   6.829
10679SOL    HW232937   4.891   5.691   6.686
10680SOL     OW32938   2.847   1.550   3.486
10680SOL    HW132939   2.822   1.646   3.498
10680SOL    HW232940   2.796   1.511   3.410
10681SOL     OW32941   0.633   4.053   0.121
10681SOL    HW132942   0.725   4.056   0.081
10681SOL    HW232943   0.631   4.107   0.204
10682SOL     OW32944   2.001   1.626   4.393
10682SOL    HW132945   1.952   1.647   4.307
10682SOL    HW232946   2.077   1.690   4.404
10683SOL     OW32947   3.441   1.624   4.130
10683SOL    HW132948   3.450   1.701   4.066
10683SOL    HW232949   3.345   1.605   4.146
10684SOL     OW32950   5.374   4.162   1.028
10684SOL    HW132951   5.338   4.070   1.016
10684SOL    HW232952   5.350   4.195   1.120
10685SOL     OW32953   0.358   5.365   3.144
10685SOL    HW132954   0.368   5.381   3.242
10685SOL    HW232955   0.270   5.402   3.113
10686SOL     OW32956   0.918   4.547   6.589
10686SOL    HW132957   0.903   4.526   6.685
10686SOL    HW232958   0.849   4.500   6.534
10687SOL     OW32959   0.215   5.397   1.949
10687SOL    HW132960   0.135   5.339   1.928
10687SOL    HW232961   0.257   5.427   1.864
10688SOL     OW32962   6.219   4.246   3.094
10688SOL    HW132963   6.133   4.240   3.145
10688SOL    HW232964   6.275   4.166   3.115
10689SOL     OW32965   0.290   0.021   3.601
10689SOL    HW132966   0.316   0.112   3.632
10689SOL    HW232967   0.202   7.014   3.643
10690SOL     OW32968   6.995   6.048   2.916
10690SOL    HW132969   0.003   6.090   2.829
10690SOL    HW232970   0.055   5.998   2.953
10691SOL     OW32971   1.266   1.602   2.096
10691SOL    HW132972   1.218   1.541   2.159
10691SOL    HW232973   1.285   1.553   2.011
10692SOL     OW32974   3.511   5.003   2.556
10692SOL    HW132975   3.422   4.959   2.544
10692SOL    HW232976   3.576   4.965   2.490
10693SOL     OW32977   2.497   0.290   1.110
10693SOL    HW132978   2.403   0.270   1.084
10693SOL    HW232979   2.560   0.258   1.039
10694SOL     OW32980   4.733   6.595   0.998
10694SOL    HW132981   4.656   6.569   1.056
10694SOL    HW232982   4.782   6.671   1.040
10695SOL     OW32983   5.642   2.241   2.745
10695SOL    HW132984   5.709   2.180   2.702
10695SOL    HW232985   5.577   2.187   2.799
10696SOL     OW32986   6.791   3.843   3.716
10696SOL    HW132987   6.807   3.865   3.620
10696SOL    HW232988   6.716   3.777   3.723
10697SOL     OW32989   7.012   5.747   4.936
10697SOL    HW132990   0.034   5.677   4.995
10697SOL    HW232991   6.917   5.723   4.915
10698SOL     OW32992   3.592   5.809   4.423
10698SOL    HW132993   3.640   5.747   4.485
10698SOL    HW232994   3.501   5.829   4.459
10699SOL     OW32995   4.190   2.298   2.077
10699SOL    HW132996   4.109   2.278   2.022
10699SOL    HW232997   4.252   2.219   2.074
10700SOL     OW32998   0.572   6.883   0.253
10700SOL    HW132999   0.492   6.829   0.230
10700SOL    HW233000   0.634   6.887   0.175
10701SOL     OW33001   2.903   5.625   0.407
10701SOL    HW133002   2.861   5.575   0.483
10701SOL    HW233003   2.992   5.585   0.386
10702SOL     OW33004   6.188   2.404   2.432
10702SOL    HW133005   6.114   2.429   2.495
10702SOL    HW233006   6.197   2.304   2.429
10703SOL     OW33007   3.010   3.401   4.038
10703SOL    HW133008   2.980   3.348   4.117
10703SOL    HW233009   3.023   3.340   3.960
10704SOL     OW33010   5.877   5.100   1.675
10704SOL    HW133011   5.918   5.009   1.667
10704SOL    HW233012   5.909   5.157   1.599
10705SOL     OW33013   6.406   4.309   2.258
10705SOL    HW133014   6.353   4.241   2.309
10705SOL    HW233015   6.460   4.263   2.188
10706SOL     OW33016   4.409   6.465   2.136
10706SOL    HW133017   4.395   6.538   2.069
10706SOL    HW233018   4.336   6.397   2.127
10707SOL     OW33019   0.487   6.896   3.732
10707SOL    HW133020   0.526   6.962   3.796
10707SOL    HW233021   0.425   6.943   3.669
10708SOL     OW33022   4.409   0.951   2.710
10708SOL    HW133023   4.491   0.898   2.732
10708SOL    HW233024   4.352   0.960   2.792
10709SOL     OW33025   6.198   0.495   5.224
10709SOL    HW133026   6.249   0.420   5.266
10709SOL    HW233027   6.246   0.582   5.243
10710SOL     OW33028   0.757   6.371   4.121
10710SOL    HW133029   0.678   6.350   4.178
10710SOL    HW233030   0.768   6.470   4.113
10711SOL     OW33031   1.725   6.675   3.530
10711SOL    HW133032   1.634   6.712   3.514
10711SOL    HW233033   1.777   6.674   3.444
10712SOL     OW33034   3.339   1.282   1.752
10712SOL    HW133035   3.403   1.273   1.829
10712SOL    HW233036   3.349   1.203   1.691
10713SOL     OW33037   0.954   3.908   1.925
10713SOL    HW133038   1.002   3.921   2.012
10713SOL    HW233039   0.859   3.937   1.934
10714SOL     OW33040   6.037   3.439   6.191
10714SOL    HW133041   6.134   3.462   6.186
10714SOL    HW233042   5.984   3.511   6.147
10715SOL     OW33043   4.983   6.701   2.965
10715SOL    HW133044   4.930   6.780   2.996
10715SOL    HW233045   4.945   6.617   3.005
10716SOL     OW33046   6.629   2.633   4.414
10716SOL    HW133047   6.619   2.542   4.454
10716SOL    HW233048   6.719   2.670   4.437
10717SOL     OW33049   0.798   2.357   0.884
10717SOL    HW133050   0.716   2.344   0.828
10717SOL    HW233051   0.784   2.318   0.974
10718SOL     OW33052   0.030   3.447   6.299
10718SOL    HW133053   0.125   3.475   6.314
10718SOL    HW233054   6.997   3.454   6.385
10719SOL     OW33055   4.776   6.048   0.204
10719SOL    HW133056   4.837   5.973   0.178
10719SOL    HW233057   4.692   6.011   0.244
10720SOL     OW33058   0.069   2.955   5.448
10720SOL    HW133059   0.132   2.981   5.375
10720SOL    HW233060   0.008   3.031   5.468
10721SOL     OW33061   6.058   3.726   5.427
10721SOL    HW133062   6.123   3.793   5.464
10721SOL    HW233063   6.006   3.686   5.502
10722SOL     OW33064   6.952   3.177   0.621
10722SOL    HW133065   6.970   3.173   0.523
10722SOL    HW233066   6.946   3.272   0.651
10723SOL     OW33067   6.621   3.733   0.046
10723SOL    HW133068   6.612   3.649   7.010
10723SOL    HW233069   6.702   3.783   0.015
10724SOL     OW33070   3.713   0.394   6.401
10724SOL    HW133071   3.683   0.400   6.496
10724SOL    HW233072   3.635   0.371   6.343
10725SOL     OW33073   6.868   5.215   4.178
10725SOL    HW133074   6.822   5.276   4.243
10725SOL    HW233075   6.909   5.139   4.228
10726SOL     OW33076   6.128   6.375   5.663
10726SOL    HW133077   6.196   6.302   5.656
10726SOL    HW233078   6.085   6.372   5.753
10727SOL     OW33079   1.206   4.505   3.936
10727SOL    HW133080   1.303   4.527   3.945
10727SOL    HW233081   1.166   4.560   3.862
10728SOL     OW33082   6.385   6.339   2.364
10728SOL    HW133083   6.303   6.314   2.312
10728SOL    HW233084   6.413   6.262   2.420
10729SOL     OW33085   6.465   0.990   3.276
10729SOL    HW133086   6.544   0.972   3.217
10729SOL    HW233087   6.497   1.005   3.370
10730SOL     OW33088   2.925   0.238   1.069
10730SOL    HW133089   2.944   0.164   1.133
10730SOL    HW233090   2.856   0.299   1.107
10731SOL     OW33091   2.291   5.983   6.496
10731SOL    HW133092   2.389   5.994   6.513
10731SOL    HW233093   2.245   5.956   6.581
10732SOL     OW33094   5.498   6.870   2.651
10732SOL    HW133095   5.544   6.806   2.712
10732SOL    HW233096   5.559   6.945   2.628
10733SOL     OW33097   5.637   2.261   0.002
10733SOL    HW133098   5.660   2.343   0.055
10733SOL    HW233099   5.650   2.180   0.059
10734SOL     OW33100   1.244   0.591   6.354
10734SOL    HW133101   1.156   0.637   6.353
10734SOL    HW233102   1.317   0.657   6.371
10735SOL     OW33103   1.210   4.787   2.419
10735SOL    HW133104   1.185   4.693   2.439
10735SOL    HW233105   1.219   4.839   2.504
10736SOL     OW33106   1.185   1.329   3.769
10736SOL    HW133107   1.114   1.260   3.755
10736SOL    HW233108   1.272   1.294   3.735
10737SOL     OW33109   1.224   2.146   0.186
10737SOL    HW133110   1.235   2.052   0.154
10737SOL    HW233111   1.315   2.188   0.196
10738SOL     OW33112   2.885   0.716   1.934
10738SOL    HW133113   2.909   0.623   1.908
10738SOL    HW233114   2.787   0.722   1.951
10739SOL     OW33115   0.671   1.094   2.472
10739SOL    HW133116   0.735   1.024   2.502
10739SOL    HW233117   0.702   1.133   2.386
10740SOL     OW33118   1.443   4.681   6.377
10740SOL    HW133119   1.522   4.647   6.427
10740SOL    HW233120   1.457   4.777   6.353
10741SOL     OW33121   1.154   1.424   3.335
10741SOL    HW133122   1.139   1.340   3.284
10741SOL    HW233123   1.074   1.445   3.391
10742SOL     OW33124   6.057   0.140   1.746
10742SOL    HW133125   6.049   0.208   1.818
10742SOL    HW233126   6.080   0.051   1.786
10743SOL     OW33127   2.557   2.510   3.437
10743SOL    HW133128   2.616   2.589   3.454
10743SOL    HW233129   2.566   2.481   3.342
10744SOL     OW33130   3.622   2.084   2.690
10744SOL    HW133131   3.663   2.006   2.643
10744SOL    HW233132   3.606   2.158   2.625
10745SOL     OW33133   1.134   4.620   0.655
10745SOL    HW133134   1.071   4.681   0.703
10745SOL    HW233135   1.156   4.659   0.565
10746SOL     OW33136   1.690   4.471   0.943
10746SOL    HW133137   1.630   4.396   0.912
10746SOL    HW233138   1.669   4.493   1.038
10747SOL     OW33139   4.813   1.680   3.327
10747SOL    HW133140   4.779   1.657   3.418
10747SOL    HW233141   4.876   1.757   3.334
10748SOL     OW33142   5.792   0.154   1.154
10748SOL    HW133143   5.847   0.237   1.157
10748SOL    HW233144   5.768   0.126   1.247
10749SOL     OW33145   0.358   5.076   3.049
10749SOL    HW133146   0.361   5.094   3.147
10749SOL    HW233147   0.361   4.977   3.033
10750SOL     OW33148   4.911   5.513   4.382
10750SOL    HW133149   4.853   5.549   4.308
10750SOL    HW233150   4.880   5.551   4.470
10751SOL     OW33151   1.033   4.002   5.175
10751SOL    HW133152   1.036   3.910   5.135
10751SOL    HW233153   0.947   4.046   5.151
10752SOL     OW33154   6.300   3.683   6.386
10752SOL    HW133155   6.277   3.599   6.436
10752SOL    HW233156   6.288   3.762   6.446
10753SOL     OW33157   6.106   0.537   3.716
10753SOL    HW133158   6.079   0.591   3.796
10753SOL    HW233159   6.187   0.578   3.674
10754SOL     OW33160   2.373   1.992   3.461
10754SOL    HW133161   2.461   2.029   3.431
10754SOL    HW233162   2.349   1.913   3.405
10755SOL     OW33163   0.395   1.347   0.805
10755SOL    HW133164   0.360   1.400   0.882
10755SOL    HW233165   0.393   1.404   0.722
10756SOL     OW33166   5.949   3.993   0.302
10756SOL    HW133167   5.973   3.910   0.252
10756SOL    HW233168   5.853   3.988   0.331
10757SOL     OW33169   6.705   3.548   0.418
10757SOL    HW133170   6.701   3.465   0.473
10757SOL    HW233171   6.757   3.530   0.334
10758SOL     OW33172   1.398   5.950   4.877
10758SOL    HW133173   1.325   5.919   4.939
10758SOL    HW233174   1.449   5.871   4.844
10759SOL     OW33175   1.660   3.267   6.890
10759SOL    HW133176   1.640   3.254   6.987
10759SOL    HW233177   1.598   3.211   6.835
10760SOL     OW33178   0.144   0.377   0.911
10760SOL    HW133179   0.243   0.362   0.913
10760SOL    HW233180   0.125   0.475   0.925
10761SOL     OW33181   1.101   1.861   6.392
10761SOL    HW133182   1.063   1.779   6.349
10761SOL    HW233183   1.098   1.936   6.326
10762SOL     OW33184   4.307   1.280   5.143
10762SOL    HW133185   4.397   1.312   5.173
10762SOL    HW233186   4.267   1.221   5.213
10763SOL     OW33187   4.249   6.009   1.123
10763SOL    HW133188   4.217   5.938   1.060
10763SOL    HW233189   4.347   5.998   1.138
10764SOL     OW33190   5.709   1.509   6.246
10764SOL    HW133191   5.671   1.601   6.233
10764SOL    HW233192   5.747   1.502   6.338
10765SOL     OW33193   5.697   2.740   1.057
10765SOL    HW133194   5.794   2.749   1.079
10765SOL    HW233195   5.643   2.737   1.141
10766SOL     OW33196   3.007   3.404   0.269
10766SOL    HW133197   3.089   3.452   0.300
10766SOL    HW233198   2.968   3.452   0.190
10767SOL     OW33199   1.387   0.493   0.559
10767SOL    HW133200   1.457   0.467   0.625
10767SOL    HW233201   1.363   0.589   0.572
10768SOL     OW33202   5.402   5.093   0.361
10768SOL    HW133203   5.421   5.135   0.449
10768SOL    HW233204   5.460   5.012   0.350
10769SOL     OW33205   2.154   5.187   4.256
10769SOL    HW133206   2.252   5.192   4.270
10769SOL    HW233207   2.122   5.270   4.209
10770SOL     OW33208   5.638   6.963   4.635
10770SOL    HW133209   5.618   6.965   4.733
10770SOL    HW233210   5.723   7.013   4.618
10771SOL     OW33211   4.684   0.098   5.359
10771SOL    HW133212   4.635   0.099   5.272
10771SOL    HW233213   4.626   0.137   5.431
10772SOL     OW33214   5.994   6.637   4.035
10772SOL    HW133215   6.001   6.601   4.128
10772SOL    HW233216   5.962   6.565   3.973
10773SOL     OW33217   6.517   4.994   6.526
10773SOL    HW133218   6.582   5.018   6.597
10773SOL    HW233219   6.430   5.041   6.543
10774SOL     OW33220   1.713   2.194   0.254
10774SOL    HW133221   1.750   2.147   0.334
10774SOL    HW233222   1.775   2.268   0.227
10775SOL     OW33223   0.654   3.826   0.382
10775SOL    HW133224   0.737   3.881   0.377
10775SOL    HW233225   0.672   3.735   0.347
10776SOL     OW33226   0.890   6.285   0.933
10776SOL    HW133227   0.882   6.191   0.901
10776SOL    HW233228   0.842   6.346   0.869
10777SOL     OW33229   3.743   0.087   3.947
10777SOL    HW133230   3.758   0.181   3.916
10777SOL    HW233231   3.805   0.067   4.023
10778SOL     OW33232   5.250   6.962   4.973
10778SOL    HW133233   5.284   0.025   5.021
10778SOL    HW233234   5.213   6.897   5.040
10779SOL     OW33235   6.646   4.721   3.522
10779SOL    HW133236   6.722   4.706   3.586
10779SOL    HW233237   6.594   4.636   3.513
10780SOL     OW33238   1.232   6.841   2.501
10780SOL    HW133239   1.242   6.888   2.413
10780SOL    HW233240   1.307   6.776   2.513
10781SOL     OW33241   3.846   1.566   3.484
10781SOL    HW133242   3.832   1.468   3.468
10781SOL    HW233243   3.794   1.594   3.565
10782SOL     OW33244   6.153   2.241   3.835
10782SOL    HW133245   6.205   2.326   3.832
10782SOL    HW233246   6.121   2.218   3.743
10783SOL     OW33247   1.360   3.095   3.196
10783SOL    HW133248   1.415   3.126   3.118
10783SOL    HW233249   1.360   2.995   3.199
10784SOL     OW33250   2.901   6.983   2.329
10784SOL    HW133251   2.822   0.022   2.352
10784SOL    HW233252   2.977   0.024   2.299
10785SOL     OW33253   0.914   4.802   1.886
10785SOL    HW133254   0.956   4.774   1.800
10785SOL    HW233255   0.964   4.759   1.962
10786SOL     OW33256   5.143   3.564   2.159
10786SOL    HW133257   5.054   3.575   2.116
10786SOL    HW233258   5.131   3.540   2.256
10787SOL     OW33259   3.758   1.917   4.532
10787SOL    HW133260   3.804   1.829   4.521
10787SOL    HW233261   3.663   1.901   4.561
10788SOL     OW33262   2.034   4.737   0.431
10788SOL    HW133263   2.087   4.803   0.378
10788SOL    HW233264   2.083   4.715   0.515
10789SOL     OW33265   5.754   1.891   0.858
10789SOL    HW133266   5.838   1.857   0.817
10789SOL    HW233267   5.736   1.839   0.942
10790SOL     OW33268   0.745   1.019   4.039
10790SOL    HW133269   0.720   1.049   4.131
10790SOL    HW233270   0.704   0.930   4.021
10791SOL     OW33271   0.606   0.870   1.500
10791SOL    HW133272   0.677   0.941   1.493
10791SOL    HW233273   0.516   0.911   1.486
10792SOL     OW33274   3.086   2.844   1.872
10792SOL    HW133275   3.099   2.761   1.818
10792SOL    HW233276   3.001   2.889   1.844
10793SOL     OW33277   5.241   2.468   4.229
10793SOL    HW133278   5.168   2.435   4.289
10793SOL    HW233279   5.323   2.485   4.283
10794SOL     OW33280   3.161   3.968   2.723
10794SOL    HW133281   3.201   4.038   2.783
10794SOL    HW233282   3.231   3.903   2.696
10795SOL     OW33283   6.346   4.017   3.912
10795SOL    HW133284   6.375   3.931   3.953
10795SOL    HW233285   6.409   4.041   3.838
10796SOL     OW33286   4.324   6.152   6.982
10796SOL    HW133287   4.326   6.058   7.016
10796SOL    HW233288   4.229   6.179   6.965
10797SOL     OW33289   4.503   2.319   0.769
10797SOL    HW133290   4.450   2.385   0.822
10797SOL    HW233291   4.487   2.334   0.671
10798SOL     OW33292   2.184   0.137   0.363
10798SOL    HW133293   2.120   0.214   0.355
10798SOL    HW233294   2.221   0.134   0.456
10799SOL     OW33295   3.736   1.593   1.843
10799SOL    HW133296   3.688   1.671   1.883
10799SOL    HW233297   3.689   1.565   1.759
10800SOL     OW33298   1.258   0.121   6.806
10800SOL    HW133299   1.276   0.025   6.829
10800SOL    HW233300   1.265   0.133   6.707
10801SOL     OW33301   0.932   6.821   5.147
10801SOL    HW133302   0.851   6.776   5.110
10801SOL    HW233303   0.906   6.877   5.225
10802SOL     OW33304   2.102   3.291   4.638
10802SOL    HW133305   2.097   3.279   4.738
10802SOL    HW233306   2.076   3.385   4.615
10803SOL     OW33307   4.697   4.622   5.108
10803SOL    HW133308   4.732   4.648   5.198
10803SOL    HW233309   4.709   4.524   5.094
10804SOL     OW33310   6.925   4.316   1.474
10804SOL    HW133311   6.942   4.245   1.406
10804SOL    HW233312   7.010   4.366   1.492
10805SOL     OW33313   3.107   6.684   6.717
10805SOL    HW133314   3.073   6.683   6.811
10805SOL    HW233315   3.196   6.639   6.712
10806SOL     OW33316   5.226   4.436   6.825
10806SOL    HW133317   5.302   4.378   6.797
10806SOL    HW233318   5.177   4.393   6.901
10807SOL     OW33319   3.174   6.846   3.341
10807SOL    HW133320   3.261   6.849   3.291
10807SOL    HW233321   3.126   6.933   3.331
10808SOL     OW33322   6.829   3.805   6.883
10808SOL    HW133323   6.895   3.851   6.943
10808SOL    HW233324   6.879   3.750   6.815
10809SOL     OW33325   2.577   6.780   3.764
10809SOL    HW133326   2.524   6.774   3.849
10809SOL    HW233327   2.576   6.874   3.731
10810SOL     OW33328   1.114   0.727   5.392
10810SOL    HW133329   1.160   0.723   5.481
10810SOL    HW233330   1.053   0.648   5.383
10811SOL     OW33331   4.758   4.844   5.407
10811SOL    HW133332   4.711   4.832   5.495
10811SOL    HW233333   4.842   4.897   5.421
10812SOL     OW33334   0.445   3.496   2.675
10812SOL    HW133335   0.473   3.531   2.764
10812SOL    HW233336   0.352   3.528   2.654
10813SOL     OW33337   1.967   6.208   7.012
10813SOL    HW133338   2.020   6.247   0.069
10813SOL    HW233339   1.960   6.276   6.938
10814SOL     OW33340   1.807   6.667   6.516
10814SOL    HW133341   1.757   6.641   6.433
10814SOL    HW233342   1.758   6.739   6.564
10815SOL     OW33343   4.917   5.125   3.228
10815SOL    HW133344   4.978   5.191   3.184
10815SOL    HW233345   4.867   5.074   3.158
10816SOL     OW33346   1.757   1.659   2.104
10816SOL    HW133347   1.746   1.753   2.074
10816SOL    HW233348   1.841   1.650   2.158
10817SOL     OW33349   5.239   6.966   2.648
10817SOL    HW133350   5.327   6.919   2.643
10817SOL    HW233351   5.165   6.899   2.647
10818SOL     OW33352   4.356   3.853   5.294
10818SOL    HW133353   4.307   3.939   5.311
10818SOL    HW233354   4.454   3.867   5.306
10819SOL     OW33355   6.718   4.692   7.002
10819SOL    HW133356   6.749   4.666   0.076
10819SOL    HW233357   6.719   4.792   6.994
10820SOL     OW33358   6.177   6.192   4.202
10820SOL    HW133359   6.111   6.144   4.259
10820SOL    HW233360   6.198   6.137   4.121
10821SOL     OW33361   4.886   6.343   1.678
10821SOL    HW133362   4.951   6.277   1.716
10821SOL    HW233363   4.840   6.392   1.752
10822SOL     OW33364   0.858   2.680   3.109
10822SOL    HW133365   0.846   2.620   3.030
10822SOL    HW233366   0.922   2.637   3.174
10823SOL     OW33367   1.474   5.192   1.861
10823SOL    HW133368   1.504   5.153   1.774
10823SOL    HW233369   1.476   5.292   1.855
10824SOL     OW33370   4.850   0.008   4.342
10824SOL    HW133371   4.757   0.045   4.346
10824SOL    HW233372   4.903   0.041   4.420
10825SOL     OW33373   2.709   0.882   0.214
10825SOL    HW133374   2.654   0.802   0.236
10825SOL    HW233375   2.800   0.872   0.255
10826SOL     OW33376   0.502   3.840   4.372
10826SOL    HW133377   0.594   3.861   4.339
10826SOL    HW233378   0.498   3.745   4.404
10827SOL     OW33379   5.308   3.994   4.898
10827SOL    HW133380   5.287   3.992   4.996
10827SOL    HW233381   5.223   4.004   4.846
10828SOL     OW33382   0.998   5.727   2.516
10828SOL    HW133383   1.030   5.694   2.604
10828SOL    HW233384   0.913   5.682   2.491
10829SOL     OW33385   3.714   2.487   0.074
10829SOL    HW133386   3.670   2.566   0.117
10829SOL    HW233387   3.648   2.442   0.014
10830SOL     OW33388   4.836   2.210   3.067
10830SOL    HW133389   4.803   2.260   3.147
10830SOL    HW233390   4.935   2.196   3.075
10831SOL     OW33391   3.722   6.108   1.836
10831SOL    HW133392   3.636   6.130   1.883
10831SOL    HW233393   3.702   6.066   1.748
10832SOL     OW33394   0.335   1.996   0.882
10832SOL    HW133395   0.313   1.907   0.843
10832SOL    HW233396   0.405   2.041   0.827
10833SOL     OW33397   1.813   0.696   4.098
10833SOL    HW133398   1.754   0.635   4.045
10833SOL    HW233399   1.796   0.791   4.071
10834SOL     OW33400   1.506   2.052   6.272
10834SOL    HW133401   1.458   1.967   6.292
10834SOL    HW233402   1.458   2.101   6.199
10835SOL     OW33403   5.971   1.904   1.266
10835SOL    HW133404   5.982   1.850   1.182
10835SOL    HW233405   5.985   1.844   1.345
10836SOL     OW33406   6.262   1.398   5.049
10836SOL    HW133407   6.289   1.466   5.118
10836SOL    HW233408   6.343   1.351   5.015
10837SOL     OW33409   1.032   4.966   0.136
10837SOL    HW133410   0.934   4.980   0.120
10837SOL    HW233411   1.081   5.051   0.119
10838SOL     OW33412   5.606   6.174   4.657
10838SOL    HW133413   5.514   6.208   4.676
10838SOL    HW233414   5.665   6.190   4.736
10839SOL     OW33415   3.187   3.220   0.146
10839SOL    HW133416   3.118   3.280   0.185
10839SOL    HW233417   3.241   3.179   0.220
10840SOL     OW33418   3.936   5.681   1.180
10840SOL    HW133419   3.902   5.632   1.100
10840SOL    HW233420   3.889   5.768   1.189
10841SOL     OW33421   3.856   6.617   6.741
10841SOL    HW133422   3.860   6.519   6.761
10841SOL    HW233423   3.767   6.653   6.768
10842SOL     OW33424   5.914   3.161   0.983
10842SOL    HW133425   5.920   3.236   1.049
10842SOL    HW233426   5.820   3.127   0.981
10843SOL     OW33427   0.912   1.925   1.921
10843SOL    HW133428   0.837   1.992   1.914
10843SOL    HW233429   0.905   1.861   1.844
10844SOL     OW33430   0.689   6.694   4.106
10844SOL    HW133431   0.613   6.753   4.132
10844SOL    HW233432   0.682   6.672   4.009
10845SOL     OW33433   2.597   1.131   0.203
10845SOL    HW133434   2.636   1.039   0.192
10845SOL    HW233435   2.623   1.167   0.292
10846SOL     OW33436   4.911   2.898   1.039
10846SOL    HW133437   4.992   2.879   1.094
10846SOL    HW233438   4.937   2.954   0.960
10847SOL     OW33439   3.010   2.079   6.599
10847SOL    HW133440   2.992   2.154   6.662
10847SOL    HW233441   3.052   2.116   6.515
10848SOL     OW33442   3.090   2.189   6.361
10848SOL    HW133443   3.082   2.138   6.276
10848SOL    HW233444   3.109   2.285   6.340
10849SOL     OW33445   3.107   4.847   3.371
10849SOL    HW133446   3.200   4.883   3.360
10849SOL    HW233447   3.092   4.823   3.467
10850SOL     OW33448   4.654   6.000   6.460
10850SOL    HW133449   4.702   6.064   6.520
10850SOL    HW233450   4.655   6.037   6.366
10851SOL     OW33451   2.891   3.196   6.450
10851SOL    HW133452   2.879   3.247   6.365
10851SOL    HW233453   2.826   3.120   6.453
10852SOL     OW33454   0.409   6.445   5.905
10852SOL    HW133455   0.421   6.407   5.813
10852SOL    HW233456   0.382   6.372   5.968
10853SOL     OW33457   3.786   1.846   5.944
10853SOL    HW133458   3.717   1.858   5.872
10853SOL    HW233459   3.754   1.890   6.028
10854SOL     OW33460   6.028   6.847   5.411
10854SOL    HW133461   5.975   6.807   5.485
10854SOL    HW233462   5.988   6.935   5.385
10855SOL     OW33463   2.941   6.356   2.264
10855SOL    HW133464   2.956   6.287   2.192
10855SOL    HW233465   3.014   6.424   2.260
10856SOL     OW33466   5.832   1.512   2.171
10856SOL    HW133467   5.817   1.511   2.270
10856SOL    HW233468   5.860   1.603   2.143
10857SOL     OW33469   5.196   2.971   3.844
10857SOL    HW133470   5.126   2.970   3.915
10857SOL    HW233471   5.275   2.918   3.874
10858SOL     OW33472   1.266   2.730   6.427
10858SOL    HW133473   1.255   2.735   6.328
10858SOL    HW233474   1.214   2.804   6.470
10859SOL     OW33475   2.297   4.367   3.951
10859SOL    HW133476   2.317   4.284   4.003
10859SOL    HW233477   2.229   4.348   3.881
10860SOL     OW33478   6.711   1.118   5.740
10860SOL    HW133479   6.774   1.103   5.817
10860SOL    HW233480   6.619   1.090   5.767
10861SOL     OW33481   4.002   3.097   2.577
10861SOL    HW133482   3.941   3.146   2.640
10861SOL    HW233483   4.068   3.043   2.629
10862SOL     OW33484   2.549   1.445   6.836
10862SOL    HW133485   2.466   1.500   6.835
10862SOL    HW233486   2.555   1.395   6.922
10863SOL     OW33487   4.041   0.276   2.123
10863SOL    HW133488   3.995   0.206   2.067
10863SOL    HW233489   4.140   0.263   2.118
10864SOL     OW33490   2.590   5.050   0.977
10864SOL    HW133491   2.637   4.992   1.044
10864SOL    HW233492   2.631   5.035   0.887
10865SOL     OW33493   5.435   1.880   3.797
10865SOL    HW133494   5.533   1.896   3.794
10865SOL    HW233495   5.399   1.876   3.704
10866SOL     OW33496   5.401   4.890   1.272
10866SOL    HW133497   5.369   4.928   1.359
10866SOL    HW233498   5.345   4.926   1.198
10867SOL     OW33499   3.078   4.241   0.624
10867SOL    HW133500   3.141   4.195   0.686
10867SOL    HW233501   2.990   4.194   0.626
10868SOL     OW33502   1.938   1.777   3.411
10868SOL    HW133503   1.896   1.776   3.502
10868SOL    HW233504   1.964   1.870   3.388
10869NA      NA33505   0.386   2.356   6.164
10870NA      NA33506   4.457   4.700   5.137
10871NA      NA33507   2.261   4.481   2.333
10872NA      NA33508   4.900   4.189   3.631
10873NA      NA33509   4.255   2.340   5.268
10874NA      NA33510   3.512   4.133   1.656
10875NA      NA33511   0.835   4.513   0.300
10876NA      NA33512   4.005   3.596   2.144
10877NA      NA33513   5.014   4.546   0.898
10878NA      NA33514   3.532   0.214   5.499
10879NA      NA33515   6.058   5.530   0.952
10880NA      NA33516   1.810   0.960   5.339
10881NA      NA33517   4.508   4.744   2.049
10882NA      NA33518   3.827   2.771   1.368
   7.01797   7.01797   7.01797
