Generated by trjconv : CNT in water t= 544.00000
33518
    1C        C    1   2.842   2.768   4.744
    1C        C    2   2.896   2.716   4.863
    1C        C    3   2.846   2.771   4.982
    1C        C    4   2.853   2.773   4.258
    1C        C    5   2.901   2.725   4.381
    1C        C    6   2.842   2.772   4.501
    1C        C    7   3.014   2.645   4.621
    1C        C    8   2.895   2.721   4.622
    1C        C    9   3.074   2.601   4.741
    1C        C   10   3.007   2.629   4.862
    1C        C   11   3.185   2.498   4.977
    1C        C   12   3.058   2.558   4.972
    1C        C   13   2.850   2.773   3.769
    1C        C   14   2.904   2.730   3.892
    1C        C   15   2.851   2.776   4.015
    1C        C   16   3.015   2.638   4.138
    1C        C   17   2.905   2.727   4.135
    1C        C   18   3.080   2.607   4.260
    1C        C   19   3.017   2.645   4.380
    1C        C   20   3.208   2.551   4.503
    1C        C   21   3.078   2.605   4.501
    1C        C   22   3.278   2.533   4.624
    1C        C   23   3.204   2.544   4.744
    1C        C   24   3.412   2.480   4.863
    1C        C   25   3.270   2.501   4.862
    1C        C   26   3.486   2.473   4.982
    1C        C   27   2.851   2.765   3.278
    1C        C   28   2.903   2.725   3.403
    1C        C   29   2.854   2.775   3.525
    1C        C   30   3.022   2.646   3.648
    1C        C   31   2.907   2.728   3.647
    1C        C   32   3.078   2.606   3.772
    1C        C   33   3.017   2.646   3.893
    1C        C   34   3.209   2.556   4.013
    1C        C   35   3.078   2.608   4.015
    1C        C   36   3.278   2.535   4.135
    1C        C   37   3.211   2.554   4.257
    1C        C   38   3.416   2.509   4.381
    1C        C   39   3.277   2.533   4.381
    1C        C   40   3.488   2.494   4.501
    1C        C   41   3.416   2.501   4.623
    1C        C   42   3.629   2.485   4.742
    1C        C   43   3.487   2.479   4.743
    1C        C   44   3.701   2.492   4.864
    1C        C   45   3.625   2.476   4.980
    1C        C   46   2.831   2.746   2.793
    1C        C   47   2.892   2.707   2.915
    1C        C   48   2.843   2.759   3.037
    1C        C   49   3.019   2.634   3.158
    1C        C   50   2.902   2.714   3.157
    1C        C   51   3.078   2.600   3.281
    1C        C   52   3.015   2.638   3.402
    1C        C   53   3.205   2.547   3.527
    1C        C   54   3.076   2.605   3.524
    1C        C   55   3.276   2.527   3.648
    1C        C   56   3.208   2.551   3.769
    1C        C   57   3.417   2.510   3.892
    1C        C   58   3.278   2.536   3.891
    1C        C   59   3.486   2.500   4.014
    1C        C   60   3.416   2.505   4.137
    1C        C   61   3.628   2.500   4.259
    1C        C   62   3.486   2.496   4.259
    1C        C   63   3.703   2.503   4.378
    1C        C   64   3.629   2.494   4.499
    1C        C   65   3.835   2.539   4.623
    1C        C   66   3.700   2.498   4.621
    1C        C   67   3.906   2.560   4.744
    1C        C   68   3.837   2.532   4.864
    1C        C   69   4.048   2.583   4.976
    1C        C   70   3.918   2.531   4.978
    1C        C   71   2.825   2.732   2.308
    1C        C   72   2.883   2.689   2.429
    1C        C   73   2.836   2.748   2.548
    1C        C   74   3.007   2.626   2.673
    1C        C   75   2.889   2.704   2.671
    1C        C   76   3.074   2.594   2.793
    1C        C   77   3.007   2.626   2.914
    1C        C   78   3.205   2.539   3.037
    1C        C   79   3.074   2.592   3.034
    1C        C   80   3.273   2.520   3.159
    1C        C   81   3.209   2.546   3.282
    1C        C   82   3.412   2.493   3.402
    1C        C   83   3.274   2.525   3.405
    1C        C   84   3.484   2.487   3.524
    1C        C   85   3.415   2.502   3.646
    1C        C   86   3.626   2.496   3.771
    1C        C   87   3.485   2.495   3.769
    1C        C   88   3.697   2.508   3.893
    1C        C   89   3.628   2.504   4.015
    1C        C   90   3.835   2.548   4.135
    1C        C   91   3.699   2.513   4.137
    1C        C   92   3.903   2.575   4.256
    1C        C   93   3.838   2.542   4.377
    1C        C   94   4.028   2.629   4.498
    1C        C   95   3.903   2.564   4.501
    1C        C   96   4.090   2.668   4.619
    1C        C   97   4.032   2.625   4.740
    1C        C   98   4.182   2.770   4.862
    1C        C   99   4.097   2.655   4.863
    1C        C  100   4.213   2.845   4.976
    1C        C  101   2.818   2.725   2.071
    1C        C  102   2.985   2.584   2.189
    1C        C  103   2.872   2.672   2.189
    1C        C  104   3.059   2.565   2.309
    1C        C  105   3.001   2.611   2.429
    1C        C  106   3.200   2.536   2.551
    1C        C  107   3.069   2.589   2.551
    1C        C  108   3.270   2.517   2.672
    1C        C  109   3.205   2.542   2.794
    1C        C  110   3.412   2.489   2.913
    1C        C  111   3.274   2.520   2.916
    1C        C  112   3.483   2.481   3.035
    1C        C  113   3.412   2.493   3.157
    1C        C  114   3.623   2.494   3.279
    1C        C  115   3.482   2.489   3.280
    1C        C  116   3.692   2.509   3.401
    1C        C  117   3.625   2.498   3.524
    1C        C  118   3.831   2.542   3.647
    1C        C  119   3.694   2.504   3.647
    1C        C  120   3.899   2.568   3.768
    1C        C  121   3.834   2.541   3.891
    1C        C  122   4.027   2.634   4.012
    1C        C  123   3.902   2.567   4.012
    1C        C  124   4.091   2.670   4.132
    1C        C  125   4.030   2.636   4.255
    1C        C  126   4.201   2.759   4.376
    1C        C  127   4.088   2.674   4.378
    1C        C  128   4.247   2.812   4.498
    1C        C  129   4.192   2.767   4.620
    1C        C  130   4.318   2.939   4.736
    1C        C  131   4.236   2.823   4.742
    1C        C  132   4.351   3.006   4.856
    1C        C  133   4.287   2.963   4.973
    1C        C  134   3.174   2.475   2.078
    1C        C  135   3.037   2.506   2.081
    1C        C  136   3.260   2.479   2.189
    1C        C  137   3.193   2.517   2.307
    1C        C  138   3.401   2.476   2.424
    1C        C  139   3.263   2.503   2.429
    1C        C  140   3.476   2.478   2.544
    1C        C  141   3.410   2.495   2.668
    1C        C  142   3.621   2.493   2.790
    1C        C  143   3.480   2.485   2.790
    1C        C  144   3.693   2.501   2.911
    1C        C  145   3.624   2.489   3.034
    1C        C  146   3.831   2.538   3.154
    1C        C  147   3.694   2.501   3.157
    1C        C  148   3.898   2.557   3.277
    1C        C  149   3.830   2.540   3.400
    1C        C  150   4.023   2.625   3.520
    1C        C  151   3.895   2.563   3.523
    1C        C  152   4.080   2.666   3.643
    1C        C  153   4.022   2.637   3.768
    1C        C  154   4.200   2.756   3.886
    1C        C  155   4.085   2.675   3.889
    1C        C  156   4.250   2.808   4.007
    1C        C  157   4.201   2.758   4.130
    1C        C  158   4.330   2.925   4.251
    1C        C  159   4.248   2.809   4.253
    1C        C  160   4.367   2.986   4.372
    1C        C  161   4.326   2.929   4.495
    1C        C  162   4.427   3.121   4.611
    1C        C  163   4.366   2.994   4.615
    1C        C  164   4.456   3.188   4.732
    1C        C  165   4.427   3.125   4.854
    1C        C  166   4.506   3.322   4.968
    1C        C  167   4.475   3.186   4.971
    1C        C  168   3.475   2.438   2.068
    1C        C  169   3.399   2.455   2.185
    1C        C  170   3.616   2.463   2.306
    1C        C  171   3.474   2.464   2.304
    1C        C  172   3.690   2.483   2.425
    1C        C  173   3.617   2.486   2.546
    1C        C  174   3.827   2.533   2.663
    1C        C  175   3.690   2.501   2.666
    1C        C  176   3.896   2.555   2.784
    1C        C  177   3.830   2.536   2.908
    1C        C  178   4.024   2.619   3.031
    1C        C  179   3.896   2.559   3.030
    1C        C  180   4.082   2.658   3.154
    1C        C  181   4.024   2.620   3.277
    1C        C  182   4.194   2.748   3.396
    1C        C  183   4.085   2.659   3.398
    1C        C  184   4.240   2.804   3.518
    1C        C  185   4.189   2.755   3.641
    1C        C  186   4.332   2.916   3.761
    1C        C  187   4.247   2.803   3.761
    1C        C  188   4.372   2.980   3.881
    1C        C  189   4.330   2.925   4.004
    1C        C  190   4.434   3.107   4.127
    1C        C  191   4.368   2.982   4.127
    1C        C  192   4.464   3.175   4.247
    1C        C  193   4.435   3.110   4.369
    1C        C  194   4.503   3.316   4.488
    1C        C  195   4.458   3.182   4.488
    1C        C  196   4.528   3.387   4.608
    1C        C  197   4.509   3.320   4.731
    1C        C  198   4.553   3.535   4.851
    1C        C  199   4.535   3.393   4.851
    1C        C  200   4.587   3.620   4.960
    1C        C  201   3.614   2.417   2.071
    1C        C  202   3.825   2.507   2.184
    1C        C  203   3.690   2.459   2.185
    1C        C  204   3.897   2.539   2.302
    1C        C  205   3.827   2.516   2.423
    1C        C  206   4.022   2.616   2.544
    1C        C  207   3.897   2.550   2.541
    1C        C  208   4.085   2.652   2.665
    1C        C  209   4.020   2.623   2.787
    1C        C  210   4.193   2.746   2.906
    1C        C  211   4.081   2.661   2.909
    1C        C  212   4.244   2.793   3.029
    1C        C  213   4.196   2.742   3.152
    1C        C  214   4.331   2.908   3.272
    1C        C  215   4.247   2.794   3.273
    1C        C  216   4.367   2.972   3.393
    1C        C  217   4.331   2.911   3.515
    1C        C  218   4.426   3.102   3.639
    1C        C  219   4.370   2.972   3.637
    1C        C  220   4.459   3.171   3.758
    1C        C  221   4.438   3.105   3.881
    1C        C  222   4.495   3.308   4.003
    1C        C  223   4.460   3.171   4.004
    1C        C  224   4.514   3.382   4.122
    1C        C  225   4.503   3.311   4.244
    1C        C  226   4.526   3.524   4.365
    1C        C  227   4.513   3.384   4.365
    1C        C  228   4.523   3.598   4.485
    1C        C  229   4.531   3.528   4.608
    1C        C  230   4.504   3.742   4.726
    1C        C  231   4.537   3.603   4.727
    1C        C  232   4.494   3.818   4.845
    1C        C  233   4.541   3.753   4.960
    1C        C  234   4.019   2.603   2.064
    1C        C  235   3.895   2.541   2.067
    1C        C  236   4.085   2.643   2.181
    1C        C  237   4.023   2.605   2.302
    1C        C  238   4.195   2.736   2.419
    1C        C  239   4.086   2.646   2.421
    1C        C  240   4.250   2.784   2.540
    1C        C  241   4.195   2.740   2.663
    1C        C  242   4.335   2.903   2.784
    1C        C  243   4.246   2.794   2.783
    1C        C  244   4.379   2.958   2.906
    1C        C  245   4.335   2.901   3.028
    1C        C  246   4.432   3.091   3.148
    1C        C  247   4.375   2.961   3.149
    1C        C  248   4.455   3.160   3.269
    1C        C  249   4.429   3.099   3.393
    1C        C  250   4.490   3.302   3.512
    1C        C  251   4.450   3.167   3.515
    1C        C  252   4.505   3.373   3.633
    1C        C  253   4.495   3.307   3.758
    1C        C  254   4.522   3.517   3.876
    1C        C  255   4.511   3.376   3.880
    1C        C  256   4.521   3.592   3.996
    1C        C  257   4.523   3.523   4.119
    1C        C  258   4.493   3.732   4.241
    1C        C  259   4.520   3.593   4.242
    1C        C  260   4.469   3.802   4.361
    1C        C  261   4.487   3.735   4.484
    1C        C  262   4.424   3.939   4.604
    1C        C  263   4.473   3.807   4.604
    1C        C  264   4.397   4.010   4.723
    1C        C  265   4.432   3.945   4.844
    1C        C  266   4.315   4.127   4.959
    1C        C  267   4.393   4.012   4.960
    1C        C  268   4.260   2.773   2.062
    1C        C  269   4.198   2.728   2.179
    1C        C  270   4.343   2.891   2.298
    1C        C  271   4.252   2.782   2.298
    1C        C  272   4.378   2.954   2.419
    1C        C  273   4.338   2.894   2.541
    1C        C  274   4.444   3.083   2.660
    1C        C  275   4.373   2.961   2.661
    1C        C  276   4.464   3.153   2.781
    1C        C  277   4.440   3.086   2.903
    1C        C  278   4.496   3.291   3.023
    1C        C  279   4.462   3.154   3.025
    1C        C  280   4.506   3.364   3.144
    1C        C  281   4.492   3.297   3.268
    1C        C  282   4.514   3.510   3.388
    1C        C  283   4.505   3.369   3.388
    1C        C  284   4.511   3.582   3.510
    1C        C  285   4.518   3.514   3.633
    1C        C  286   4.492   3.726   3.752
    1C        C  287   4.518   3.587   3.754
    1C        C  288   4.478   3.798   3.873
    1C        C  289   4.499   3.732   3.996
    1C        C  290   4.431   3.932   4.115
    1C        C  291   4.485   3.802   4.118
    1C        C  292   4.398   3.998   4.236
    1C        C  293   4.427   3.937   4.360
    1C        C  294   4.328   4.126   4.477
    1C        C  295   4.399   4.004   4.481
    1C        C  296   4.283   4.189   4.595
    1C        C  297   4.326   4.133   4.718
    1C        C  298   4.204   4.312   4.836
    1C        C  299   4.285   4.194   4.840
    1C        C  300   4.169   4.396   4.946
    1C        C  301   4.349   2.880   2.063
    1C        C  302   4.465   3.070   2.174
    1C        C  303   4.396   2.944   2.178
    1C        C  304   4.477   3.145   2.294
    1C        C  305   4.443   3.079   2.415
    1C        C  306   4.507   3.281   2.536
    1C        C  307   4.476   3.143   2.536
    1C        C  308   4.508   3.356   2.655
    1C        C  309   4.499   3.290   2.780
    1C        C  310   4.522   3.501   2.897
    1C        C  311   4.512   3.361   2.901
    1C        C  312   4.521   3.574   3.018
    1C        C  313   4.513   3.505   3.141
    1C        C  314   4.492   3.716   3.261
    1C        C  315   4.514   3.577   3.263
    1C        C  316   4.481   3.786   3.383
    1C        C  317   4.491   3.722   3.509
    1C        C  318   4.432   3.929   3.624
    1C        C  319   4.473   3.793   3.629
    1C        C  320   4.401   3.992   3.747
    1C        C  321   4.434   3.932   3.871
    1C        C  322   4.321   4.112   3.990
    1C        C  323   4.400   3.995   3.993
    1C        C  324   4.278   4.171   4.111
    1C        C  325   4.323   4.118   4.234
    1C        C  326   4.186   4.283   4.354
    1C        C  327   4.282   4.179   4.355
    1C        C  328   4.138   4.342   4.473
    1C        C  329   4.190   4.295   4.595
    1C        C  330   4.019   4.426   4.713
    1C        C  331   4.140   4.350   4.715
    1C        C  332   3.965   4.483   4.830
    1C        C  333   4.051   4.472   4.940
    1C        C  334   4.555   3.267   2.060
    1C        C  335   4.533   3.129   2.063
    1C        C  336   4.539   3.350   2.171
    1C        C  337   4.512   3.283   2.293
    1C        C  338   4.522   3.493   2.411
    1C        C  339   4.524   3.352   2.415
    1C        C  340   4.520   3.567   2.531
    1C        C  341   4.519   3.497   2.654
    1C        C  342   4.503   3.712   2.774
    1C        C  343   4.518   3.571   2.774
    1C        C  344   4.484   3.785   2.893
    1C        C  345   4.500   3.713   3.013
    1C        C  346   4.430   3.913   3.139
    1C        C  347   4.477   3.780   3.136
    1C        C  348   4.399   3.981   3.259
    1C        C  349   4.433   3.919   3.381
    1C        C  350   4.321   4.104   3.502
    1C        C  351   4.405   3.990   3.500
    1C        C  352   4.275   4.161   3.622
    1C        C  353   4.320   4.107   3.744
    1C        C  354   4.171   4.259   3.866
    1C        C  355   4.275   4.163   3.866
    1C        C  356   4.121   4.311   3.988
    1C        C  357   4.179   4.272   4.111
    1C        C  358   4.007   4.396   4.231
    1C        C  359   4.129   4.325   4.232
    1C        C  360   3.948   4.441   4.352
    1C        C  361   4.018   4.417   4.472
    1C        C  362   3.826   4.518   4.592
    1C        C  363   3.952   4.454   4.592
    1C        C  364   3.760   4.544   4.714
    1C        C  365   3.834   4.536   4.833
    1C        C  366   3.627   4.595   4.948
    1C        C  367   3.763   4.568   4.949
    1C        C  368   4.521   3.566   2.053
    1C        C  369   4.524   3.490   2.170
    1C        C  370   4.502   3.706   2.287
    1C        C  371   4.515   3.565   2.289
    1C        C  372   4.491   3.779   2.407
    1C        C  373   4.503   3.708   2.528
    1C        C  374   4.430   3.906   2.648
    1C        C  375   4.490   3.778   2.650
    1C        C  376   4.397   3.973   2.768
    1C        C  377   4.431   3.916   2.893
    1C        C  378   4.320   4.094   3.014
    1C        C  379   4.400   3.977   3.016
    1C        C  380   4.272   4.148   3.135
    1C        C  381   4.322   4.099   3.258
    1C        C  382   4.167   4.248   3.376
    1C        C  383   4.272   4.154   3.379
    1C        C  384   4.117   4.300   3.497
    1C        C  385   4.174   4.261   3.620
    1C        C  386   4.002   4.383   3.744
    1C        C  387   4.119   4.305   3.743
    1C        C  388   3.940   4.423   3.865
    1C        C  389   4.004   4.389   3.986
    1C        C  390   3.813   4.481   4.108
    1C        C  391   3.942   4.424   4.109
    1C        C  392   3.746   4.507   4.230
    1C        C  393   3.818   4.494   4.351
    1C        C  394   3.614   4.552   4.474
    1C        C  395   3.753   4.529   4.472
    1C        C  396   3.544   4.559   4.597
    1C        C  397   3.619   4.558   4.716
    1C        C  398   3.406   4.551   4.836
    1C        C  399   3.545   4.577   4.835
    1C        C  400   3.338   4.507   4.950
    1C        C  401   4.520   3.705   2.052
    1C        C  402   4.458   3.917   2.167
    1C        C  403   4.492   3.780   2.167
    1C        C  404   4.418   3.982   2.286
    1C        C  405   4.443   3.911   2.406
    1C        C  406   4.330   4.094   2.525
    1C        C  407   4.407   3.976   2.527
    1C        C  408   4.278   4.145   2.646
    1C        C  409   4.318   4.090   2.770
    1C        C  410   4.175   4.246   2.887
    1C        C  411   4.278   4.150   2.891
    1C        C  412   4.116   4.289   3.009
    1C        C  413   4.171   4.246   3.132
    1C        C  414   3.997   4.372   3.253
    1C        C  415   4.113   4.292   3.253
    1C        C  416   3.939   4.412   3.376
    1C        C  417   4.002   4.381   3.499
    1C        C  418   3.810   4.471   3.620
    1C        C  419   3.941   4.417   3.621
    1C        C  420   3.742   4.497   3.741
    1C        C  421   3.810   4.478   3.864
    1C        C  422   3.607   4.532   3.987
    1C        C  423   3.745   4.505   3.986
    1C        C  424   3.539   4.539   4.110
    1C        C  425   3.607   4.533   4.233
    1C        C  426   3.396   4.543   4.355
    1C        C  427   3.537   4.546   4.355
    1C        C  428   3.326   4.551   4.477
    1C        C  429   3.403   4.557   4.596
    1C        C  430   3.191   4.520   4.720
    1C        C  431   3.331   4.546   4.717
    1C        C  432   3.123   4.495   4.842
    1C        C  433   3.200   4.494   4.959
    1C        C  434   4.386   4.123   2.048
    1C        C  435   4.438   3.993   2.051
    1C        C  436   4.301   4.158   2.158
    1C        C  437   4.332   4.095   2.282
    1C        C  438   4.185   4.250   2.401
    1C        C  439   4.285   4.150   2.403
    1C        C  440   4.125   4.293   2.521
    1C        C  441   4.177   4.244   2.643
    1C        C  442   4.000   4.364   2.766
    1C        C  443   4.120   4.289   2.765
    1C        C  444   3.939   4.400   2.888
    1C        C  445   3.999   4.368   3.011
    1C        C  446   3.807   4.467   3.130
    1C        C  447   3.933   4.404   3.131
    1C        C  448   3.742   4.489   3.253
    1C        C  449   3.809   4.467   3.375
    1C        C  450   3.605   4.522   3.496
    1C        C  451   3.743   4.491   3.498
    1C        C  452   3.536   4.535   3.619
    1C        C  453   3.605   4.531   3.742
    1C        C  454   3.396   4.544   3.863
    1C        C  455   3.538   4.548   3.865
    1C        C  456   3.328   4.531   3.986
    1C        C  457   3.397   4.537   4.109
    1C        C  458   3.189   4.506   4.233
    1C        C  459   3.327   4.533   4.232
    1C        C  460   3.121   4.492   4.356
    1C        C  461   3.189   4.518   4.477
    1C        C  462   2.993   4.438   4.600
    1C        C  463   3.120   4.500   4.599
    1C        C  464   2.929   4.404   4.721
    1C        C  465   2.990   4.442   4.844
    1C        C  466   2.797   4.342   4.960
    1C        C  467   2.904   4.432   4.958
    1C        C  468   4.121   4.283   2.041
    1C        C  469   4.188   4.245   2.158
    1C        C  470   4.004   4.362   2.279
    1C        C  471   4.126   4.288   2.278
    1C        C  472   3.940   4.396   2.400
    1C        C  473   4.005   4.366   2.522
    1C        C  474   3.811   4.456   2.641
    1C        C  475   3.940   4.400   2.643
    1C        C  476   3.745   4.485   2.763
    1C        C  477   3.811   4.459   2.886
    1C        C  478   3.603   4.514   3.008
    1C        C  479   3.742   4.486   3.006
    1C        C  480   3.534   4.530   3.130
    1C        C  481   3.604   4.520   3.252
    1C        C  482   3.392   4.529   3.374
    1C        C  483   3.533   4.529   3.374
    1C        C  484   3.324   4.531   3.497
    1C        C  485   3.395   4.541   3.619
    1C        C  486   3.186   4.507   3.742
    1C        C  487   3.324   4.537   3.741
    1C        C  488   3.123   4.485   3.866
    1C        C  489   3.189   4.510   3.989
    1C        C  490   2.995   4.421   4.113
    1C        C  491   3.121   4.485   4.110
    1C        C  492   2.935   4.389   4.237
    1C        C  493   2.993   4.433   4.358
    1C        C  494   2.829   4.298   4.480
    1C        C  495   2.936   4.391   4.480
    1C        C  496   2.773   4.257   4.603
    1C        C  497   2.818   4.315   4.724
    1C        C  498   2.663   4.168   4.843
    1C        C  499   2.756   4.274   4.844
    1C        C  500   2.601   4.116   4.957
    1C        C  501   4.006   4.361   2.041
    1C        C  502   3.813   4.461   2.156
    1C        C  503   3.939   4.399   2.159
    1C        C  504   3.743   4.476   2.277
    1C        C  505   3.810   4.450   2.399
    1C        C  506   3.601   4.498   2.520
    1C        C  507   3.739   4.471   2.520
    1C        C  508   3.531   4.510   2.642
    1C        C  509   3.607   4.512   2.762
    1C        C  510   3.395   4.527   2.884
    1C        C  511   3.536   4.521   2.884
    1C        C  512   3.322   4.526   3.005
    1C        C  513   3.392   4.533   3.127
    1C        C  514   3.185   4.498   3.253
    1C        C  515   3.324   4.524   3.250
    1C        C  516   3.120   4.477   3.376
    1C        C  517   3.185   4.501   3.499
    1C        C  518   2.994   4.412   3.623
    1C        C  519   3.118   4.481   3.621
    1C        C  520   2.938   4.378   3.748
    1C        C  521   2.999   4.418   3.869
    1C        C  522   2.835   4.283   3.993
    1C        C  523   2.938   4.379   3.991
    1C        C  524   2.785   4.235   4.116
    1C        C  525   2.832   4.293   4.237
    1C        C  526   2.694   4.133   4.363
    1C        C  527   2.778   4.246   4.359
    1C        C  528   2.660   4.072   4.486
    1C        C  529   2.691   4.142   4.604
    1C        C  530   2.588   3.960   4.730
    1C        C  531   2.640   4.092   4.726
    1C        C  532   2.540   3.902   4.851
    1C        C  533   2.529   3.996   4.958
    1C        C  534   3.614   4.556   2.041
    1C        C  535   3.746   4.507   2.042
    1C        C  536   3.533   4.532   2.157
    1C        C  537   3.603   4.503   2.277
    1C        C  538   3.390   4.516   2.397
    1C        C  539   3.531   4.511   2.398
    1C        C  540   3.318   4.510   2.519
    1C        C  541   3.390   4.510   2.641
    1C        C  542   3.183   4.486   2.765
    1C        C  543   3.321   4.513   2.764
    1C        C  544   3.116   4.468   2.888
    1C        C  545   3.185   4.494   3.009
    1C        C  546   2.994   4.403   3.132
    1C        C  547   3.117   4.473   3.131
    1C        C  548   2.937   4.366   3.256
    1C        C  549   2.996   4.408   3.377
    1C        C  550   2.828   4.282   3.505
    1C        C  551   2.938   4.371   3.501
    1C        C  552   2.782   4.228   3.628
    1C        C  553   2.836   4.280   3.748
    1C        C  554   2.705   4.115   3.873
    1C        C  555   2.787   4.230   3.871
    1C        C  556   2.668   4.059   3.998
    1C        C  557   2.700   4.122   4.120
    1C        C  558   2.600   3.939   4.245
    1C        C  559   2.657   4.068   4.243
    1C        C  560   2.577   3.874   4.368
    1C        C  561   2.597   3.945   4.489
    1C        C  562   2.535   3.747   4.618
    1C        C  563   2.565   3.885   4.612
    1C        C  564   2.519   3.679   4.741
    1C        C  565   2.519   3.760   4.858
    1C        C  566   2.523   3.544   4.975
    1C        C  567   2.521   3.683   4.975
    1C        C  568   3.323   4.478   2.040
    1C        C  569   3.394   4.507   2.157
    1C        C  570   3.177   4.482   2.279
    1C        C  571   3.316   4.512   2.277
    1C        C  572   3.110   4.460   2.401
    1C        C  573   3.179   4.484   2.522
    1C        C  574   2.987   4.400   2.646
    1C        C  575   3.111   4.467   2.644
    1C        C  576   2.929   4.361   2.768
    1C        C  577   2.989   4.405   2.888
    1C        C  578   2.824   4.276   3.013
    1C        C  579   2.932   4.367   3.011
    1C        C  580   2.777   4.226   3.137
    1C        C  581   2.830   4.274   3.258
    1C        C  582   2.701   4.112   3.382
    1C        C  583   2.784   4.226   3.383
    1C        C  584   2.662   4.055   3.505
    1C        C  585   2.698   4.115   3.628
    1C        C  586   2.594   3.933   3.754
    1C        C  587   2.662   4.057   3.752
    1C        C  588   2.574   3.868   3.877
    1C        C  589   2.607   3.931   3.999
    1C        C  590   2.541   3.734   4.127
    1C        C  591   2.579   3.870   4.123
    1C        C  592   2.527   3.668   4.252
    1C        C  593   2.536   3.739   4.374
    1C        C  594   2.509   3.533   4.499
    1C        C  595   2.520   3.674   4.498
    1C        C  596   2.514   3.462   4.621
    1C        C  597   2.515   3.537   4.741
    1C        C  598   2.529   3.322   4.863
    1C        C  599   2.525   3.463   4.861
    1C        C  600   2.532   3.241   4.977
    1C        C  601   3.191   4.437   2.042
    1C        C  602   2.976   4.398   2.156
    1C        C  603   3.113   4.440   2.159
    1C        C  604   2.918   4.363   2.281
    1C        C  605   2.984   4.398   2.401
    1C        C  606   2.818   4.269   2.525
    1C        C  607   2.926   4.361   2.525
    1C        C  608   2.768   4.222   2.648
    1C        C  609   2.822   4.269   2.770
    1C        C  610   2.687   4.109   2.894
    1C        C  611   2.773   4.221   2.893
    1C        C  612   2.651   4.051   3.018
    1C        C  613   2.691   4.114   3.138
    1C        C  614   2.597   3.925   3.262
    1C        C  615   2.657   4.053   3.261
    1C        C  616   2.572   3.864   3.387
    1C        C  617   2.597   3.930   3.509
    1C        C  618   2.535   3.729   3.636
    1C        C  619   2.569   3.866   3.632
    1C        C  620   2.522   3.662   3.760
    1C        C  621   2.533   3.733   3.882
    1C        C  622   2.510   3.523   4.009
    1C        C  623   2.528   3.664   4.006
    1C        C  624   2.515   3.455   4.133
    1C        C  625   2.518   3.527   4.255
    1C        C  626   2.532   3.319   4.379
    1C        C  627   2.517   3.459   4.378
    1C        C  628   2.553   3.250   4.500
    1C        C  629   2.538   3.323   4.620
    1C        C  630   2.592   3.116   4.742
    1C        C  631   2.552   3.253   4.742
    1C        C  632   2.615   3.044   4.862
    1C        C  633   2.556   3.103   4.979
    1C        C  634   2.781   4.302   2.052
    1C        C  635   2.889   4.391   2.043
    1C        C  636   2.745   4.228   2.165
    1C        C  637   2.805   4.277   2.283
    1C        C  638   2.678   4.106   2.407
    1C        C  639   2.760   4.221   2.405
    1C        C  640   2.643   4.047   2.530
    1C        C  641   2.683   4.109   2.650
    1C        C  642   2.588   3.920   2.774
    1C        C  643   2.646   4.049   2.773
    1C        C  644   2.568   3.857   2.898
    1C        C  645   2.592   3.923   3.020
    1C        C  646   2.528   3.721   3.147
    1C        C  647   2.562   3.858   3.142
    1C        C  648   2.516   3.656   3.272
    1C        C  649   2.531   3.729   3.392
    1C        C  650   2.512   3.519   3.519
    1C        C  651   2.520   3.660   3.514
    1C        C  652   2.517   3.451   3.643
    1C        C  653   2.513   3.521   3.765
    1C        C  654   2.529   3.312   3.888
    1C        C  655   2.506   3.452   3.888
    1C        C  656   2.545   3.245   4.011
    1C        C  657   2.534   3.315   4.134
    1C        C  658   2.600   3.117   4.257
    1C        C  659   2.550   3.249   4.258
    1C        C  660   2.629   3.050   4.378
    1C        C  661   2.599   3.116   4.499
    1C        C  662   2.701   2.932   4.623
    1C        C  663   2.623   3.049   4.621
    1C        C  664   2.750   2.876   4.743
    1C        C  665   2.699   2.928   4.866
    1C        C  666   2.745   2.868   4.983
    1C        C  667   2.680   4.021   2.052
    1C        C  668   2.678   4.104   2.165
    1C        C  669   2.588   3.911   2.288
    1C        C  670   2.640   4.043   2.286
    1C        C  671   2.558   3.847   2.410
    1C        C  672   2.581   3.920   2.529
    1C        C  673   2.522   3.718   2.658
    1C        C  674   2.562   3.853   2.652
    1C        C  675   2.512   3.649   2.781
    1C        C  676   2.530   3.721   2.901
    1C        C  677   2.507   3.512   3.029
    1C        C  678   2.515   3.652   3.024
    1C        C  679   2.508   3.444   3.153
    1C        C  680   2.505   3.515   3.275
    1C        C  681   2.535   3.307   3.400
    1C        C  682   2.507   3.446   3.398
    1C        C  683   2.552   3.240   3.523
    1C        C  684   2.535   3.311   3.644
    1C        C  685   2.594   3.109   3.771
    1C        C  686   2.547   3.242   3.767
    1C        C  687   2.627   3.045   3.893
    1C        C  688   2.597   3.114   4.012
    1C        C  689   2.717   2.940   4.137
    1C        C  690   2.634   3.054   4.135
    1C        C  691   2.757   2.878   4.257
    1C        C  692   2.710   2.934   4.378
    1C        C  693   2.748   2.877   4.501
    1C        C  694   2.622   3.893   2.052
    1C        C  695   2.525   3.702   2.174
    1C        C  696   2.577   3.833   2.171
    1C        C  697   2.506   3.635   2.297
    1C        C  698   2.523   3.710   2.415
    1C        C  699   2.499   3.502   2.541
    1C        C  700   2.505   3.644   2.539
    1C        C  701   2.510   3.434   2.664
    1C        C  702   2.509   3.508   2.784
    1C        C  703   2.533   3.299   2.912
    1C        C  704   2.513   3.439   2.908
    1C        C  705   2.544   3.232   3.035
    1C        C  706   2.529   3.304   3.156
    1C        C  707   2.599   3.104   3.277
    1C        C  708   2.551   3.237   3.278
    1C        C  709   2.630   3.042   3.400
    1C        C  710   2.603   3.108   3.522
    1C        C  711   2.705   2.930   3.647
    1C        C  712   2.630   3.049   3.648
    1C        C  713   2.754   2.876   3.768
    1C        C  714   2.709   2.931   3.891
    1C        C  715   2.758   2.883   4.014
    1C        C  716   2.453   3.496   2.064
    1C        C  717   2.491   3.631   2.058
    1C        C  718   2.466   3.418   2.184
    1C        C  719   2.482   3.495   2.302
    1C        C  720   2.513   3.285   2.423
    1C        C  721   2.491   3.424   2.424
    1C        C  722   2.534   3.220   2.547
    1C        C  723   2.526   3.294   2.667
    1C        C  724   2.590   3.094   2.790
    1C        C  725   2.542   3.227   2.791
    1C        C  726   2.625   3.034   2.913
    1C        C  727   2.593   3.099   3.034
    1C        C  728   2.707   2.920   3.158
    1C        C  729   2.629   3.038   3.156
    1C        C  730   2.754   2.868   3.280
    1C        C  731   2.709   2.924   3.402
    1C        C  732   2.753   2.874   3.526
    1C        C  733   2.485   3.192   2.071
    1C        C  734   2.482   3.276   2.184
    1C        C  735   2.580   3.081   2.303
    1C        C  736   2.527   3.213   2.303
    1C        C  737   2.608   3.019   2.428
    1C        C  738   2.579   3.086   2.549
    1C        C  739   2.700   2.910   2.668
    1C        C  740   2.616   3.023   2.670
    1C        C  741   2.740   2.853   2.791
    1C        C  742   2.704   2.917   2.912
    1C        C  743   2.747   2.863   3.035
    1C        C  744   2.541   3.065   2.071
    1C        C  745   2.686   2.896   2.185
    1C        C  746   2.607   3.012   2.183
    1C        C  747   2.729   2.838   2.307
    1C        C  748   2.684   2.901   2.425
    1C        C  749   2.739   2.851   2.546
    1C        C  750   2.738   2.839   2.068
    1C        C  751   3.662   2.300   1.995
    1C        O  752   3.699   2.191   2.047
    1C        O  753   3.677   2.313   1.856
    1C        C  754   4.616   3.047   1.971
    1C        O  755   4.607   3.044   1.845
    1C        O  756   4.721   2.963   2.010
    1C        C  757   4.425   4.213   1.937
    1C        O  758   4.523   4.291   1.951
    1C        O  759   4.354   4.208   1.816
    1C        C  760   3.595   4.668   1.946
    1C        O  761   3.527   4.773   1.966
    1C        O  762   3.616   4.631   1.813
    1C        C  763   2.893   4.475   1.921
    1C        O  764   2.946   4.449   1.810
    1C        O  765   2.835   4.603   1.920
    1C        C  766   2.358   3.457   1.958
    1C        O  767   2.391   3.478   1.838
    1C        O  768   2.219   3.465   1.971
    1C        C  769   4.722   3.597   5.016
    1C        O  770   4.734   3.556   5.135
    1C        O  771   4.839   3.615   4.942
    1C        C  772   4.268   4.429   5.051
    1C        O  773   4.242   4.455   5.171
    1C        O  774   4.378   4.509   5.014
    1C        C  775   4.135   2.503   5.065
    1C        O  776   4.212   2.415   5.018
    1C        O  777   4.138   2.519   5.204
    1C        C  778   2.888   4.559   5.033
    1C        O  779   2.853   4.662   4.969
    1C        O  780   2.956   4.585   5.152
    1C        C  781   2.449   3.021   5.040
    1C        O  782   2.343   2.994   4.977
    1C        O  783   2.441   3.002   5.177
    1C        C  784   2.416   3.994   5.054
    1C        O  785   2.296   4.032   5.042
    1C        O  786   2.450   3.969   5.188
    1C        C  787   2.961   2.443   1.971
    1C        O  788   2.963   2.487   1.852
    1C        O  789   2.846   2.368   1.994
    1C        C  790   3.182   2.372   5.054
    1C        O  791   3.169   2.261   4.997
    1C        O  792   3.158   2.365   5.192
    1C        H  793   4.275   3.028   5.056
    1C        H  794   4.167   2.821   5.070
    1C        H  795   4.496   3.126   5.056
    1C        H  796   4.538   3.364   5.061
    1C        H  797   4.528   3.794   5.058
    1C        H  798   4.470   4.012   5.034
    1C        H  799   4.287   4.173   5.051
    1C        H  800   4.038   4.541   5.021
    1C        H  801   3.812   4.586   5.043
    1C        H  802   3.593   4.660   5.026
    1C        H  803   3.395   4.465   5.031
    1C        H  804   3.156   4.496   5.057
    1C        H  805   3.872   2.526   5.075
    1C        H  806   3.677   2.443   5.067
    1C        H  807   2.985   2.508   5.032
    1C        H  808   3.437   2.444   5.073
    1C        H  809   2.881   2.730   5.074
    1C        H  810   2.730   2.928   5.071
    1C        H  811   2.579   3.287   5.062
    1C        H  812   2.489   3.498   5.066
    1C        H  813   2.494   3.732   5.066
    1C        H  814   2.580   4.187   5.034
    1C        H  815   2.723   4.359   5.036
    1C        H  816   2.713   2.880   1.973
    1C        H  817   2.820   2.670   1.979
    1C        H  818   3.207   2.406   2.003
    1C        H  819   3.437   2.487   1.981
    1C        H  820   3.874   2.486   1.978
    1C        H  821   4.074   2.588   1.973
    1C        H  822   4.245   2.719   1.970
    1C        H  823   4.377   2.922   1.968
    1C        H  824   4.630   3.300   1.990
    1C        H  825   4.452   3.533   1.979
    1C        H  826   4.582   3.749   1.977
    1C        H  827   3.789   4.489   1.946
    1C        H  828   3.997   4.434   1.963
    1C        H  829   4.128   4.213   1.961
    1C        H  830   4.436   3.946   1.955
    1C        H  831   2.634   3.835   1.963
    1C        H  832   2.765   4.025   1.987
    1C        H  833   2.697   4.331   1.992
    1C        H  834   3.354   4.537   1.956
    1C        H  835   3.160   4.374   1.962
    1C        H  836   2.506   2.992   2.000
    1C        H  837   2.411   3.204   1.995
    1C        H  838   2.457   3.687   1.974
    2V3OU   H29  839   2.794   3.554   5.997
    2V3OU   C27  840   2.779   3.503   6.096
    2V3OU   H27  841   2.726   3.568   6.170
    2V3OU   H28  842   2.729   3.405   6.079
    2V3OU   O11  843   2.909   3.480   6.152
    2V3OU   C15  844   2.922   3.394   6.258
    2V3OU   C13  845   3.050   3.374   6.314
    2V3OU   C14  846   3.073   3.273   6.408
    2V3OU   C16  847   2.965   3.193   6.444
    2V3OU    H6  848   2.990   3.100   6.496
    2V3OU   C12  849   3.210   3.227   6.437
    2V3OU    O2  850   3.233   3.126   6.508
    2V3OU   C10  851   3.321   3.307   6.383
    2V3OU    C8  852   3.453   3.270   6.407
    2V3OU   O10  853   3.485   3.159   6.477
    2V3OU   H26  854   3.397   3.118   6.486
    2V3OU    C6  855   3.565   3.348   6.362
    2V3OU    C5  856   3.536   3.464   6.291
    2V3OU    C4  857   3.701   3.290   6.350
    2V3OU    H4  858   3.719   3.225   6.441
    2V3OU    H5  859   3.706   3.226   6.257
    2V3OU    C2  860   3.817   3.390   6.348
    2V3OU    O6  861   3.805   3.467   6.468
    2V3OU   H21  862   3.768   3.554   6.445
    2V3OU    C3  863   3.783   3.493   6.239
    2V3OU    H2  864   3.866   3.567   6.226
    2V3OU    H3  865   3.782   3.437   6.142
    2V3OU   C25  866   3.953   3.323   6.336
    2V3OU    O7  867   4.001   3.292   6.227
    2V3OU   C26  868   4.029   3.286   6.463
    2V3OU   H22  869   4.060   3.378   6.520
    2V3OU   H23  870   4.123   3.232   6.437
    2V3OU    O8  871   3.960   3.205   6.556
    2V3OU   H24  872   3.926   3.255   6.632
    2V3OU    C1  873   3.647   3.559   6.255
    2V3OU    H1  874   3.622   3.613   6.159
    2V3OU    O3  875   3.660   3.654   6.361
    2V3OU   C19  876   3.616   3.790   6.353
    2V3OU    H9  877   3.518   3.800   6.298
    2V3OU    O4  878   3.711   3.850   6.268
    2V3OU   C20  879   3.841   3.869   6.325
    2V3OU   H10  880   3.895   3.770   6.333
    2V3OU   C24  881   3.608   3.858   6.489
    2V3OU   H16  882   3.540   3.798   6.556
    2V3OU   H17  883   3.558   3.958   6.479
    2V3OU   C23  884   3.744   3.872   6.558
    2V3OU   H15  885   3.783   3.767   6.581
    2V3OU    N1  886   3.729   3.954   6.676
    2V3OU   H19  887   3.812   3.934   6.729
    2V3OU   H20  888   3.643   3.933   6.723
    2V3OU   C21  889   3.845   3.941   6.460
    2V3OU   H11  890   3.948   3.929   6.505
    2V3OU    O5  891   3.822   4.080   6.447
    2V3OU   H18  892   3.777   4.097   6.531
    2V3OU   C22  893   3.914   3.949   6.219
    2V3OU   H12  894   3.861   4.048   6.211
    2V3OU   H13  895   3.905   3.892   6.124
    2V3OU   H14  896   4.024   3.954   6.241
    2V3OU   C11  897   3.156   3.473   6.291
    2V3OU    O1  898   3.140   3.588   6.243
    2V3OU    C9  899   3.295   3.426   6.311
    2V3OU    C7  900   3.401   3.503   6.265
    2V3OU    O9  901   3.383   3.615   6.186
    2V3OU   H25  902   3.287   3.625   6.174
    2V3OU   C17  903   2.818   3.308   6.300
    2V3OU    H7  904   2.714   3.334   6.278
    2V3OU   C18  905   2.836   3.208   6.395
    2V3OU    H8  906   2.749   3.154   6.437
    3SOL     OW  907   3.412   3.119   4.338
    3SOL    HW1  908   3.386   3.210   4.306
    3SOL    HW2  909   3.341   3.053   4.314
    4SOL     OW  910   0.270   6.447   0.894
    4SOL    HW1  911   0.297   6.481   0.805
    4SOL    HW2  912   0.225   6.358   0.884
    5SOL     OW  913   4.021   2.371   0.706
    5SOL    HW1  914   4.012   2.390   0.803
    5SOL    HW2  915   3.942   2.319   0.674
    6SOL     OW  916   3.901   1.794   2.424
    6SOL    HW1  917   3.929   1.850   2.502
    6SOL    HW2  918   3.824   1.837   2.377
    7SOL     OW  919   2.414   2.714   4.621
    7SOL    HW1  920   2.403   2.712   4.521
    7SOL    HW2  921   2.510   2.726   4.644
    8SOL     OW  922   1.058   2.281   5.501
    8SOL    HW1  923   1.123   2.357   5.495
    8SOL    HW2  924   1.100   2.198   5.465
    9SOL     OW  925   1.431   2.287   6.511
    9SOL    HW1  926   1.342   2.285   6.556
    9SOL    HW2  927   1.440   2.205   6.454
   10SOL     OW  928   5.344   5.272   1.431
   10SOL    HW1  929   5.259   5.290   1.479
   10SOL    HW2  930   5.400   5.209   1.485
   11SOL     OW  931   2.824   2.192   0.438
   11SOL    HW1  932   2.856   2.099   0.425
   11SOL    HW2  933   2.759   2.215   0.365
   12SOL     OW  934   4.936   5.633   1.906
   12SOL    HW1  935   5.014   5.666   1.854
   12SOL    HW2  936   4.919   5.537   1.884
   13SOL     OW  937   5.600   6.072   2.433
   13SOL    HW1  938   5.525   6.130   2.402
   13SOL    HW2  939   5.664   6.057   2.358
   14SOL     OW  940   4.301   6.409   0.397
   14SOL    HW1  941   4.295   6.309   0.392
   14SOL    HW2  942   4.264   6.449   0.313
   15SOL     OW  943   0.632   6.249   6.560
   15SOL    HW1  944   0.554   6.210   6.610
   15SOL    HW2  945   0.712   6.251   6.620
   16SOL     OW  946   2.141   5.618   4.596
   16SOL    HW1  947   2.205   5.605   4.520
   16SOL    HW2  948   2.048   5.629   4.560
   17SOL     OW  949   6.847   1.537   4.003
   17SOL    HW1  950   6.833   1.463   4.069
   17SOL    HW2  951   6.857   1.623   4.052
   18SOL     OW  952   3.018   1.168   5.406
   18SOL    HW1  953   3.009   1.204   5.499
   18SOL    HW2  954   3.037   1.243   5.343
   19SOL     OW  955   2.849   6.149   3.001
   19SOL    HW1  956   2.820   6.199   2.919
   19SOL    HW2  957   2.789   6.172   3.077
   20SOL     OW  958   7.011   1.877   5.520
   20SOL    HW1  959   6.944   1.810   5.487
   20SOL    HW2  960   0.066   1.883   5.454
   21SOL     OW  961   2.019   3.852   1.846
   21SOL    HW1  962   1.947   3.903   1.800
   21SOL    HW2  963   2.081   3.915   1.893
   22SOL     OW  964   0.672   1.130   7.008
   22SOL    HW1  965   0.756   1.088   0.022
   22SOL    HW2  966   0.615   1.158   0.064
   23SOL     OW  967   6.771   5.274   0.079
   23SOL    HW1  968   6.725   5.269   7.010
   23SOL    HW2  969   6.780   5.182   0.117
   24SOL     OW  970   5.180   1.388   6.882
   24SOL    HW1  971   5.183   1.406   6.981
   24SOL    HW2  972   5.089   1.356   6.856
   25SOL     OW  973   1.005   1.173   4.535
   25SOL    HW1  974   1.029   1.112   4.611
   25SOL    HW2  975   0.983   1.119   4.454
   26SOL     OW  976   1.975   0.317   6.627
   26SOL    HW1  977   1.888   0.366   6.618
   26SOL    HW2  978   2.019   0.341   6.713
   27SOL     OW  979   0.074   0.084   2.305
   27SOL    HW1  980   0.079   0.059   2.402
   27SOL    HW2  981   6.999   0.094   2.278
   28SOL     OW  982   1.744   1.004   5.689
   28SOL    HW1  983   1.803   0.965   5.760
   28SOL    HW2  984   1.799   1.022   5.607
   29SOL     OW  985   5.556   1.059   1.511
   29SOL    HW1  986   5.586   0.966   1.531
   29SOL    HW2  987   5.461   1.071   1.538
   30SOL     OW  988   5.133   0.440   5.125
   30SOL    HW1  989   5.166   0.368   5.064
   30SOL    HW2  990   5.045   0.474   5.092
   31SOL     OW  991   6.421   4.623   4.125
   31SOL    HW1  992   6.379   4.671   4.202
   31SOL    HW2  993   6.349   4.591   4.063
   32SOL     OW  994   2.955   1.215   1.008
   32SOL    HW1  995   3.018   1.229   1.085
   32SOL    HW2  996   2.871   1.172   1.041
   33SOL     OW  997   1.874   5.186   5.470
   33SOL    HW1  998   1.891   5.213   5.565
   33SOL    HW2  999   1.779   5.155   5.462
   34SOL     OW 1000   1.735   6.101   5.532
   34SOL    HW1 1001   1.708   6.170   5.464
   34SOL    HW2 1002   1.677   6.110   5.613
   35SOL     OW 1003   1.347   3.161   4.496
   35SOL    HW1 1004   1.279   3.097   4.532
   35SOL    HW2 1005   1.425   3.166   4.558
   36SOL     OW 1006   5.767   1.193   3.755
   36SOL    HW1 1007   5.728   1.269   3.704
   36SOL    HW2 1008   5.860   1.215   3.782
   37SOL     OW 1009   1.399   6.452   4.275
   37SOL    HW1 1010   1.468   6.473   4.345
   37SOL    HW2 1011   1.445   6.430   4.189
   38SOL     OW 1012   0.759   3.712   1.658
   38SOL    HW1 1013   0.781   3.639   1.722
   38SOL    HW2 1014   0.811   3.698   1.573
   39SOL     OW 1015   6.239   4.843   1.167
   39SOL    HW1 1016   6.315   4.890   1.122
   39SOL    HW2 1017   6.166   4.908   1.185
   40SOL     OW 1018   3.776   0.736   6.608
   40SOL    HW1 1019   3.684   0.773   6.623
   40SOL    HW2 1020   3.799   0.742   6.511
   41SOL     OW 1021   5.303   4.329   1.739
   41SOL    HW1 1022   5.268   4.285   1.656
   41SOL    HW2 1023   5.279   4.426   1.738
   42SOL     OW 1024   2.802   4.100   6.662
   42SOL    HW1 1025   2.851   4.102   6.749
   42SOL    HW2 1026   2.865   4.076   6.589
   43SOL     OW 1027   5.271   6.876   4.811
   43SOL    HW1 1028   5.295   6.949   4.748
   43SOL    HW2 1029   5.348   6.858   4.872
   44SOL     OW 1030   6.288   0.738   6.204
   44SOL    HW1 1031   6.296   0.709   6.300
   44SOL    HW2 1032   6.195   0.722   6.172
   45SOL     OW 1033   2.842   4.406   5.864
   45SOL    HW1 1034   2.856   4.378   5.769
   45SOL    HW2 1035   2.745   4.402   5.886
   46SOL     OW 1036   0.787   4.721   4.340
   46SOL    HW1 1037   0.817   4.688   4.430
   46SOL    HW2 1038   0.823   4.660   4.269
   47SOL     OW 1039   6.176   4.278   0.007
   47SOL    HW1 1040   6.139   4.202   6.974
   47SOL    HW2 1041   6.119   4.359   7.014
   48SOL     OW 1042   0.254   4.340   0.133
   48SOL    HW1 1043   0.324   4.347   0.062
   48SOL    HW2 1044   0.293   4.291   0.212
   49SOL     OW 1045   3.078   2.394   6.693
   49SOL    HW1 1046   3.115   2.357   6.607
   49SOL    HW2 1047   3.059   2.492   6.682
   50SOL     OW 1048   5.027   2.057   0.251
   50SOL    HW1 1049   5.010   2.096   0.161
   50SOL    HW2 1050   4.997   1.962   0.252
   51SOL     OW 1051   1.244   6.318   2.219
   51SOL    HW1 1052   1.169   6.367   2.264
   51SOL    HW2 1053   1.240   6.221   2.244
   52SOL     OW 1054   5.540   1.793   2.243
   52SOL    HW1 1055   5.449   1.797   2.202
   52SOL    HW2 1056   5.541   1.845   2.328
   53SOL     OW 1057   4.570   0.689   0.843
   53SOL    HW1 1058   4.573   0.676   0.942
   53SOL    HW2 1059   4.625   0.769   0.819
   54SOL     OW 1060   6.331   0.180   6.911
   54SOL    HW1 1061   6.315   0.234   6.994
   54SOL    HW2 1062   6.247   0.130   6.888
   55SOL     OW 1063   1.644   3.729   5.526
   55SOL    HW1 1064   1.638   3.822   5.490
   55SOL    HW2 1065   1.720   3.681   5.482
   56SOL     OW 1066   0.590   2.427   6.792
   56SOL    HW1 1067   0.500   2.408   6.832
   56SOL    HW2 1068   0.654   2.455   6.863
   57SOL     OW 1069   4.038   6.006   1.553
   57SOL    HW1 1070   4.101   6.055   1.614
   57SOL    HW2 1071   3.973   5.953   1.609
   58SOL     OW 1072   1.143   0.724   6.840
   58SOL    HW1 1073   1.054   0.740   6.798
   58SOL    HW2 1074   1.184   0.811   6.865
   59SOL     OW 1075   3.991   2.932   6.703
   59SOL    HW1 1076   3.957   3.011   6.753
   59SOL    HW2 1077   4.059   2.961   6.636
   60SOL     OW 1078   6.704   3.149   2.545
   60SOL    HW1 1079   6.738   3.237   2.513
   60SOL    HW2 1080   6.656   3.163   2.632
   61SOL     OW 1081   1.573   5.739   3.043
   61SOL    HW1 1082   1.579   5.693   3.132
   61SOL    HW2 1083   1.566   5.670   2.971
   62SOL     OW 1084   5.322   2.721   3.121
   62SOL    HW1 1085   5.332   2.741   3.024
   62SOL    HW2 1086   5.412   2.701   3.160
   63SOL     OW 1087   3.826   0.224   6.441
   63SOL    HW1 1088   3.819   0.304   6.501
   63SOL    HW2 1089   3.886   0.156   6.483
   64SOL     OW 1090   1.639   2.280   6.714
   64SOL    HW1 1091   1.560   2.312   6.663
   64SOL    HW2 1092   1.694   2.220   6.656
   65SOL     OW 1093   0.961   5.098   5.438
   65SOL    HW1 1094   0.898   5.172   5.460
   65SOL    HW2 1095   1.037   5.135   5.384
   66SOL     OW 1096   4.752   1.115   1.408
   66SOL    HW1 1097   4.685   1.095   1.337
   66SOL    HW2 1098   4.812   1.189   1.377
   67SOL     OW 1099   0.259   3.449   1.006
   67SOL    HW1 1100   0.342   3.424   0.956
   67SOL    HW2 1101   0.280   3.523   1.070
   68SOL     OW 1102   0.320   1.054   6.145
   68SOL    HW1 1103   0.350   1.099   6.229
   68SOL    HW2 1104   0.392   0.994   6.112
   69SOL     OW 1105   1.235   6.984   6.545
   69SOL    HW1 1106   1.317   6.993   6.601
   69SOL    HW2 1107   1.257   7.002   6.449
   70SOL     OW 1108   4.843   4.625   3.137
   70SOL    HW1 1109   4.912   4.682   3.092
   70SOL    HW2 1110   4.858   4.529   3.113
   71SOL     OW 1111   4.662   2.070   5.404
   71SOL    HW1 1112   4.642   1.984   5.358
   71SOL    HW2 1113   4.732   2.120   5.353
   72SOL     OW 1114   0.040   1.040   2.328
   72SOL    HW1 1115   0.129   1.033   2.283
   72SOL    HW2 1116   0.040   1.118   2.391
   73SOL     OW 1117   2.778   0.728   1.331
   73SOL    HW1 1118   2.763   0.826   1.316
   73SOL    HW2 1119   2.782   0.681   1.243
   74SOL     OW 1120   2.522   1.192   0.048
   74SOL    HW1 1121   2.462   1.229   6.998
   74SOL    HW2 1122   2.467   1.151   0.120
   75SOL     OW 1123   2.740   2.821   1.302
   75SOL    HW1 1124   2.837   2.844   1.289
   75SOL    HW2 1125   2.687   2.905   1.314
   76SOL     OW 1126   3.619   5.228   6.303
   76SOL    HW1 1127   3.689   5.157   6.305
   76SOL    HW2 1128   3.629   5.283   6.220
   77SOL     OW 1129   6.888   5.241   4.457
   77SOL    HW1 1130   6.955   5.304   4.496
   77SOL    HW2 1131   6.877   5.163   4.519
   78SOL     OW 1132   5.428   1.398   1.201
   78SOL    HW1 1133   5.476   1.353   1.277
   78SOL    HW2 1134   5.494   1.444   1.142
   79SOL     OW 1135   1.013   4.284   4.413
   79SOL    HW1 1136   0.971   4.308   4.325
   79SOL    HW2 1137   0.944   4.287   4.485
   80SOL     OW 1138   3.904   2.175   5.479
   80SOL    HW1 1139   3.815   2.216   5.458
   80SOL    HW2 1140   3.963   2.182   5.398
   81SOL     OW 1141   3.440   4.876   3.015
   81SOL    HW1 1142   3.409   4.971   3.012
   81SOL    HW2 1143   3.536   4.871   2.987
   82SOL     OW 1144   3.280   0.308   1.927
   82SOL    HW1 1145   3.302   0.389   1.982
   82SOL    HW2 1146   3.272   0.335   1.831
   83SOL     OW 1147   5.395   1.429   3.959
   83SOL    HW1 1148   5.376   1.391   3.868
   83SOL    HW2 1149   5.335   1.385   4.026
   84SOL     OW 1150   5.868   2.617   2.928
   84SOL    HW1 1151   5.828   2.706   2.906
   84SOL    HW2 1152   5.798   2.546   2.919
   85SOL     OW 1153   2.467   5.533   3.501
   85SOL    HW1 1154   2.511   5.600   3.442
   85SOL    HW2 1155   2.512   5.532   3.590
   86SOL     OW 1156   4.955   0.727   0.335
   86SOL    HW1 1157   4.909   0.762   0.418
   86SOL    HW2 1158   5.043   0.688   0.360
   87SOL     OW 1159   3.065   3.106   6.780
   87SOL    HW1 1160   3.067   3.203   6.805
   87SOL    HW2 1161   3.157   3.077   6.753
   88SOL     OW 1162   1.581   2.501   1.301
   88SOL    HW1 1163   1.679   2.502   1.279
   88SOL    HW2 1164   1.534   2.565   1.241
   89SOL     OW 1165   3.248   4.104   4.931
   89SOL    HW1 1166   3.188   4.103   4.851
   89SOL    HW2 1167   3.268   4.010   4.958
   90SOL     OW 1168   6.570   4.237   2.070
   90SOL    HW1 1169   6.606   4.165   2.129
   90SOL    HW2 1170   6.597   4.219   1.975
   91SOL     OW 1171   4.586   5.856   1.048
   91SOL    HW1 1172   4.518   5.793   1.084
   91SOL    HW2 1173   4.547   5.948   1.040
   92SOL     OW 1174   5.647   5.122   0.136
   92SOL    HW1 1175   5.587   5.161   0.067
   92SOL    HW2 1176   5.675   5.030   0.108
   93SOL     OW 1177   3.036   3.863   1.997
   93SOL    HW1 1178   3.077   3.775   2.023
   93SOL    HW2 1179   3.043   3.927   2.074
   94SOL     OW 1180   2.876   1.612   4.520
   94SOL    HW1 1181   2.800   1.568   4.568
   94SOL    HW2 1182   2.840   1.671   4.448
   95SOL     OW 1183   0.966   6.400   3.749
   95SOL    HW1 1184   0.911   6.316   3.755
   95SOL    HW2 1185   0.906   6.479   3.760
   96SOL     OW 1186   0.052   6.046   0.084
   96SOL    HW1 1187   7.015   6.126   0.101
   96SOL    HW2 1188   0.024   6.003   7.019
   97SOL     OW 1189   3.829   4.670   5.291
   97SOL    HW1 1190   3.762   4.650   5.362
   97SOL    HW2 1191   3.833   4.769   5.276
   98SOL     OW 1192   0.953   3.081   4.743
   98SOL    HW1 1193   1.018   3.148   4.779
   98SOL    HW2 1194   0.999   3.022   4.677
   99SOL     OW 1195   4.296   4.798   4.996
   99SOL    HW1 1196   4.316   4.700   4.992
   99SOL    HW2 1197   4.257   4.827   4.909
  100SOL     OW 1198   1.611   1.063   5.381
  100SOL    HW1 1199   1.708   1.053   5.404
  100SOL    HW2 1200   1.573   0.974   5.358
  101SOL     OW 1201   5.302   3.044   2.743
  101SOL    HW1 1202   5.286   3.083   2.834
  101SOL    HW2 1203   5.399   3.050   2.720
  102SOL     OW 1204   3.722   6.986   6.923
  102SOL    HW1 1205   3.632   7.004   6.963
  102SOL    HW2 1206   3.787   0.034   6.956
  103SOL     OW 1207   1.508   2.148   1.320
  103SOL    HW1 1208   1.547   2.059   1.297
  103SOL    HW2 1209   1.533   2.172   1.413
  104SOL     OW 1210   0.321   4.791   1.458
  104SOL    HW1 1211   0.297   4.721   1.391
  104SOL    HW2 1212   0.391   4.756   1.519
  105SOL     OW 1213   6.671   1.283   4.993
  105SOL    HW1 1214   6.610   1.236   4.930
  105SOL    HW2 1215   6.766   1.267   4.965
  106SOL     OW 1216   4.428   3.210   1.705
  106SOL    HW1 1217   4.468   3.300   1.686
  106SOL    HW2 1218   4.481   3.165   1.776
  107SOL     OW 1219   4.341   6.733   2.364
  107SOL    HW1 1220   4.432   6.700   2.389
  107SOL    HW2 1221   4.341   6.833   2.367
  108SOL     OW 1222   3.525   1.404   4.908
  108SOL    HW1 1223   3.434   1.362   4.912
  108SOL    HW2 1224   3.546   1.428   4.813
  109SOL     OW 1225   2.110   1.514   5.105
  109SOL    HW1 1226   2.021   1.496   5.146
  109SOL    HW2 1227   2.182   1.490   5.169
  110SOL     OW 1228   4.015   4.641   5.635
  110SOL    HW1 1229   4.032   4.623   5.538
  110SOL    HW2 1230   3.919   4.664   5.648
  111SOL     OW 1231   5.773   3.093   1.354
  111SOL    HW1 1232   5.680   3.078   1.318
  111SOL    HW2 1233   5.815   3.170   1.306
  112SOL     OW 1234   4.680   6.730   5.064
  112SOL    HW1 1235   4.590   6.772   5.053
  112SOL    HW2 1236   4.715   6.749   5.156
  113SOL     OW 1237   0.789   5.049   2.332
  113SOL    HW1 1238   0.837   4.978   2.384
  113SOL    HW2 1239   0.815   5.043   2.236
  114SOL     OW 1240   0.041   1.683   2.434
  114SOL    HW1 1241   0.102   1.663   2.357
  114SOL    HW2 1242   0.078   1.758   2.488
  115SOL     OW 1243   4.227   1.100   2.923
  115SOL    HW1 1244   4.183   1.170   2.980
  115SOL    HW2 1245   4.226   1.129   2.827
  116SOL     OW 1246   6.051   5.781   0.866
  116SOL    HW1 1247   6.008   5.691   0.863
  116SOL    HW2 1248   5.980   5.852   0.868
  117SOL     OW 1249   2.609   1.800   0.402
  117SOL    HW1 1250   2.534   1.858   0.433
  117SOL    HW2 1251   2.623   1.725   0.467
  118SOL     OW 1252   0.021   2.278   2.128
  118SOL    HW1 1253   6.958   2.311   2.171
  118SOL    HW2 1254   0.073   2.356   2.092
  119SOL     OW 1255   6.099   6.023   4.991
  119SOL    HW1 1256   6.118   6.121   4.987
  119SOL    HW2 1257   6.014   6.007   5.039
  120SOL     OW 1258   4.232   1.674   4.714
  120SOL    HW1 1259   4.151   1.619   4.734
  120SOL    HW2 1260   4.314   1.623   4.739
  121SOL     OW 1261   6.773   5.489   6.025
  121SOL    HW1 1262   6.864   5.473   6.065
  121SOL    HW2 1263   6.776   5.570   5.967
  122SOL     OW 1264   7.007   4.949   5.838
  122SOL    HW1 1265   6.940   4.908   5.776
  122SOL    HW2 1266   7.003   4.905   5.927
  123SOL     OW 1267   0.970   2.500   0.915
  123SOL    HW1 1268   0.872   2.510   0.893
  123SOL    HW2 1269   1.024   2.536   0.839
  124SOL     OW 1270   2.376   3.783   6.716
  124SOL    HW1 1271   2.468   3.792   6.679
  124SOL    HW2 1272   2.339   3.693   6.694
  125SOL     OW 1273   4.463   2.345   0.389
  125SOL    HW1 1274   4.481   2.247   0.397
  125SOL    HW2 1275   4.530   2.396   0.443
  126SOL     OW 1276   3.842   3.452   4.954
  126SOL    HW1 1277   3.926   3.400   4.943
  126SOL    HW2 1278   3.768   3.391   4.982
  127SOL     OW 1279   0.083   5.219   6.250
  127SOL    HW1 1280   0.014   5.224   6.178
  127SOL    HW2 1281   0.100   5.123   6.273
  128SOL     OW 1282   4.549   4.352   6.160
  128SOL    HW1 1283   4.567   4.446   6.190
  128SOL    HW2 1284   4.620   4.291   6.197
  129SOL     OW 1285   0.835   4.553   1.371
  129SOL    HW1 1286   0.932   4.548   1.348
  129SOL    HW2 1287   0.789   4.617   1.309
  130SOL     OW 1288   5.998   3.702   4.807
  130SOL    HW1 1289   6.000   3.666   4.900
  130SOL    HW2 1290   5.941   3.785   4.804
  131SOL     OW 1291   1.172   3.786   2.735
  131SOL    HW1 1292   1.239   3.763   2.664
  131SOL    HW2 1293   1.149   3.703   2.787
  132SOL     OW 1294   4.097   2.679   1.310
  132SOL    HW1 1295   4.011   2.666   1.360
  132SOL    HW2 1296   4.156   2.599   1.325
  133SOL     OW 1297   4.085   4.635   6.337
  133SOL    HW1 1298   4.093   4.600   6.243
  133SOL    HW2 1299   4.047   4.563   6.396
  134SOL     OW 1300   6.350   2.193   6.845
  134SOL    HW1 1301   6.265   2.237   6.875
  134SOL    HW2 1302   6.348   2.096   6.869
  135SOL     OW 1303   4.530   4.434   3.654
  135SOL    HW1 1304   4.517   4.421   3.752
  135SOL    HW2 1305   4.459   4.494   3.618
  136SOL     OW 1306   3.963   6.712   6.202
  136SOL    HW1 1307   3.951   6.667   6.291
  136SOL    HW2 1308   3.899   6.673   6.136
  137SOL     OW 1309   1.923   4.472   6.886
  137SOL    HW1 1310   2.007   4.485   6.938
  137SOL    HW2 1311   1.923   4.382   6.844
  138SOL     OW 1312   0.980   5.947   0.353
  138SOL    HW1 1313   0.881   5.958   0.342
  138SOL    HW2 1314   1.026   5.976   0.269
  139SOL     OW 1315   0.487   0.988   0.889
  139SOL    HW1 1316   0.501   1.083   0.860
  139SOL    HW2 1317   0.551   0.928   0.841
  140SOL     OW 1318   3.916   0.299   1.979
  140SOL    HW1 1319   3.918   0.239   2.059
  140SOL    HW2 1320   4.009   0.317   1.948
  141SOL     OW 1321   1.195   1.510   6.814
  141SOL    HW1 1322   1.173   1.603   6.785
  141SOL    HW2 1323   1.160   1.445   6.746
  142SOL     OW 1324   2.139   3.895   6.774
  142SOL    HW1 1325   2.228   3.865   6.740
  142SOL    HW2 1326   2.081   3.920   6.696
  143SOL     OW 1327   5.397   5.769   1.968
  143SOL    HW1 1328   5.461   5.799   2.040
  143SOL    HW2 1329   5.380   5.671   1.978
  144SOL     OW 1330   3.135   5.424   3.121
  144SOL    HW1 1331   3.114   5.326   3.113
  144SOL    HW2 1332   3.090   5.473   3.046
  145SOL     OW 1333   0.036   5.534   3.517
  145SOL    HW1 1334   6.994   5.460   3.542
  145SOL    HW2 1335   0.104   5.546   3.590
  146SOL     OW 1336   0.250   0.951   5.879
  146SOL    HW1 1337   0.271   0.989   5.969
  146SOL    HW2 1338   0.315   0.878   5.858
  147SOL     OW 1339   5.705   0.862   4.752
  147SOL    HW1 1340   5.762   0.939   4.782
  147SOL    HW2 1341   5.672   0.812   4.832
  148SOL     OW 1342   2.062   6.675   1.877
  148SOL    HW1 1343   2.120   6.648   1.954
  148SOL    HW2 1344   2.025   6.593   1.833
  149SOL     OW 1345   1.699   2.845   4.925
  149SOL    HW1 1346   1.774   2.827   4.862
  149SOL    HW2 1347   1.722   2.924   4.983
  150SOL     OW 1348   4.786   3.138   5.529
  150SOL    HW1 1349   4.862   3.075   5.544
  150SOL    HW2 1350   4.721   3.131   5.604
  151SOL     OW 1351   6.365   2.906   1.652
  151SOL    HW1 1352   6.275   2.870   1.626
  151SOL    HW2 1353   6.436   2.841   1.626
  152SOL     OW 1354   0.168   2.815   0.190
  152SOL    HW1 1355   0.139   2.852   0.102
  152SOL    HW2 1356   0.253   2.860   0.219
  153SOL     OW 1357   1.685   1.838   3.770
  153SOL    HW1 1358   1.737   1.847   3.855
  153SOL    HW2 1359   1.742   1.797   3.699
  154SOL     OW 1360   0.225   1.309   3.974
  154SOL    HW1 1361   0.132   1.328   4.005
  154SOL    HW2 1362   0.282   1.390   3.986
  155SOL     OW 1363   5.526   4.432   3.366
  155SOL    HW1 1364   5.554   4.363   3.299
  155SOL    HW2 1365   5.605   4.459   3.421
  156SOL     OW 1366   4.246   0.383   1.648
  156SOL    HW1 1367   4.288   0.293   1.655
  156SOL    HW2 1368   4.294   0.447   1.708
  157SOL     OW 1369   5.384   6.965   1.263
  157SOL    HW1 1370   5.316   6.927   1.200
  157SOL    HW2 1371   5.347   6.966   1.356
  158SOL     OW 1372   1.075   3.169   4.178
  158SOL    HW1 1373   1.050   3.199   4.086
  158SOL    HW2 1374   1.032   3.081   4.198
  159SOL     OW 1375   6.796   5.019   6.898
  159SOL    HW1 1376   6.890   5.038   6.927
  159SOL    HW2 1377   6.740   5.001   6.979
  160SOL     OW 1378   4.194   0.573   0.974
  160SOL    HW1 1379   4.137   0.566   0.892
  160SOL    HW2 1380   4.258   0.495   0.977
  161SOL     OW 1381   0.086   0.079   0.558
  161SOL    HW1 1382   7.011   0.106   0.564
  161SOL    HW2 1383   0.127   0.080   0.649
  162SOL     OW 1384   4.413   0.012   5.579
  162SOL    HW1 1385   4.474   0.010   5.499
  162SOL    HW2 1386   4.466   0.030   5.661
  163SOL     OW 1387   0.852   3.877   2.536
  163SOL    HW1 1388   0.849   3.887   2.636
  163SOL    HW2 1389   0.815   3.959   2.493
  164SOL     OW 1390   2.117   1.978   2.475
  164SOL    HW1 1391   2.017   1.979   2.482
  164SOL    HW2 1392   2.157   1.977   2.567
  165SOL     OW 1393   0.031   6.391   4.046
  165SOL    HW1 1394   6.974   6.400   4.109
  165SOL    HW2 1395   0.028   6.301   4.003
  166SOL     OW 1396   0.522   4.472   3.439
  166SOL    HW1 1397   0.522   4.531   3.520
  166SOL    HW2 1398   0.612   4.476   3.396
  167SOL     OW 1399   1.010   1.178   2.992
  167SOL    HW1 1400   1.092   1.234   2.980
  167SOL    HW2 1401   0.930   1.238   3.005
  168SOL     OW 1402   3.209   3.445   3.419
  168SOL    HW1 1403   3.138   3.513   3.437
  168SOL    HW2 1404   3.291   3.490   3.386
  169SOL     OW 1405   5.414   2.516   7.016
  169SOL    HW1 1406   5.344   2.447   6.999
  169SOL    HW2 1407   5.415   2.581   6.940
  170SOL     OW 1408   6.904   5.118   2.052
  170SOL    HW1 1409   6.822   5.158   2.011
  170SOL    HW2 1410   6.975   5.109   1.983
  171SOL     OW 1411   3.085   2.145   0.684
  171SOL    HW1 1412   3.102   2.111   0.776
  171SOL    HW2 1413   3.147   2.099   0.620
  172SOL     OW 1414   1.592   1.380   0.032
  172SOL    HW1 1415   1.649   1.321   6.995
  172SOL    HW2 1416   1.639   1.397   0.119
  173SOL     OW 1417   5.746   0.430   5.109
  173SOL    HW1 1418   5.674   0.488   5.146
  173SOL    HW2 1419   5.789   0.474   5.030
  174SOL     OW 1420   6.338   3.964   5.331
  174SOL    HW1 1421   6.325   3.990   5.427
  174SOL    HW2 1422   6.436   3.959   5.311
  175SOL     OW 1423   0.892   6.151   2.871
  175SOL    HW1 1424   0.805   6.135   2.825
  175SOL    HW2 1425   0.930   6.238   2.842
  176SOL     OW 1426   6.654   3.928   0.829
  176SOL    HW1 1427   6.572   3.983   0.814
  176SOL    HW2 1428   6.724   3.953   0.762
  177SOL     OW 1429   6.518   2.533   3.615
  177SOL    HW1 1430   6.545   2.597   3.542
  177SOL    HW2 1431   6.456   2.579   3.678
  178SOL     OW 1432   1.960   5.846   4.978
  178SOL    HW1 1433   2.006   5.765   4.942
  178SOL    HW2 1434   1.957   5.842   5.078
  179SOL     OW 1435   3.562   4.137   2.172
  179SOL    HW1 1436   3.557   4.230   2.207
  179SOL    HW2 1437   3.629   4.085   2.223
  180SOL     OW 1438   5.001   1.289   6.458
  180SOL    HW1 1439   4.945   1.287   6.375
  180SOL    HW2 1440   5.015   1.384   6.487
  181SOL     OW 1441   3.785   0.395   5.437
  181SOL    HW1 1442   3.709   0.371   5.376
  181SOL    HW2 1443   3.782   0.336   5.518
  182SOL     OW 1444   2.987   3.231   5.611
  182SOL    HW1 1445   2.936   3.146   5.599
  182SOL    HW2 1446   3.025   3.260   5.523
  183SOL     OW 1447   3.083   1.432   3.566
  183SOL    HW1 1448   3.060   1.508   3.505
  183SOL    HW2 1449   3.107   1.352   3.511
  184SOL     OW 1450   4.470   5.771   3.372
  184SOL    HW1 1451   4.527   5.853   3.366
  184SOL    HW2 1452   4.514   5.703   3.431
  185SOL     OW 1453   0.195   6.841   4.710
  185SOL    HW1 1454   0.122   6.812   4.771
  185SOL    HW2 1455   0.221   6.765   4.650
  186SOL     OW 1456   2.489   6.002   5.972
  186SOL    HW1 1457   2.470   6.094   6.007
  186SOL    HW2 1458   2.407   5.946   5.982
  187SOL     OW 1459   3.759   5.683   0.875
  187SOL    HW1 1460   3.757   5.643   0.783
  187SOL    HW2 1461   3.851   5.716   0.895
  188SOL     OW 1462   1.487   3.848   3.589
  188SOL    HW1 1463   1.555   3.922   3.584
  188SOL    HW2 1464   1.533   3.760   3.576
  189SOL     OW 1465   5.500   4.741   5.983
  189SOL    HW1 1466   5.411   4.766   6.022
  189SOL    HW2 1467   5.533   4.657   6.026
  190SOL     OW 1468   5.848   6.708   0.722
  190SOL    HW1 1469   5.891   6.789   0.762
  190SOL    HW2 1470   5.904   6.675   0.646
  191SOL     OW 1471   2.185   2.722   5.494
  191SOL    HW1 1472   2.143   2.631   5.489
  191SOL    HW2 1473   2.161   2.775   5.413
  192SOL     OW 1474   6.891   6.660   1.299
  192SOL    HW1 1475   6.977   6.670   1.349
  192SOL    HW2 1476   6.823   6.617   1.358
  193SOL     OW 1477   3.294   0.425   1.421
  193SOL    HW1 1478   3.205   0.469   1.434
  193SOL    HW2 1479   3.282   0.340   1.369
  194SOL     OW 1480   4.006   6.105   2.973
  194SOL    HW1 1481   3.966   6.184   2.928
  194SOL    HW2 1482   3.977   6.102   3.069
  195SOL     OW 1483   2.882   1.011   0.851
  195SOL    HW1 1484   2.891   1.024   0.752
  195SOL    HW2 1485   2.899   1.098   0.897
  196SOL     OW 1486   4.330   2.678   1.600
  196SOL    HW1 1487   4.361   2.593   1.642
  196SOL    HW2 1488   4.399   2.749   1.614
  197SOL     OW 1489   1.442   6.168   0.960
  197SOL    HW1 1490   1.437   6.134   0.866
  197SOL    HW2 1491   1.394   6.104   1.021
  198SOL     OW 1492   5.641   6.349   6.483
  198SOL    HW1 1493   5.600   6.359   6.393
  198SOL    HW2 1494   5.730   6.303   6.475
  199SOL     OW 1495   2.092   0.777   3.111
  199SOL    HW1 1496   2.038   0.717   3.052
  199SOL    HW2 1497   2.178   0.732   3.135
  200SOL     OW 1498   1.451   3.580   4.210
  200SOL    HW1 1499   1.487   3.673   4.215
  200SOL    HW2 1500   1.402   3.567   4.124
  201SOL     OW 1501   4.841   1.582   6.919
  201SOL    HW1 1502   4.858   1.511   6.849
  201SOL    HW2 1503   4.841   1.539   7.009
  202SOL     OW 1504   4.287   0.175   3.156
  202SOL    HW1 1505   4.259   0.249   3.217
  202SOL    HW2 1506   4.262   0.197   3.062
  203SOL     OW 1507   5.806   2.614   0.276
  203SOL    HW1 1508   5.882   2.553   0.295
  203SOL    HW2 1509   5.735   2.565   0.226
  204SOL     OW 1510   1.827   6.064   1.142
  204SOL    HW1 1511   1.762   6.037   1.071
  204SOL    HW2 1512   1.826   5.997   1.216
  205SOL     OW 1513   5.076   0.695   1.405
  205SOL    HW1 1514   5.146   0.701   1.476
  205SOL    HW2 1515   5.036   0.785   1.390
  206SOL     OW 1516   6.975   6.397   1.132
  206SOL    HW1 1517   6.941   6.483   1.169
  206SOL    HW2 1518   0.025   6.359   1.192
  207SOL     OW 1519   6.307   2.144   5.664
  207SOL    HW1 1520   6.364   2.192   5.598
  207SOL    HW2 1521   6.361   2.075   5.712
  208SOL     OW 1522   3.933   4.331   6.882
  208SOL    HW1 1523   3.971   4.342   6.791
  208SOL    HW2 1524   3.891   4.241   6.891
  209SOL     OW 1525   0.013   6.119   4.006
  209SOL    HW1 1526   0.055   6.032   4.031
  209SOL    HW2 1527   0.032   6.139   3.910
  210SOL     OW 1528   4.192   2.099   0.888
  210SOL    HW1 1529   4.229   2.151   0.810
  210SOL    HW2 1530   4.117   2.041   0.857
  211SOL     OW 1531   1.092   2.919   1.961
  211SOL    HW1 1532   1.164   2.935   1.894
  211SOL    HW2 1533   1.011   2.884   1.915
  212SOL     OW 1534   1.074   5.320   5.187
  212SOL    HW1 1535   1.027   5.241   5.149
  212SOL    HW2 1536   1.157   5.290   5.235
  213SOL     OW 1537   3.744   2.378   0.619
  213SOL    HW1 1538   3.678   2.427   0.677
  213SOL    HW2 1539   3.792   2.444   0.561
  214SOL     OW 1540   1.598   6.101   3.257
  214SOL    HW1 1541   1.527   6.085   3.188
  214SOL    HW2 1542   1.668   6.162   3.219
  215SOL     OW 1543   3.050   3.996   2.983
  215SOL    HW1 1544   2.959   3.968   2.953
  215SOL    HW2 1545   3.115   3.921   2.968
  216SOL     OW 1546   3.026   0.774   5.580
  216SOL    HW1 1547   3.093   0.832   5.535
  216SOL    HW2 1548   2.940   0.824   5.590
  217SOL     OW 1549   7.005   2.149   5.252
  217SOL    HW1 1550   6.990   2.168   5.155
  217SOL    HW2 1551   0.081   2.164   5.274
  218SOL     OW 1552   2.709   4.051   5.646
  218SOL    HW1 1553   2.783   4.094   5.699
  218SOL    HW2 1554   2.683   4.112   5.570
  219SOL     OW 1555   2.797   5.470   0.074
  219SOL    HW1 1556   2.766   5.518   7.013
  219SOL    HW2 1557   2.719   5.453   0.135
  220SOL     OW 1558   1.525   4.751   0.243
  220SOL    HW1 1559   1.595   4.734   0.175
  220SOL    HW2 1560   1.441   4.703   0.217
  221SOL     OW 1561   5.856   2.329   4.827
  221SOL    HW1 1562   5.778   2.269   4.843
  221SOL    HW2 1563   5.827   2.406   4.770
  222SOL     OW 1564   2.080   6.731   4.326
  222SOL    HW1 1565   2.134   6.775   4.398
  222SOL    HW2 1566   2.076   6.791   4.246
  223SOL     OW 1567   5.448   4.570   2.590
  223SOL    HW1 1568   5.435   4.668   2.570
  223SOL    HW2 1569   5.503   4.529   2.517
  224SOL     OW 1570   4.906   2.439   2.372
  224SOL    HW1 1571   4.890   2.488   2.458
  224SOL    HW2 1572   4.949   2.501   2.306
  225SOL     OW 1573   4.915   6.282   1.262
  225SOL    HW1 1574   4.916   6.334   1.347
  225SOL    HW2 1575   4.853   6.204   1.271
  226SOL     OW 1576   0.653   5.815   2.238
  226SOL    HW1 1577   0.719   5.891   2.241
  226SOL    HW2 1578   0.598   5.823   2.155
  227SOL     OW 1579   1.312   3.585   3.310
  227SOL    HW1 1580   1.354   3.563   3.222
  227SOL    HW2 1581   1.348   3.524   3.380
  228SOL     OW 1582   3.958   6.689   2.677
  228SOL    HW1 1583   3.879   6.695   2.616
  228SOL    HW2 1584   4.036   6.734   2.635
  229SOL     OW 1585   6.527   5.316   3.031
  229SOL    HW1 1586   6.454   5.249   3.043
  229SOL    HW2 1587   6.579   5.325   3.115
  230SOL     OW 1588   0.791   4.529   6.061
  230SOL    HW1 1589   0.699   4.491   6.064
  230SOL    HW2 1590   0.857   4.460   6.091
  231SOL     OW 1591   0.278   2.309   6.389
  231SOL    HW1 1592   0.329   2.383   6.432
  231SOL    HW2 1593   0.272   2.231   6.451
  232SOL     OW 1594   1.290   4.232   6.174
  232SOL    HW1 1595   1.286   4.253   6.076
  232SOL    HW2 1596   1.337   4.306   6.222
  233SOL     OW 1597   3.459   0.129   6.760
  233SOL    HW1 1598   3.511   0.121   6.675
  233SOL    HW2 1599   3.361   0.136   6.739
  234SOL     OW 1600   2.066   4.795   6.605
  234SOL    HW1 1601   2.075   4.789   6.506
  234SOL    HW2 1602   2.006   4.722   6.638
  235SOL     OW 1603   3.562   3.171   5.645
  235SOL    HW1 1604   3.602   3.079   5.646
  235SOL    HW2 1605   3.466   3.165   5.615
  236SOL     OW 1606   0.083   1.935   5.798
  236SOL    HW1 1607   0.060   1.941   5.701
  236SOL    HW2 1608   0.182   1.939   5.810
  237SOL     OW 1609   6.702   6.585   2.044
  237SOL    HW1 1610   6.762   6.535   1.981
  237SOL    HW2 1611   6.612   6.597   2.002
  238SOL     OW 1612   0.121   1.898   2.574
  238SOL    HW1 1613   0.113   1.974   2.509
  238SOL    HW2 1614   0.218   1.881   2.593
  239SOL     OW 1615   6.287   5.103   0.505
  239SOL    HW1 1616   6.297   5.203   0.504
  239SOL    HW2 1617   6.351   5.062   0.439
  240SOL     OW 1618   6.968   2.441   5.183
  240SOL    HW1 1619   0.044   2.461   5.193
  240SOL    HW2 1620   6.946   2.357   5.233
  241SOL     OW 1621   5.300   2.068   5.019
  241SOL    HW1 1622   5.237   2.059   4.942
  241SOL    HW2 1623   5.380   2.120   4.990
  242SOL     OW 1624   2.797   2.307   4.105
  242SOL    HW1 1625   2.788   2.249   4.024
  242SOL    HW2 1626   2.721   2.371   4.109
  243SOL     OW 1627   5.054   0.927   6.873
  243SOL    HW1 1628   4.975   0.868   6.854
  243SOL    HW2 1629   5.078   0.978   6.791
  244SOL     OW 1630   0.536   1.762   5.634
  244SOL    HW1 1631   0.606   1.775   5.564
  244SOL    HW2 1632   0.572   1.794   5.722
  245SOL     OW 1633   4.580   2.654   3.534
  245SOL    HW1 1634   4.619   2.638   3.625
  245SOL    HW2 1635   4.524   2.737   3.536
  246SOL     OW 1636   4.928   2.976   4.067
  246SOL    HW1 1637   4.943   3.074   4.052
  246SOL    HW2 1638   5.016   2.931   4.083
  247SOL     OW 1639   3.074   0.635   2.742
  247SOL    HW1 1640   3.170   0.630   2.713
  247SOL    HW2 1641   3.059   0.573   2.819
  248SOL     OW 1642   0.229   2.326   2.366
  248SOL    HW1 1643   0.278   2.388   2.428
  248SOL    HW2 1644   0.133   2.320   2.394
  249SOL     OW 1645   2.139   5.536   5.232
  249SOL    HW1 1646   2.179   5.551   5.322
  249SOL    HW2 1647   2.074   5.610   5.212
  250SOL     OW 1648   5.117   2.456   0.370
  250SOL    HW1 1649   5.194   2.513   0.399
  250SOL    HW2 1650   5.033   2.491   0.411
  251SOL     OW 1651   1.923   1.104   0.842
  251SOL    HW1 1652   1.958   1.074   0.753
  251SOL    HW2 1653   1.931   1.204   0.848
  252SOL     OW 1654   0.365   1.963   6.804
  252SOL    HW1 1655   0.266   1.951   6.798
  252SOL    HW2 1656   0.403   1.894   6.867
  253SOL     OW 1657   1.791   4.371   6.438
  253SOL    HW1 1658   1.852   4.389   6.360
  253SOL    HW2 1659   1.703   4.337   6.405
  254SOL     OW 1660   5.089   3.969   6.329
  254SOL    HW1 1661   5.069   4.049   6.386
  254SOL    HW2 1662   5.135   3.900   6.385
  255SOL     OW 1663   4.337   2.336   1.999
  255SOL    HW1 1664   4.410   2.268   2.005
  255SOL    HW2 1665   4.251   2.289   1.977
  256SOL     OW 1666   6.656   5.718   1.213
  256SOL    HW1 1667   6.699   5.730   1.124
  256SOL    HW2 1668   6.698   5.780   1.279
  257SOL     OW 1669   2.701   5.748   5.595
  257SOL    HW1 1670   2.726   5.677   5.528
  257SOL    HW2 1671   2.614   5.790   5.567
  258SOL     OW 1672   4.355   5.133   3.910
  258SOL    HW1 1673   4.369   5.050   3.856
  258SOL    HW2 1674   4.317   5.205   3.851
  259SOL     OW 1675   0.637   1.796   2.988
  259SOL    HW1 1676   0.604   1.718   3.041
  259SOL    HW2 1677   0.604   1.788   2.894
  260SOL     OW 1678   6.415   6.923   5.160
  260SOL    HW1 1679   6.361   6.873   5.093
  260SOL    HW2 1680   6.355   6.956   5.233
  261SOL     OW 1681   0.427   0.625   3.971
  261SOL    HW1 1682   0.521   0.592   3.964
  261SOL    HW2 1683   0.424   0.704   4.032
  262SOL     OW 1684   1.148   5.167   1.752
  262SOL    HW1 1685   1.213   5.145   1.679
  262SOL    HW2 1686   1.055   5.172   1.713
  263SOL     OW 1687   0.584   4.411   4.048
  263SOL    HW1 1688   0.593   4.311   4.045
  263SOL    HW2 1689   0.493   4.436   4.015
  264SOL     OW 1690   3.206   4.201   0.308
  264SOL    HW1 1691   3.289   4.247   0.340
  264SOL    HW2 1692   3.134   4.268   0.293
  265SOL     OW 1693   3.974   5.529   3.635
  265SOL    HW1 1694   4.035   5.454   3.659
  265SOL    HW2 1695   4.016   5.616   3.661
  266SOL     OW 1696   4.416   3.512   7.003
  266SOL    HW1 1697   4.414   3.599   0.032
  266SOL    HW2 1698   4.504   3.503   6.955
  267SOL     OW 1699   2.300   2.553   5.992
  267SOL    HW1 1700   2.299   2.542   5.892
  267SOL    HW2 1701   2.260   2.642   6.016
  268SOL     OW 1702   2.101   4.537   3.580
  268SOL    HW1 1703   2.159   4.462   3.613
  268SOL    HW2 1704   2.019   4.542   3.635
  269SOL     OW 1705   2.910   1.937   5.801
  269SOL    HW1 1706   2.852   1.943   5.882
  269SOL    HW2 1707   2.989   1.997   5.812
  270SOL     OW 1708   5.265   6.235   4.823
  270SOL    HW1 1709   5.281   6.317   4.768
  270SOL    HW2 1710   5.217   6.166   4.769
  271SOL     OW 1711   2.124   1.975   0.324
  271SOL    HW1 1712   2.168   1.986   0.235
  271SOL    HW2 1713   2.048   2.040   0.332
  272SOL     OW 1714   4.251   5.519   0.260
  272SOL    HW1 1715   4.349   5.538   0.257
  272SOL    HW2 1716   4.233   5.429   0.221
  273SOL     OW 1717   1.855   6.005   3.981
  273SOL    HW1 1718   1.838   6.097   4.017
  273SOL    HW2 1719   1.771   5.951   3.987
  274SOL     OW 1720   6.025   2.472   2.277
  274SOL    HW1 1721   5.961   2.423   2.218
  274SOL    HW2 1722   6.076   2.540   2.223
  275SOL     OW 1723   6.176   5.522   5.821
  275SOL    HW1 1724   6.206   5.533   5.916
  275SOL    HW2 1725   6.223   5.444   5.780
  276SOL     OW 1726   0.978   6.950   4.130
  276SOL    HW1 1727   1.053   7.013   4.115
  276SOL    HW2 1728   0.972   6.928   4.228
  277SOL     OW 1729   3.951   3.145   5.090
  277SOL    HW1 1730   3.972   3.118   4.996
  277SOL    HW2 1731   3.856   3.175   5.096
  278SOL     OW 1732   5.812   4.229   2.864
  278SOL    HW1 1733   5.728   4.275   2.836
  278SOL    HW2 1734   5.837   4.259   2.955
  279SOL     OW 1735   6.811   3.956   3.617
  279SOL    HW1 1736   6.862   4.042   3.608
  279SOL    HW2 1737   6.861   3.882   3.572
  280SOL     OW 1738   4.164   2.117   3.938
  280SOL    HW1 1739   4.087   2.180   3.931
  280SOL    HW2 1740   4.184   2.099   4.034
  281SOL     OW 1741   5.105   5.545   5.016
  281SOL    HW1 1742   5.191   5.523   5.061
  281SOL    HW2 1743   5.038   5.575   5.084
  282SOL     OW 1744   0.856   2.547   0.209
  282SOL    HW1 1745   0.897   2.639   0.206
  282SOL    HW2 1746   0.794   2.536   0.132
  283SOL     OW 1747   6.088   3.802   3.317
  283SOL    HW1 1748   6.070   3.709   3.348
  283SOL    HW2 1749   6.036   3.867   3.373
  284SOL     OW 1750   5.332   6.587   3.119
  284SOL    HW1 1751   5.243   6.632   3.127
  284SOL    HW2 1752   5.322   6.502   3.068
  285SOL     OW 1753   3.965   6.128   6.235
  285SOL    HW1 1754   4.041   6.068   6.210
  285SOL    HW2 1755   4.000   6.217   6.264
  286SOL     OW 1756   2.575   5.137   5.555
  286SOL    HW1 1757   2.583   5.229   5.593
  286SOL    HW2 1758   2.661   5.112   5.510
  287SOL     OW 1759   3.224   5.717   0.610
  287SOL    HW1 1760   3.210   5.752   0.518
  287SOL    HW2 1761   3.185   5.625   0.618
  288SOL     OW 1762   4.577   1.628   0.009
  288SOL    HW1 1763   4.666   1.619   6.985
  288SOL    HW2 1764   4.580   1.584   0.099
  289SOL     OW 1765   5.414   5.203   4.562
  289SOL    HW1 1766   5.385   5.165   4.474
  289SOL    HW2 1767   5.335   5.213   4.621
  290SOL     OW 1768   3.998   0.596   5.341
  290SOL    HW1 1769   3.914   0.557   5.378
  290SOL    HW2 1770   3.987   0.695   5.328
  291SOL     OW 1771   5.657   0.783   4.988
  291SOL    HW1 1772   5.607   0.869   4.975
  291SOL    HW2 1773   5.619   0.735   5.067
  292SOL     OW 1774   3.590   0.498   3.717
  292SOL    HW1 1775   3.494   0.469   3.716
  292SOL    HW2 1776   3.597   0.585   3.767
  293SOL     OW 1777   5.401   0.481   2.513
  293SOL    HW1 1778   5.413   0.579   2.531
  293SOL    HW2 1779   5.442   0.459   2.424
  294SOL     OW 1780   6.910   2.103   5.917
  294SOL    HW1 1781   6.889   2.066   6.008
  294SOL    HW2 1782   6.988   2.055   5.879
  295SOL     OW 1783   0.355   0.403   4.752
  295SOL    HW1 1784   0.275   0.353   4.784
  295SOL    HW2 1785   0.393   0.358   4.672
  296SOL     OW 1786   1.126   1.829   1.659
  296SOL    HW1 1787   1.099   1.879   1.577
  296SOL    HW2 1788   1.216   1.787   1.645
  297SOL     OW 1789   5.179   3.164   3.498
  297SOL    HW1 1790   5.204   3.213   3.415
  297SOL    HW2 1791   5.138   3.076   3.474
  298SOL     OW 1792   4.430   0.914   5.554
  298SOL    HW1 1793   4.490   0.849   5.508
  298SOL    HW2 1794   4.484   0.985   5.599
  299SOL     OW 1795   0.678   1.415   5.979
  299SOL    HW1 1796   0.766   1.397   5.934
  299SOL    HW2 1797   0.649   1.333   6.029
  300SOL     OW 1798   4.722   6.049   4.169
  300SOL    HW1 1799   4.745   6.115   4.098
  300SOL    HW2 1800   4.777   5.966   4.158
  301SOL     OW 1801   0.236   6.169   5.437
  301SOL    HW1 1802   0.315   6.213   5.480
  301SOL    HW2 1803   0.153   6.189   5.489
  302SOL     OW 1804   6.869   6.763   2.164
  302SOL    HW1 1805   6.922   6.789   2.083
  302SOL    HW2 1806   6.794   6.703   2.137
  303SOL     OW 1807   5.703   5.607   2.434
  303SOL    HW1 1808   5.637   5.676   2.465
  303SOL    HW2 1809   5.665   5.516   2.449
  304SOL     OW 1810   2.027   6.731   3.932
  304SOL    HW1 1811   1.932   6.749   3.959
  304SOL    HW2 1812   2.060   6.807   3.876
  305SOL     OW 1813   1.602   1.866   1.294
  305SOL    HW1 1814   1.668   1.800   1.257
  305SOL    HW2 1815   1.601   1.858   1.394
  306SOL     OW 1816   0.045   0.331   2.074
  306SOL    HW1 1817   0.139   0.312   2.101
  306SOL    HW2 1818   7.008   0.252   2.095
  307SOL     OW 1819   3.498   3.403   3.975
  307SOL    HW1 1820   3.509   3.415   3.876
  307SOL    HW2 1821   3.580   3.435   4.022
  308SOL     OW 1822   6.119   1.377   2.249
  308SOL    HW1 1823   6.135   1.280   2.265
  308SOL    HW2 1824   6.026   1.400   2.279
  309SOL     OW 1825   1.874   4.733   0.336
  309SOL    HW1 1826   1.821   4.649   0.322
  309SOL    HW2 1827   1.858   4.767   0.428
  310SOL     OW 1828   4.780   6.808   5.309
  310SOL    HW1 1829   4.811   6.717   5.335
  310SOL    HW2 1830   4.854   6.874   5.321
  311SOL     OW 1831   1.574   6.755   2.019
  311SOL    HW1 1832   1.617   6.842   2.044
  311SOL    HW2 1833   1.573   6.694   2.099
  312SOL     OW 1834   3.638   0.715   4.526
  312SOL    HW1 1835   3.723   0.678   4.488
  312SOL    HW2 1836   3.658   0.763   4.611
  313SOL     OW 1837   3.143   3.027   2.949
  313SOL    HW1 1838   3.218   3.091   2.965
  313SOL    HW2 1839   3.155   2.947   3.007
  314SOL     OW 1840   2.951   5.226   6.474
  314SOL    HW1 1841   2.858   5.191   6.481
  314SOL    HW2 1842   2.986   5.212   6.381
  315SOL     OW 1843   6.186   0.485   4.355
  315SOL    HW1 1844   6.111   0.542   4.321
  315SOL    HW2 1845   6.254   0.543   4.400
  316SOL     OW 1846   3.669   1.452   5.816
  316SOL    HW1 1847   3.590   1.513   5.819
  316SOL    HW2 1848   3.734   1.477   5.888
  317SOL     OW 1849   0.709   2.162   1.100
  317SOL    HW1 1850   0.804   2.178   1.126
  317SOL    HW2 1851   0.670   2.090   1.158
  318SOL     OW 1852   0.995   0.521   3.145
  318SOL    HW1 1853   0.968   0.428   3.169
  318SOL    HW2 1854   1.010   0.526   3.046
  319SOL     OW 1855   0.841   0.483   2.474
  319SOL    HW1 1856   0.753   0.493   2.428
  319SOL    HW2 1857   0.884   0.397   2.446
  320SOL     OW 1858   4.803   1.358   0.122
  320SOL    HW1 1859   4.742   1.316   0.054
  320SOL    HW2 1860   4.891   1.310   0.121
  321SOL     OW 1861   4.463   3.233   0.895
  321SOL    HW1 1862   4.382   3.176   0.890
  321SOL    HW2 1863   4.537   3.181   0.938
  322SOL     OW 1864   3.203   2.756   0.020
  322SOL    HW1 1865   3.184   2.661   0.044
  322SOL    HW2 1866   3.205   2.812   0.103
  323SOL     OW 1867   1.362   3.536   2.181
  323SOL    HW1 1868   1.309   3.580   2.108
  323SOL    HW2 1869   1.441   3.489   2.141
  324SOL     OW 1870   0.022   0.701   3.235
  324SOL    HW1 1871   0.089   0.653   3.293
  324SOL    HW2 1872   6.997   0.634   3.176
  325SOL     OW 1873   6.028   3.467   1.007
  325SOL    HW1 1874   6.076   3.455   1.094
  325SOL    HW2 1875   6.079   3.530   0.949
  326SOL     OW 1876   0.122   5.667   0.155
  326SOL    HW1 1877   0.067   5.584   0.149
  326SOL    HW2 1878   0.061   5.746   0.164
  327SOL     OW 1879   3.821   6.314   6.425
  327SOL    HW1 1880   3.904   6.349   6.382
  327SOL    HW2 1881   3.840   6.225   6.468
  328SOL     OW 1882   1.196   5.083   3.476
  328SOL    HW1 1883   1.259   5.159   3.461
  328SOL    HW2 1884   1.135   5.104   3.552
  329SOL     OW 1885   3.568   2.964   1.996
  329SOL    HW1 1886   3.493   2.923   1.945
  329SOL    HW2 1887   3.655   2.929   1.963
  330SOL     OW 1888   2.568   3.311   6.676
  330SOL    HW1 1889   2.657   3.356   6.679
  330SOL    HW2 1890   2.579   3.216   6.646
  331SOL     OW 1891   5.140   4.973   4.384
  331SOL    HW1 1892   5.064   5.005   4.328
  331SOL    HW2 1893   5.133   5.014   4.476
  332SOL     OW 1894   5.512   1.764   2.957
  332SOL    HW1 1895   5.493   1.843   2.898
  332SOL    HW2 1896   5.495   1.789   3.052
  333SOL     OW 1897   4.104   6.502   3.785
  333SOL    HW1 1898   4.045   6.568   3.738
  333SOL    HW2 1899   4.049   6.429   3.824
  334SOL     OW 1900   3.582   3.549   4.371
  334SOL    HW1 1901   3.538   3.574   4.457
  334SOL    HW2 1902   3.529   3.477   4.326
  335SOL     OW 1903   3.635   1.107   0.792
  335SOL    HW1 1904   3.579   1.189   0.798
  335SOL    HW2 1905   3.614   1.046   0.868
  336SOL     OW 1906   4.049   2.215   4.883
  336SOL    HW1 1907   3.965   2.222   4.935
  336SOL    HW2 1908   4.120   2.271   4.925
  337SOL     OW 1909   0.015   0.808   5.361
  337SOL    HW1 1910   0.054   0.855   5.440
  337SOL    HW2 1911   0.014   0.870   5.282
  338SOL     OW 1912   4.779   1.055   1.803
  338SOL    HW1 1913   4.841   1.127   1.771
  338SOL    HW2 1914   4.767   0.987   1.730
  339SOL     OW 1915   4.355   5.215   5.916
  339SOL    HW1 1916   4.399   5.240   5.830
  339SOL    HW2 1917   4.418   5.157   5.969
  340SOL     OW 1918   4.897   3.132   4.964
  340SOL    HW1 1919   4.855   3.102   4.879
  340SOL    HW2 1920   4.990   3.096   4.971
  341SOL     OW 1921   6.746   0.058   1.904
  341SOL    HW1 1922   6.669   0.001   1.933
  341SOL    HW2 1923   6.796   0.012   1.830
  342SOL     OW 1924   4.621   1.318   1.764
  342SOL    HW1 1925   4.577   1.232   1.787
  342SOL    HW2 1926   4.619   1.379   1.844
  343SOL     OW 1927   5.341   0.241   0.994
  343SOL    HW1 1928   5.332   0.320   0.934
  343SOL    HW2 1929   5.269   0.243   1.064
  344SOL     OW 1930   6.557   3.246   1.404
  344SOL    HW1 1931   6.581   3.325   1.460
  344SOL    HW2 1932   6.559   3.163   1.461
  345SOL     OW 1933   0.136   2.093   4.124
  345SOL    HW1 1934   0.098   2.159   4.058
  345SOL    HW2 1935   0.235   2.087   4.112
  346SOL     OW 1936   2.325   5.818   2.925
  346SOL    HW1 1937   2.261   5.855   2.858
  346SOL    HW2 1938   2.289   5.731   2.960
  347SOL     OW 1939   2.511   4.839   1.091
  347SOL    HW1 1940   2.484   4.779   1.016
  347SOL    HW2 1941   2.579   4.793   1.148
  348SOL     OW 1942   4.879   4.949   1.776
  348SOL    HW1 1943   4.860   4.894   1.695
  348SOL    HW2 1944   4.838   5.040   1.765
  349SOL     OW 1945   5.773   4.793   0.877
  349SOL    HW1 1946   5.840   4.733   0.835
  349SOL    HW2 1947   5.766   4.772   0.975
  350SOL     OW 1948   2.325   1.952   0.551
  350SOL    HW1 1949   2.285   1.933   0.461
  350SOL    HW2 1950   2.286   2.037   0.587
  351SOL     OW 1951   3.689   4.390   1.237
  351SOL    HW1 1952   3.769   4.427   1.190
  351SOL    HW2 1953   3.606   4.420   1.189
  352SOL     OW 1954   4.069   6.496   2.381
  352SOL    HW1 1955   4.038   6.420   2.323
  352SOL    HW2 1956   4.010   6.575   2.366
  353SOL     OW 1957   2.061   0.020   0.703
  353SOL    HW1 1958   2.161   0.023   0.713
  353SOL    HW2 1959   2.037   6.991   0.619
  354SOL     OW 1960   1.943   2.215   0.832
  354SOL    HW1 1961   1.990   2.127   0.839
  354SOL    HW2 1962   1.889   2.231   0.914
  355SOL     OW 1963   0.488   2.803   3.431
  355SOL    HW1 1964   0.467   2.709   3.405
  355SOL    HW2 1965   0.574   2.831   3.389
  356SOL     OW 1966   2.777   0.964   5.419
  356SOL    HW1 1967   2.857   0.924   5.375
  356SOL    HW2 1968   2.785   1.064   5.418
  357SOL     OW 1969   5.768   6.046   4.077
  357SOL    HW1 1970   5.669   6.059   4.077
  357SOL    HW2 1971   5.793   5.981   4.149
  358SOL     OW 1972   3.079   5.658   6.919
  358SOL    HW1 1973   3.035   5.747   6.931
  358SOL    HW2 1974   3.036   5.591   6.980
  359SOL     OW 1975   1.351   2.041   2.138
  359SOL    HW1 1976   1.355   2.057   2.236
  359SOL    HW2 1977   1.360   2.129   2.090
  360SOL     OW 1978   1.923   3.684   3.568
  360SOL    HW1 1979   1.830   3.720   3.573
  360SOL    HW2 1980   1.986   3.743   3.618
  361SOL     OW 1981   0.217   1.621   2.249
  361SOL    HW1 1982   0.241   1.537   2.298
  361SOL    HW2 1983   0.298   1.657   2.204
  362SOL     OW 1984   3.852   3.920   2.620
  362SOL    HW1 1985   3.842   3.898   2.716
  362SOL    HW2 1986   3.809   4.009   2.601
  363SOL     OW 1987   4.461   5.586   0.653
  363SOL    HW1 1988   4.380   5.604   0.596
  363SOL    HW2 1989   4.526   5.662   0.643
  364SOL     OW 1990   1.049   0.459   0.229
  364SOL    HW1 1991   1.110   0.433   0.154
  364SOL    HW2 1992   1.103   0.494   0.305
  365SOL     OW 1993   6.126   0.844   4.002
  365SOL    HW1 1994   6.164   0.809   4.088
  365SOL    HW2 1995   6.044   0.897   4.022
  366SOL     OW 1996   5.193   1.734   6.913
  366SOL    HW1 1997   5.114   1.676   6.893
  366SOL    HW2 1998   5.170   1.829   6.894
  367SOL     OW 1999   5.398   0.986   0.128
  367SOL    HW1 2000   5.424   0.930   0.049
  367SOL    HW2 2001   5.413   1.083   0.107
  368SOL     OW 2002   2.273   1.916   5.899
  368SOL    HW1 2003   2.275   2.005   5.944
  368SOL    HW2 2004   2.198   1.913   5.833
  369SOL     OW 2005   5.691   4.615   0.080
  369SOL    HW1 2006   5.683   4.636   0.177
  369SOL    HW2 2007   5.601   4.625   0.036
  370SOL     OW 2008   2.190   2.466   3.281
  370SOL    HW1 2009   2.150   2.549   3.244
  370SOL    HW2 2010   2.136   2.436   3.360
  371SOL     OW 2011   2.133   5.555   0.325
  371SOL    HW1 2012   2.119   5.584   0.420
  371SOL    HW2 2013   2.045   5.556   0.277
  372SOL     OW 2014   2.226   5.768   5.899
  372SOL    HW1 2015   2.263   5.685   5.856
  372SOL    HW2 2016   2.137   5.788   5.860
  373SOL     OW 2017   6.353   4.423   2.915
  373SOL    HW1 2018   6.399   4.496   2.966
  373SOL    HW2 2019   6.292   4.372   2.977
  374SOL     OW 2020   2.925   2.169   2.152
  374SOL    HW1 2021   2.854   2.102   2.132
  374SOL    HW2 2022   2.899   2.258   2.114
  375SOL     OW 2023   0.873   6.143   4.332
  375SOL    HW1 2024   0.774   6.135   4.344
  375SOL    HW2 2025   0.916   6.156   4.421
  376SOL     OW 2026   4.387   0.417   3.366
  376SOL    HW1 2027   4.299   0.438   3.408
  376SOL    HW2 2028   4.459   0.469   3.411
  377SOL     OW 2029   2.741   2.452   6.631
  377SOL    HW1 2030   2.730   2.400   6.546
  377SOL    HW2 2031   2.829   2.500   6.629
  378SOL     OW 2032   4.020   1.335   2.201
  378SOL    HW1 2033   3.938   1.367   2.153
  378SOL    HW2 2034   4.029   1.236   2.189
  379SOL     OW 2035   3.836   2.974   6.426
  379SOL    HW1 2036   3.890   3.055   6.452
  379SOL    HW2 2037   3.886   2.891   6.453
  380SOL     OW 2038   4.596   2.218   0.795
  380SOL    HW1 2039   4.602   2.294   0.730
  380SOL    HW2 2040   4.552   2.250   0.880
  381SOL     OW 2041   1.982   4.312   2.960
  381SOL    HW1 2042   1.998   4.351   2.869
  381SOL    HW2 2043   1.924   4.231   2.950
  382SOL     OW 2044   6.278   6.894   0.426
  382SOL    HW1 2045   6.252   6.957   0.499
  382SOL    HW2 2046   6.295   6.945   0.342
  383SOL     OW 2047   4.442   3.794   0.144
  383SOL    HW1 2048   4.344   3.783   0.129
  383SOL    HW2 2049   4.458   3.816   0.241
  384SOL     OW 2050   0.402   3.348   5.221
  384SOL    HW1 2051   0.408   3.252   5.248
  384SOL    HW2 2052   0.427   3.357   5.125
  385SOL     OW 2053   4.731   2.210   0.264
  385SOL    HW1 2054   4.692   2.213   0.357
  385SOL    HW2 2055   4.830   2.219   0.269
  386SOL     OW 2056   4.169   6.377   5.013
  386SOL    HW1 2057   4.266   6.402   5.005
  386SOL    HW2 2058   4.136   6.401   5.104
  387SOL     OW 2059   3.121   5.981   4.721
  387SOL    HW1 2060   3.076   5.896   4.749
  387SOL    HW2 2061   3.157   5.970   4.628
  388SOL     OW 2062   1.257   5.133   5.819
  388SOL    HW1 2063   1.274   5.212   5.760
  388SOL    HW2 2064   1.221   5.164   5.907
  389SOL     OW 2065   2.996   3.553   1.339
  389SOL    HW1 2066   2.963   3.481   1.278
  389SOL    HW2 2067   3.065   3.607   1.291
  390SOL     OW 2068   2.743   0.745   4.774
  390SOL    HW1 2069   2.667   0.732   4.837
  390SOL    HW2 2070   2.709   0.778   4.686
  391SOL     OW 2071   1.500   2.177   6.931
  391SOL    HW1 2072   1.560   2.239   6.880
  391SOL    HW2 2073   1.473   2.220   7.017
  392SOL     OW 2074   3.226   5.622   4.954
  392SOL    HW1 2075   3.285   5.547   4.985
  392SOL    HW2 2076   3.179   5.662   5.033
  393SOL     OW 2077   5.934   4.262   5.554
  393SOL    HW1 2078   5.985   4.245   5.638
  393SOL    HW2 2079   5.857   4.323   5.573
  394SOL     OW 2080   2.183   1.126   6.380
  394SOL    HW1 2081   2.148   1.035   6.359
  394SOL    HW2 2082   2.279   1.119   6.407
  395SOL     OW 2083   6.951   3.249   0.887
  395SOL    HW1 2084   0.017   3.201   0.880
  395SOL    HW2 2085   6.914   3.238   0.979
  396SOL     OW 2086   3.619   3.084   5.254
  396SOL    HW1 2087   3.525   3.078   5.288
  396SOL    HW2 2088   3.683   3.082   5.331
  397SOL     OW 2089   4.389   1.612   6.838
  397SOL    HW1 2090   4.308   1.569   6.879
  397SOL    HW2 2091   4.461   1.618   6.907
  398SOL     OW 2092   0.644   4.442   2.367
  398SOL    HW1 2093   0.620   4.369   2.303
  398SOL    HW2 2094   0.641   4.408   2.460
  399SOL     OW 2095   4.932   4.887   2.206
  399SOL    HW1 2096   4.887   4.806   2.168
  399SOL    HW2 2097   4.991   4.859   2.281
  400SOL     OW 2098   2.278   4.726   4.458
  400SOL    HW1 2099   2.368   4.733   4.414
  400SOL    HW2 2100   2.289   4.715   4.556
  401SOL     OW 2101   5.870   1.475   0.577
  401SOL    HW1 2102   5.963   1.464   0.540
  401SOL    HW2 2103   5.872   1.467   0.676
  402SOL     OW 2104   7.012   4.494   0.936
  402SOL    HW1 2105   6.958   4.562   0.886
  402SOL    HW2 2106   0.026   4.426   0.872
  403SOL     OW 2107   4.581   4.690   0.782
  403SOL    HW1 2108   4.677   4.688   0.755
  403SOL    HW2 2109   4.568   4.630   0.861
  404SOL     OW 2110   0.241   6.022   4.748
  404SOL    HW1 2111   0.293   5.944   4.713
  404SOL    HW2 2112   0.292   6.107   4.730
  405SOL     OW 2113   0.965   2.578   1.173
  405SOL    HW1 2114   0.891   2.544   1.230
  405SOL    HW2 2115   0.971   2.522   1.090
  406SOL     OW 2116   1.175   2.393   3.468
  406SOL    HW1 2117   1.155   2.296   3.451
  406SOL    HW2 2118   1.211   2.435   3.385
  407SOL     OW 2119   3.167   2.154   4.198
  407SOL    HW1 2120   3.135   2.060   4.203
  407SOL    HW2 2121   3.251   2.164   4.252
  408SOL     OW 2122   2.700   0.617   4.020
  408SOL    HW1 2123   2.787   0.589   3.980
  408SOL    HW2 2124   2.671   0.549   4.087
  409SOL     OW 2125   6.752   3.440   4.203
  409SOL    HW1 2126   6.808   3.487   4.272
  409SOL    HW2 2127   6.668   3.492   4.188
  410SOL     OW 2128   3.097   6.793   6.466
  410SOL    HW1 2129   3.162   6.784   6.541
  410SOL    HW2 2130   3.061   6.886   6.465
  411SOL     OW 2131   0.484   3.270   4.951
  411SOL    HW1 2132   0.577   3.265   4.989
  411SOL    HW2 2133   0.454   3.179   4.923
  412SOL     OW 2134   4.411   0.221   2.369
  412SOL    HW1 2135   4.476   0.246   2.297
  412SOL    HW2 2136   4.358   0.301   2.395
  413SOL     OW 2137   2.326   0.400   2.569
  413SOL    HW1 2138   2.239   0.352   2.561
  413SOL    HW2 2139   2.400   0.338   2.544
  414SOL     OW 2140   4.634   4.555   1.041
  414SOL    HW1 2141   4.720   4.585   1.081
  414SOL    HW2 2142   4.559   4.610   1.078
  415SOL     OW 2143   3.834   6.955   2.334
  415SOL    HW1 2144   3.865   6.881   2.275
  415SOL    HW2 2145   3.773   7.016   2.283
  416SOL     OW 2146   3.265   5.375   0.380
  416SOL    HW1 2147   3.322   5.354   0.459
  416SOL    HW2 2148   3.282   5.468   0.349
  417SOL     OW 2149   5.106   5.310   1.587
  417SOL    HW1 2150   5.015   5.279   1.613
  417SOL    HW2 2151   5.158   5.334   1.669
  418SOL     OW 2152   6.662   5.256   6.847
  418SOL    HW1 2153   6.717   5.175   6.871
  418SOL    HW2 2154   6.565   5.235   6.860
  419SOL     OW 2155   5.337   5.884   0.616
  419SOL    HW1 2156   5.300   5.825   0.688
  419SOL    HW2 2157   5.296   5.975   0.624
  420SOL     OW 2158   5.176   4.227   6.943
  420SOL    HW1 2159   5.194   4.136   6.905
  420SOL    HW2 2160   5.262   4.276   6.953
  421SOL     OW 2161   1.388   6.632   6.644
  421SOL    HW1 2162   1.314   6.686   6.604
  421SOL    HW2 2163   1.355   6.539   6.661
  422SOL     OW 2164   5.605   4.454   6.578
  422SOL    HW1 2165   5.652   4.539   6.553
  422SOL    HW2 2166   5.648   4.416   6.660
  423SOL     OW 2167   1.285   3.166   5.885
  423SOL    HW1 2168   1.215   3.170   5.956
  423SOL    HW2 2169   1.242   3.150   5.796
  424SOL     OW 2170   1.956   4.016   6.966
  424SOL    HW1 2171   1.921   3.933   6.923
  424SOL    HW2 2172   2.046   4.038   6.927
  425SOL     OW 2173   2.879   6.887   0.273
  425SOL    HW1 2174   2.964   6.834   0.270
  425SOL    HW2 2175   2.808   6.839   0.222
  426SOL     OW 2176   6.527   3.818   6.009
  426SOL    HW1 2177   6.557   3.728   6.043
  426SOL    HW2 2178   6.436   3.809   5.968
  427SOL     OW 2179   4.463   3.160   0.525
  427SOL    HW1 2180   4.545   3.215   0.540
  427SOL    HW2 2181   4.398   3.212   0.469
  428SOL     OW 2182   3.437   1.767   5.912
  428SOL    HW1 2183   3.475   1.751   5.821
  428SOL    HW2 2184   3.506   1.748   5.981
  429SOL     OW 2185   3.206   5.897   0.397
  429SOL    HW1 2186   3.252   5.949   0.469
  429SOL    HW2 2187   3.136   5.955   0.354
  430SOL     OW 2188   2.643   0.013   4.324
  430SOL    HW1 2189   2.716   0.079   4.342
  430SOL    HW2 2190   2.670   6.944   4.358
  431SOL     OW 2191   3.339   1.642   6.643
  431SOL    HW1 2192   3.382   1.651   6.733
  431SOL    HW2 2193   3.378   1.562   6.596
  432SOL     OW 2194   6.834   1.546   1.012
  432SOL    HW1 2195   6.813   1.551   1.110
  432SOL    HW2 2196   6.785   1.470   0.971
  433SOL     OW 2197   2.629   5.885   4.804
  433SOL    HW1 2198   2.690   5.870   4.726
  433SOL    HW2 2199   2.640   5.810   4.869
  434SOL     OW 2200   6.602   3.303   1.099
  434SOL    HW1 2201   6.582   3.254   1.184
  434SOL    HW2 2202   6.699   3.293   1.077
  435SOL     OW 2203   3.625   3.166   0.975
  435SOL    HW1 2204   3.663   3.255   1.002
  435SOL    HW2 2205   3.645   3.098   1.046
  436SOL     OW 2206   2.573   0.435   0.443
  436SOL    HW1 2207   2.630   0.472   0.370
  436SOL    HW2 2208   2.480   0.420   0.408
  437SOL     OW 2209   6.528   0.499   5.385
  437SOL    HW1 2210   6.503   0.595   5.386
  437SOL    HW2 2211   6.574   0.476   5.472
  438SOL     OW 2212   1.908   3.275   1.243
  438SOL    HW1 2213   1.991   3.234   1.205
  438SOL    HW2 2214   1.840   3.285   1.170
  439SOL     OW 2215   6.224   4.412   2.027
  439SOL    HW1 2216   6.225   4.338   1.959
  439SOL    HW2 2217   6.304   4.402   2.088
  440SOL     OW 2218   1.630   3.192   2.992
  440SOL    HW1 2219   1.624   3.283   2.952
  440SOL    HW2 2220   1.723   3.157   2.984
  441SOL     OW 2221   0.800   0.861   3.158
  441SOL    HW1 2222   0.804   0.825   3.065
  441SOL    HW2 2223   0.878   0.827   3.211
  442SOL     OW 2224   6.881   4.647   6.566
  442SOL    HW1 2225   6.811   4.695   6.513
  442SOL    HW2 2226   6.911   4.705   6.642
  443SOL     OW 2227   0.894   4.194   5.205
  443SOL    HW1 2228   0.892   4.166   5.301
  443SOL    HW2 2229   0.895   4.294   5.199
  444SOL     OW 2230   5.038   3.296   6.789
  444SOL    HW1 2231   5.027   3.392   6.763
  444SOL    HW2 2232   5.136   3.277   6.803
  445SOL     OW 2233   1.706   4.589   3.096
  445SOL    HW1 2234   1.771   4.537   3.151
  445SOL    HW2 2235   1.693   4.679   3.137
  446SOL     OW 2236   3.306   4.950   3.989
  446SOL    HW1 2237   3.277   4.956   3.894
  446SOL    HW2 2238   3.393   4.998   4.001
  447SOL     OW 2239   0.474   5.961   0.258
  447SOL    HW1 2240   0.418   5.972   0.176
  447SOL    HW2 2241   0.451   5.875   0.303
  448SOL     OW 2242   4.434   0.894   6.361
  448SOL    HW1 2243   4.413   0.982   6.405
  448SOL    HW2 2244   4.425   0.903   6.262
  449SOL     OW 2245   5.490   6.978   4.315
  449SOL    HW1 2246   5.436   6.920   4.255
  449SOL    HW2 2247   5.510   6.930   4.401
  450SOL     OW 2248   6.729   5.942   3.450
  450SOL    HW1 2249   6.800   5.880   3.485
  450SOL    HW2 2250   6.660   5.957   3.521
  451SOL     OW 2251   5.981   2.382   3.775
  451SOL    HW1 2252   6.052   2.388   3.844
  451SOL    HW2 2253   5.894   2.356   3.818
  452SOL     OW 2254   6.688   5.226   6.423
  452SOL    HW1 2255   6.701   5.157   6.352
  452SOL    HW2 2256   6.694   5.318   6.383
  453SOL     OW 2257   3.023   1.166   5.702
  453SOL    HW1 2258   3.116   1.155   5.738
  453SOL    HW2 2259   2.978   1.242   5.749
  454SOL     OW 2260   0.998   6.441   0.448
  454SOL    HW1 2261   0.948   6.486   0.522
  454SOL    HW2 2262   0.991   6.342   0.458
  455SOL     OW 2263   4.858   0.498   5.049
  455SOL    HW1 2264   4.771   0.539   5.023
  455SOL    HW2 2265   4.851   0.457   5.140
  456SOL     OW 2266   4.621   5.391   7.004
  456SOL    HW1 2267   4.536   5.346   6.979
  456SOL    HW2 2268   4.651   5.450   6.929
  457SOL     OW 2269   0.735   4.354   1.930
  457SOL    HW1 2270   0.830   4.383   1.925
  457SOL    HW2 2271   0.720   4.280   1.863
  458SOL     OW 2272   6.830   6.355   5.799
  458SOL    HW1 2273   6.748   6.311   5.835
  458SOL    HW2 2274   6.803   6.438   5.749
  459SOL     OW 2275   1.706   0.615   3.829
  459SOL    HW1 2276   1.614   0.653   3.818
  459SOL    HW2 2277   1.744   0.646   3.916
  460SOL     OW 2278   6.478   1.708   4.103
  460SOL    HW1 2279   6.507   1.795   4.064
  460SOL    HW2 2280   6.485   1.636   4.034
  461SOL     OW 2281   5.052   5.848   5.276
  461SOL    HW1 2282   5.096   5.859   5.365
  461SOL    HW2 2283   5.115   5.875   5.204
  462SOL     OW 2284   3.134   2.481   0.051
  462SOL    HW1 2285   3.145   2.394   0.003
  462SOL    HW2 2286   3.046   2.483   0.098
  463SOL     OW 2287   0.085   6.320   1.970
  463SOL    HW1 2288   0.043   6.304   2.059
  463SOL    HW2 2289   0.029   6.277   1.898
  464SOL     OW 2290   2.286   1.600   5.598
  464SOL    HW1 2291   2.291   1.619   5.696
  464SOL    HW2 2292   2.280   1.502   5.583
  465SOL     OW 2293   0.024   3.307   5.282
  465SOL    HW1 2294   0.074   3.375   5.335
  465SOL    HW2 2295   0.083   3.271   5.209
  466SOL     OW 2296   2.813   0.528   3.251
  466SOL    HW1 2297   2.806   0.560   3.346
  466SOL    HW2 2298   2.725   0.540   3.206
  467SOL     OW 2299   1.793   1.460   5.160
  467SOL    HW1 2300   1.788   1.502   5.251
  467SOL    HW2 2301   1.729   1.383   5.155
  468SOL     OW 2302   3.357   4.049   2.015
  468SOL    HW1 2303   3.437   4.062   2.074
  468SOL    HW2 2304   3.274   4.046   2.072
  469SOL     OW 2305   2.930   5.123   0.225
  469SOL    HW1 2306   2.983   5.146   0.307
  469SOL    HW2 2307   2.972   5.166   0.146
  470SOL     OW 2308   3.974   0.346   2.722
  470SOL    HW1 2309   3.959   0.337   2.820
  470SOL    HW2 2310   4.071   0.363   2.704
  471SOL     OW 2311   2.884   1.876   4.815
  471SOL    HW1 2312   2.841   1.855   4.727
  471SOL    HW2 2313   2.909   1.973   4.817
  472SOL     OW 2314   4.193   4.345   5.397
  472SOL    HW1 2315   4.217   4.408   5.470
  472SOL    HW2 2316   4.229   4.379   5.310
  473SOL     OW 2317   1.081   3.754   4.102
  473SOL    HW1 2318   1.049   3.691   4.173
  473SOL    HW2 2319   1.130   3.830   4.145
  474SOL     OW 2320   4.688   4.672   4.815
  474SOL    HW1 2321   4.614   4.692   4.750
  474SOL    HW2 2322   4.731   4.757   4.844
  475SOL     OW 2323   0.844   6.860   6.487
  475SOL    HW1 2324   0.781   6.790   6.520
  475SOL    HW2 2325   0.836   6.942   6.545
  476SOL     OW 2326   0.523   5.225   1.978
  476SOL    HW1 2327   0.456   5.298   1.991
  476SOL    HW2 2328   0.508   5.154   2.047
  477SOL     OW 2329   1.757   5.311   3.857
  477SOL    HW1 2330   1.840   5.286   3.906
  477SOL    HW2 2331   1.769   5.402   3.816
  478SOL     OW 2332   1.489   5.132   2.992
  478SOL    HW1 2333   1.586   5.139   3.013
  478SOL    HW2 2334   1.461   5.036   2.992
  479SOL     OW 2335   3.526   1.341   1.383
  479SOL    HW1 2336   3.500   1.264   1.442
  479SOL    HW2 2337   3.562   1.306   1.297
  480SOL     OW 2338   1.621   6.222   2.510
  480SOL    HW1 2339   1.564   6.268   2.577
  480SOL    HW2 2340   1.665   6.142   2.552
  481SOL     OW 2341   2.645   6.479   1.671
  481SOL    HW1 2342   2.624   6.543   1.596
  481SOL    HW2 2343   2.624   6.386   1.642
  482SOL     OW 2344   5.419   5.241   1.010
  482SOL    HW1 2345   5.511   5.231   0.972
  482SOL    HW2 2346   5.420   5.312   1.081
  483SOL     OW 2347   5.577   1.843   1.111
  483SOL    HW1 2348   5.618   1.830   1.201
  483SOL    HW2 2349   5.649   1.846   1.041
  484SOL     OW 2350   6.853   2.899   4.823
  484SOL    HW1 2351   6.916   2.958   4.773
  484SOL    HW2 2352   6.878   2.803   4.808
  485SOL     OW 2353   4.084   5.781   2.221
  485SOL    HW1 2354   4.089   5.697   2.276
  485SOL    HW2 2355   4.084   5.860   2.282
  486SOL     OW 2356   0.360   0.153   6.251
  486SOL    HW1 2357   0.347   0.057   6.278
  486SOL    HW2 2358   0.302   0.212   6.307
  487SOL     OW 2359   6.480   2.956   6.457
  487SOL    HW1 2360   6.572   2.946   6.496
  487SOL    HW2 2361   6.432   3.029   6.505
  488SOL     OW 2362   0.634   3.206   2.379
  488SOL    HW1 2363   0.607   3.211   2.282
  488SOL    HW2 2364   0.652   3.298   2.413
  489SOL     OW 2365   3.291   6.159   6.037
  489SOL    HW1 2366   3.217   6.226   6.032
  489SOL    HW2 2367   3.266   6.076   5.987
  490SOL     OW 2368   5.501   6.034   4.108
  490SOL    HW1 2369   5.433   5.975   4.065
  490SOL    HW2 2370   5.485   6.129   4.080
  491SOL     OW 2371   0.069   2.215   3.322
  491SOL    HW1 2372   0.117   2.178   3.242
  491SOL    HW2 2373   7.011   2.269   3.291
  492SOL     OW 2374   2.266   1.281   4.701
  492SOL    HW1 2375   2.332   1.228   4.755
  492SOL    HW2 2376   2.192   1.312   4.760
  493SOL     OW 2377   5.808   4.032   3.910
  493SOL    HW1 2378   5.794   4.107   3.974
  493SOL    HW2 2379   5.722   4.013   3.862
  494SOL     OW 2380   6.276   1.731   0.061
  494SOL    HW1 2381   6.208   1.804   0.049
  494SOL    HW2 2382   6.261   1.660   7.013
  495SOL     OW 2383   4.396   4.693   1.102
  495SOL    HW1 2384   4.362   4.787   1.105
  495SOL    HW2 2385   4.373   4.652   1.013
  496SOL     OW 2386   6.127   2.679   2.984
  496SOL    HW1 2387   6.201   2.616   2.960
  496SOL    HW2 2388   6.042   2.649   2.941
  497SOL     OW 2389   4.119   0.124   4.311
  497SOL    HW1 2390   4.104   0.092   4.217
  497SOL    HW2 2391   4.181   0.202   4.310
  498SOL     OW 2392   0.987   3.318   2.515
  498SOL    HW1 2393   0.994   3.330   2.614
  498SOL    HW2 2394   1.058   3.373   2.470
  499SOL     OW 2395   3.527   1.216   5.337
  499SOL    HW1 2396   3.560   1.294   5.391
  499SOL    HW2 2397   3.456   1.248   5.274
  500SOL     OW 2398   1.385   4.268   2.349
  500SOL    HW1 2399   1.473   4.224   2.328
  500SOL    HW2 2400   1.337   4.213   2.418
  501SOL     OW 2401   1.122   5.314   6.990
  501SOL    HW1 2402   1.046   5.376   7.012
  501SOL    HW2 2403   1.147   5.262   0.052
  502SOL     OW 2404   3.243   5.601   6.384
  502SOL    HW1 2405   3.288   5.656   6.455
  502SOL    HW2 2406   3.305   5.589   6.307
  503SOL     OW 2407   5.868   5.986   5.166
  503SOL    HW1 2408   5.864   5.893   5.200
  503SOL    HW2 2409   5.788   6.037   5.197
  504SOL     OW 2410   2.074   5.222   4.321
  504SOL    HW1 2411   2.049   5.132   4.355
  504SOL    HW2 2412   1.992   5.271   4.293
  505SOL     OW 2413   4.405   6.884   5.166
  505SOL    HW1 2414   4.468   6.915   5.238
  505SOL    HW2 2415   4.361   6.799   5.195
  506SOL     OW 2416   2.462   3.782   6.983
  506SOL    HW1 2417   2.444   3.775   6.885
  506SOL    HW2 2418   2.549   3.738   7.004
  507SOL     OW 2419   3.735   1.641   3.768
  507SOL    HW1 2420   3.674   1.563   3.761
  507SOL    HW2 2421   3.750   1.663   3.865
  508SOL     OW 2422   6.058   4.203   3.901
  508SOL    HW1 2423   6.125   4.254   3.955
  508SOL    HW2 2424   6.097   4.114   3.877
  509SOL     OW 2425   4.712   2.568   1.544
  509SOL    HW1 2426   4.790   2.513   1.575
  509SOL    HW2 2427   4.630   2.511   1.543
  510SOL     OW 2428   0.572   3.371   4.360
  510SOL    HW1 2429   0.605   3.339   4.449
  510SOL    HW2 2430   0.524   3.297   4.314
  511SOL     OW 2431   0.560   6.530   1.299
  511SOL    HW1 2432   0.518   6.491   1.217
  511SOL    HW2 2433   0.542   6.469   1.377
  512SOL     OW 2434   0.863   3.593   6.539
  512SOL    HW1 2435   0.901   3.509   6.500
  512SOL    HW2 2436   0.931   3.666   6.532
  513SOL     OW 2437   0.313   5.247   4.461
  513SOL    HW1 2438   0.395   5.197   4.435
  513SOL    HW2 2439   0.233   5.208   4.414
  514SOL     OW 2440   6.135   1.539   3.201
  514SOL    HW1 2441   6.232   1.563   3.209
  514SOL    HW2 2442   6.109   1.538   3.105
  515SOL     OW 2443   2.055   5.801   0.114
  515SOL    HW1 2444   2.145   5.762   0.093
  515SOL    HW2 2445   1.999   5.732   0.160
  516SOL     OW 2446   1.226   5.414   2.431
  516SOL    HW1 2447   1.144   5.447   2.385
  516SOL    HW2 2448   1.212   5.318   2.458
  517SOL     OW 2449   4.922   0.271   6.809
  517SOL    HW1 2450   4.936   0.356   6.758
  517SOL    HW2 2451   4.981   0.200   6.770
  518SOL     OW 2452   2.788   2.028   0.678
  518SOL    HW1 2453   2.825   2.111   0.636
  518SOL    HW2 2454   2.793   1.952   0.614
  519SOL     OW 2455   0.667   6.896   0.952
  519SOL    HW1 2456   0.669   6.960   1.028
  519SOL    HW2 2457   0.754   6.901   0.902
  520SOL     OW 2458   6.751   4.354   4.557
  520SOL    HW1 2459   6.666   4.353   4.503
  520SOL    HW2 2460   6.781   4.260   4.574
  521SOL     OW 2461   6.213   0.442   1.339
  521SOL    HW1 2462   6.310   0.427   1.357
  521SOL    HW2 2463   6.200   0.462   1.242
  522SOL     OW 2464   3.317   3.764   5.690
  522SOL    HW1 2465   3.398   3.821   5.691
  522SOL    HW2 2466   3.321   3.701   5.613
  523SOL     OW 2467   6.557   6.735   4.955
  523SOL    HW1 2468   6.591   6.755   4.863
  523SOL    HW2 2469   6.540   6.820   5.004
  524SOL     OW 2470   4.365   1.698   6.067
  524SOL    HW1 2471   4.306   1.737   6.138
  524SOL    HW2 2472   4.411   1.771   6.017
  525SOL     OW 2473   2.856   2.920   6.696
  525SOL    HW1 2474   2.918   2.987   6.736
  525SOL    HW2 2475   2.823   2.858   6.767
  526SOL     OW 2476   4.445   5.611   4.665
  526SOL    HW1 2477   4.369   5.619   4.730
  526SOL    HW2 2478   4.446   5.690   4.604
  527SOL     OW 2479   1.095   1.948   0.101
  527SOL    HW1 2480   1.129   1.893   0.024
  527SOL    HW2 2481   1.063   2.036   0.067
  528SOL     OW 2482   1.968   0.671   5.675
  528SOL    HW1 2483   1.890   0.610   5.690
  528SOL    HW2 2484   2.036   0.657   5.748
  529SOL     OW 2485   6.802   4.325   4.213
  529SOL    HW1 2486   6.702   4.322   4.212
  529SOL    HW2 2487   6.833   4.369   4.297
  530SOL     OW 2488   1.135   2.037   5.326
  530SOL    HW1 2489   1.230   2.020   5.354
  530SOL    HW2 2490   1.133   2.069   5.231
  531SOL     OW 2491   0.133   0.774   0.272
  531SOL    HW1 2492   0.141   0.764   0.172
  531SOL    HW2 2493   0.044   0.739   0.302
  532SOL     OW 2494   1.679   0.046   5.836
  532SOL    HW1 2495   1.642   0.139   5.832
  532SOL    HW2 2496   1.770   0.045   5.795
  533SOL     OW 2497   5.525   0.290   4.648
  533SOL    HW1 2498   5.536   0.200   4.690
  533SOL    HW2 2499   5.615   0.325   4.621
  534SOL     OW 2500   3.581   5.596   2.681
  534SOL    HW1 2501   3.496   5.600   2.733
  534SOL    HW2 2502   3.659   5.593   2.744
  535SOL     OW 2503   6.358   4.300   2.672
  535SOL    HW1 2504   6.393   4.344   2.754
  535SOL    HW2 2505   6.333   4.369   2.604
  536SOL     OW 2506   0.907   6.187   0.961
  536SOL    HW1 2507   0.831   6.172   0.898
  536SOL    HW2 2508   0.993   6.170   0.912
  537SOL     OW 2509   2.030   0.465   3.448
  537SOL    HW1 2510   1.994   0.448   3.356
  537SOL    HW2 2511   2.098   0.539   3.444
  538SOL     OW 2512   1.057   4.555   3.971
  538SOL    HW1 2513   0.969   4.581   4.010
  538SOL    HW2 2514   1.114   4.636   3.960
  539SOL     OW 2515   1.134   5.427   1.357
  539SOL    HW1 2516   1.168   5.449   1.266
  539SOL    HW2 2517   1.035   5.410   1.353
  540SOL     OW 2518   1.312   2.807   1.465
  540SOL    HW1 2519   1.327   2.855   1.379
  540SOL    HW2 2520   1.255   2.726   1.448
  541SOL     OW 2521   3.824   4.936   5.225
  541SOL    HW1 2522   3.766   4.997   5.170
  541SOL    HW2 2523   3.916   4.934   5.186
  542SOL     OW 2524   5.851   6.347   6.742
  542SOL    HW1 2525   5.868   6.282   6.668
  542SOL    HW2 2526   5.912   6.426   6.732
  543SOL     OW 2527   6.795   6.002   0.319
  543SOL    HW1 2528   6.729   6.054   0.264
  543SOL    HW2 2529   6.858   6.066   0.363
  544SOL     OW 2530   1.064   6.061   0.130
  544SOL    HW1 2531   1.032   6.155   0.134
  544SOL    HW2 2532   1.076   6.033   0.035
  545SOL     OW 2533   3.180   1.826   3.731
  545SOL    HW1 2534   3.187   1.910   3.678
  545SOL    HW2 2535   3.089   1.818   3.771
  546SOL     OW 2536   1.588   3.314   0.198
  546SOL    HW1 2537   1.518   3.384   0.201
  546SOL    HW2 2538   1.624   3.307   0.105
  547SOL     OW 2539   2.552   2.602   0.077
  547SOL    HW1 2540   2.587   2.534   0.012
  547SOL    HW2 2541   2.551   2.562   0.169
  548SOL     OW 2542   3.372   3.091   5.408
  548SOL    HW1 2543   3.360   3.172   5.350
  548SOL    HW2 2544   3.287   3.039   5.410
  549SOL     OW 2545   1.036   3.882   1.213
  549SOL    HW1 2546   0.956   3.823   1.223
  549SOL    HW2 2547   1.012   3.962   1.159
  550SOL     OW 2548   6.749   3.435   1.386
  550SOL    HW1 2549   6.721   3.358   1.329
  550SOL    HW2 2550   6.848   3.447   1.381
  551SOL     OW 2551   0.096   1.465   6.440
  551SOL    HW1 2552   0.111   1.503   6.531
  551SOL    HW2 2553   7.020   1.438   6.431
  552SOL     OW 2554   4.523   4.997   0.328
  552SOL    HW1 2555   4.469   4.922   0.365
  552SOL    HW2 2556   4.490   5.084   0.363
  553SOL     OW 2557   1.446   2.228   1.079
  553SOL    HW1 2558   1.460   2.216   1.178
  553SOL    HW2 2559   1.357   2.188   1.054
  554SOL     OW 2560   4.945   5.282   4.676
  554SOL    HW1 2561   4.940   5.334   4.591
  554SOL    HW2 2562   4.980   5.340   4.749
  555SOL     OW 2563   1.639   4.271   4.842
  555SOL    HW1 2564   1.731   4.298   4.873
  555SOL    HW2 2565   1.640   4.174   4.817
  556SOL     OW 2566   6.031   3.237   2.471
  556SOL    HW1 2567   6.039   3.255   2.569
  556SOL    HW2 2568   5.946   3.189   2.453
  557SOL     OW 2569   0.248   5.626   6.691
  557SOL    HW1 2570   0.273   5.624   6.594
  557SOL    HW2 2571   0.221   5.535   6.721
  558SOL     OW 2572   4.506   3.576   5.708
  558SOL    HW1 2573   4.441   3.598   5.636
  558SOL    HW2 2574   4.485   3.485   5.745
  559SOL     OW 2575   6.269   5.742   5.992
  559SOL    HW1 2576   6.186   5.774   6.037
  559SOL    HW2 2577   6.310   5.668   6.046
  560SOL     OW 2578   4.167   6.922   6.891
  560SOL    HW1 2579   4.166   6.953   6.986
  560SOL    HW2 2580   4.204   6.829   6.887
  561SOL     OW 2581   5.398   6.597   1.707
  561SOL    HW1 2582   5.419   6.616   1.611
  561SOL    HW2 2583   5.299   6.585   1.718
  562SOL     OW 2584   6.849   0.522   0.030
  562SOL    HW1 2585   6.779   0.459   0.063
  562SOL    HW2 2586   6.894   0.483   6.971
  563SOL     OW 2587   3.236   0.590   4.879
  563SOL    HW1 2588   3.262   0.606   4.783
  563SOL    HW2 2589   3.141   0.561   4.884
  564SOL     OW 2590   0.539   1.896   6.026
  564SOL    HW1 2591   0.467   1.863   5.965
  564SOL    HW2 2592   0.565   1.823   6.089
  565SOL     OW 2593   4.457   4.293   5.310
  565SOL    HW1 2594   4.540   4.265   5.359
  565SOL    HW2 2595   4.377   4.255   5.357
  566SOL     OW 2596   5.674   5.085   2.170
  566SOL    HW1 2597   5.739   5.034   2.114
  566SOL    HW2 2598   5.635   5.023   2.239
  567SOL     OW 2599   3.743   4.027   4.415
  567SOL    HW1 2600   3.786   3.968   4.347
  567SOL    HW2 2601   3.792   4.020   4.502
  568SOL     OW 2602   2.121   0.923   6.021
  568SOL    HW1 2603   2.074   0.978   6.090
  568SOL    HW2 2604   2.188   0.863   6.066
  569SOL     OW 2605   2.268   3.554   6.490
  569SOL    HW1 2606   2.219   3.538   6.576
  569SOL    HW2 2607   2.337   3.483   6.477
  570SOL     OW 2608   0.238   6.205   1.108
  570SOL    HW1 2609   0.208   6.176   1.017
  570SOL    HW2 2610   0.316   6.149   1.137
  571SOL     OW 2611   4.131   5.514   3.154
  571SOL    HW1 2612   4.073   5.546   3.080
  571SOL    HW2 2613   4.090   5.434   3.197
  572SOL     OW 2614   2.018   3.848   4.611
  572SOL    HW1 2615   2.063   3.857   4.700
  572SOL    HW2 2616   1.960   3.928   4.595
  573SOL     OW 2617   3.585   2.408   6.948
  573SOL    HW1 2618   3.552   2.469   6.876
  573SOL    HW2 2619   3.591   2.458   0.014
  574SOL     OW 2620   2.308   1.514   4.308
  574SOL    HW1 2621   2.235   1.557   4.254
  574SOL    HW2 2622   2.324   1.568   4.391
  575SOL     OW 2623   5.530   2.150   6.516
  575SOL    HW1 2624   5.433   2.166   6.535
  575SOL    HW2 2625   5.585   2.195   6.586
  576SOL     OW 2626   1.009   2.538   2.614
  576SOL    HW1 2627   1.073   2.506   2.683
  576SOL    HW2 2628   1.057   2.551   2.528
  577SOL     OW 2629   3.416   2.089   4.339
  577SOL    HW1 2630   3.510   2.102   4.373
  577SOL    HW2 2631   3.353   2.084   4.416
  578SOL     OW 2632   0.233   3.539   4.454
  578SOL    HW1 2633   0.148   3.547   4.402
  578SOL    HW2 2634   0.310   3.533   4.391
  579SOL     OW 2635   3.760   3.547   0.685
  579SOL    HW1 2636   3.752   3.479   0.759
  579SOL    HW2 2637   3.669   3.566   0.649
  580SOL     OW 2638   0.781   6.213   6.792
  580SOL    HW1 2639   0.709   6.145   6.780
  580SOL    HW2 2640   0.804   6.220   6.889
  581SOL     OW 2641   3.890   3.557   2.498
  581SOL    HW1 2642   3.944   3.630   2.540
  581SOL    HW2 2643   3.944   3.514   2.425
  582SOL     OW 2644   6.516   4.320   1.476
  582SOL    HW1 2645   6.466   4.329   1.562
  582SOL    HW2 2646   6.611   4.295   1.496
  583SOL     OW 2647   2.490   6.092   6.746
  583SOL    HW1 2648   2.479   6.081   6.845
  583SOL    HW2 2649   2.560   6.030   6.713
  584SOL     OW 2650   0.837   5.456   5.148
  584SOL    HW1 2651   0.744   5.419   5.145
  584SOL    HW2 2652   0.903   5.380   5.149
  585SOL     OW 2653   6.297   0.892   5.753
  585SOL    HW1 2654   6.198   0.903   5.738
  585SOL    HW2 2655   6.313   0.860   5.846
  586SOL     OW 2656   2.615   5.793   1.447
  586SOL    HW1 2657   2.641   5.699   1.468
  586SOL    HW2 2658   2.633   5.812   1.350
  587SOL     OW 2659   1.226   3.694   5.774
  587SOL    HW1 2660   1.305   3.645   5.811
  587SOL    HW2 2661   1.142   3.643   5.795
  588SOL     OW 2662   2.014   0.249   1.822
  588SOL    HW1 2663   2.077   0.315   1.780
  588SOL    HW2 2664   1.923   0.260   1.782
  589SOL     OW 2665   4.523   5.371   2.557
  589SOL    HW1 2666   4.548   5.278   2.583
  589SOL    HW2 2667   4.556   5.436   2.626
  590SOL     OW 2668   6.375   2.337   2.150
  590SOL    HW1 2669   6.397   2.410   2.085
  590SOL    HW2 2670   6.459   2.291   2.179
  591SOL     OW 2671   3.124   6.793   3.207
  591SOL    HW1 2672   3.219   6.772   3.228
  591SOL    HW2 2673   3.077   6.709   3.178
  592SOL     OW 2674   5.526   6.982   6.884
  592SOL    HW1 2675   5.445   6.965   6.827
  592SOL    HW2 2676   5.570   0.047   6.855
  593SOL     OW 2677   6.103   1.205   4.747
  593SOL    HW1 2678   6.190   1.234   4.786
  593SOL    HW2 2679   6.098   1.231   4.651
  594SOL     OW 2680   5.338   2.677   1.415
  594SOL    HW1 2681   5.324   2.590   1.462
  594SOL    HW2 2682   5.283   2.680   1.332
  595SOL     OW 2683   4.729   6.694   3.928
  595SOL    HW1 2684   4.656   6.633   3.958
  595SOL    HW2 2685   4.741   6.683   3.829
  596SOL     OW 2686   0.892   3.829   2.043
  596SOL    HW1 2687   0.877   3.731   2.033
  596SOL    HW2 2688   0.987   3.850   2.017
  597SOL     OW 2689   4.265   2.665   6.027
  597SOL    HW1 2690   4.227   2.572   6.025
  597SOL    HW2 2691   4.361   2.662   6.000
  598SOL     OW 2692   3.159   4.136   1.316
  598SOL    HW1 2693   3.163   4.071   1.393
  598SOL    HW2 2694   3.133   4.226   1.350
  599SOL     OW 2695   6.783   6.433   3.569
  599SOL    HW1 2696   6.830   6.519   3.590
  599SOL    HW2 2697   6.846   6.373   3.519
  600SOL     OW 2698   2.526   1.495   1.252
  600SOL    HW1 2699   2.498   1.459   1.164
  600SOL    HW2 2700   2.559   1.589   1.241
  601SOL     OW 2701   2.351   5.060   3.172
  601SOL    HW1 2702   2.440   5.015   3.177
  601SOL    HW2 2703   2.353   5.128   3.098
  602SOL     OW 2704   6.491   0.467   2.057
  602SOL    HW1 2705   6.530   0.508   2.140
  602SOL    HW2 2706   6.558   0.405   2.016
  603SOL     OW 2707   3.663   1.838   3.116
  603SOL    HW1 2708   3.699   1.758   3.164
  603SOL    HW2 2709   3.703   1.921   3.156
  604SOL     OW 2710   0.829   3.830   5.790
  604SOL    HW1 2711   0.732   3.830   5.812
  604SOL    HW2 2712   0.841   3.822   5.691
  605SOL     OW 2713   6.225   6.963   4.848
  605SOL    HW1 2714   6.216   0.037   4.880
  605SOL    HW2 2715   6.240   6.902   4.926
  606SOL     OW 2716   3.532   0.140   2.526
  606SOL    HW1 2717   3.557   0.093   2.441
  606SOL    HW2 2718   3.601   0.209   2.547
  607SOL     OW 2719   4.393   0.625   4.192
  607SOL    HW1 2720   4.399   0.694   4.264
  607SOL    HW2 2721   4.299   0.591   4.186
  608SOL     OW 2722   5.429   2.723   1.845
  608SOL    HW1 2723   5.456   2.644   1.900
  608SOL    HW2 2724   5.498   2.795   1.853
  609SOL     OW 2725   2.912   3.827   4.625
  609SOL    HW1 2726   2.920   3.731   4.651
  609SOL    HW2 2727   2.824   3.862   4.655
  610SOL     OW 2728   5.921   1.691   4.291
  610SOL    HW1 2729   5.881   1.759   4.352
  610SOL    HW2 2730   6.019   1.708   4.281
  611SOL     OW 2731   5.977   6.716   0.302
  611SOL    HW1 2732   5.975   6.718   0.402
  611SOL    HW2 2733   5.915   6.646   0.268
  612SOL     OW 2734   2.210   5.360   5.639
  612SOL    HW1 2735   2.209   5.421   5.560
  612SOL    HW2 2736   2.244   5.270   5.611
  613SOL     OW 2737   3.962   1.476   6.743
  613SOL    HW1 2738   3.920   1.389   6.769
  613SOL    HW2 2739   3.892   1.547   6.741
  614SOL     OW 2740   5.339   3.065   1.168
  614SOL    HW1 2741   5.269   3.076   1.098
  614SOL    HW2 2742   5.302   3.092   1.257
  615SOL     OW 2743   5.022   6.634   0.544
  615SOL    HW1 2744   5.008   6.713   0.603
  615SOL    HW2 2745   5.078   6.660   0.465
  616SOL     OW 2746   5.230   0.628   4.688
  616SOL    HW1 2747   5.328   0.643   4.677
  616SOL    HW2 2748   5.192   0.698   4.750
  617SOL     OW 2749   0.190   6.268   5.173
  617SOL    HW1 2750   0.226   6.250   5.265
  617SOL    HW2 2751   0.218   6.195   5.111
  618SOL     OW 2752   5.452   4.796   0.367
  618SOL    HW1 2753   5.363   4.769   0.401
  618SOL    HW2 2754   5.452   4.792   0.267
  619SOL     OW 2755   2.260   6.603   6.067
  619SOL    HW1 2756   2.266   6.507   6.094
  619SOL    HW2 2757   2.259   6.660   6.149
  620SOL     OW 2758   4.367   1.976   2.068
  620SOL    HW1 2759   4.282   1.969   2.015
  620SOL    HW2 2760   4.376   1.895   2.126
  621SOL     OW 2761   3.196   0.442   6.735
  621SOL    HW1 2762   3.208   0.347   6.707
  621SOL    HW2 2763   3.225   0.453   6.830
  622SOL     OW 2764   0.146   3.381   5.670
  622SOL    HW1 2765   0.079   3.412   5.602
  622SOL    HW2 2766   0.097   3.352   5.753
  623SOL     OW 2767   6.937   0.531   3.061
  623SOL    HW1 2768   6.864   0.551   2.997
  623SOL    HW2 2769   6.913   0.450   3.115
  624SOL     OW 2770   6.510   1.592   6.061
  624SOL    HW1 2771   6.560   1.514   6.101
  624SOL    HW2 2772   6.471   1.564   5.973
  625SOL     OW 2773   3.666   1.214   1.167
  625SOL    HW1 2774   3.655   1.292   1.106
  625SOL    HW2 2775   3.761   1.183   1.164
  626SOL     OW 2776   0.962   5.926   3.364
  626SOL    HW1 2777   0.981   5.835   3.328
  626SOL    HW2 2778   0.930   5.985   3.290
  627SOL     OW 2779   6.353   5.249   0.134
  627SOL    HW1 2780   6.440   5.294   0.153
  627SOL    HW2 2781   6.346   5.230   0.036
  628SOL     OW 2782   3.572   5.340   6.545
  628SOL    HW1 2783   3.596   5.303   6.454
  628SOL    HW2 2784   3.656   5.366   6.593
  629SOL     OW 2785   1.014   0.027   6.930
  629SOL    HW1 2786   1.003   6.992   7.013
  629SOL    HW2 2787   1.111   0.047   6.916
  630SOL     OW 2788   6.776   1.857   1.219
  630SOL    HW1 2789   6.783   1.758   1.203
  630SOL    HW2 2790   6.742   1.901   1.136
  631SOL     OW 2791   1.712   2.596   3.313
  631SOL    HW1 2792   1.773   2.547   3.375
  631SOL    HW2 2793   1.743   2.691   3.305
  632SOL     OW 2794   3.000   4.093   1.070
  632SOL    HW1 2795   2.995   4.084   1.169
  632SOL    HW2 2796   3.087   4.137   1.045
  633SOL     OW 2797   1.506   5.820   0.635
  633SOL    HW1 2798   1.596   5.780   0.652
  633SOL    HW2 2799   1.443   5.792   0.708
  634SOL     OW 2800   3.106   3.333   4.962
  634SOL    HW1 2801   3.114   3.239   4.996
  634SOL    HW2 2802   3.084   3.332   4.864
  635SOL     OW 2803   5.836   6.641   6.477
  635SOL    HW1 2804   5.756   6.682   6.432
  635SOL    HW2 2805   5.807   6.601   6.564
  636SOL     OW 2806   2.871   1.185   4.905
  636SOL    HW1 2807   2.840   1.184   5.000
  636SOL    HW2 2808   2.876   1.091   4.871
  637SOL     OW 2809   0.089   1.294   2.766
  637SOL    HW1 2810   0.136   1.359   2.826
  637SOL    HW2 2811   0.044   1.224   2.822
  638SOL     OW 2812   6.831   3.368   4.895
  638SOL    HW1 2813   6.771   3.413   4.962
  638SOL    HW2 2814   6.782   3.358   4.808
  639SOL     OW 2815   5.807   3.386   1.556
  639SOL    HW1 2816   5.885   3.383   1.494
  639SOL    HW2 2817   5.722   3.379   1.503
  640SOL     OW 2818   0.111   3.274   2.490
  640SOL    HW1 2819   0.094   3.247   2.396
  640SOL    HW2 2820   0.202   3.242   2.519
  641SOL     OW 2821   2.547   5.286   4.391
  641SOL    HW1 2822   2.474   5.277   4.325
  641SOL    HW2 2823   2.519   5.243   4.477
  642SOL     OW 2824   0.614   5.266   4.437
  642SOL    HW1 2825   0.675   5.317   4.497
  642SOL    HW2 2826   0.640   5.170   4.436
  643SOL     OW 2827   4.227   5.641   0.512
  643SOL    HW1 2828   4.149   5.609   0.565
  643SOL    HW2 2829   4.226   5.596   0.422
  644SOL     OW 2830   6.855   6.501   5.174
  644SOL    HW1 2831   6.929   6.530   5.112
  644SOL    HW2 2832   6.855   6.559   5.255
  645SOL     OW 2833   4.430   5.985   2.400
  645SOL    HW1 2834   4.437   5.956   2.304
  645SOL    HW2 2835   4.424   6.084   2.404
  646SOL     OW 2836   3.464   1.873   4.741
  646SOL    HW1 2837   3.486   1.969   4.759
  646SOL    HW2 2838   3.365   1.860   4.747
  647SOL     OW 2839   3.335   2.551   0.285
  647SOL    HW1 2840   3.281   2.505   0.214
  647SOL    HW2 2841   3.283   2.627   0.324
  648SOL     OW 2842   6.037   1.263   3.851
  648SOL    HW1 2843   6.090   1.179   3.865
  648SOL    HW2 2844   6.025   1.310   3.939
  649SOL     OW 2845   2.920   5.583   0.820
  649SOL    HW1 2846   2.840   5.524   0.809
  649SOL    HW2 2847   2.925   5.647   0.743
  650SOL     OW 2848   1.093   2.916   0.988
  650SOL    HW1 2849   1.073   2.944   0.894
  650SOL    HW2 2850   1.180   2.956   1.016
  651SOL     OW 2851   0.191   0.870   3.845
  651SOL    HW1 2852   0.120   0.908   3.904
  651SOL    HW2 2853   0.250   0.809   3.899
  652SOL     OW 2854   4.019   5.561   0.661
  652SOL    HW1 2855   3.921   5.561   0.640
  652SOL    HW2 2856   4.039   5.630   0.730
  653SOL     OW 2857   1.709   6.697   2.492
  653SOL    HW1 2858   1.749   6.716   2.402
  653SOL    HW2 2859   1.622   6.650   2.480
  654SOL     OW 2860   0.876   6.762   5.285
  654SOL    HW1 2861   0.903   6.858   5.297
  654SOL    HW2 2862   0.776   6.755   5.283
  655SOL     OW 2863   0.797   3.254   0.816
  655SOL    HW1 2864   0.846   3.321   0.871
  655SOL    HW2 2865   0.810   3.162   0.854
  656SOL     OW 2866   2.718   6.382   6.555
  656SOL    HW1 2867   2.728   6.481   6.560
  656SOL    HW2 2868   2.640   6.354   6.611
  657SOL     OW 2869   3.870   3.352   3.819
  657SOL    HW1 2870   3.816   3.314   3.743
  657SOL    HW2 2871   3.964   3.318   3.812
  658SOL     OW 2872   1.315   0.933   4.403
  658SOL    HW1 2873   1.291   1.015   4.351
  658SOL    HW2 2874   1.266   0.854   4.365
  659SOL     OW 2875   1.518   5.603   6.454
  659SOL    HW1 2876   1.463   5.673   6.501
  659SOL    HW2 2877   1.601   5.646   6.418
  660SOL     OW 2878   5.869   4.400   2.545
  660SOL    HW1 2879   5.837   4.494   2.536
  660SOL    HW2 2880   5.957   4.398   2.593
  661SOL     OW 2881   4.387   4.913   3.764
  661SOL    HW1 2882   4.432   4.850   3.828
  661SOL    HW2 2883   4.292   4.883   3.749
  662SOL     OW 2884   5.179   4.037   0.541
  662SOL    HW1 2885   5.149   4.021   0.447
  662SOL    HW2 2886   5.099   4.049   0.600
  663SOL     OW 2887   0.275   4.747   6.560
  663SOL    HW1 2888   0.235   4.659   6.584
  663SOL    HW2 2889   0.220   4.820   6.599
  664SOL     OW 2890   1.328   7.002   6.262
  664SOL    HW1 2891   1.394   0.018   6.197
  664SOL    HW2 2892   1.238   6.996   6.219
  665SOL     OW 2893   2.600   4.571   3.028
  665SOL    HW1 2894   2.592   4.671   3.028
  665SOL    HW2 2895   2.664   4.543   3.099
  666SOL     OW 2896   3.058   1.304   6.788
  666SOL    HW1 2897   3.071   1.374   6.719
  666SOL    HW2 2898   2.988   1.240   6.758
  667SOL     OW 2899   1.660   3.310   2.380
  667SOL    HW1 2900   1.598   3.322   2.457
  667SOL    HW2 2901   1.635   3.228   2.329
  668SOL     OW 2902   5.084   0.092   0.870
  668SOL    HW1 2903   5.159   0.055   0.815
  668SOL    HW2 2904   5.118   0.170   0.923
  669SOL     OW 2905   0.559   5.522   2.847
  669SOL    HW1 2906   0.497   5.547   2.773
  669SOL    HW2 2907   0.597   5.605   2.889
  670SOL     OW 2908   4.055   3.629   3.164
  670SOL    HW1 2909   4.106   3.604   3.246
  670SOL    HW2 2910   3.998   3.709   3.183
  671SOL     OW 2911   1.810   0.723   6.780
  671SOL    HW1 2912   1.748   0.787   6.826
  671SOL    HW2 2913   1.818   0.749   6.684
  672SOL     OW 2914   1.197   2.080   2.861
  672SOL    HW1 2915   1.140   2.020   2.806
  672SOL    HW2 2916   1.154   2.170   2.868
  673SOL     OW 2917   4.515   0.357   0.429
  673SOL    HW1 2918   4.553   0.302   0.355
  673SOL    HW2 2919   4.483   0.296   0.502
  674SOL     OW 2920   0.192   2.365   4.812
  674SOL    HW1 2921   0.103   2.360   4.857
  674SOL    HW2 2922   0.181   2.410   4.723
  675SOL     OW 2923   6.247   6.382   3.608
  675SOL    HW1 2924   6.241   6.288   3.575
  675SOL    HW2 2925   6.335   6.421   3.582
  676SOL     OW 2926   3.126   5.495   4.495
  676SOL    HW1 2927   3.116   5.562   4.421
  676SOL    HW2 2928   3.188   5.532   4.564
  677SOL     OW 2929   4.174   6.731   0.431
  677SOL    HW1 2930   4.124   6.774   0.506
  677SOL    HW2 2931   4.224   6.652   0.466
  678SOL     OW 2932   2.405   1.204   5.296
  678SOL    HW1 2933   2.363   1.140   5.360
  678SOL    HW2 2934   2.413   1.161   5.206
  679SOL     OW 2935   5.927   0.948   2.187
  679SOL    HW1 2936   5.921   0.906   2.277
  679SOL    HW2 2937   5.878   0.892   2.121
  680SOL     OW 2938   5.566   4.010   4.313
  680SOL    HW1 2939   5.657   3.972   4.330
  680SOL    HW2 2940   5.501   3.934   4.302
  681SOL     OW 2941   0.917   6.741   2.096
  681SOL    HW1 2942   0.932   6.757   1.999
  681SOL    HW2 2943   1.003   6.714   2.140
  682SOL     OW 2944   0.201   0.184   6.046
  682SOL    HW1 2945   0.274   0.184   6.114
  682SOL    HW2 2946   0.146   0.267   6.056
  683SOL     OW 2947   4.892   1.358   1.336
  683SOL    HW1 2948   4.990   1.357   1.357
  683SOL    HW2 2949   4.841   1.391   1.416
  684SOL     OW 2950   0.255   6.122   6.491
  684SOL    HW1 2951   0.321   6.047   6.486
  684SOL    HW2 2952   0.281   6.194   6.426
  685SOL     OW 2953   6.398   0.798   6.720
  685SOL    HW1 2954   6.444   0.717   6.755
  685SOL    HW2 2955   6.355   0.778   6.632
  686SOL     OW 2956   5.577   4.861   2.861
  686SOL    HW1 2957   5.592   4.784   2.922
  686SOL    HW2 2958   5.661   4.881   2.811
  687SOL     OW 2959   5.717   1.901   5.417
  687SOL    HW1 2960   5.771   1.833   5.466
  687SOL    HW2 2961   5.722   1.989   5.465
  688SOL     OW 2962   6.413   3.795   4.712
  688SOL    HW1 2963   6.445   3.732   4.783
  688SOL    HW2 2964   6.321   3.828   4.736
  689SOL     OW 2965   5.933   4.239   4.358
  689SOL    HW1 2966   5.866   4.251   4.432
  689SOL    HW2 2967   6.024   4.228   4.397
  690SOL     OW 2968   0.115   3.451   4.046
  690SOL    HW1 2969   0.045   3.519   4.027
  690SOL    HW2 2970   0.176   3.443   3.966
  691SOL     OW 2971   0.212   3.376   6.736
  691SOL    HW1 2972   0.196   3.280   6.716
  691SOL    HW2 2973   0.130   3.429   6.716
  692SOL     OW 2974   2.522   0.350   3.359
  692SOL    HW1 2975   2.468   0.267   3.374
  692SOL    HW2 2976   2.541   0.394   3.447
  693SOL     OW 2977   6.386   1.308   2.860
  693SOL    HW1 2978   6.309   1.251   2.831
  693SOL    HW2 2979   6.408   1.288   2.955
  694SOL     OW 2980   1.642   0.470   2.154
  694SOL    HW1 2981   1.547   0.500   2.149
  694SOL    HW2 2982   1.702   0.550   2.160
  695SOL     OW 2983   4.696   5.577   6.813
  695SOL    HW1 2984   4.649   5.558   6.727
  695SOL    HW2 2985   4.761   5.651   6.801
  696SOL     OW 2986   5.187   6.645   2.615
  696SOL    HW1 2987   5.136   6.569   2.657
  696SOL    HW2 2988   5.146   6.732   2.641
  697SOL     OW 2989   1.419   3.832   3.859
  697SOL    HW1 2990   1.472   3.900   3.911
  697SOL    HW2 2991   1.436   3.845   3.762
  698SOL     OW 2992   5.345   5.863   3.999
  698SOL    HW1 2993   5.265   5.813   3.965
  698SOL    HW2 2994   5.421   5.799   4.011
  699SOL     OW 2995   1.071   4.491   6.147
  699SOL    HW1 2996   1.055   4.541   6.232
  699SOL    HW2 2997   1.038   4.397   6.156
  700SOL     OW 2998   1.707   1.952   4.808
  700SOL    HW1 2999   1.640   1.881   4.786
  700SOL    HW2 3000   1.671   2.042   4.781
  701SOL     OW 3001   0.878   4.786   5.654
  701SOL    HW1 3002   0.902   4.711   5.716
  701SOL    HW2 3003   0.957   4.846   5.642
  702SOL     OW 3004   5.375   5.862   5.087
  702SOL    HW1 3005   5.456   5.813   5.056
  702SOL    HW2 3006   5.301   5.848   5.022
  703SOL     OW 3007   5.068   4.179   6.494
  703SOL    HW1 3008   4.979   4.221   6.512
  703SOL    HW2 3009   5.137   4.250   6.481
  704SOL     OW 3010   2.384   6.973   1.829
  704SOL    HW1 3011   2.323   6.925   1.766
  704SOL    HW2 3012   2.432   6.907   1.886
  705SOL     OW 3013   0.363   2.083   3.688
  705SOL    HW1 3014   0.459   2.063   3.710
  705SOL    HW2 3015   0.305   2.009   3.723
  706SOL     OW 3016   4.920   2.754   3.871
  706SOL    HW1 3017   4.874   2.789   3.953
  706SOL    HW2 3018   4.974   2.827   3.829
  707SOL     OW 3019   4.785   2.149   2.533
  707SOL    HW1 3020   4.768   2.161   2.435
  707SOL    HW2 3021   4.881   2.126   2.548
  708SOL     OW 3022   4.127   0.672   2.286
  708SOL    HW1 3023   4.133   0.656   2.384
  708SOL    HW2 3024   4.041   0.720   2.265
  709SOL     OW 3025   0.527   5.354   0.154
  709SOL    HW1 3026   0.447   5.374   0.210
  709SOL    HW2 3027   0.607   5.398   0.194
  710SOL     OW 3028   3.370   3.197   3.027
  710SOL    HW1 3029   3.343   3.274   3.084
  710SOL    HW2 3030   3.453   3.221   2.975
  711SOL     OW 3031   0.747   0.987   4.980
  711SOL    HW1 3032   0.696   0.976   5.065
  711SOL    HW2 3033   0.764   1.084   4.963
  712SOL     OW 3034   1.044   3.736   2.367
  712SOL    HW1 3035   1.086   3.653   2.404
  712SOL    HW2 3036   0.980   3.774   2.434
  713SOL     OW 3037   3.039   3.917   4.138
  713SOL    HW1 3038   3.116   3.978   4.157
  713SOL    HW2 3039   2.970   3.928   4.209
  714SOL     OW 3040   5.058   4.771   5.443
  714SOL    HW1 3041   5.031   4.808   5.354
  714SOL    HW2 3042   4.991   4.701   5.471
  715SOL     OW 3043   5.716   0.075   6.360
  715SOL    HW1 3044   5.710   0.143   6.287
  715SOL    HW2 3045   5.772   0.110   6.434
  716SOL     OW 3046   6.776   5.237   1.798
  716SOL    HW1 3047   6.677   5.243   1.810
  716SOL    HW2 3048   6.797   5.164   1.733
  717SOL     OW 3049   6.115   2.948   6.423
  717SOL    HW1 3050   6.147   2.891   6.499
  717SOL    HW2 3051   6.158   3.038   6.429
  718SOL     OW 3052   2.619   3.057   6.603
  718SOL    HW1 3053   2.577   3.017   6.522
  718SOL    HW2 3054   2.687   2.994   6.640
  719SOL     OW 3055   4.720   5.048   0.638
  719SOL    HW1 3056   4.757   4.955   0.643
  719SOL    HW2 3057   4.739   5.096   0.724
  720SOL     OW 3058   2.886   0.884   6.273
  720SOL    HW1 3059   2.860   0.788   6.287
  720SOL    HW2 3060   2.985   0.893   6.276
  721SOL     OW 3061   1.235   6.837   5.396
  721SOL    HW1 3062   1.183   6.917   5.424
  721SOL    HW2 3063   1.291   6.804   5.472
  722SOL     OW 3064   4.525   6.485   5.352
  722SOL    HW1 3065   4.558   6.472   5.446
  722SOL    HW2 3066   4.569   6.420   5.291
  723SOL     OW 3067   1.490   3.488   1.631
  723SOL    HW1 3068   1.501   3.394   1.599
  723SOL    HW2 3069   1.396   3.502   1.664
  724SOL     OW 3070   0.025   0.667   4.920
  724SOL    HW1 3071   0.026   0.620   5.008
  724SOL    HW2 3072   6.980   0.742   4.923
  725SOL     OW 3073   2.492   4.990   1.778
  725SOL    HW1 3074   2.589   4.994   1.802
  725SOL    HW2 3075   2.464   4.895   1.766
  726SOL     OW 3076   4.775   6.823   5.665
  726SOL    HW1 3077   4.703   6.753   5.661
  726SOL    HW2 3078   4.809   6.840   5.572
  727SOL     OW 3079   1.925   4.205   3.855
  727SOL    HW1 3080   1.926   4.304   3.849
  727SOL    HW2 3081   1.836   4.170   3.827
  728SOL     OW 3082   7.001   3.539   5.537
  728SOL    HW1 3083   6.927   3.546   5.603
  728SOL    HW2 3084   6.964   3.537   5.444
  729SOL     OW 3085   3.483   0.982   0.568
  729SOL    HW1 3086   3.581   0.965   0.561
  729SOL    HW2 3087   3.460   1.009   0.662
  730SOL     OW 3088   5.127   1.214   5.006
  730SOL    HW1 3089   5.177   1.301   5.008
  730SOL    HW2 3090   5.167   1.152   5.074
  731SOL     OW 3091   6.691   2.388   4.063
  731SOL    HW1 3092   6.616   2.325   4.086
  731SOL    HW2 3093   6.741   2.353   3.984
  732SOL     OW 3094   0.085   3.448   3.669
  732SOL    HW1 3095   0.145   3.497   3.606
  732SOL    HW2 3096   0.133   3.367   3.703
  733SOL     OW 3097   4.746   5.117   4.554
  733SOL    HW1 3098   4.806   5.040   4.532
  733SOL    HW2 3099   4.773   5.156   4.643
  734SOL     OW 3100   0.698   5.757   6.700
  734SOL    HW1 3101   0.623   5.695   6.723
  734SOL    HW2 3102   0.735   5.797   6.784
  735SOL     OW 3103   3.064   4.437   0.283
  735SOL    HW1 3104   3.125   4.494   0.339
  735SOL    HW2 3105   2.994   4.494   0.241
  736SOL     OW 3106   5.517   0.715   2.587
  736SOL    HW1 3107   5.468   0.797   2.555
  736SOL    HW2 3108   5.597   0.742   2.640
  737SOL     OW 3109   5.447   4.104   0.485
  737SOL    HW1 3110   5.353   4.068   0.488
  737SOL    HW2 3111   5.479   4.118   0.579
  738SOL     OW 3112   0.749   4.527   3.041
  738SOL    HW1 3113   0.653   4.522   3.013
  738SOL    HW2 3114   0.807   4.501   2.963
  739SOL     OW 3115   4.527   6.484   6.203
  739SOL    HW1 3116   4.581   6.441   6.130
  739SOL    HW2 3117   4.564   6.575   6.222
  740SOL     OW 3118   5.200   0.338   0.409
  740SOL    HW1 3119   5.250   0.410   0.361
  740SOL    HW2 3120   5.254   0.309   0.488
  741SOL     OW 3121   3.316   0.412   3.990
  741SOL    HW1 3122   3.243   0.351   4.022
  741SOL    HW2 3123   3.385   0.421   4.061
  742SOL     OW 3124   1.154   6.649   2.194
  742SOL    HW1 3125   1.185   6.740   2.166
  742SOL    HW2 3126   1.194   6.626   2.283
  743SOL     OW 3127   1.881   2.820   4.349
  743SOL    HW1 3128   1.845   2.729   4.327
  743SOL    HW2 3129   1.979   2.822   4.331
  744SOL     OW 3130   6.912   5.199   0.885
  744SOL    HW1 3131   6.944   5.293   0.893
  744SOL    HW2 3132   6.945   5.145   0.962
  745SOL     OW 3133   2.038   5.925   3.464
  745SOL    HW1 3134   2.034   6.018   3.501
  745SOL    HW2 3135   1.962   5.910   3.401
  746SOL     OW 3136   3.315   0.386   3.703
  746SOL    HW1 3137   3.285   0.451   3.633
  746SOL    HW2 3138   3.298   0.423   3.794
  747SOL     OW 3139   6.244   3.940   1.026
  747SOL    HW1 3140   6.298   3.873   0.976
  747SOL    HW2 3141   6.148   3.911   1.027
  748SOL     OW 3142   3.846   2.988   2.635
  748SOL    HW1 3143   3.761   2.940   2.616
  748SOL    HW2 3144   3.872   3.042   2.555
  749SOL     OW 3145   6.141   2.186   5.373
  749SOL    HW1 3146   6.196   2.225   5.299
  749SOL    HW2 3147   6.166   2.090   5.385
  750SOL     OW 3148   3.156   3.332   1.878
  750SOL    HW1 3149   3.183   3.399   1.809
  750SOL    HW2 3150   3.235   3.277   1.905
  751SOL     OW 3151   5.551   1.128   0.624
  751SOL    HW1 3152   5.556   1.208   0.684
  751SOL    HW2 3153   5.634   1.073   0.636
  752SOL     OW 3154   4.498   1.085   1.822
  752SOL    HW1 3155   4.592   1.058   1.840
  752SOL    HW2 3156   4.474   1.060   1.728
  753SOL     OW 3157   2.659   1.294   2.948
  753SOL    HW1 3158   2.755   1.279   2.924
  753SOL    HW2 3159   2.621   1.211   2.988
  754SOL     OW 3160   4.977   5.663   0.194
  754SOL    HW1 3161   4.912   5.604   0.241
  754SOL    HW2 3162   4.932   5.709   0.117
  755SOL     OW 3163   6.663   5.688   2.984
  755SOL    HW1 3164   6.674   5.593   2.955
  755SOL    HW2 3165   6.723   5.706   3.062
  756SOL     OW 3166   3.513   6.198   3.994
  756SOL    HW1 3167   3.428   6.164   4.036
  756SOL    HW2 3168   3.507   6.190   3.895
  757SOL     OW 3169   6.484   1.235   4.303
  757SOL    HW1 3170   6.577   1.197   4.296
  757SOL    HW2 3171   6.423   1.187   4.241
  758SOL     OW 3172   4.415   2.129   1.438
  758SOL    HW1 3173   4.351   2.088   1.503
  758SOL    HW2 3174   4.508   2.096   1.458
  759SOL     OW 3175   1.703   0.751   0.979
  759SOL    HW1 3176   1.762   0.673   1.002
  759SOL    HW2 3177   1.746   0.836   1.010
  760SOL     OW 3178   4.407   2.362   5.939
  760SOL    HW1 3179   4.406   2.268   5.973
  760SOL    HW2 3180   4.316   2.386   5.903
  761SOL     OW 3181   5.311   1.724   6.568
  761SOL    HW1 3182   5.316   1.649   6.634
  761SOL    HW2 3183   5.388   1.718   6.505
  762SOL     OW 3184   2.071   4.937   4.342
  762SOL    HW1 3185   2.116   4.853   4.312
  762SOL    HW2 3186   2.099   4.959   4.435
  763SOL     OW 3187   6.015   5.102   6.992
  763SOL    HW1 3188   5.988   5.166   0.043
  763SOL    HW2 3189   6.068   5.027   0.011
  764SOL     OW 3190   5.022   0.925   2.624
  764SOL    HW1 3191   5.101   0.975   2.662
  764SOL    HW2 3192   5.052   0.836   2.590
  765SOL     OW 3193   6.664   6.836   3.297
  765SOL    HW1 3194   6.652   6.933   3.276
  765SOL    HW2 3195   6.718   6.825   3.380
  766SOL     OW 3196   0.138   6.435   0.337
  766SOL    HW1 3197   0.040   6.438   0.360
  766SOL    HW2 3198   0.185   6.510   0.382
  767SOL     OW 3199   5.914   6.779   1.158
  767SOL    HW1 3200   5.861   6.709   1.207
  767SOL    HW2 3201   5.990   6.736   1.110
  768SOL     OW 3202   3.357   6.765   3.888
  768SOL    HW1 3203   3.380   6.727   3.979
  768SOL    HW2 3204   3.317   6.856   3.899
  769SOL     OW 3205   3.221   0.694   0.147
  769SOL    HW1 3206   3.197   0.608   0.101
  769SOL    HW2 3207   3.320   0.707   0.145
  770SOL     OW 3208   2.958   4.844   3.866
  770SOL    HW1 3209   3.014   4.888   3.795
  770SOL    HW2 3210   2.985   4.879   3.956
  771SOL     OW 3211   0.762   5.437   4.550
  771SOL    HW1 3212   0.738   5.517   4.496
  771SOL    HW2 3213   0.787   5.466   4.643
  772SOL     OW 3214   6.970   4.628   5.279
  772SOL    HW1 3215   6.982   4.541   5.326
  772SOL    HW2 3216   0.007   4.631   5.198
  773SOL     OW 3217   0.092   3.325   1.988
  773SOL    HW1 3218   0.065   3.241   1.941
  773SOL    HW2 3219   0.016   3.389   1.989
  774SOL     OW 3220   1.181   1.353   1.564
  774SOL    HW1 3221   1.156   1.299   1.645
  774SOL    HW2 3222   1.279   1.344   1.547
  775SOL     OW 3223   1.250   2.681   4.538
  775SOL    HW1 3224   1.245   2.659   4.441
  775SOL    HW2 3225   1.327   2.633   4.579
  776SOL     OW 3226   2.309   7.010   5.526
  776SOL    HW1 3227   2.384   6.969   5.474
  776SOL    HW2 3228   2.289   6.953   5.606
  777SOL     OW 3229   4.421   0.195   0.616
  777SOL    HW1 3230   4.348   0.127   0.621
  777SOL    HW2 3231   4.472   0.195   0.703
  778SOL     OW 3232   4.186   5.619   4.833
  778SOL    HW1 3233   4.242   5.674   4.894
  778SOL    HW2 3234   4.089   5.631   4.857
  779SOL     OW 3235   1.169   0.205   2.920
  779SOL    HW1 3236   1.259   0.242   2.941
  779SOL    HW2 3237   1.169   0.106   2.934
  780SOL     OW 3238   5.064   3.499   5.123
  780SOL    HW1 3239   5.140   3.499   5.188
  780SOL    HW2 3240   5.077   3.425   5.057
  781SOL     OW 3241   0.814   2.256   6.470
  781SOL    HW1 3242   0.838   2.334   6.413
  781SOL    HW2 3243   0.892   2.194   6.477
  782SOL     OW 3244   0.355   4.160   0.302
  782SOL    HW1 3245   0.453   4.160   0.324
  782SOL    HW2 3246   0.315   4.071   0.325
  783SOL     OW 3247   2.525   4.264   7.013
  783SOL    HW1 3248   2.472   4.348   7.020
  783SOL    HW2 3249   2.521   4.230   6.919
  784SOL     OW 3250   4.972   5.468   3.702
  784SOL    HW1 3251   5.009   5.561   3.705
  784SOL    HW2 3252   4.882   5.466   3.746
  785SOL     OW 3253   6.123   1.934   4.161
  785SOL    HW1 3254   6.160   1.847   4.194
  785SOL    HW2 3255   6.117   1.931   4.061
  786SOL     OW 3256   6.456   6.675   0.411
  786SOL    HW1 3257   6.380   6.738   0.425
  786SOL    HW2 3258   6.541   6.727   0.399
  787SOL     OW 3259   4.686   1.233   6.897
  787SOL    HW1 3260   4.632   1.304   6.851
  787SOL    HW2 3261   4.627   1.156   6.922
  788SOL     OW 3262   0.767   4.261   3.110
  788SOL    HW1 3263   0.827   4.233   3.036
  788SOL    HW2 3264   0.752   4.360   3.105
  789SOL     OW 3265   5.492   3.354   1.184
  789SOL    HW1 3266   5.560   3.382   1.116
  789SOL    HW2 3267   5.455   3.265   1.160
  790SOL     OW 3268   4.000   0.645   3.802
  790SOL    HW1 3269   3.930   0.661   3.872
  790SOL    HW2 3270   4.075   0.594   3.841
  791SOL     OW 3271   3.903   1.551   4.794
  791SOL    HW1 3272   3.849   1.519   4.716
  791SOL    HW2 3273   3.888   1.649   4.807
  792SOL     OW 3274   5.060   0.264   3.995
  792SOL    HW1 3275   5.050   0.235   4.090
  792SOL    HW2 3276   5.070   0.183   3.936
  793SOL     OW 3277   0.123   0.002   6.561
  793SOL    HW1 3278   0.195   6.953   6.554
  793SOL    HW2 3279   0.037   6.983   6.530
  794SOL     OW 3280   3.863   4.992   4.755
  794SOL    HW1 3281   3.843   4.984   4.853
  794SOL    HW2 3282   3.875   4.901   4.716
  795SOL     OW 3283   4.988   5.189   6.620
  795SOL    HW1 3284   5.054   5.205   6.547
  795SOL    HW2 3285   4.953   5.277   6.653
  796SOL     OW 3286   0.260   1.978   5.568
  796SOL    HW1 3287   0.343   2.019   5.606
  796SOL    HW2 3288   0.285   1.904   5.505
  797SOL     OW 3289   6.131   2.537   5.315
  797SOL    HW1 3290   6.201   2.487   5.263
  797SOL    HW2 3291   6.154   2.533   5.413
  798SOL     OW 3292   6.606   0.592   5.052
  798SOL    HW1 3293   6.554   0.558   5.131
  798SOL    HW2 3294   6.585   0.689   5.038
  799SOL     OW 3295   6.619   3.553   3.765
  799SOL    HW1 3296   6.690   3.493   3.801
  799SOL    HW2 3297   6.628   3.560   3.666
  800SOL     OW 3298   6.615   1.460   1.722
  800SOL    HW1 3299   6.708   1.425   1.709
  800SOL    HW2 3300   6.577   1.486   1.633
  801SOL     OW 3301   0.723   1.911   3.537
  801SOL    HW1 3302   0.706   1.969   3.617
  801SOL    HW2 3303   0.751   1.969   3.460
  802SOL     OW 3304   5.959   1.309   1.188
  802SOL    HW1 3305   5.922   1.229   1.236
  802SOL    HW2 3306   5.950   1.390   1.246
  803SOL     OW 3307   1.590   0.222   4.783
  803SOL    HW1 3308   1.567   0.205   4.687
  803SOL    HW2 3309   1.523   0.177   4.842
  804SOL     OW 3310   6.820   6.491   0.915
  804SOL    HW1 3311   6.728   6.468   0.882
  804SOL    HW2 3312   6.836   6.445   1.002
  805SOL     OW 3313   1.201   3.063   5.650
  805SOL    HW1 3314   1.279   3.050   5.589
  805SOL    HW2 3315   1.117   3.069   5.596
  806SOL     OW 3316   4.957   0.537   0.684
  806SOL    HW1 3317   4.919   0.502   0.598
  806SOL    HW2 3318   4.915   0.490   0.761
  807SOL     OW 3319   1.163   6.734   2.766
  807SOL    HW1 3320   1.124   6.821   2.736
  807SOL    HW2 3321   1.262   6.735   2.752
  808SOL     OW 3322   6.070   3.602   5.052
  808SOL    HW1 3323   6.089   3.509   5.019
  808SOL    HW2 3324   5.995   3.599   5.117
  809SOL     OW 3325   0.843   5.546   6.085
  809SOL    HW1 3326   0.821   5.470   6.023
  809SOL    HW2 3327   0.795   5.533   6.171
  810SOL     OW 3328   6.534   4.970   6.490
  810SOL    HW1 3329   6.581   5.059   6.490
  810SOL    HW2 3330   6.446   4.978   6.443
  811SOL     OW 3331   4.310   5.159   3.272
  811SOL    HW1 3332   4.233   5.127   3.216
  811SOL    HW2 3333   4.337   5.086   3.335
  812SOL     OW 3334   0.239   0.454   2.431
  812SOL    HW1 3335   0.281   0.465   2.341
  812SOL    HW2 3336   0.263   0.365   2.469
  813SOL     OW 3337   5.787   5.703   2.114
  813SOL    HW1 3338   5.861   5.694   2.181
  813SOL    HW2 3339   5.701   5.719   2.161
  814SOL     OW 3340   5.461   5.692   1.409
  814SOL    HW1 3341   5.458   5.770   1.472
  814SOL    HW2 3342   5.509   5.616   1.452
  815SOL     OW 3343   0.545   1.173   0.220
  815SOL    HW1 3344   0.578   1.266   0.203
  815SOL    HW2 3345   0.448   1.175   0.243
  816SOL     OW 3346   5.666   0.308   0.908
  816SOL    HW1 3347   5.655   0.210   0.924
  816SOL    HW2 3348   5.731   0.323   0.835
  817SOL     OW 3349   0.471   2.082   1.489
  817SOL    HW1 3350   0.464   2.044   1.582
  817SOL    HW2 3351   0.392   2.053   1.436
  818SOL     OW 3352   5.716   1.346   2.748
  818SOL    HW1 3353   5.670   1.417   2.694
  818SOL    HW2 3354   5.808   1.330   2.712
  819SOL     OW 3355   0.172   5.260   2.305
  819SOL    HW1 3356   0.255   5.230   2.257
  819SOL    HW2 3357   0.156   5.356   2.285
  820SOL     OW 3358   1.539   2.888   4.520
  820SOL    HW1 3359   1.581   2.975   4.548
  820SOL    HW2 3360   1.458   2.871   4.576
  821SOL     OW 3361   1.233   4.017   0.189
  821SOL    HW1 3362   1.269   3.930   0.222
  821SOL    HW2 3363   1.133   4.016   0.199
  822SOL     OW 3364   1.328   3.682   4.699
  822SOL    HW1 3365   1.336   3.674   4.600
  822SOL    HW2 3366   1.231   3.680   4.724
  823SOL     OW 3367   3.677   3.372   1.338
  823SOL    HW1 3368   3.703   3.427   1.417
  823SOL    HW2 3369   3.729   3.287   1.338
  824SOL     OW 3370   6.053   2.555   5.945
  824SOL    HW1 3371   5.989   2.516   6.011
  824SOL    HW2 3372   6.033   2.652   5.932
  825SOL     OW 3373   1.130   3.852   1.907
  825SOL    HW1 3374   1.116   3.880   1.812
  825SOL    HW2 3375   1.182   3.923   1.955
  826SOL     OW 3376   1.200   4.386   5.668
  826SOL    HW1 3377   1.165   4.309   5.722
  826SOL    HW2 3378   1.146   4.394   5.584
  827SOL     OW 3379   3.755   5.368   0.871
  827SOL    HW1 3380   3.788   5.453   0.913
  827SOL    HW2 3381   3.657   5.359   0.888
  828SOL     OW 3382   6.400   0.254   5.672
  828SOL    HW1 3383   6.422   0.162   5.639
  828SOL    HW2 3384   6.484   0.309   5.676
  829SOL     OW 3385   3.472   3.014   4.777
  829SOL    HW1 3386   3.508   3.002   4.684
  829SOL    HW2 3387   3.527   2.960   4.841
  830SOL     OW 3388   4.294   3.719   6.226
  830SOL    HW1 3389   4.268   3.729   6.130
  830SOL    HW2 3390   4.328   3.627   6.242
  831SOL     OW 3391   6.314   6.931   4.596
  831SOL    HW1 3392   6.254   6.933   4.676
  831SOL    HW2 3393   6.259   6.944   4.513
  832SOL     OW 3394   2.572   1.614   5.582
  832SOL    HW1 3395   2.624   1.602   5.667
  832SOL    HW2 3396   2.475   1.621   5.603
  833SOL     OW 3397   0.845   0.289   5.618
  833SOL    HW1 3398   0.887   0.247   5.699
  833SOL    HW2 3399   0.906   0.360   5.583
  834SOL     OW 3400   3.381   4.742   5.686
  834SOL    HW1 3401   3.297   4.731   5.738
  834SOL    HW2 3402   3.455   4.770   5.747
  835SOL     OW 3403   4.699   0.927   3.061
  835SOL    HW1 3404   4.707   0.881   3.149
  835SOL    HW2 3405   4.757   0.881   2.993
  836SOL     OW 3406   2.514   0.627   6.910
  836SOL    HW1 3407   2.481   0.575   6.831
  836SOL    HW2 3408   2.589   0.686   6.881
  837SOL     OW 3409   4.288   1.402   4.893
  837SOL    HW1 3410   4.241   1.363   4.814
  837SOL    HW2 3411   4.278   1.342   4.972
  838SOL     OW 3412   0.807   5.437   2.751
  838SOL    HW1 3413   0.722   5.472   2.792
  838SOL    HW2 3414   0.798   5.338   2.738
  839SOL     OW 3415   3.460   1.114   1.560
  839SOL    HW1 3416   3.417   1.032   1.598
  839SOL    HW2 3417   3.421   1.195   1.602
  840SOL     OW 3418   0.539   1.469   5.743
  840SOL    HW1 3419   0.554   1.553   5.691
  840SOL    HW2 3420   0.588   1.475   5.830
  841SOL     OW 3421   0.662   3.569   0.500
  841SOL    HW1 3422   0.623   3.565   0.407
  841SOL    HW2 3423   0.730   3.496   0.510
  842SOL     OW 3424   3.481   5.164   3.663
  842SOL    HW1 3425   3.384   5.187   3.654
  842SOL    HW2 3426   3.517   5.204   3.747
  843SOL     OW 3427   0.042   4.170   2.174
  843SOL    HW1 3428   7.013   4.192   2.258
  843SOL    HW2 3429   0.032   4.246   2.109
  844SOL     OW 3430   5.634   5.454   6.777
  844SOL    HW1 3431   5.678   5.365   6.792
  844SOL    HW2 3432   5.558   5.465   6.841
  845SOL     OW 3433   1.700   5.399   4.959
  845SOL    HW1 3434   1.680   5.496   4.944
  845SOL    HW2 3435   1.690   5.378   5.056
  846SOL     OW 3436   4.786   3.255   6.911
  846SOL    HW1 3437   4.795   3.256   7.010
  846SOL    HW2 3438   4.876   3.272   6.869
  847SOL     OW 3439   5.085   4.020   2.102
  847SOL    HW1 3440   5.097   4.117   2.083
  847SOL    HW2 3441   5.172   3.980   2.130
  848SOL     OW 3442   6.218   0.390   5.129
  848SOL    HW1 3443   6.290   0.362   5.193
  848SOL    HW2 3444   6.217   0.490   5.123
  849SOL     OW 3445   0.676   5.968   4.121
  849SOL    HW1 3446   0.706   6.011   4.206
  849SOL    HW2 3447   0.741   5.897   4.095
  850SOL     OW 3448   4.093   0.458   3.494
  850SOL    HW1 3449   4.078   0.553   3.522
  850SOL    HW2 3450   4.064   0.446   3.399
  851SOL     OW 3451   0.320   0.690   5.459
  851SOL    HW1 3452   0.321   0.740   5.372
  851SOL    HW2 3453   0.242   0.628   5.461
  852SOL     OW 3454   2.578   4.644   5.719
  852SOL    HW1 3455   2.515   4.583   5.768
  852SOL    HW2 3456   2.528   4.726   5.689
  853SOL     OW 3457   1.246   3.915   0.548
  853SOL    HW1 3458   1.329   3.865   0.572
  853SOL    HW2 3459   1.167   3.853   0.553
  854SOL     OW 3460   6.484   4.966   1.432
  854SOL    HW1 3461   6.572   4.939   1.471
  854SOL    HW2 3462   6.422   4.889   1.433
  855SOL     OW 3463   5.307   0.871   0.765
  855SOL    HW1 3464   5.283   0.801   0.698
  855SOL    HW2 3465   5.282   0.961   0.730
  856SOL     OW 3466   1.129   0.896   4.690
  856SOL    HW1 3467   1.105   0.915   4.785
  856SOL    HW2 3468   1.211   0.948   4.666
  857SOL     OW 3469   5.987   3.700   1.592
  857SOL    HW1 3470   5.959   3.654   1.508
  857SOL    HW2 3471   5.936   3.663   1.669
  858SOL     OW 3472   3.650   3.332   1.871
  858SOL    HW1 3473   3.698   3.252   1.836
  858SOL    HW2 3474   3.716   3.392   1.917
  859SOL     OW 3475   6.661   4.546   1.083
  859SOL    HW1 3476   6.590   4.535   1.014
  859SOL    HW2 3477   6.733   4.478   1.067
  860SOL     OW 3478   1.664   4.452   0.136
  860SOL    HW1 3479   1.742   4.403   0.096
  860SOL    HW2 3480   1.579   4.413   0.102
  861SOL     OW 3481   3.317   4.200   5.803
  861SOL    HW1 3482   3.383   4.235   5.869
  861SOL    HW2 3483   3.283   4.111   5.834
  862SOL     OW 3484   4.882   4.276   3.294
  862SOL    HW1 3485   4.784   4.289   3.313
  862SOL    HW2 3486   4.936   4.335   3.353
  863SOL     OW 3487   5.988   2.040   0.828
  863SOL    HW1 3488   5.900   2.059   0.873
  863SOL    HW2 3489   6.029   1.958   0.869
  864SOL     OW 3490   6.666   4.874   2.754
  864SOL    HW1 3491   6.580   4.874   2.703
  864SOL    HW2 3492   6.667   4.950   2.818
  865SOL     OW 3493   2.023   0.724   3.991
  865SOL    HW1 3494   2.068   0.812   4.000
  865SOL    HW2 3495   2.043   0.685   3.901
  866SOL     OW 3496   4.356   1.370   0.905
  866SOL    HW1 3497   4.294   1.292   0.892
  866SOL    HW2 3498   4.309   1.441   0.957
  867SOL     OW 3499   2.324   1.802   6.452
  867SOL    HW1 3500   2.404   1.847   6.493
  867SOL    HW2 3501   2.348   1.767   6.362
  868SOL     OW 3502   5.639   2.377   3.421
  868SOL    HW1 3503   5.586   2.384   3.336
  868SOL    HW2 3504   5.664   2.469   3.451
  869SOL     OW 3505   6.676   4.072   1.470
  869SOL    HW1 3506   6.655   3.993   1.413
  869SOL    HW2 3507   6.765   4.110   1.443
  870SOL     OW 3508   6.450   2.345   0.227
  870SOL    HW1 3509   6.480   2.398   0.148
  870SOL    HW2 3510   6.422   2.253   0.197
  871SOL     OW 3511   5.734   4.115   0.697
  871SOL    HW1 3512   5.831   4.103   0.676
  871SOL    HW2 3513   5.702   4.040   0.755
  872SOL     OW 3514   6.610   1.921   2.142
  872SOL    HW1 3515   6.660   1.838   2.115
  872SOL    HW2 3516   6.522   1.896   2.183
  873SOL     OW 3517   3.534   6.314   5.140
  873SOL    HW1 3518   3.545   6.217   5.162
  873SOL    HW2 3519   3.562   6.330   5.045
  874SOL     OW 3520   0.264   4.303   6.799
  874SOL    HW1 3521   0.300   4.385   6.756
  874SOL    HW2 3522   0.335   4.233   6.802
  875SOL     OW 3523   6.220   5.283   6.454
  875SOL    HW1 3524   6.278   5.235   6.520
  875SOL    HW2 3525   6.135   5.311   6.498
  876SOL     OW 3526   1.451   2.134   0.741
  876SOL    HW1 3527   1.458   2.100   0.647
  876SOL    HW2 3528   1.376   2.088   0.787
  877SOL     OW 3529   5.117   5.887   0.219
  877SOL    HW1 3530   5.119   5.941   0.136
  877SOL    HW2 3531   5.069   5.800   0.202
  878SOL     OW 3532   3.559   2.525   0.784
  878SOL    HW1 3533   3.503   2.549   0.705
  878SOL    HW2 3534   3.542   2.589   0.859
  879SOL     OW 3535   4.566   2.196   2.721
  879SOL    HW1 3536   4.572   2.133   2.799
  879SOL    HW2 3537   4.600   2.150   2.639
  880SOL     OW 3538   4.628   5.479   1.983
  880SOL    HW1 3539   4.720   5.449   1.957
  880SOL    HW2 3540   4.607   5.565   1.935
  881SOL     OW 3541   5.013   4.931   3.428
  881SOL    HW1 3542   5.047   4.925   3.334
  881SOL    HW2 3543   4.998   5.027   3.453
  882SOL     OW 3544   0.858   1.892   4.508
  882SOL    HW1 3545   0.922   1.842   4.449
  882SOL    HW2 3546   0.769   1.899   4.462
  883SOL     OW 3547   3.327   4.849   0.289
  883SOL    HW1 3548   3.244   4.829   0.236
  883SOL    HW2 3549   3.374   4.926   0.248
  884SOL     OW 3550   3.953   3.846   1.860
  884SOL    HW1 3551   3.896   3.905   1.918
  884SOL    HW2 3552   3.903   3.824   1.776
  885SOL     OW 3553   4.620   6.357   5.619
  885SOL    HW1 3554   4.573   6.313   5.696
  885SOL    HW2 3555   4.671   6.287   5.567
  886SOL     OW 3556   4.058   2.035   6.430
  886SOL    HW1 3557   4.119   2.110   6.406
  886SOL    HW2 3558   3.963   2.067   6.432
  887SOL     OW 3559   5.667   6.565   5.328
  887SOL    HW1 3560   5.632   6.622   5.401
  887SOL    HW2 3561   5.597   6.554   5.257
  888SOL     OW 3562   6.144   6.860   3.070
  888SOL    HW1 3563   6.087   6.930   3.113
  888SOL    HW2 3564   6.174   6.794   3.139
  889SOL     OW 3565   1.037   0.089   4.382
  889SOL    HW1 3566   1.012   0.171   4.330
  889SOL    HW2 3567   0.955   0.044   4.415
  890SOL     OW 3568   1.662   4.458   1.850
  890SOL    HW1 3569   1.626   4.552   1.855
  890SOL    HW2 3570   1.759   4.458   1.875
  891SOL     OW 3571   5.619   3.797   6.209
  891SOL    HW1 3572   5.661   3.805   6.119
  891SOL    HW2 3573   5.542   3.735   6.204
  892SOL     OW 3574   1.872   5.127   1.866
  892SOL    HW1 3575   1.821   5.057   1.915
  892SOL    HW2 3576   1.907   5.194   1.931
  893SOL     OW 3577   1.904   6.879   1.983
  893SOL    HW1 3578   1.943   6.971   1.995
  893SOL    HW2 3579   1.972   6.820   1.938
  894SOL     OW 3580   1.587   5.638   4.278
  894SOL    HW1 3581   1.604   5.584   4.360
  894SOL    HW2 3582   1.555   5.578   4.205
  895SOL     OW 3583   2.400   0.851   4.353
  895SOL    HW1 3584   2.318   0.879   4.302
  895SOL    HW2 3585   2.376   0.781   4.419
  896SOL     OW 3586   5.411   7.009   3.669
  896SOL    HW1 3587   5.500   0.033   3.659
  896SOL    HW2 3588   5.341   0.058   3.687
  897SOL     OW 3589   5.430   1.424   6.079
  897SOL    HW1 3590   5.417   1.523   6.090
  897SOL    HW2 3591   5.354   1.376   6.123
  898SOL     OW 3592   5.648   6.833   4.014
  898SOL    HW1 3593   5.559   6.798   3.987
  898SOL    HW2 3594   5.709   6.757   4.038
  899SOL     OW 3595   1.476   4.339   6.817
  899SOL    HW1 3596   1.401   4.351   6.882
  899SOL    HW2 3597   1.553   4.295   6.862
  900SOL     OW 3598   0.425   5.668   3.630
  900SOL    HW1 3599   0.481   5.669   3.547
  900SOL    HW2 3600   0.483   5.651   3.709
  901SOL     OW 3601   5.486   1.873   3.527
  901SOL    HW1 3602   5.513   1.875   3.623
  901SOL    HW2 3603   5.402   1.819   3.517
  902SOL     OW 3604   1.197   6.567   0.176
  902SOL    HW1 3605   1.243   6.640   0.125
  902SOL    HW2 3606   1.225   6.479   0.139
  903SOL     OW 3607   0.867   5.057   6.680
  903SOL    HW1 3608   0.900   5.147   6.653
  903SOL    HW2 3609   0.806   5.021   6.609
  904SOL     OW 3610   1.846   0.954   4.139
  904SOL    HW1 3611   1.763   0.944   4.194
  904SOL    HW2 3612   1.827   1.014   4.061
  905SOL     OW 3613   6.053   2.031   4.625
  905SOL    HW1 3614   6.109   2.024   4.707
  905SOL    HW2 3615   5.977   2.094   4.641
  906SOL     OW 3616   6.381   4.259   5.492
  906SOL    HW1 3617   6.437   4.301   5.421
  906SOL    HW2 3618   6.347   4.330   5.554
  907SOL     OW 3619   0.252   3.354   2.208
  907SOL    HW1 3620   0.204   3.334   2.122
  907SOL    HW2 3621   0.276   3.267   2.253
  908SOL     OW 3622   2.980   0.841   3.520
  908SOL    HW1 3623   2.908   0.836   3.589
  908SOL    HW2 3624   2.950   0.796   3.437
  909SOL     OW 3625   3.926   6.692   1.439
  909SOL    HW1 3626   3.900   6.662   1.530
  909SOL    HW2 3627   3.922   6.615   1.376
  910SOL     OW 3628   1.543   1.273   2.100
  910SOL    HW1 3629   1.603   1.203   2.138
  910SOL    HW2 3630   1.551   1.356   2.154
  911SOL     OW 3631   0.525   3.387   0.925
  911SOL    HW1 3632   0.616   3.393   0.883
  911SOL    HW2 3633   0.483   3.299   0.901
  912SOL     OW 3634   0.927   0.580   6.406
  912SOL    HW1 3635   0.935   0.485   6.437
  912SOL    HW2 3636   0.932   0.641   6.485
  913SOL     OW 3637   1.954   1.183   2.448
  913SOL    HW1 3638   1.971   1.156   2.353
  913SOL    HW2 3639   1.905   1.270   2.450
  914SOL     OW 3640   3.094   5.838   1.847
  914SOL    HW1 3641   3.127   5.746   1.869
  914SOL    HW2 3642   2.996   5.833   1.827
  915SOL     OW 3643   1.878   2.507   0.443
  915SOL    HW1 3644   1.781   2.480   0.445
  915SOL    HW2 3645   1.921   2.468   0.362
  916SOL     OW 3646   1.366   3.200   2.336
  916SOL    HW1 3647   1.450   3.179   2.286
  916SOL    HW2 3648   1.287   3.162   2.288
  917SOL     OW 3649   3.966   1.235   6.264
  917SOL    HW1 3650   4.039   1.298   6.240
  917SOL    HW2 3651   3.939   1.249   6.359
  918SOL     OW 3652   0.307   1.953   4.652
  918SOL    HW1 3653   0.291   1.966   4.554
  918SOL    HW2 3654   0.351   1.865   4.667
  919SOL     OW 3655   1.814   0.284   0.983
  919SOL    HW1 3656   1.828   0.202   1.038
  919SOL    HW2 3657   1.721   0.319   0.999
  920SOL     OW 3658   1.695   0.865   2.845
  920SOL    HW1 3659   1.634   0.942   2.825
  920SOL    HW2 3660   1.675   0.789   2.784
  921SOL     OW 3661   4.045   3.907   0.522
  921SOL    HW1 3662   4.011   3.836   0.583
  921SOL    HW2 3663   4.099   3.866   0.449
  922SOL     OW 3664   2.448   5.436   0.006
  922SOL    HW1 3665   2.514   5.397   6.963
  922SOL    HW2 3666   2.388   5.363   0.041
  923SOL     OW 3667   4.182   1.469   6.926
  923SOL    HW1 3668   4.101   1.468   6.867
  923SOL    HW2 3669   4.185   1.386   6.981
  924SOL     OW 3670   6.453   5.179   2.750
  924SOL    HW1 3671   6.413   5.177   2.658
  924SOL    HW2 3672   6.385   5.149   2.816
  925SOL     OW 3673   6.904   1.499   2.829
  925SOL    HW1 3674   6.841   1.427   2.800
  925SOL    HW2 3675   6.993   1.458   2.851
  926SOL     OW 3676   3.821   6.063   1.377
  926SOL    HW1 3677   3.742   6.113   1.412
  926SOL    HW2 3678   3.875   6.029   1.454
  927SOL     OW 3679   4.372   5.498   5.144
  927SOL    HW1 3680   4.320   5.580   5.121
  927SOL    HW2 3681   4.317   5.439   5.204
  928SOL     OW 3682   0.095   1.557   1.292
  928SOL    HW1 3683   0.028   1.569   1.366
  928SOL    HW2 3684   0.096   1.461   1.264
  929SOL     OW 3685   0.006   2.029   2.147
  929SOL    HW1 3686   0.030   2.126   2.144
  929SOL    HW2 3687   6.984   2.003   2.060
  930SOL     OW 3688   6.088   5.414   2.224
  930SOL    HW1 3689   6.185   5.433   2.208
  930SOL    HW2 3690   6.034   5.497   2.210
  931SOL     OW 3691   1.300   2.632   2.098
  931SOL    HW1 3692   1.342   2.700   2.157
  931SOL    HW2 3693   1.203   2.623   2.122
  932SOL     OW 3694   4.203   5.961   1.322
  932SOL    HW1 3695   4.163   5.877   1.286
  932SOL    HW2 3696   4.167   5.979   1.414
  933SOL     OW 3697   1.217   6.845   3.409
  933SOL    HW1 3698   1.259   6.761   3.442
  933SOL    HW2 3699   1.236   6.920   3.472
  934SOL     OW 3700   3.206   0.961   5.481
  934SOL    HW1 3701   3.299   0.990   5.506
  934SOL    HW2 3702   3.158   1.038   5.439
  935SOL     OW 3703   1.499   3.493   4.769
  935SOL    HW1 3704   1.573   3.485   4.702
  935SOL    HW2 3705   1.447   3.576   4.752
  936SOL     OW 3706   0.764   1.988   1.421
  936SOL    HW1 3707   0.819   2.066   1.450
  936SOL    HW2 3708   0.676   2.021   1.385
  937SOL     OW 3709   5.223   2.096   3.514
  937SOL    HW1 3710   5.293   2.137   3.456
  937SOL    HW2 3711   5.168   2.168   3.556
  938SOL     OW 3712   0.341   1.100   6.600
  938SOL    HW1 3713   0.343   1.004   6.625
  938SOL    HW2 3714   0.390   1.154   6.668
  939SOL     OW 3715   6.456   1.070   5.632
  939SOL    HW1 3716   6.384   1.020   5.681
  939SOL    HW2 3717   6.535   1.082   5.692
  940SOL     OW 3718   0.015   0.395   4.390
  940SOL    HW1 3719   7.019   0.486   4.352
  940SOL    HW2 3720   0.113   0.384   4.410
  941SOL     OW 3721   5.876   2.565   5.409
  941SOL    HW1 3722   5.964   2.542   5.367
  941SOL    HW2 3723   5.823   2.621   5.346
  942SOL     OW 3724   4.625   0.562   4.940
  942SOL    HW1 3725   4.610   0.599   4.848
  942SOL    HW2 3726   4.548   0.504   4.965
  943SOL     OW 3727   5.202   2.195   0.425
  943SOL    HW1 3728   5.185   2.289   0.396
  943SOL    HW2 3729   5.141   2.132   0.377
  944SOL     OW 3730   4.808   4.114   4.685
  944SOL    HW1 3731   4.765   4.135   4.773
  944SOL    HW2 3732   4.907   4.106   4.697
  945SOL     OW 3733   5.627   3.388   6.344
  945SOL    HW1 3734   5.543   3.368   6.294
  945SOL    HW2 3735   5.684   3.451   6.291
  946SOL     OW 3736   5.892   3.786   6.694
  946SOL    HW1 3737   5.858   3.808   6.603
  946SOL    HW2 3738   5.886   3.868   6.752
  947SOL     OW 3739   0.691   2.441   5.702
  947SOL    HW1 3740   0.771   2.387   5.730
  947SOL    HW2 3741   0.702   2.468   5.606
  948SOL     OW 3742   3.956   1.591   0.420
  948SOL    HW1 3743   3.858   1.572   0.425
  948SOL    HW2 3744   3.993   1.551   0.336
  949SOL     OW 3745   5.321   6.063   6.458
  949SOL    HW1 3746   5.356   5.970   6.462
  949SOL    HW2 3747   5.344   6.104   6.370
  950SOL     OW 3748   3.789   5.465   1.290
  950SOL    HW1 3749   3.773   5.492   1.385
  950SOL    HW2 3750   3.758   5.539   1.229
  951SOL     OW 3751   1.206   2.810   3.633
  951SOL    HW1 3752   1.179   2.722   3.671
  951SOL    HW2 3753   1.188   2.882   3.700
  952SOL     OW 3754   4.812   1.748   1.502
  952SOL    HW1 3755   4.715   1.724   1.497
  952SOL    HW2 3756   4.851   1.746   1.410
  953SOL     OW 3757   3.988   6.496   5.921
  953SOL    HW1 3758   4.017   6.400   5.925
  953SOL    HW2 3759   3.941   6.513   5.834
  954SOL     OW 3760   6.551   0.787   1.741
  954SOL    HW1 3761   6.505   0.715   1.689
  954SOL    HW2 3762   6.503   0.800   1.828
  955SOL     OW 3763   0.776   6.227   2.551
  955SOL    HW1 3764   0.814   6.272   2.632
  955SOL    HW2 3765   0.848   6.218   2.482
  956SOL     OW 3766   1.478   2.809   0.762
  956SOL    HW1 3767   1.507   2.720   0.799
  956SOL    HW2 3768   1.520   2.882   0.815
  957SOL     OW 3769   2.083   6.498   4.902
  957SOL    HW1 3770   2.081   6.444   4.818
  957SOL    HW2 3771   1.991   6.506   4.939
  958SOL     OW 3772   4.824   2.929   6.990
  958SOL    HW1 3773   4.803   3.012   6.939
  958SOL    HW2 3774   4.915   2.897   6.966
  959SOL     OW 3775   1.569   3.424   1.314
  959SOL    HW1 3776   1.510   3.345   1.334
  959SOL    HW2 3777   1.657   3.413   1.361
  960SOL     OW 3778   1.631   5.110   5.586
  960SOL    HW1 3779   1.629   5.043   5.513
  960SOL    HW2 3780   1.617   5.065   5.674
  961SOL     OW 3781   3.677   6.856   6.652
  961SOL    HW1 3782   3.721   6.767   6.665
  961SOL    HW2 3783   3.656   6.897   6.740
  962SOL     OW 3784   1.340   6.651   3.553
  962SOL    HW1 3785   1.258   6.601   3.582
  962SOL    HW2 3786   1.405   6.587   3.512
  963SOL     OW 3787   5.790   0.080   1.713
  963SOL    HW1 3788   5.842   0.127   1.784
  963SOL    HW2 3789   5.738   0.146   1.660
  964SOL     OW 3790   5.436   3.367   1.701
  964SOL    HW1 3791   5.405   3.273   1.716
  964SOL    HW2 3792   5.473   3.376   1.609
  965SOL     OW 3793   1.814   1.651   0.168
  965SOL    HW1 3794   1.824   1.581   0.097
  965SOL    HW2 3795   1.899   1.659   0.219
  966SOL     OW 3796   6.632   2.239   2.053
  966SOL    HW1 3797   6.668   2.331   2.041
  966SOL    HW2 3798   6.670   2.178   1.984
  967SOL     OW 3799   1.136   6.004   2.184
  967SOL    HW1 3800   1.119   5.906   2.192
  967SOL    HW2 3801   1.168   6.040   2.271
  968SOL     OW 3802   0.033   4.288   0.753
  968SOL    HW1 3803   0.060   4.203   0.706
  968SOL    HW2 3804   0.061   4.366   0.697
  969SOL     OW 3805   4.254   6.905   6.488
  969SOL    HW1 3806   4.352   6.926   6.487
  969SOL    HW2 3807   4.240   6.808   6.508
  970SOL     OW 3808   4.678   3.050   5.770
  970SOL    HW1 3809   4.633   2.972   5.814
  970SOL    HW2 3810   4.716   3.110   5.839
  971SOL     OW 3811   0.473   2.975   0.229
  971SOL    HW1 3812   0.456   3.071   0.205
  971SOL    HW2 3813   0.459   2.962   0.327
  972SOL     OW 3814   5.022   6.874   0.694
  972SOL    HW1 3815   5.027   6.810   0.772
  972SOL    HW2 3816   5.102   6.934   0.696
  973SOL     OW 3817   6.039   2.829   5.716
  973SOL    HW1 3818   6.043   2.825   5.816
  973SOL    HW2 3819   5.966   2.769   5.683
  974SOL     OW 3820   2.417   0.342   4.774
  974SOL    HW1 3821   2.344   0.276   4.795
  974SOL    HW2 3822   2.487   0.297   4.719
  975SOL     OW 3823   3.133   0.256   5.311
  975SOL    HW1 3824   3.090   0.283   5.397
  975SOL    HW2 3825   3.136   0.157   5.305
  976SOL     OW 3826   0.224   5.051   3.272
  976SOL    HW1 3827   0.184   5.057   3.363
  976SOL    HW2 3828   0.272   4.964   3.261
  977SOL     OW 3829   0.727   2.568   1.890
  977SOL    HW1 3830   0.706   2.489   1.947
  977SOL    HW2 3831   0.642   2.608   1.855
  978SOL     OW 3832   5.682   3.488   4.766
  978SOL    HW1 3833   5.663   3.577   4.808
  978SOL    HW2 3834   5.776   3.485   4.733
  979SOL     OW 3835   5.395   1.466   3.160
  979SOL    HW1 3836   5.437   1.490   3.072
  979SOL    HW2 3837   5.465   1.461   3.231
  980SOL     OW 3838   0.316   0.442   5.021
  980SOL    HW1 3839   0.367   0.458   4.936
  980SOL    HW2 3840   0.333   0.517   5.085
  981SOL     OW 3841   6.284   3.055   5.775
  981SOL    HW1 3842   6.205   3.105   5.741
  981SOL    HW2 3843   6.303   3.081   5.869
  982SOL     OW 3844   1.561   3.582   1.066
  982SOL    HW1 3845   1.591   3.675   1.088
  982SOL    HW2 3846   1.579   3.522   1.144
  983SOL     OW 3847   5.221   1.930   3.283
  983SOL    HW1 3848   5.194   1.835   3.298
  983SOL    HW2 3849   5.201   1.984   3.365
  984SOL     OW 3850   4.979   2.674   5.427
  984SOL    HW1 3851   5.035   2.646   5.505
  984SOL    HW2 3852   4.908   2.737   5.458
  985SOL     OW 3853   1.996   4.971   0.721
  985SOL    HW1 3854   1.994   4.877   0.686
  985SOL    HW2 3855   1.978   5.035   0.646
  986SOL     OW 3856   4.561   4.321   6.955
  986SOL    HW1 3857   4.509   4.308   0.019
  986SOL    HW2 3858   4.497   4.334   6.879
  987SOL     OW 3859   3.737   6.790   2.542
  987SOL    HW1 3860   3.767   6.854   2.472
  987SOL    HW2 3861   3.648   6.819   2.578
  988SOL     OW 3862   3.389   2.874   1.823
  988SOL    HW1 3863   3.389   2.951   1.760
  988SOL    HW2 3864   3.299   2.866   1.866
  989SOL     OW 3865   0.480   0.281   4.459
  989SOL    HW1 3866   0.389   0.240   4.448
  989SOL    HW2 3867   0.527   0.281   4.371
  990SOL     OW 3868   5.012   6.175   2.053
  990SOL    HW1 3869   5.090   6.141   2.000
  990SOL    HW2 3870   5.018   6.139   2.146
  991SOL     OW 3871   5.813   1.620   5.077
  991SOL    HW1 3872   5.737   1.577   5.029
  991SOL    HW2 3873   5.840   1.563   5.154
  992SOL     OW 3874   7.004   3.204   1.457
  992SOL    HW1 3875   7.015   3.265   1.378
  992SOL    HW2 3876   6.955   3.251   1.530
  993SOL     OW 3877   3.810   6.085   4.932
  993SOL    HW1 3878   3.883   6.106   4.996
  993SOL    HW2 3879   3.832   6.001   4.881
  994SOL     OW 3880   3.348   2.974   2.613
  994SOL    HW1 3881   3.347   3.066   2.574
  994SOL    HW2 3882   3.270   2.923   2.578
  995SOL     OW 3883   0.302   1.379   4.823
  995SOL    HW1 3884   0.314   1.280   4.818
  995SOL    HW2 3885   0.217   1.399   4.873
  996SOL     OW 3886   0.990   3.614   0.561
  996SOL    HW1 3887   1.086   3.589   0.576
  996SOL    HW2 3888   0.933   3.531   0.563
  997SOL     OW 3889   0.530   1.476   0.786
  997SOL    HW1 3890   0.468   1.553   0.768
  997SOL    HW2 3891   0.599   1.504   0.852
  998SOL     OW 3892   4.855   6.833   3.436
  998SOL    HW1 3893   4.943   6.800   3.470
  998SOL    HW2 3894   4.794   6.850   3.514
  999SOL     OW 3895   6.403   5.544   1.722
  999SOL    HW1 3896   6.329   5.605   1.694
  999SOL    HW2 3897   6.471   5.596   1.774
 1000SOL     OW 3898   4.636   2.569   4.218
 1000SOL    HW1 3899   4.712   2.516   4.180
 1000SOL    HW2 3900   4.660   2.599   4.310
 1001SOL     OW 3901   4.627   1.376   5.894
 1001SOL    HW1 3902   4.621   1.437   5.816
 1001SOL    HW2 3903   4.665   1.426   5.973
 1002SOL     OW 3904   0.222   1.252   6.984
 1002SOL    HW1 3905   0.305   1.238   6.929
 1002SOL    HW2 3906   0.240   1.222   0.057
 1003SOL     OW 3907   4.491   4.992   2.818
 1003SOL    HW1 3908   4.536   4.903   2.805
 1003SOL    HW2 3909   4.527   5.057   2.752
 1004SOL     OW 3910   5.991   5.541   0.609
 1004SOL    HW1 3911   5.983   5.520   0.707
 1004SOL    HW2 3912   5.925   5.487   0.558
 1005SOL     OW 3913   6.939   5.626   3.896
 1005SOL    HW1 3914   6.887   5.542   3.878
 1005SOL    HW2 3915   6.959   5.632   3.994
 1006SOL     OW 3916   2.175   4.228   0.017
 1006SOL    HW1 3917   2.233   4.280   6.976
 1006SOL    HW2 3918   2.215   4.138   0.033
 1007SOL     OW 3919   1.182   1.079   3.395
 1007SOL    HW1 3920   1.093   1.066   3.440
 1007SOL    HW2 3921   1.171   1.069   3.296
 1008SOL     OW 3922   2.589   2.149   4.480
 1008SOL    HW1 3923   2.557   2.159   4.574
 1008SOL    HW2 3924   2.671   2.205   4.467
 1009SOL     OW 3925   2.431   5.776   5.568
 1009SOL    HW1 3926   2.392   5.864   5.542
 1009SOL    HW2 3927   2.410   5.758   5.664
 1010SOL     OW 3928   5.453   0.270   5.941
 1010SOL    HW1 3929   5.386   0.339   5.913
 1010SOL    HW2 3930   5.524   0.262   5.871
 1011SOL     OW 3931   3.329   5.913   4.137
 1011SOL    HW1 3932   3.385   5.946   4.213
 1011SOL    HW2 3933   3.384   5.912   4.053
 1012SOL     OW 3934   3.483   5.596   0.707
 1012SOL    HW1 3935   3.566   5.650   0.700
 1012SOL    HW2 3936   3.411   5.636   0.650
 1013SOL     OW 3937   0.431   0.697   0.313
 1013SOL    HW1 3938   0.346   0.735   0.278
 1013SOL    HW2 3939   0.470   0.635   0.246
 1014SOL     OW 3940   5.652   6.802   6.338
 1014SOL    HW1 3941   5.727   6.847   6.289
 1014SOL    HW2 3942   5.621   6.861   6.413
 1015SOL     OW 3943   3.355   0.213   4.915
 1015SOL    HW1 3944   3.425   0.178   4.852
 1015SOL    HW2 3945   3.318   0.137   4.968
 1016SOL     OW 3946   4.734   2.731   2.102
 1016SOL    HW1 3947   4.707   2.826   2.087
 1016SOL    HW2 3948   4.660   2.670   2.072
 1017SOL     OW 3949   5.174   0.800   6.576
 1017SOL    HW1 3950   5.152   0.896   6.589
 1017SOL    HW2 3951   5.093   0.744   6.598
 1018SOL     OW 3952   1.269   2.370   1.329
 1018SOL    HW1 3953   1.369   2.362   1.322
 1018SOL    HW2 3954   1.232   2.407   1.244
 1019SOL     OW 3955   6.103   1.385   0.499
 1019SOL    HW1 3956   6.180   1.445   0.475
 1019SOL    HW2 3957   6.135   1.311   0.558
 1020SOL     OW 3958   3.229   2.224   1.457
 1020SOL    HW1 3959   3.315   2.275   1.464
 1020SOL    HW2 3960   3.188   2.216   1.547
 1021SOL     OW 3961   6.477   1.435   0.662
 1021SOL    HW1 3962   6.443   1.432   0.567
 1021SOL    HW2 3963   6.406   1.472   0.721
 1022SOL     OW 3964   3.431   2.875   0.232
 1022SOL    HW1 3965   3.424   2.974   0.225
 1022SOL    HW2 3966   3.527   2.848   0.223
 1023SOL     OW 3967   6.552   0.373   4.564
 1023SOL    HW1 3968   6.642   0.330   4.568
 1023SOL    HW2 3969   6.549   0.451   4.626
 1024SOL     OW 3970   6.483   2.197   4.045
 1024SOL    HW1 3971   6.460   2.197   4.142
 1024SOL    HW2 3972   6.413   2.247   3.994
 1025SOL     OW 3973   3.416   4.470   1.346
 1025SOL    HW1 3974   3.426   4.474   1.446
 1025SOL    HW2 3975   3.362   4.548   1.315
 1026SOL     OW 3976   0.758   2.884   6.371
 1026SOL    HW1 3977   0.846   2.837   6.358
 1026SOL    HW2 3978   0.720   2.907   6.281
 1027SOL     OW 3979   2.159   4.737   1.369
 1027SOL    HW1 3980   2.149   4.826   1.324
 1027SOL    HW2 3981   2.179   4.667   1.300
 1028SOL     OW 3982   0.213   5.391   0.668
 1028SOL    HW1 3983   0.236   5.307   0.717
 1028SOL    HW2 3984   0.295   5.447   0.656
 1029SOL     OW 3985   3.616   0.875   5.727
 1029SOL    HW1 3986   3.617   0.821   5.643
 1029SOL    HW2 3987   3.643   0.818   5.804
 1030SOL     OW 3988   4.124   4.657   5.302
 1030SOL    HW1 3989   4.026   4.653   5.281
 1030SOL    HW2 3990   4.170   4.581   5.256
 1031SOL     OW 3991   2.240   5.251   0.835
 1031SOL    HW1 3992   2.255   5.244   0.736
 1031SOL    HW2 3993   2.145   5.277   0.853
 1032SOL     OW 3994   1.222   1.261   4.788
 1032SOL    HW1 3995   1.311   1.241   4.828
 1032SOL    HW2 3996   1.151   1.215   4.842
 1033SOL     OW 3997   2.240   6.475   2.784
 1033SOL    HW1 3998   2.208   6.519   2.700
 1033SOL    HW2 3999   2.322   6.522   2.817
 1034SOL     OW 4000   1.128   0.088   1.632
 1034SOL    HW1 4001   1.228   0.086   1.632
 1034SOL    HW2 4002   1.093   0.013   1.576
 1035SOL     OW 4003   3.450   0.875   2.958
 1035SOL    HW1 4004   3.354   0.887   2.931
 1035SOL    HW2 4005   3.476   0.780   2.944
 1036SOL     OW 4006   4.955   6.883   6.845
 1036SOL    HW1 4007   4.993   6.945   6.914
 1036SOL    HW2 4008   4.965   6.923   6.754
 1037SOL     OW 4009   3.353   1.740   6.257
 1037SOL    HW1 4010   3.369   1.642   6.266
 1037SOL    HW2 4011   3.283   1.756   6.187
 1038SOL     OW 4012   2.419   1.496   4.879
 1038SOL    HW1 4013   2.430   1.578   4.935
 1038SOL    HW2 4014   2.354   1.514   4.806
 1039SOL     OW 4015   4.218   2.043   3.385
 1039SOL    HW1 4016   4.303   2.095   3.377
 1039SOL    HW2 4017   4.144   2.105   3.412
 1040SOL     OW 4018   5.513   3.544   4.254
 1040SOL    HW1 4019   5.460   3.624   4.227
 1040SOL    HW2 4020   5.610   3.565   4.248
 1041SOL     OW 4021   1.817   6.660   4.280
 1041SOL    HW1 4022   1.741   6.704   4.326
 1041SOL    HW2 4023   1.903   6.706   4.304
 1042SOL     OW 4024   4.694   3.857   0.985
 1042SOL    HW1 4025   4.628   3.782   0.997
 1042SOL    HW2 4026   4.744   3.845   0.900
 1043SOL     OW 4027   3.813   0.433   6.614
 1043SOL    HW1 4028   3.763   0.517   6.596
 1043SOL    HW2 4029   3.784   0.395   6.702
 1044SOL     OW 4030   4.034   3.809   2.447
 1044SOL    HW1 4031   4.048   3.870   2.369
 1044SOL    HW2 4032   3.963   3.846   2.507
 1045SOL     OW 4033   4.085   1.004   3.263
 1045SOL    HW1 4034   4.179   1.035   3.281
 1045SOL    HW2 4035   4.023   1.052   3.325
 1046SOL     OW 4036   3.597   0.861   1.987
 1046SOL    HW1 4037   3.511   0.822   2.022
 1046SOL    HW2 4038   3.606   0.839   1.890
 1047SOL     OW 4039   0.690   5.543   1.934
 1047SOL    HW1 4040   0.593   5.527   1.918
 1047SOL    HW2 4041   0.740   5.456   1.928
 1048SOL     OW 4042   6.466   4.673   5.171
 1048SOL    HW1 4043   6.426   4.629   5.251
 1048SOL    HW2 4044   6.437   4.625   5.088
 1049SOL     OW 4045   0.482   3.534   5.452
 1049SOL    HW1 4046   0.439   3.471   5.387
 1049SOL    HW2 4047   0.578   3.509   5.465
 1050SOL     OW 4048   2.606   0.589   0.699
 1050SOL    HW1 4049   2.508   0.591   0.721
 1050SOL    HW2 4050   2.620   0.536   0.615
 1051SOL     OW 4051   4.889   4.474   2.416
 1051SOL    HW1 4052   4.989   4.473   2.406
 1051SOL    HW2 4053   4.853   4.381   2.407
 1052SOL     OW 4054   3.934   0.211   4.561
 1052SOL    HW1 4055   3.978   0.131   4.518
 1052SOL    HW2 4056   3.869   0.180   4.630
 1053SOL     OW 4057   3.740   4.934   3.846
 1053SOL    HW1 4058   3.827   4.886   3.854
 1053SOL    HW2 4059   3.691   4.900   3.766
 1054SOL     OW 4060   4.225   5.953   4.910
 1054SOL    HW1 4061   4.222   5.932   4.812
 1054SOL    HW2 4062   4.163   6.029   4.930
 1055SOL     OW 4063   3.709   4.914   4.191
 1055SOL    HW1 4064   3.674   4.956   4.275
 1055SOL    HW2 4065   3.655   4.946   4.113
 1056SOL     OW 4066   2.326   5.456   6.287
 1056SOL    HW1 4067   2.283   5.545   6.277
 1056SOL    HW2 4068   2.346   5.439   6.383
 1057SOL     OW 4069   3.948   4.099   1.202
 1057SOL    HW1 4070   3.964   4.001   1.209
 1057SOL    HW2 4071   4.033   4.144   1.174
 1058SOL     OW 4072   2.781   6.257   2.345
 1058SOL    HW1 4073   2.880   6.264   2.329
 1058SOL    HW2 4074   2.733   6.257   2.257
 1059SOL     OW 4075   3.334   0.471   0.436
 1059SOL    HW1 4076   3.401   0.543   0.451
 1059SOL    HW2 4077   3.242   0.511   0.433
 1060SOL     OW 4078   2.728   1.318   4.401
 1060SOL    HW1 4079   2.711   1.333   4.499
 1060SOL    HW2 4080   2.643   1.333   4.350
 1061SOL     OW 4081   2.978   5.974   1.426
 1061SOL    HW1 4082   2.883   5.999   1.411
 1061SOL    HW2 4083   3.012   6.018   1.509
 1062SOL     OW 4084   5.032   4.721   4.962
 1062SOL    HW1 4085   4.976   4.641   4.981
 1062SOL    HW2 4086   5.085   4.707   4.879
 1063SOL     OW 4087   2.803   2.413   6.230
 1063SOL    HW1 4088   2.780   2.387   6.137
 1063SOL    HW2 4089   2.825   2.331   6.283
 1064SOL     OW 4090   0.425   3.271   1.873
 1064SOL    HW1 4091   0.474   3.345   1.827
 1064SOL    HW2 4092   0.328   3.295   1.881
 1065SOL     OW 4093   4.389   4.930   5.834
 1065SOL    HW1 4094   4.372   4.986   5.914
 1065SOL    HW2 4095   4.478   4.884   5.843
 1066SOL     OW 4096   4.144   6.685   3.443
 1066SOL    HW1 4097   4.183   6.777   3.444
 1066SOL    HW2 4098   4.217   6.617   3.455
 1067SOL     OW 4099   2.774   3.397   0.894
 1067SOL    HW1 4100   2.732   3.312   0.863
 1067SOL    HW2 4101   2.709   3.472   0.882
 1068SOL     OW 4102   0.325   4.537   0.839
 1068SOL    HW1 4103   0.251   4.512   0.777
 1068SOL    HW2 4104   0.387   4.601   0.794
 1069SOL     OW 4105   3.997   3.159   2.449
 1069SOL    HW1 4106   4.081   3.158   2.395
 1069SOL    HW2 4107   3.918   3.143   2.389
 1070SOL     OW 4108   2.592   6.939   0.711
 1070SOL    HW1 4109   2.627   6.969   0.800
 1070SOL    HW2 4110   2.669   6.930   0.647
 1071SOL     OW 4111   5.029   5.231   3.856
 1071SOL    HW1 4112   4.953   5.167   3.863
 1071SOL    HW2 4113   4.997   5.318   3.820
 1072SOL     OW 4114   3.742   5.504   2.874
 1072SOL    HW1 4115   3.692   5.419   2.887
 1072SOL    HW2 4116   3.826   5.503   2.929
 1073SOL     OW 4117   2.869   5.782   3.283
 1073SOL    HW1 4118   2.933   5.845   3.239
 1073SOL    HW2 4119   2.892   5.688   3.260
 1074SOL     OW 4120   1.683   5.309   2.522
 1074SOL    HW1 4121   1.752   5.377   2.547
 1074SOL    HW2 4122   1.708   5.267   2.435
 1075SOL     OW 4123   1.214   4.245   3.017
 1075SOL    HW1 4124   1.247   4.156   3.050
 1075SOL    HW2 4125   1.201   4.307   3.094
 1076SOL     OW 4126   6.915   4.058   2.756
 1076SOL    HW1 4127   6.883   4.132   2.698
 1076SOL    HW2 4128   7.008   4.079   2.788
 1077SOL     OW 4129   5.004   0.496   1.705
 1077SOL    HW1 4130   5.010   0.578   1.762
 1077SOL    HW2 4131   4.928   0.505   1.640
 1078SOL     OW 4132   0.194   3.144   1.607
 1078SOL    HW1 4133   0.203   3.239   1.638
 1078SOL    HW2 4134   0.129   3.139   1.532
 1079SOL     OW 4135   2.074   5.283   3.316
 1079SOL    HW1 4136   2.036   5.193   3.339
 1079SOL    HW2 4137   2.002   5.352   3.321
 1080SOL     OW 4138   1.803   5.578   3.778
 1080SOL    HW1 4139   1.720   5.608   3.824
 1080SOL    HW2 4140   1.872   5.650   3.782
 1081SOL     OW 4141   1.544   0.570   0.216
 1081SOL    HW1 4142   1.471   0.628   0.180
 1081SOL    HW2 4143   1.507   0.478   0.233
 1082SOL     OW 4144   2.237   6.847   0.979
 1082SOL    HW1 4145   2.172   6.774   0.999
 1082SOL    HW2 4146   2.269   6.838   0.884
 1083SOL     OW 4147   3.423   2.180   1.718
 1083SOL    HW1 4148   3.390   2.257   1.663
 1083SOL    HW2 4149   3.506   2.208   1.766
 1084SOL     OW 4150   6.700   3.623   0.859
 1084SOL    HW1 4151   6.772   3.590   0.920
 1084SOL    HW2 4152   6.714   3.720   0.839
 1085SOL     OW 4153   1.592   5.186   3.529
 1085SOL    HW1 4154   1.624   5.099   3.567
 1085SOL    HW2 4155   1.669   5.238   3.493
 1086SOL     OW 4156   3.467   5.268   2.646
 1086SOL    HW1 4157   3.452   5.335   2.719
 1086SOL    HW2 4158   3.542   5.207   2.671
 1087SOL     OW 4159   4.149   3.460   4.889
 1087SOL    HW1 4160   4.247   3.455   4.911
 1087SOL    HW2 4161   4.120   3.374   4.848
 1088SOL     OW 4162   6.772   4.527   2.412
 1088SOL    HW1 4163   6.849   4.471   2.443
 1088SOL    HW2 4164   6.694   4.468   2.392
 1089SOL     OW 4165   6.358   6.687   3.167
 1089SOL    HW1 4166   6.392   6.675   3.260
 1089SOL    HW2 4167   6.384   6.608   3.111
 1090SOL     OW 4168   2.022   1.815   6.250
 1090SOL    HW1 4169   1.929   1.803   6.286
 1090SOL    HW2 4170   2.063   1.896   6.291
 1091SOL     OW 4171   1.020   2.608   5.720
 1091SOL    HW1 4172   0.937   2.654   5.688
 1091SOL    HW2 4173   1.099   2.667   5.704
 1092SOL     OW 4174   2.224   4.574   1.163
 1092SOL    HW1 4175   2.314   4.587   1.205
 1092SOL    HW2 4176   2.234   4.516   1.082
 1093SOL     OW 4177   6.836   2.489   1.958
 1093SOL    HW1 4178   6.836   2.501   1.859
 1093SOL    HW2 4179   6.926   2.516   1.994
 1094SOL     OW 4180   0.540   6.534   2.215
 1094SOL    HW1 4181   0.587   6.453   2.182
 1094SOL    HW2 4182   0.441   6.516   2.220
 1095SOL     OW 4183   6.942   3.744   5.803
 1095SOL    HW1 4184   6.887   3.794   5.735
 1095SOL    HW2 4185   0.017   3.771   5.794
 1096SOL     OW 4186   3.371   3.169   1.947
 1096SOL    HW1 4187   3.436   3.096   1.967
 1096SOL    HW2 4188   3.379   3.240   2.017
 1097SOL     OW 4189   2.379   4.478   5.848
 1097SOL    HW1 4190   2.359   4.438   5.758
 1097SOL    HW2 4191   2.310   4.548   5.869
 1098SOL     OW 4192   4.053   0.624   2.562
 1098SOL    HW1 4193   3.963   0.614   2.519
 1098SOL    HW2 4194   4.043   0.612   2.661
 1099SOL     OW 4195   3.387   0.497   2.418
 1099SOL    HW1 4196   3.386   0.425   2.349
 1099SOL    HW2 4197   3.482   0.526   2.434
 1100SOL     OW 4198   6.510   1.057   6.736
 1100SOL    HW1 4199   6.478   0.963   6.744
 1100SOL    HW2 4200   6.576   1.076   6.808
 1101SOL     OW 4201   5.205   3.205   1.352
 1101SOL    HW1 4202   5.262   3.186   1.432
 1101SOL    HW2 4203   5.154   3.290   1.367
 1102SOL     OW 4204   0.131   4.023   3.737
 1102SOL    HW1 4205   0.096   4.108   3.697
 1102SOL    HW2 4206   0.166   4.041   3.829
 1103SOL     OW 4207   0.191   3.437   7.013
 1103SOL    HW1 4208   0.264   3.426   6.947
 1103SOL    HW2 4209   0.159   3.532   7.013
 1104SOL     OW 4210   2.506   5.242   6.217
 1104SOL    HW1 4211   2.409   5.240   6.240
 1104SOL    HW2 4212   2.558   5.284   6.292
 1105SOL     OW 4213   3.651   5.669   1.127
 1105SOL    HW1 4214   3.556   5.647   1.150
 1105SOL    HW2 4215   3.659   5.683   1.028
 1106SOL     OW 4216   1.327   0.837   6.253
 1106SOL    HW1 4217   1.420   0.833   6.288
 1106SOL    HW2 4218   1.317   0.917   6.194
 1107SOL     OW 4219   6.572   0.546   1.389
 1107SOL    HW1 4220   6.599   0.641   1.405
 1107SOL    HW2 4221   6.603   0.519   1.298
 1108SOL     OW 4222   1.271   0.999   6.923
 1108SOL    HW1 4223   1.207   0.960   6.990
 1108SOL    HW2 4224   1.275   1.098   6.935
 1109SOL     OW 4225   4.734   0.814   3.979
 1109SOL    HW1 4226   4.778   0.903   3.973
 1109SOL    HW2 4227   4.776   0.760   4.051
 1110SOL     OW 4228   3.782   2.929   2.933
 1110SOL    HW1 4229   3.840   2.940   2.851
 1110SOL    HW2 4230   3.686   2.923   2.905
 1111SOL     OW 4231   4.585   0.178   0.246
 1111SOL    HW1 4232   4.626   0.087   0.253
 1111SOL    HW2 4233   4.500   0.172   0.193
 1112SOL     OW 4234   0.755   1.476   2.597
 1112SOL    HW1 4235   0.833   1.533   2.621
 1112SOL    HW2 4236   0.761   1.452   2.500
 1113SOL     OW 4237   6.231   3.791   1.324
 1113SOL    HW1 4238   6.142   3.831   1.344
 1113SOL    HW2 4239   6.270   3.836   1.243
 1114SOL     OW 4240   5.800   0.892   5.655
 1114SOL    HW1 4241   5.705   0.868   5.635
 1114SOL    HW2 4242   5.811   0.991   5.649
 1115SOL     OW 4243   2.454   4.665   0.827
 1115SOL    HW1 4244   2.502   4.727   0.765
 1115SOL    HW2 4245   2.463   4.571   0.794
 1116SOL     OW 4246   3.560   6.281   6.372
 1116SOL    HW1 4247   3.508   6.321   6.448
 1116SOL    HW2 4248   3.657   6.283   6.394
 1117SOL     OW 4249   2.679   3.143   0.858
 1117SOL    HW1 4250   2.716   3.054   0.833
 1117SOL    HW2 4251   2.613   3.173   0.788
 1118SOL     OW 4252   1.785   3.182   1.808
 1118SOL    HW1 4253   1.741   3.268   1.781
 1118SOL    HW2 4254   1.855   3.158   1.740
 1119SOL     OW 4255   2.891   3.328   3.176
 1119SOL    HW1 4256   2.982   3.290   3.192
 1119SOL    HW2 4257   2.824   3.254   3.169
 1120SOL     OW 4258   4.525   0.960   4.099
 1120SOL    HW1 4259   4.588   0.891   4.064
 1120SOL    HW2 4260   4.472   0.921   4.174
 1121SOL     OW 4261   5.228   3.135   2.988
 1121SOL    HW1 4262   5.286   3.177   3.058
 1121SOL    HW2 4263   5.186   3.052   3.026
 1122SOL     OW 4264   4.687   5.392   6.479
 1122SOL    HW1 4265   4.737   5.475   6.505
 1122SOL    HW2 4266   4.749   5.330   6.431
 1123SOL     OW 4267   3.928   1.392   1.882
 1123SOL    HW1 4268   4.012   1.346   1.854
 1123SOL    HW2 4269   3.872   1.329   1.936
 1124SOL     OW 4270   1.553   5.098   4.370
 1124SOL    HW1 4271   1.582   5.151   4.449
 1124SOL    HW2 4272   1.632   5.050   4.332
 1125SOL     OW 4273   2.865   3.420   5.054
 1125SOL    HW1 4274   2.835   3.354   5.123
 1125SOL    HW2 4275   2.959   3.399   5.026
 1126SOL     OW 4276   6.197   0.253   2.436
 1126SOL    HW1 4277   6.170   0.233   2.531
 1126SOL    HW2 4278   6.238   0.345   2.432
 1127SOL     OW 4279   1.960   5.727   6.549
 1127SOL    HW1 4280   1.992   5.765   6.636
 1127SOL    HW2 4281   2.035   5.678   6.505
 1128SOL     OW 4282   2.102   2.141   4.487
 1128SOL    HW1 4283   2.013   2.137   4.441
 1128SOL    HW2 4284   2.089   2.132   4.586
 1129SOL     OW 4285   4.686   6.710   6.299
 1129SOL    HW1 4286   4.663   6.803   6.273
 1129SOL    HW2 4287   4.663   6.696   6.396
 1130SOL     OW 4288   0.342   5.698   5.500
 1130SOL    HW1 4289   0.362   5.619   5.441
 1130SOL    HW2 4290   0.322   5.778   5.444
 1131SOL     OW 4291   0.362   5.426   5.630
 1131SOL    HW1 4292   0.316   5.458   5.713
 1131SOL    HW2 4293   0.311   5.349   5.592
 1132SOL     OW 4294   5.587   6.392   4.979
 1132SOL    HW1 4295   5.533   6.315   4.947
 1132SOL    HW2 4296   5.553   6.422   5.068
 1133SOL     OW 4297   6.845   2.770   6.477
 1133SOL    HW1 4298   6.857   2.818   6.563
 1133SOL    HW2 4299   6.894   2.682   6.481
 1134SOL     OW 4300   0.140   2.506   5.827
 1134SOL    HW1 4301   0.194   2.548   5.899
 1134SOL    HW2 4302   0.070   2.448   5.867
 1135SOL     OW 4303   6.162   1.655   4.684
 1135SOL    HW1 4304   6.069   1.691   4.692
 1135SOL    HW2 4305   6.204   1.688   4.600
 1136SOL     OW 4306   3.664   5.283   4.190
 1136SOL    HW1 4307   3.609   5.297   4.108
 1136SOL    HW2 4308   3.630   5.203   4.239
 1137SOL     OW 4309   1.545   0.863   6.399
 1137SOL    HW1 4310   1.509   0.865   6.492
 1137SOL    HW2 4311   1.613   0.790   6.390
 1138SOL     OW 4312   1.083   4.171   5.805
 1138SOL    HW1 4313   0.989   4.200   5.822
 1138SOL    HW2 4314   1.102   4.088   5.858
 1139SOL     OW 4315   0.715   6.735   2.275
 1139SOL    HW1 4316   0.771   6.772   2.201
 1139SOL    HW2 4317   0.671   6.650   2.243
 1140SOL     OW 4318   3.822   2.130   3.030
 1140SOL    HW1 4319   3.913   2.172   3.023
 1140SOL    HW2 4320   3.795   2.127   3.126
 1141SOL     OW 4321   6.874   6.099   5.984
 1141SOL    HW1 4322   6.774   6.095   5.984
 1141SOL    HW2 4323   6.909   6.048   6.063
 1142SOL     OW 4324   6.517   0.620   4.708
 1142SOL    HW1 4325   6.543   0.635   4.803
 1142SOL    HW2 4326   6.418   0.607   4.701
 1143SOL     OW 4327   4.547   1.722   1.545
 1143SOL    HW1 4328   4.545   1.754   1.640
 1143SOL    HW2 4329   4.467   1.665   1.528
 1144SOL     OW 4330   0.932   0.013   5.300
 1144SOL    HW1 4331   0.989   0.062   5.366
 1144SOL    HW2 4332   0.867   0.076   5.258
 1145SOL     OW 4333   1.980   4.655   5.147
 1145SOL    HW1 4334   1.965   4.562   5.114
 1145SOL    HW2 4335   2.075   4.682   5.129
 1146SOL     OW 4336   5.787   1.811   0.927
 1146SOL    HW1 4337   5.781   1.845   0.833
 1146SOL    HW2 4338   5.882   1.819   0.959
 1147SOL     OW 4339   6.576   3.396   2.179
 1147SOL    HW1 4340   6.567   3.360   2.086
 1147SOL    HW2 4341   6.613   3.488   2.176
 1148SOL     OW 4342   5.336   1.166   6.810
 1148SOL    HW1 4343   5.422   1.142   6.856
 1148SOL    HW2 4344   5.284   1.229   6.868
 1149SOL     OW 4345   5.715   2.226   3.006
 1149SOL    HW1 4346   5.627   2.198   3.044
 1149SOL    HW2 4347   5.773   2.146   2.991
 1150SOL     OW 4348   1.233   5.360   5.685
 1150SOL    HW1 4349   1.233   5.409   5.772
 1150SOL    HW2 4350   1.321   5.376   5.638
 1151SOL     OW 4351   2.745   5.035   0.421
 1151SOL    HW1 4352   2.798   5.033   0.506
 1151SOL    HW2 4353   2.806   5.058   0.345
 1152SOL     OW 4354   0.772   0.727   4.095
 1152SOL    HW1 4355   0.770   0.745   4.194
 1152SOL    HW2 4356   0.749   0.631   4.078
 1153SOL     OW 4357   2.481   4.619   2.560
 1153SOL    HW1 4358   2.487   4.632   2.461
 1153SOL    HW2 4359   2.573   4.622   2.600
 1154SOL     OW 4360   1.935   4.196   2.081
 1154SOL    HW1 4361   1.930   4.098   2.099
 1154SOL    HW2 4362   1.957   4.212   1.985
 1155SOL     OW 4363   4.184   6.831   2.583
 1155SOL    HW1 4364   4.123   6.907   2.561
 1155SOL    HW2 4365   4.232   6.800   2.501
 1156SOL     OW 4366   1.692   1.427   3.942
 1156SOL    HW1 4367   1.685   1.444   3.844
 1156SOL    HW2 4368   1.621   1.478   3.990
 1157SOL     OW 4369   1.623   2.813   4.265
 1157SOL    HW1 4370   1.581   2.830   4.354
 1157SOL    HW2 4371   1.711   2.861   4.260
 1158SOL     OW 4372   4.434   6.089   6.464
 1158SOL    HW1 4373   4.499   6.031   6.513
 1158SOL    HW2 4374   4.412   6.047   6.376
 1159SOL     OW 4375   5.761   4.656   2.533
 1159SOL    HW1 4376   5.755   4.742   2.585
 1159SOL    HW2 4377   5.752   4.675   2.436
 1160SOL     OW 4378   3.071   3.076   1.413
 1160SOL    HW1 4379   3.100   2.981   1.405
 1160SOL    HW2 4380   3.064   3.116   1.321
 1161SOL     OW 4381   4.440   0.505   3.956
 1161SOL    HW1 4382   4.538   0.490   3.938
 1161SOL    HW2 4383   4.430   0.575   4.026
 1162SOL     OW 4384   4.114   5.234   1.300
 1162SOL    HW1 4385   4.110   5.334   1.308
 1162SOL    HW2 4386   4.026   5.195   1.328
 1163SOL     OW 4387   5.087   0.441   2.382
 1163SOL    HW1 4388   5.134   0.364   2.340
 1163SOL    HW2 4389   5.099   0.438   2.481
 1164SOL     OW 4390   6.121   3.701   3.918
 1164SOL    HW1 4391   6.070   3.747   3.846
 1164SOL    HW2 4392   6.213   3.679   3.885
 1165SOL     OW 4393   1.108   4.662   2.369
 1165SOL    HW1 4394   1.017   4.702   2.358
 1165SOL    HW2 4395   1.116   4.582   2.310
 1166SOL     OW 4396   3.265   1.947   6.884
 1166SOL    HW1 4397   3.231   1.871   6.939
 1166SOL    HW2 4398   3.351   1.920   6.841
 1167SOL     OW 4399   3.965   1.603   5.279
 1167SOL    HW1 4400   3.909   1.684   5.296
 1167SOL    HW2 4401   3.941   1.563   5.191
 1168SOL     OW 4402   6.031   0.025   3.223
 1168SOL    HW1 4403   6.069   0.085   3.293
 1168SOL    HW2 4404   5.933   0.015   3.238
 1169SOL     OW 4405   0.734   3.212   1.231
 1169SOL    HW1 4406   0.761   3.137   1.170
 1169SOL    HW2 4407   0.763   3.299   1.191
 1170SOL     OW 4408   2.959   0.462   1.217
 1170SOL    HW1 4409   3.012   0.526   1.274
 1170SOL    HW2 4410   2.985   0.473   1.122
 1171SOL     OW 4411   2.766   0.480   0.255
 1171SOL    HW1 4412   2.723   0.518   0.173
 1171SOL    HW2 4413   2.833   0.545   0.291
 1172SOL     OW 4414   3.316   3.553   5.256
 1172SOL    HW1 4415   3.291   3.650   5.263
 1172SOL    HW2 4416   3.323   3.514   5.348
 1173SOL     OW 4417   5.234   0.056   6.439
 1173SOL    HW1 4418   5.328   0.066   6.473
 1173SOL    HW2 4419   5.236   0.032   6.342
 1174SOL     OW 4420   3.375   5.732   6.844
 1174SOL    HW1 4421   3.277   5.715   6.839
 1174SOL    HW2 4422   3.421   5.685   6.769
 1175SOL     OW 4423   0.126   4.916   4.706
 1175SOL    HW1 4424   0.039   4.954   4.674
 1175SOL    HW2 4425   0.174   4.876   4.629
 1176SOL     OW 4426   6.447   2.756   1.294
 1176SOL    HW1 4427   6.396   2.818   1.235
 1176SOL    HW2 4428   6.403   2.666   1.295
 1177SOL     OW 4429   5.959   3.366   6.953
 1177SOL    HW1 4430   5.902   3.402   0.006
 1177SOL    HW2 4431   6.029   3.433   6.930
 1178SOL     OW 4432   5.447   4.215   2.521
 1178SOL    HW1 4433   5.400   4.153   2.457
 1178SOL    HW2 4434   5.544   4.221   2.495
 1179SOL     OW 4435   1.875   5.785   6.136
 1179SOL    HW1 4436   1.975   5.778   6.135
 1179SOL    HW2 4437   1.836   5.706   6.088
 1180SOL     OW 4438   1.856   0.888   3.744
 1180SOL    HW1 4439   1.854   0.910   3.842
 1180SOL    HW2 4440   1.933   0.934   3.701
 1181SOL     OW 4441   1.672   4.229   2.220
 1181SOL    HW1 4442   1.750   4.217   2.159
 1181SOL    HW2 4443   1.706   4.247   2.313
 1182SOL     OW 4444   1.045   3.833   4.445
 1182SOL    HW1 4445   0.968   3.897   4.450
 1182SOL    HW2 4446   1.017   3.752   4.394
 1183SOL     OW 4447   4.461   6.087   1.012
 1183SOL    HW1 4448   4.484   6.168   1.066
 1183SOL    HW2 4449   4.379   6.105   0.958
 1184SOL     OW 4450   3.372   3.098   6.049
 1184SOL    HW1 4451   3.360   3.193   6.018
 1184SOL    HW2 4452   3.461   3.065   6.018
 1185SOL     OW 4453   2.719   1.302   6.533
 1185SOL    HW1 4454   2.793   1.240   6.507
 1185SOL    HW2 4455   2.758   1.392   6.555
 1186SOL     OW 4456   3.712   0.824   5.252
 1186SOL    HW1 4457   3.674   0.857   5.166
 1186SOL    HW2 4458   3.758   0.899   5.300
 1187SOL     OW 4459   0.727   2.206   4.866
 1187SOL    HW1 4460   0.712   2.304   4.880
 1187SOL    HW2 4461   0.671   2.174   4.790
 1188SOL     OW 4462   1.540   0.703   4.807
 1188SOL    HW1 4463   1.603   0.679   4.733
 1188SOL    HW2 4464   1.577   0.671   4.894
 1189SOL     OW 4465   0.000   1.133   1.381
 1189SOL    HW1 4466   0.049   1.154   1.465
 1189SOL    HW2 4467   0.009   1.036   1.360
 1190SOL     OW 4468   4.332   5.337   2.216
 1190SOL    HW1 4469   4.416   5.302   2.174
 1190SOL    HW2 4470   4.355   5.408   2.283
 1191SOL     OW 4471   2.839   4.553   1.442
 1191SOL    HW1 4472   2.809   4.519   1.531
 1191SOL    HW2 4473   2.821   4.652   1.436
 1192SOL     OW 4474   4.266   4.992   2.516
 1192SOL    HW1 4475   4.344   4.930   2.527
 1192SOL    HW2 4476   4.276   5.043   2.431
 1193SOL     OW 4477   3.880   6.927   4.501
 1193SOL    HW1 4478   3.978   6.916   4.516
 1193SOL    HW2 4479   3.864   7.002   4.437
 1194SOL     OW 4480   5.911   1.524   1.346
 1194SOL    HW1 4481   5.918   1.514   1.446
 1194SOL    HW2 4482   5.835   1.585   1.324
 1195SOL     OW 4483   3.212   6.473   0.052
 1195SOL    HW1 4484   3.121   6.514   0.047
 1195SOL    HW2 4485   3.260   6.509   0.132
 1196SOL     OW 4486   1.367   5.266   3.417
 1196SOL    HW1 4487   1.462   5.250   3.443
 1196SOL    HW2 4488   1.363   5.312   3.328
 1197SOL     OW 4489   3.452   4.994   6.826
 1197SOL    HW1 4490   3.489   5.066   6.768
 1197SOL    HW2 4491   3.429   4.915   6.770
 1198SOL     OW 4492   3.281   0.987   2.473
 1198SOL    HW1 4493   3.232   0.993   2.559
 1198SOL    HW2 4494   3.376   0.960   2.490
 1199SOL     OW 4495   3.232   3.698   4.066
 1199SOL    HW1 4496   3.172   3.777   4.074
 1199SOL    HW2 4497   3.326   3.730   4.054
 1200SOL     OW 4498   4.481   3.361   1.190
 1200SOL    HW1 4499   4.381   3.354   1.195
 1200SOL    HW2 4500   4.506   3.455   1.169
 1201SOL     OW 4501   1.800   1.664   4.985
 1201SOL    HW1 4502   1.894   1.698   4.987
 1201SOL    HW2 4503   1.790   1.591   5.052
 1202SOL     OW 4504   6.565   0.325   4.882
 1202SOL    HW1 4505   6.481   0.361   4.842
 1202SOL    HW2 4506   6.586   0.375   4.966
 1203SOL     OW 4507   6.428   6.269   2.001
 1203SOL    HW1 4508   6.513   6.285   1.949
 1203SOL    HW2 4509   6.377   6.355   2.008
 1204SOL     OW 4510   1.470   6.937   0.167
 1204SOL    HW1 4511   1.424   6.933   0.255
 1204SOL    HW2 4512   1.499   6.844   0.141
 1205SOL     OW 4513   0.479   3.189   5.464
 1205SOL    HW1 4514   0.500   3.235   5.549
 1205SOL    HW2 4515   0.397   3.133   5.475
 1206SOL     OW 4516   0.095   2.063   4.402
 1206SOL    HW1 4517   0.094   1.964   4.413
 1206SOL    HW2 4518   0.112   2.086   4.306
 1207SOL     OW 4519   6.242   6.442   6.958
 1207SOL    HW1 4520   6.300   6.482   6.886
 1207SOL    HW2 4521   6.243   6.502   0.017
 1208SOL     OW 4522   3.800   3.593   2.926
 1208SOL    HW1 4523   3.752   3.555   2.847
 1208SOL    HW2 4524   3.747   3.670   2.962
 1209SOL     OW 4525   6.710   4.513   4.879
 1209SOL    HW1 4526   6.744   4.539   4.789
 1209SOL    HW2 4527   6.732   4.584   4.945
 1210SOL     OW 4528   2.493   7.019   2.923
 1210SOL    HW1 4529   2.464   0.093   2.906
 1210SOL    HW2 4530   2.417   6.968   2.962
 1211SOL     OW 4531   1.006   2.990   2.873
 1211SOL    HW1 4532   1.100   3.011   2.848
 1211SOL    HW2 4533   0.945   3.020   2.800
 1212SOL     OW 4534   0.683   4.728   3.488
 1212SOL    HW1 4535   0.681   4.827   3.474
 1212SOL    HW2 4536   0.676   4.708   3.585
 1213SOL     OW 4537   5.753   3.327   4.994
 1213SOL    HW1 4538   5.733   3.383   4.913
 1213SOL    HW2 4539   5.750   3.385   5.076
 1214SOL     OW 4540   1.441   1.925   1.534
 1214SOL    HW1 4541   1.538   1.914   1.554
 1214SOL    HW2 4542   1.414   2.020   1.554
 1215SOL     OW 4543   0.364   5.446   2.018
 1215SOL    HW1 4544   0.267   5.436   2.038
 1215SOL    HW2 4545   0.376   5.476   1.923
 1216SOL     OW 4546   2.627   6.954   1.593
 1216SOL    HW1 4547   2.685   6.952   1.674
 1216SOL    HW2 4548   2.575   0.019   1.592
 1217SOL     OW 4549   2.349   2.268   2.807
 1217SOL    HW1 4550   2.362   2.353   2.858
 1217SOL    HW2 4551   2.252   2.252   2.792
 1218SOL     OW 4552   0.628   3.288   3.558
 1218SOL    HW1 4553   0.548   3.229   3.571
 1218SOL    HW2 4554   0.645   3.301   3.461
 1219SOL     OW 4555   2.677   5.283   3.385
 1219SOL    HW1 4556   2.617   5.206   3.365
 1219SOL    HW2 4557   2.625   5.368   3.381
 1220SOL     OW 4558   6.430   4.690   2.158
 1220SOL    HW1 4559   6.330   4.701   2.159
 1220SOL    HW2 4560   6.462   4.674   2.252
 1221SOL     OW 4561   4.797   4.723   6.097
 1221SOL    HW1 4562   4.860   4.648   6.078
 1221SOL    HW2 4563   4.841   4.810   6.075
 1222SOL     OW 4564   6.357   4.683   1.406
 1222SOL    HW1 4565   6.420   4.608   1.390
 1222SOL    HW2 4566   6.300   4.696   1.325
 1223SOL     OW 4567   0.030   5.076   5.223
 1223SOL    HW1 4568   6.978   5.026   5.272
 1223SOL    HW2 4569   0.040   5.037   5.132
 1224SOL     OW 4570   4.096   4.901   1.226
 1224SOL    HW1 4571   4.000   4.918   1.204
 1224SOL    HW2 4572   4.147   4.986   1.223
 1225SOL     OW 4573   3.984   1.809   6.952
 1225SOL    HW1 4574   3.904   1.755   6.978
 1225SOL    HW2 4575   4.033   1.839   0.014
 1226SOL     OW 4576   5.716   5.603   0.959
 1226SOL    HW1 4577   5.706   5.701   0.945
 1226SOL    HW2 4578   5.700   5.581   1.055
 1227SOL     OW 4579   4.914   4.643   6.898
 1227SOL    HW1 4580   5.002   4.678   6.930
 1227SOL    HW2 4581   4.845   4.660   6.968
 1228SOL     OW 4582   3.541   4.175   4.273
 1228SOL    HW1 4583   3.597   4.258   4.271
 1228SOL    HW2 4584   3.596   4.098   4.305
 1229SOL     OW 4585   2.514   5.426   3.154
 1229SOL    HW1 4586   2.474   5.362   3.219
 1229SOL    HW2 4587   2.451   5.501   3.138
 1230SOL     OW 4588   4.532   5.399   1.104
 1230SOL    HW1 4589   4.499   5.395   1.010
 1230SOL    HW2 4590   4.469   5.349   1.163
 1231SOL     OW 4591   2.154   1.422   0.104
 1231SOL    HW1 4592   2.205   1.464   0.029
 1231SOL    HW2 4593   2.151   1.323   0.091
 1232SOL     OW 4594   3.047   1.360   5.185
 1232SOL    HW1 4595   3.033   1.413   5.102
 1232SOL    HW2 4596   3.057   1.422   5.263
 1233SOL     OW 4597   0.276   5.279   4.738
 1233SOL    HW1 4598   0.284   5.282   4.639
 1233SOL    HW2 4599   0.192   5.231   4.764
 1234SOL     OW 4600   6.312   4.651   6.914
 1234SOL    HW1 4601   6.358   4.575   6.961
 1234SOL    HW2 4602   6.381   4.715   6.880
 1235SOL     OW 4603   5.953   4.760   1.096
 1235SOL    HW1 4604   5.962   4.784   1.193
 1235SOL    HW2 4605   6.036   4.788   1.047
 1236SOL     OW 4606   1.040   1.233   2.694
 1236SOL    HW1 4607   0.949   1.258   2.727
 1236SOL    HW2 4608   1.099   1.314   2.692
 1237SOL     OW 4609   1.234   0.316   4.274
 1237SOL    HW1 4610   1.216   0.332   4.371
 1237SOL    HW2 4611   1.295   0.388   4.240
 1238SOL     OW 4612   0.680   0.208   4.252
 1238SOL    HW1 4613   0.686   0.130   4.190
 1238SOL    HW2 4614   0.772   0.245   4.267
 1239SOL     OW 4615   4.779   4.385   3.935
 1239SOL    HW1 4616   4.831   4.400   4.020
 1239SOL    HW2 4617   4.825   4.432   3.860
 1240SOL     OW 4618   0.409   3.711   0.554
 1240SOL    HW1 4619   0.394   3.613   0.541
 1240SOL    HW2 4620   0.498   3.737   0.516
 1241SOL     OW 4621   3.942   5.542   6.107
 1241SOL    HW1 4622   4.023   5.484   6.115
 1241SOL    HW2 4623   3.861   5.485   6.091
 1242SOL     OW 4624   1.852   5.128   0.515
 1242SOL    HW1 4625   1.876   5.102   0.422
 1242SOL    HW2 4626   1.860   5.228   0.525
 1243SOL     OW 4627   1.277   3.837   3.399
 1243SOL    HW1 4628   1.352   3.851   3.463
 1243SOL    HW2 4629   1.284   3.747   3.357
 1244SOL     OW 4630   6.533   0.050   4.740
 1244SOL    HW1 4631   6.503   0.144   4.758
 1244SOL    HW2 4632   6.453   7.011   4.732
 1245SOL     OW 4633   4.343   6.744   1.187
 1245SOL    HW1 4634   4.379   6.783   1.103
 1245SOL    HW2 4635   4.271   6.804   1.223
 1246SOL     OW 4636   5.743   1.761   1.326
 1246SOL    HW1 4637   5.711   1.795   1.415
 1246SOL    HW2 4638   5.805   1.829   1.285
 1247SOL     OW 4639   5.307   6.980   2.788
 1247SOL    HW1 4640   5.220   6.995   2.835
 1247SOL    HW2 4641   5.348   6.894   2.818
 1248SOL     OW 4642   0.781   6.654   4.573
 1248SOL    HW1 4643   0.726   6.582   4.616
 1248SOL    HW2 4644   0.818   6.619   4.487
 1249SOL     OW 4645   5.979   6.265   6.990
 1249SOL    HW1 4646   5.999   6.225   0.059
 1249SOL    HW2 4647   6.035   6.347   6.977
 1250SOL     OW 4648   0.585   4.591   4.568
 1250SOL    HW1 4649   0.612   4.497   4.586
 1250SOL    HW2 4650   0.516   4.592   4.496
 1251SOL     OW 4651   3.242   0.359   2.598
 1251SOL    HW1 4652   3.146   0.344   2.575
 1251SOL    HW2 4653   3.277   0.435   2.544
 1252SOL     OW 4654   2.513   5.307   6.556
 1252SOL    HW1 4655   2.550   5.394   6.523
 1252SOL    HW2 4656   2.589   5.245   6.577
 1253SOL     OW 4657   2.864   6.327   0.005
 1253SOL    HW1 4658   2.863   6.359   0.100
 1253SOL    HW2 4659   2.952   6.285   7.005
 1254SOL     OW 4660   6.209   1.420   3.716
 1254SOL    HW1 4661   6.154   1.346   3.754
 1254SOL    HW2 4662   6.152   1.479   3.658
 1255SOL     OW 4663   6.021   2.013   5.583
 1255SOL    HW1 4664   6.062   2.084   5.639
 1255SOL    HW2 4665   5.923   2.005   5.605
 1256SOL     OW 4666   0.298   5.672   5.065
 1256SOL    HW1 4667   0.386   5.718   5.073
 1256SOL    HW2 4668   0.225   5.736   5.089
 1257SOL     OW 4669   6.991   6.274   3.269
 1257SOL    HW1 4670   6.900   6.312   3.257
 1257SOL    HW2 4671   7.006   6.200   3.202
 1258SOL     OW 4672   4.603   5.938   6.615
 1258SOL    HW1 4673   4.696   5.923   6.649
 1258SOL    HW2 4674   4.537   5.920   6.688
 1259SOL     OW 4675   5.578   6.767   5.499
 1259SOL    HW1 4676   5.668   6.805   5.476
 1259SOL    HW2 4677   5.524   6.836   5.545
 1260SOL     OW 4678   3.051   1.595   0.541
 1260SOL    HW1 4679   2.969   1.540   0.557
 1260SOL    HW2 4680   3.129   1.552   0.587
 1261SOL     OW 4681   6.961   4.453   4.417
 1261SOL    HW1 4682   6.885   4.425   4.474
 1261SOL    HW2 4683   0.022   4.466   4.474
 1262SOL     OW 4684   4.024   5.668   1.791
 1262SOL    HW1 4685   4.001   5.741   1.855
 1262SOL    HW2 4686   4.094   5.609   1.831
 1263SOL     OW 4687   6.885   1.753   0.837
 1263SOL    HW1 4688   6.895   1.666   0.886
 1263SOL    HW2 4689   6.938   1.824   0.883
 1264SOL     OW 4690   6.533   2.802   4.920
 1264SOL    HW1 4691   6.598   2.825   4.848
 1264SOL    HW2 4692   6.561   2.847   5.005
 1265SOL     OW 4693   6.340   6.080   4.426
 1265SOL    HW1 4694   6.253   6.041   4.397
 1265SOL    HW2 4695   6.346   6.175   4.394
 1266SOL     OW 4696   3.179   0.721   3.835
 1266SOL    HW1 4697   3.235   0.800   3.859
 1266SOL    HW2 4698   3.178   0.709   3.736
 1267SOL     OW 4699   0.263   4.320   2.721
 1267SOL    HW1 4700   0.188   4.364   2.770
 1267SOL    HW2 4701   0.258   4.221   2.733
 1268SOL     OW 4702   6.183   4.453   6.689
 1268SOL    HW1 4703   6.129   4.447   6.772
 1268SOL    HW2 4704   6.257   4.519   6.700
 1269SOL     OW 4705   6.969   5.139   6.579
 1269SOL    HW1 4706   6.924   5.101   6.498
 1269SOL    HW2 4707   6.905   5.198   6.629
 1270SOL     OW 4708   1.399   2.036   4.128
 1270SOL    HW1 4709   1.416   2.117   4.184
 1270SOL    HW2 4710   1.323   2.053   4.067
 1271SOL     OW 4711   5.114   2.324   3.603
 1271SOL    HW1 4712   5.094   2.389   3.530
 1271SOL    HW2 4713   5.165   2.370   3.676
 1272SOL     OW 4714   6.192   6.387   0.714
 1272SOL    HW1 4715   6.175   6.289   0.722
 1272SOL    HW2 4716   6.282   6.402   0.673
 1273SOL     OW 4717   2.631   6.848   5.672
 1273SOL    HW1 4718   2.708   6.819   5.729
 1273SOL    HW2 4719   2.600   6.938   5.701
 1274SOL     OW 4720   5.953   2.082   2.683
 1274SOL    HW1 4721   5.905   2.099   2.597
 1274SOL    HW2 4722   6.030   2.021   2.667
 1275SOL     OW 4723   3.918   1.862   3.981
 1275SOL    HW1 4724   3.913   1.956   3.948
 1275SOL    HW2 4725   3.869   1.854   4.068
 1276SOL     OW 4726   6.391   6.927   2.471
 1276SOL    HW1 4727   6.415   6.843   2.421
 1276SOL    HW2 4728   6.321   6.906   2.539
 1277SOL     OW 4729   1.057   1.923   4.698
 1277SOL    HW1 4730   1.091   1.829   4.701
 1277SOL    HW2 4731   0.981   1.929   4.633
 1278SOL     OW 4732   3.282   1.140   5.792
 1278SOL    HW1 4733   3.277   1.041   5.798
 1278SOL    HW2 4734   3.375   1.167   5.766
 1279SOL     OW 4735   2.158   4.887   0.356
 1279SOL    HW1 4736   2.074   4.890   0.301
 1279SOL    HW2 4737   2.234   4.923   0.301
 1280SOL     OW 4738   1.838   5.508   2.796
 1280SOL    HW1 4739   1.878   5.452   2.870
 1280SOL    HW2 4740   1.867   5.603   2.807
 1281SOL     OW 4741   0.686   6.834   3.791
 1281SOL    HW1 4742   0.623   6.781   3.849
 1281SOL    HW2 4743   0.778   6.832   3.831
 1282SOL     OW 4744   1.322   6.861   2.410
 1282SOL    HW1 4745   1.331   6.932   2.480
 1282SOL    HW2 4746   1.361   6.775   2.445
 1283SOL     OW 4747   4.760   4.132   5.170
 1283SOL    HW1 4748   4.739   4.041   5.206
 1283SOL    HW2 4749   4.803   4.187   5.241
 1284SOL     OW 4750   2.706   2.017   2.973
 1284SOL    HW1 4751   2.772   1.958   2.927
 1284SOL    HW2 4752   2.754   2.079   3.036
 1285SOL     OW 4753   5.689   2.859   5.794
 1285SOL    HW1 4754   5.736   2.799   5.730
 1285SOL    HW2 4755   5.593   2.831   5.802
 1286SOL     OW 4756   6.138   6.228   1.803
 1286SOL    HW1 4757   6.074   6.175   1.746
 1286SOL    HW2 4758   6.146   6.184   1.893
 1287SOL     OW 4759   6.341   4.137   5.895
 1287SOL    HW1 4760   6.356   4.040   5.875
 1287SOL    HW2 4761   6.424   4.189   5.873
 1288SOL     OW 4762   6.392   2.718   3.753
 1288SOL    HW1 4763   6.454   2.786   3.714
 1288SOL    HW2 4764   6.298   2.751   3.747
 1289SOL     OW 4765   6.931   4.944   2.779
 1289SOL    HW1 4766   6.943   4.942   2.879
 1289SOL    HW2 4767   6.861   4.877   2.754
 1290SOL     OW 4768   0.549   0.437   1.046
 1290SOL    HW1 4769   0.631   0.391   1.012
 1290SOL    HW2 4770   0.565   0.536   1.052
 1291SOL     OW 4771   1.730   0.275   0.713
 1291SOL    HW1 4772   1.802   0.276   0.782
 1291SOL    HW2 4773   1.659   0.210   0.738
 1292SOL     OW 4774   0.840   5.914   6.539
 1292SOL    HW1 4775   0.778   5.852   6.588
 1292SOL    HW2 4776   0.896   5.963   6.605
 1293SOL     OW 4777   6.280   2.781   5.992
 1293SOL    HW1 4778   6.234   2.814   6.074
 1293SOL    HW2 4779   6.351   2.845   5.965
 1294SOL     OW 4780   0.317   1.870   3.493
 1294SOL    HW1 4781   0.272   1.953   3.527
 1294SOL    HW2 4782   0.416   1.884   3.493
 1295SOL     OW 4783   4.954   3.444   1.658
 1295SOL    HW1 4784   4.927   3.348   1.653
 1295SOL    HW2 4785   4.979   3.467   1.752
 1296SOL     OW 4786   3.808   2.281   0.304
 1296SOL    HW1 4787   3.719   2.244   0.330
 1296SOL    HW2 4788   3.828   2.362   0.359
 1297SOL     OW 4789   6.650   0.887   6.093
 1297SOL    HW1 4790   6.687   0.800   6.127
 1297SOL    HW2 4791   6.722   0.936   6.043
 1298SOL     OW 4792   6.633   2.694   3.409
 1298SOL    HW1 4793   6.721   2.649   3.407
 1298SOL    HW2 4794   6.571   2.650   3.343
 1299SOL     OW 4795   1.377   2.985   4.005
 1299SOL    HW1 4796   1.402   2.895   4.039
 1299SOL    HW2 4797   1.377   3.051   4.081
 1300SOL     OW 4798   3.958   3.507   1.969
 1300SOL    HW1 4799   3.996   3.594   2.001
 1300SOL    HW2 4800   4.009   3.431   2.011
 1301SOL     OW 4801   0.580   0.459   2.381
 1301SOL    HW1 4802   0.539   0.494   2.465
 1301SOL    HW2 4803   0.595   0.361   2.390
 1302SOL     OW 4804   2.932   5.942   5.494
 1302SOL    HW1 4805   2.845   5.987   5.477
 1302SOL    HW2 4806   2.917   5.858   5.547
 1303SOL     OW 4807   2.826   0.125   1.299
 1303SOL    HW1 4808   2.809   0.214   1.343
 1303SOL    HW2 4809   2.904   0.133   1.238
 1304SOL     OW 4810   3.348   1.093   6.489
 1304SOL    HW1 4811   3.268   1.034   6.498
 1304SOL    HW2 4812   3.394   1.075   6.403
 1305SOL     OW 4813   5.987   6.087   3.873
 1305SOL    HW1 4814   6.045   6.007   3.884
 1305SOL    HW2 4815   5.908   6.079   3.934
 1306SOL     OW 4816   1.315   4.824   4.703
 1306SOL    HW1 4817   1.217   4.803   4.704
 1306SOL    HW2 4818   1.353   4.803   4.613
 1307SOL     OW 4819   1.484   1.798   4.010
 1307SOL    HW1 4820   1.533   1.838   3.932
 1307SOL    HW2 4821   1.452   1.871   4.070
 1308SOL     OW 4822   4.355   6.262   3.292
 1308SOL    HW1 4823   4.297   6.337   3.324
 1308SOL    HW2 4824   4.346   6.253   3.192
 1309SOL     OW 4825   5.629   2.945   4.876
 1309SOL    HW1 4826   5.600   3.041   4.874
 1309SOL    HW2 4827   5.579   2.897   4.948
 1310SOL     OW 4828   5.639   3.675   5.398
 1310SOL    HW1 4829   5.598   3.766   5.385
 1310SOL    HW2 4830   5.672   3.666   5.492
 1311SOL     OW 4831   5.323   5.142   5.323
 1311SOL    HW1 4832   5.287   5.167   5.233
 1311SOL    HW2 4833   5.408   5.090   5.312
 1312SOL     OW 4834   6.030   7.015   2.035
 1312SOL    HW1 4835   6.077   0.020   2.120
 1312SOL    HW2 4836   6.097   6.998   1.963
 1313SOL     OW 4837   3.117   5.040   4.778
 1313SOL    HW1 4838   3.057   4.988   4.718
 1313SOL    HW2 4839   3.128   5.133   4.743
 1314SOL     OW 4840   6.204   1.699   5.554
 1314SOL    HW1 4841   6.169   1.782   5.598
 1314SOL    HW2 4842   6.284   1.666   5.603
 1315SOL     OW 4843   2.445   6.964   3.277
 1315SOL    HW1 4844   2.392   6.885   3.244
 1315SOL    HW2 4845   2.396   0.028   3.257
 1316SOL     OW 4846   3.590   6.446   2.906
 1316SOL    HW1 4847   3.493   6.426   2.889
 1316SOL    HW2 4848   3.598   6.528   2.962
 1317SOL     OW 4849   0.372   3.523   4.208
 1317SOL    HW1 4850   0.465   3.507   4.242
 1317SOL    HW2 4851   0.358   3.470   4.124
 1318SOL     OW 4852   1.027   6.378   1.413
 1318SOL    HW1 4853   0.961   6.429   1.357
 1318SOL    HW2 4854   1.075   6.442   1.474
 1319SOL     OW 4855   6.731   0.470   0.484
 1319SOL    HW1 4856   6.658   0.429   0.428
 1319SOL    HW2 4857   6.691   0.537   0.546
 1320SOL     OW 4858   5.298   6.107   5.172
 1320SOL    HW1 4859   5.319   6.010   5.157
 1320SOL    HW2 4860   5.229   6.136   5.105
 1321SOL     OW 4861   3.058   1.642   6.613
 1321SOL    HW1 4862   3.151   1.606   6.613
 1321SOL    HW2 4863   3.061   1.741   6.626
 1322SOL     OW 4864   5.192   1.842   5.986
 1322SOL    HW1 4865   5.212   1.867   5.892
 1322SOL    HW2 4866   5.136   1.913   6.029
 1323SOL     OW 4867   5.993   1.373   4.471
 1323SOL    HW1 4868   6.025   1.289   4.429
 1323SOL    HW2 4869   6.070   1.437   4.481
 1324SOL     OW 4870   1.378   3.496   0.138
 1324SOL    HW1 4871   1.386   3.505   0.039
 1324SOL    HW2 4872   1.390   3.586   0.181
 1325SOL     OW 4873   4.353   5.313   3.688
 1325SOL    HW1 4874   4.341   5.405   3.650
 1325SOL    HW2 4875   4.419   5.262   3.633
 1326SOL     OW 4876   5.071   4.049   4.339
 1326SOL    HW1 4877   5.009   4.128   4.338
 1326SOL    HW2 4878   5.062   3.998   4.254
 1327SOL     OW 4879   3.081   6.057   4.260
 1327SOL    HW1 4880   3.113   6.020   4.173
 1327SOL    HW2 4881   2.982   6.071   4.255
 1328SOL     OW 4882   2.184   1.496   0.689
 1328SOL    HW1 4883   2.249   1.498   0.765
 1328SOL    HW2 4884   2.160   1.589   0.663
 1329SOL     OW 4885   0.499   6.778   1.935
 1329SOL    HW1 4886   0.576   6.721   1.960
 1329SOL    HW2 4887   0.458   6.818   2.017
 1330SOL     OW 4888   4.609   6.571   0.970
 1330SOL    HW1 4889   4.548   6.567   0.891
 1330SOL    HW2 4890   4.687   6.509   0.955
 1331SOL     OW 4891   0.051   1.653   2.034
 1331SOL    HW1 4892   0.099   1.632   2.120
 1331SOL    HW2 4893   0.103   1.615   1.957
 1332SOL     OW 4894   4.046   1.917   1.235
 1332SOL    HW1 4895   4.081   2.000   1.192
 1332SOL    HW2 4896   4.023   1.850   1.165
 1333SOL     OW 4897   4.010   3.810   4.525
 1333SOL    HW1 4898   3.985   3.764   4.610
 1333SOL    HW2 4899   4.025   3.907   4.543
 1334SOL     OW 4900   0.352   3.550   3.897
 1334SOL    HW1 4901   0.451   3.564   3.888
 1334SOL    HW2 4902   0.305   3.600   3.824
 1335SOL     OW 4903   2.836   5.450   2.118
 1335SOL    HW1 4904   2.922   5.412   2.082
 1335SOL    HW2 4905   2.858   5.520   2.186
 1336SOL     OW 4906   0.539   0.795   4.866
 1336SOL    HW1 4907   0.571   0.890   4.867
 1336SOL    HW2 4908   0.468   0.782   4.936
 1337SOL     OW 4909   3.543   0.627   6.916
 1337SOL    HW1 4910   3.532   0.659   7.010
 1337SOL    HW2 4911   3.633   0.584   6.905
 1338SOL     OW 4912   3.431   5.542   1.399
 1338SOL    HW1 4913   3.419   5.510   1.493
 1338SOL    HW2 4914   3.423   5.465   1.336
 1339SOL     OW 4915   0.092   4.522   6.612
 1339SOL    HW1 4916   0.133   4.480   6.531
 1339SOL    HW2 4917   7.016   4.543   6.594
 1340SOL     OW 4918   1.894   0.859   6.550
 1340SOL    HW1 4919   1.851   0.946   6.574
 1340SOL    HW2 4920   1.866   0.832   6.458
 1341SOL     OW 4921   5.853   2.668   4.086
 1341SOL    HW1 4922   5.771   2.647   4.032
 1341SOL    HW2 4923   5.934   2.636   4.038
 1342SOL     OW 4924   0.566   6.363   1.916
 1342SOL    HW1 4925   0.634   6.392   1.984
 1342SOL    HW2 4926   0.575   6.417   1.833
 1343SOL     OW 4927   3.246   5.658   4.006
 1343SOL    HW1 4928   3.233   5.657   4.105
 1343SOL    HW2 4929   3.289   5.744   3.979
 1344SOL     OW 4930   4.997   1.227   2.860
 1344SOL    HW1 4931   4.906   1.260   2.837
 1344SOL    HW2 4932   5.061   1.303   2.863
 1345SOL     OW 4933   0.903   5.820   2.965
 1345SOL    HW1 4934   0.931   5.779   3.051
 1345SOL    HW2 4935   0.944   5.910   2.955
 1346SOL     OW 4936   0.513   1.124   3.678
 1346SOL    HW1 4937   0.535   1.045   3.736
 1346SOL    HW2 4938   0.466   1.193   3.734
 1347SOL     OW 4939   4.804   0.344   3.621
 1347SOL    HW1 4940   4.807   0.255   3.666
 1347SOL    HW2 4941   4.716   0.388   3.640
 1348SOL     OW 4942   4.725   5.984   4.568
 1348SOL    HW1 4943   4.776   6.063   4.602
 1348SOL    HW2 4944   4.789   5.918   4.528
 1349SOL     OW 4945   4.565   2.273   0.028
 1349SOL    HW1 4946   4.618   2.271   0.113
 1349SOL    HW2 4947   4.516   2.360   0.020
 1350SOL     OW 4948   3.539   0.592   5.102
 1350SOL    HW1 4949   3.611   0.652   5.069
 1350SOL    HW2 4950   3.575   0.533   5.174
 1351SOL     OW 4951   1.296   1.523   4.251
 1351SOL    HW1 4952   1.225   1.484   4.310
 1351SOL    HW2 4953   1.284   1.622   4.245
 1352SOL     OW 4954   0.744   6.391   4.178
 1352SOL    HW1 4955   0.755   6.487   4.150
 1352SOL    HW2 4956   0.833   6.345   4.174
 1353SOL     OW 4957   2.178   2.674   5.148
 1353SOL    HW1 4958   2.099   2.615   5.167
 1353SOL    HW2 4959   2.185   2.689   5.049
 1354SOL     OW 4960   0.330   0.269   0.593
 1354SOL    HW1 4961   0.362   0.187   0.641
 1354SOL    HW2 4962   0.314   0.342   0.660
 1355SOL     OW 4963   3.907   3.176   6.859
 1355SOL    HW1 4964   3.936   3.271   6.873
 1355SOL    HW2 4965   3.827   3.174   6.800
 1356SOL     OW 4966   3.147   2.839   1.922
 1356SOL    HW1 4967   3.128   2.765   1.986
 1356SOL    HW2 4968   3.072   2.848   1.856
 1357SOL     OW 4969   2.968   2.880   5.644
 1357SOL    HW1 4970   3.057   2.909   5.680
 1357SOL    HW2 4971   2.895   2.915   5.703
 1358SOL     OW 4972   1.979   3.691   5.783
 1358SOL    HW1 4973   1.882   3.712   5.788
 1358SOL    HW2 4974   2.016   3.724   5.696
 1359SOL     OW 4975   6.970   1.468   0.161
 1359SOL    HW1 4976   6.885   1.478   0.108
 1359SOL    HW2 4977   0.023   1.439   0.100
 1360SOL     OW 4978   3.256   3.070   3.929
 1360SOL    HW1 4979   3.343   3.120   3.926
 1360SOL    HW2 4980   3.234   3.047   4.023
 1361SOL     OW 4981   0.767   6.100   1.324
 1361SOL    HW1 4982   0.851   6.082   1.272
 1361SOL    HW2 4983   0.790   6.120   1.419
 1362SOL     OW 4984   3.059   1.903   6.642
 1362SOL    HW1 4985   3.107   1.904   6.554
 1362SOL    HW2 4986   3.007   1.988   6.653
 1363SOL     OW 4987   6.524   6.765   1.015
 1363SOL    HW1 4988   6.494   6.860   1.013
 1363SOL    HW2 4989   6.618   6.760   1.049
 1364SOL     OW 4990   1.084   3.644   0.861
 1364SOL    HW1 4991   1.058   3.654   0.765
 1364SOL    HW2 4992   1.168   3.591   0.867
 1365SOL     OW 4993   0.953   3.758   5.378
 1365SOL    HW1 4994   0.872   3.810   5.404
 1365SOL    HW2 4995   1.023   3.769   5.448
 1366SOL     OW 4996   3.821   0.859   1.430
 1366SOL    HW1 4997   3.871   0.936   1.470
 1366SOL    HW2 4998   3.875   0.819   1.356
 1367SOL     OW 4999   1.715   6.803   4.833
 1367SOL    HW1 5000   1.699   6.762   4.743
 1367SOL    HW2 5001   1.808   6.839   4.837
 1368SOL     OW 5002   1.769   6.340   4.758
 1368SOL    HW1 5003   1.838   6.269   4.775
 1368SOL    HW2 5004   1.711   6.349   4.839
 1369SOL     OW 5005   2.551   5.495   3.767
 1369SOL    HW1 5006   2.464   5.449   3.784
 1369SOL    HW2 5007   2.620   5.428   3.742
 1370SOL     OW 5008   6.806   2.561   2.994
 1370SOL    HW1 5009   6.725   2.521   2.952
 1370SOL    HW2 5010   6.827   2.513   3.079
 1371SOL     OW 5011   5.932   2.303   5.504
 1371SOL    HW1 5012   5.905   2.396   5.478
 1371SOL    HW2 5013   5.992   2.265   5.434
 1372SOL     OW 5014   5.947   2.843   1.222
 1372SOL    HW1 5015   5.880   2.905   1.263
 1372SOL    HW2 5016   5.975   2.775   1.291
 1373SOL     OW 5017   5.869   3.345   2.015
 1373SOL    HW1 5018   5.850   3.287   1.936
 1373SOL    HW2 5019   5.794   3.338   2.080
 1374SOL     OW 5020   3.805   3.085   2.295
 1374SOL    HW1 5021   3.748   3.003   2.303
 1374SOL    HW2 5022   3.846   3.089   2.204
 1375SOL     OW 5023   5.160   4.488   4.546
 1375SOL    HW1 5024   5.144   4.568   4.603
 1375SOL    HW2 5025   5.232   4.432   4.586
 1376SOL     OW 5026   3.193   4.371   5.621
 1376SOL    HW1 5027   3.106   4.323   5.633
 1376SOL    HW2 5028   3.265   4.321   5.669
 1377SOL     OW 5029   1.973   1.583   2.731
 1377SOL    HW1 5030   1.922   1.585   2.645
 1377SOL    HW2 5031   2.060   1.631   2.719
 1378SOL     OW 5032   5.447   2.306   4.465
 1378SOL    HW1 5033   5.391   2.387   4.447
 1378SOL    HW2 5034   5.431   2.238   4.393
 1379SOL     OW 5035   4.264   5.662   6.999
 1379SOL    HW1 5036   4.263   5.614   0.065
 1379SOL    HW2 5037   4.272   5.596   6.924
 1380SOL     OW 5038   0.258   5.779   3.264
 1380SOL    HW1 5039   0.247   5.797   3.362
 1380SOL    HW2 5040   0.348   5.810   3.234
 1381SOL     OW 5041   6.362   2.509   6.163
 1381SOL    HW1 5042   6.452   2.547   6.186
 1381SOL    HW2 5043   6.296   2.533   6.234
 1382SOL     OW 5044   4.793   2.629   6.720
 1382SOL    HW1 5045   4.733   2.709   6.721
 1382SOL    HW2 5046   4.825   2.610   6.812
 1383SOL     OW 5047   6.850   0.392   0.713
 1383SOL    HW1 5048   6.864   0.480   0.757
 1383SOL    HW2 5049   6.819   0.405   0.619
 1384SOL     OW 5050   5.910   2.013   1.826
 1384SOL    HW1 5051   5.980   1.994   1.894
 1384SOL    HW2 5052   5.824   2.036   1.872
 1385SOL     OW 5053   0.421   6.031   1.357
 1385SOL    HW1 5054   0.422   6.070   1.450
 1385SOL    HW2 5055   0.493   6.073   1.302
 1386SOL     OW 5056   2.243   5.482   4.358
 1386SOL    HW1 5057   2.210   5.388   4.366
 1386SOL    HW2 5058   2.172   5.538   4.315
 1387SOL     OW 5059   2.164   5.727   1.714
 1387SOL    HW1 5060   2.207   5.663   1.650
 1387SOL    HW2 5061   2.066   5.712   1.716
 1388SOL     OW 5062   6.364   0.196   2.145
 1388SOL    HW1 5063   6.337   0.178   2.239
 1388SOL    HW2 5064   6.392   0.291   2.136
 1389SOL     OW 5065   5.857   1.033   2.589
 1389SOL    HW1 5066   5.882   1.027   2.686
 1389SOL    HW2 5067   5.890   0.952   2.541
 1390SOL     OW 5068   1.564   1.735   4.837
 1390SOL    HW1 5069   1.639   1.719   4.901
 1390SOL    HW2 5070   1.544   1.650   4.788
 1391SOL     OW 5071   0.357   3.110   3.454
 1391SOL    HW1 5072   0.385   3.016   3.472
 1391SOL    HW2 5073   0.292   3.111   3.377
 1392SOL     OW 5074   5.232   4.316   4.090
 1392SOL    HW1 5075   5.221   4.410   4.056
 1392SOL    HW2 5076   5.242   4.318   4.189
 1393SOL     OW 5077   3.442   5.560   6.632
 1393SOL    HW1 5078   3.376   5.529   6.701
 1393SOL    HW2 5079   3.487   5.481   6.590
 1394SOL     OW 5080   1.643   6.181   6.990
 1394SOL    HW1 5081   1.715   6.112   6.976
 1394SOL    HW2 5082   1.590   6.192   6.906
 1395SOL     OW 5083   3.803   5.052   5.811
 1395SOL    HW1 5084   3.820   5.068   5.714
 1395SOL    HW2 5085   3.849   4.968   5.840
 1396SOL     OW 5086   6.045   6.386   3.775
 1396SOL    HW1 5087   6.018   6.290   3.782
 1396SOL    HW2 5088   6.134   6.393   3.731
 1397SOL     OW 5089   4.689   5.970   5.702
 1397SOL    HW1 5090   4.695   5.872   5.681
 1397SOL    HW2 5091   4.698   6.023   5.618
 1398SOL     OW 5092   2.066   0.923   4.534
 1398SOL    HW1 5093   2.090   0.945   4.439
 1398SOL    HW2 5094   1.980   0.872   4.535
 1399SOL     OW 5095   3.004   5.948   2.344
 1399SOL    HW1 5096   3.036   6.042   2.357
 1399SOL    HW2 5097   3.065   5.901   2.281
 1400SOL     OW 5098   2.168   6.695   2.451
 1400SOL    HW1 5099   2.264   6.668   2.454
 1400SOL    HW2 5100   2.113   6.618   2.418
 1401SOL     OW 5101   6.464   1.550   4.344
 1401SOL    HW1 5102   6.452   1.461   4.302
 1401SOL    HW2 5103   6.498   1.615   4.277
 1402SOL     OW 5104   6.560   3.246   0.543
 1402SOL    HW1 5105   6.625   3.293   0.602
 1402SOL    HW2 5106   6.532   3.160   0.585
 1403SOL     OW 5107   3.478   0.489   2.040
 1403SOL    HW1 5108   3.497   0.424   2.113
 1403SOL    HW2 5109   3.564   0.526   2.004
 1404SOL     OW 5110   5.318   1.459   0.361
 1404SOL    HW1 5111   5.409   1.469   0.401
 1404SOL    HW2 5112   5.249   1.484   0.430
 1405SOL     OW 5113   3.488   2.949   1.137
 1405SOL    HW1 5114   3.427   2.952   1.058
 1405SOL    HW2 5115   3.434   2.957   1.221
 1406SOL     OW 5116   1.514   4.196   1.269
 1406SOL    HW1 5117   1.520   4.107   1.315
 1406SOL    HW2 5118   1.554   4.267   1.326
 1407SOL     OW 5119   6.547   2.080   2.724
 1407SOL    HW1 5120   6.589   1.989   2.730
 1407SOL    HW2 5121   6.491   2.096   2.805
 1408SOL     OW 5122   6.350   0.070   6.121
 1408SOL    HW1 5123   6.317   0.134   6.190
 1408SOL    HW2 5124   6.447   0.084   6.105
 1409SOL     OW 5125   0.618   1.470   4.096
 1409SOL    HW1 5126   0.609   1.370   4.092
 1409SOL    HW2 5127   0.664   1.496   4.180
 1410SOL     OW 5128   6.819   2.913   7.009
 1410SOL    HW1 5129   6.739   2.854   6.998
 1410SOL    HW2 5130   6.794   2.994   0.041
 1411SOL     OW 5131   1.826   0.613   1.650
 1411SOL    HW1 5132   1.776   0.531   1.681
 1411SOL    HW2 5133   1.767   0.667   1.591
 1412SOL     OW 5134   1.360   2.725   6.784
 1412SOL    HW1 5135   1.402   2.675   6.709
 1412SOL    HW2 5136   1.344   2.820   6.756
 1413SOL     OW 5137   3.227   7.018   3.892
 1413SOL    HW1 5138   3.294   0.072   3.892
 1413SOL    HW2 5139   3.181   7.014   3.804
 1414SOL     OW 5140   3.104   0.655   1.740
 1414SOL    HW1 5141   3.048   0.625   1.817
 1414SOL    HW2 5142   3.048   0.712   1.679
 1415SOL     OW 5143   4.450   6.168   5.745
 1415SOL    HW1 5144   4.366   6.155   5.797
 1415SOL    HW2 5145   4.512   6.091   5.763
 1416SOL     OW 5146   4.661   5.821   3.136
 1416SOL    HW1 5147   4.645   5.915   3.167
 1416SOL    HW2 5148   4.598   5.759   3.183
 1417SOL     OW 5149   3.412   2.780   6.301
 1417SOL    HW1 5150   3.373   2.692   6.328
 1417SOL    HW2 5151   3.340   2.838   6.263
 1418SOL     OW 5152   3.285   4.004   2.698
 1418SOL    HW1 5153   3.313   4.088   2.652
 1418SOL    HW2 5154   3.186   3.995   2.697
 1419SOL     OW 5155   4.467   6.199   4.679
 1419SOL    HW1 5156   4.424   6.290   4.686
 1419SOL    HW2 5157   4.486   6.179   4.583
 1420SOL     OW 5158   0.196   5.772   1.745
 1420SOL    HW1 5159   0.196   5.795   1.843
 1420SOL    HW2 5160   0.199   5.856   1.691
 1421SOL     OW 5161   3.917   1.021   3.044
 1421SOL    HW1 5162   3.964   0.974   2.968
 1421SOL    HW2 5163   3.973   1.012   3.127
 1422SOL     OW 5164   2.536   6.489   0.314
 1422SOL    HW1 5165   2.516   6.510   0.218
 1422SOL    HW2 5166   2.598   6.558   0.351
 1423SOL     OW 5167   4.832   0.370   2.390
 1423SOL    HW1 5168   4.926   0.403   2.396
 1423SOL    HW2 5169   4.771   0.447   2.372
 1424SOL     OW 5170   6.413   4.814   2.620
 1424SOL    HW1 5171   6.339   4.748   2.606
 1424SOL    HW2 5172   6.487   4.795   2.555
 1425SOL     OW 5173   2.032   6.852   4.770
 1425SOL    HW1 5174   2.124   6.857   4.729
 1425SOL    HW2 5175   2.031   6.903   4.856
 1426SOL     OW 5176   2.072   1.268   5.752
 1426SOL    HW1 5177   1.994   1.286   5.692
 1426SOL    HW2 5178   2.054   1.307   5.842
 1427SOL     OW 5179   6.260   0.874   4.687
 1427SOL    HW1 5180   6.287   0.848   4.780
 1427SOL    HW2 5181   6.289   0.968   4.668
 1428SOL     OW 5182   5.541   1.476   0.125
 1428SOL    HW1 5183   5.545   1.506   0.220
 1428SOL    HW2 5184   5.628   1.495   0.080
 1429SOL     OW 5185   5.566   6.957   0.277
 1429SOL    HW1 5186   5.546   6.934   0.372
 1429SOL    HW2 5187   5.486   6.939   0.220
 1430SOL     OW 5188   1.805   4.586   3.501
 1430SOL    HW1 5189   1.807   4.686   3.499
 1430SOL    HW2 5190   1.716   4.554   3.468
 1431SOL     OW 5191   1.303   0.947   1.310
 1431SOL    HW1 5192   1.349   0.911   1.392
 1431SOL    HW2 5193   1.344   0.907   1.228
 1432SOL     OW 5194   2.814   6.953   1.826
 1432SOL    HW1 5195   2.824   0.027   1.797
 1432SOL    HW2 5196   2.904   6.909   1.831
 1433SOL     OW 5197   4.418   0.578   4.479
 1433SOL    HW1 5198   4.404   0.543   4.386
 1433SOL    HW2 5199   4.335   0.623   4.511
 1434SOL     OW 5200   0.949   0.821   5.301
 1434SOL    HW1 5201   0.941   0.914   5.266
 1434SOL    HW2 5202   0.912   0.816   5.394
 1435SOL     OW 5203   0.162   1.650   3.644
 1435SOL    HW1 5204   0.194   1.731   3.594
 1435SOL    HW2 5205   0.199   1.650   3.737
 1436SOL     OW 5206   4.456   4.035   0.657
 1436SOL    HW1 5207   4.523   3.961   0.646
 1436SOL    HW2 5208   4.500   4.122   0.634
 1437SOL     OW 5209   3.921   1.114   2.589
 1437SOL    HW1 5210   3.855   1.154   2.652
 1437SOL    HW2 5211   3.993   1.181   2.569
 1438SOL     OW 5212   1.869   0.631   1.335
 1438SOL    HW1 5213   1.852   0.730   1.343
 1438SOL    HW2 5214   1.905   0.610   1.245
 1439SOL     OW 5215   0.657   5.802   2.525
 1439SOL    HW1 5216   0.713   5.720   2.529
 1439SOL    HW2 5217   0.638   5.825   2.429
 1440SOL     OW 5218   2.305   3.110   1.717
 1440SOL    HW1 5219   2.262   3.157   1.794
 1440SOL    HW2 5220   2.328   3.016   1.744
 1441SOL     OW 5221   5.073   6.047   0.812
 1441SOL    HW1 5222   5.065   6.093   0.901
 1441SOL    HW2 5223   5.146   5.979   0.816
 1442SOL     OW 5224   5.144   5.457   0.816
 1442SOL    HW1 5225   5.221   5.517   0.834
 1442SOL    HW2 5226   5.175   5.362   0.818
 1443SOL     OW 5227   0.146   2.643   2.711
 1443SOL    HW1 5228   0.089   2.562   2.727
 1443SOL    HW2 5229   0.101   2.724   2.750
 1444SOL     OW 5230   0.657   4.952   6.512
 1444SOL    HW1 5231   0.617   5.041   6.534
 1444SOL    HW2 5232   0.600   4.880   6.552
 1445SOL     OW 5233   1.023   3.586   1.543
 1445SOL    HW1 5234   1.087   3.606   1.469
 1445SOL    HW2 5235   0.945   3.536   1.507
 1446SOL     OW 5236   6.687   6.207   0.800
 1446SOL    HW1 5237   6.594   6.244   0.804
 1446SOL    HW2 5238   6.713   6.173   0.891
 1447SOL     OW 5239   5.708   5.536   4.406
 1447SOL    HW1 5240   5.749   5.507   4.319
 1447SOL    HW2 5241   5.751   5.621   4.437
 1448SOL     OW 5242   0.836   2.775   5.653
 1448SOL    HW1 5243   0.808   2.724   5.571
 1448SOL    HW2 5244   0.768   2.846   5.673
 1449SOL     OW 5245   2.152   3.023   2.946
 1449SOL    HW1 5246   2.176   3.040   2.850
 1449SOL    HW2 5247   2.211   3.078   3.005
 1450SOL     OW 5248   2.954   1.906   3.938
 1450SOL    HW1 5249   3.047   1.869   3.944
 1450SOL    HW2 5250   2.958   2.002   3.911
 1451SOL     OW 5251   2.908   1.293   2.851
 1451SOL    HW1 5252   2.915   1.387   2.817
 1451SOL    HW2 5253   2.989   1.271   2.904
 1452SOL     OW 5254   4.703   3.123   6.664
 1452SOL    HW1 5255   4.757   3.162   6.739
 1452SOL    HW2 5256   4.614   3.168   6.660
 1453SOL     OW 5257   6.962   4.158   5.374
 1453SOL    HW1 5258   0.019   4.108   5.413
 1453SOL    HW2 5259   6.987   4.194   5.285
 1454SOL     OW 5260   3.535   2.109   2.987
 1454SOL    HW1 5261   3.520   2.012   2.965
 1454SOL    HW2 5262   3.633   2.128   2.987
 1455SOL     OW 5263   0.238   5.835   2.009
 1455SOL    HW1 5264   0.201   5.794   2.092
 1455SOL    HW2 5265   0.337   5.849   2.020
 1456SOL     OW 5266   6.463   5.148   4.311
 1456SOL    HW1 5267   6.459   5.123   4.407
 1456SOL    HW2 5268   6.536   5.215   4.296
 1457SOL     OW 5269   1.164   5.233   6.066
 1457SOL    HW1 5270   1.152   5.318   6.117
 1457SOL    HW2 5271   1.198   5.162   6.127
 1458SOL     OW 5272   5.562   5.004   5.312
 1458SOL    HW1 5273   5.560   4.915   5.358
 1458SOL    HW2 5274   5.620   4.998   5.230
 1459SOL     OW 5275   5.942   6.571   5.514
 1459SOL    HW1 5276   5.918   6.475   5.526
 1459SOL    HW2 5277   5.900   6.606   5.430
 1460SOL     OW 5278   1.600   6.653   5.137
 1460SOL    HW1 5279   1.607   6.637   5.235
 1460SOL    HW2 5280   1.508   6.688   5.115
 1461SOL     OW 5281   6.087   2.856   3.812
 1461SOL    HW1 5282   6.089   2.955   3.817
 1461SOL    HW2 5283   6.077   2.818   3.904
 1462SOL     OW 5284   0.135   1.209   1.606
 1462SOL    HW1 5285   0.094   1.252   1.686
 1462SOL    HW2 5286   0.234   1.205   1.617
 1463SOL     OW 5287   2.054   5.753   6.824
 1463SOL    HW1 5288   2.065   5.680   6.891
 1463SOL    HW2 5289   2.125   5.822   6.837
 1464SOL     OW 5290   1.146   4.319   4.057
 1464SOL    HW1 5291   1.128   4.412   4.026
 1464SOL    HW2 5292   1.155   4.259   3.977
 1465SOL     OW 5293   1.336   3.107   4.236
 1465SOL    HW1 5294   1.244   3.120   4.201
 1465SOL    HW2 5295   1.343   3.148   4.327
 1466SOL     OW 5296   5.369   1.623   2.570
 1466SOL    HW1 5297   5.298   1.569   2.616
 1466SOL    HW2 5298   5.329   1.707   2.534
 1467SOL     OW 5299   0.212   0.300   3.614
 1467SOL    HW1 5300   0.188   0.307   3.517
 1467SOL    HW2 5301   0.204   0.390   3.656
 1468SOL     OW 5302   3.113   5.590   2.497
 1468SOL    HW1 5303   3.208   5.559   2.507
 1468SOL    HW2 5304   3.101   5.677   2.546
 1469SOL     OW 5305   6.019   3.973   3.504
 1469SOL    HW1 5306   5.924   4.002   3.488
 1469SOL    HW2 5307   6.080   4.050   3.490
 1470SOL     OW 5308   5.781   1.682   2.214
 1470SOL    HW1 5309   5.684   1.707   2.222
 1470SOL    HW2 5310   5.837   1.760   2.241
 1471SOL     OW 5311   4.594   0.197   0.859
 1471SOL    HW1 5312   4.641   0.123   0.908
 1471SOL    HW2 5313   4.661   0.263   0.827
 1472SOL     OW 5314   1.523   0.239   6.257
 1472SOL    HW1 5315   1.547   0.164   6.197
 1472SOL    HW2 5316   1.428   0.266   6.241
 1473SOL     OW 5317   1.660   5.837   3.668
 1473SOL    HW1 5318   1.709   5.921   3.688
 1473SOL    HW2 5319   1.660   5.778   3.749
 1474SOL     OW 5320   2.774   4.786   1.359
 1474SOL    HW1 5321   2.831   4.868   1.359
 1474SOL    HW2 5322   2.682   4.809   1.393
 1475SOL     OW 5323   5.685   0.415   6.688
 1475SOL    HW1 5324   5.682   0.325   6.731
 1475SOL    HW2 5325   5.605   0.426   6.628
 1476SOL     OW 5326   4.835   0.370   0.210
 1476SOL    HW1 5327   4.918   0.315   0.200
 1476SOL    HW2 5328   4.795   0.354   0.300
 1477SOL     OW 5329   3.434   4.008   1.539
 1477SOL    HW1 5330   3.416   3.952   1.620
 1477SOL    HW2 5331   3.402   4.101   1.554
 1478SOL     OW 5332   4.395   5.170   6.926
 1478SOL    HW1 5333   4.443   5.101   6.981
 1478SOL    HW2 5334   4.420   5.159   6.830
 1479SOL     OW 5335   4.557   3.435   1.720
 1479SOL    HW1 5336   4.535   3.532   1.727
 1479SOL    HW2 5337   4.652   3.424   1.693
 1480SOL     OW 5338   3.072   0.636   4.618
 1480SOL    HW1 5339   3.075   0.662   4.714
 1480SOL    HW2 5340   2.998   0.684   4.572
 1481SOL     OW 5341   4.874   2.651   5.824
 1481SOL    HW1 5342   4.777   2.646   5.847
 1481SOL    HW2 5343   4.889   2.607   5.736
 1482SOL     OW 5344   5.654   1.275   1.378
 1482SOL    HW1 5345   5.595   1.202   1.413
 1482SOL    HW2 5346   5.731   1.288   1.440
 1483SOL     OW 5347   6.257   1.047   0.290
 1483SOL    HW1 5348   6.194   0.975   0.321
 1483SOL    HW2 5349   6.288   1.026   0.198
 1484SOL     OW 5350   3.634   5.123   5.089
 1484SOL    HW1 5351   3.573   5.201   5.102
 1484SOL    HW2 5352   3.718   5.153   5.044
 1485SOL     OW 5353   5.062   2.905   3.436
 1485SOL    HW1 5354   4.978   2.860   3.406
 1485SOL    HW2 5355   5.111   2.844   3.499
 1486SOL     OW 5356   4.607   5.709   3.748
 1486SOL    HW1 5357   4.615   5.660   3.661
 1486SOL    HW2 5358   4.625   5.806   3.733
 1487SOL     OW 5359   6.834   1.005   0.596
 1487SOL    HW1 5360   6.849   1.087   0.651
 1487SOL    HW2 5361   6.912   0.944   0.605
 1488SOL     OW 5362   6.220   1.764   2.831
 1488SOL    HW1 5363   6.208   1.828   2.755
 1488SOL    HW2 5364   6.301   1.707   2.814
 1489SOL     OW 5365   3.115   4.800   0.095
 1489SOL    HW1 5366   3.028   4.754   0.075
 1489SOL    HW2 5367   3.127   4.877   0.032
 1490SOL     OW 5368   6.121   2.649   2.091
 1490SOL    HW1 5369   6.039   2.629   2.037
 1490SOL    HW2 5370   6.163   2.734   2.058
 1491SOL     OW 5371   5.737   2.305   3.835
 1491SOL    HW1 5372   5.652   2.356   3.826
 1491SOL    HW2 5373   5.750   2.247   3.754
 1492SOL     OW 5374   6.445   1.515   3.210
 1492SOL    HW1 5375   6.471   1.424   3.176
 1492SOL    HW2 5376   6.465   1.583   3.140
 1493SOL     OW 5377   5.888   1.775   6.030
 1493SOL    HW1 5378   5.873   1.864   6.074
 1493SOL    HW2 5379   5.950   1.720   6.087
 1494SOL     OW 5380   0.132   4.968   6.343
 1494SOL    HW1 5381   0.226   4.933   6.345
 1494SOL    HW2 5382   0.074   4.912   6.402
 1495SOL     OW 5383   6.409   3.749   4.290
 1495SOL    HW1 5384   6.318   3.787   4.275
 1495SOL    HW2 5385   6.474   3.792   4.227
 1496SOL     OW 5386   5.996   6.806   5.930
 1496SOL    HW1 5387   6.080   6.858   5.912
 1496SOL    HW2 5388   6.011   6.745   6.008
 1497SOL     OW 5389   6.141   2.098   2.311
 1497SOL    HW1 5390   6.113   2.191   2.285
 1497SOL    HW2 5391   6.236   2.099   2.340
 1498SOL     OW 5392   3.210   4.033   0.726
 1498SOL    HW1 5393   3.193   4.120   0.772
 1498SOL    HW2 5394   3.309   4.016   0.723
 1499SOL     OW 5395   0.201   4.475   4.173
 1499SOL    HW1 5396   0.138   4.553   4.170
 1499SOL    HW2 5397   0.152   4.394   4.203
 1500SOL     OW 5398   0.680   6.122   2.159
 1500SOL    HW1 5399   0.585   6.126   2.192
 1500SOL    HW2 5400   0.680   6.101   2.062
 1501SOL     OW 5401   6.431   1.493   0.399
 1501SOL    HW1 5402   6.519   1.539   0.388
 1501SOL    HW2 5403   6.367   1.526   0.329
 1502SOL     OW 5404   6.484   0.224   6.488
 1502SOL    HW1 5405   6.485   0.267   6.398
 1502SOL    HW2 5406   6.413   0.154   6.491
 1503SOL     OW 5407   0.535   4.750   1.660
 1503SOL    HW1 5408   0.536   4.658   1.698
 1503SOL    HW2 5409   0.463   4.804   1.705
 1504SOL     OW 5410   2.071   6.796   2.683
 1504SOL    HW1 5411   1.978   6.761   2.697
 1504SOL    HW2 5412   2.104   6.770   2.593
 1505SOL     OW 5413   6.305   5.305   4.831
 1505SOL    HW1 5414   6.388   5.256   4.857
 1505SOL    HW2 5415   6.278   5.279   4.739
 1506SOL     OW 5416   0.900   1.019   0.627
 1506SOL    HW1 5417   0.809   1.044   0.592
 1506SOL    HW2 5418   0.937   0.943   0.573
 1507SOL     OW 5419   2.475   2.616   3.640
 1507SOL    HW1 5420   2.478   2.556   3.720
 1507SOL    HW2 5421   2.404   2.685   3.652
 1508SOL     OW 5422   2.350   0.968   1.436
 1508SOL    HW1 5423   2.346   1.049   1.496
 1508SOL    HW2 5424   2.264   0.960   1.386
 1509SOL     OW 5425   5.338   1.176   4.373
 1509SOL    HW1 5426   5.404   1.230   4.425
 1509SOL    HW2 5427   5.312   1.095   4.426
 1510SOL     OW 5428   3.493   5.925   5.587
 1510SOL    HW1 5429   3.403   5.967   5.581
 1510SOL    HW2 5430   3.542   5.963   5.666
 1511SOL     OW 5431   3.029   3.678   5.113
 1511SOL    HW1 5432   3.001   3.772   5.094
 1511SOL    HW2 5433   2.964   3.614   5.072
 1512SOL     OW 5434   5.527   6.444   0.860
 1512SOL    HW1 5435   5.571   6.387   0.929
 1512SOL    HW2 5436   5.428   6.436   0.869
 1513SOL     OW 5437   2.328   6.915   6.055
 1513SOL    HW1 5438   2.363   6.970   6.131
 1513SOL    HW2 5439   2.399   6.905   5.985
 1514SOL     OW 5440   3.063   2.763   6.360
 1514SOL    HW1 5441   3.109   2.849   6.340
 1514SOL    HW2 5442   3.076   2.699   6.285
 1515SOL     OW 5443   4.378   0.614   2.156
 1515SOL    HW1 5444   4.433   0.688   2.118
 1515SOL    HW2 5445   4.290   0.650   2.188
 1516SOL     OW 5446   6.084   6.958   5.624
 1516SOL    HW1 5447   6.130   6.940   5.710
 1516SOL    HW2 5448   6.045   0.030   5.626
 1517SOL     OW 5449   3.198   6.623   4.152
 1517SOL    HW1 5450   3.196   6.552   4.081
 1517SOL    HW2 5451   3.158   6.707   4.115
 1518SOL     OW 5452   0.530   3.207   6.446
 1518SOL    HW1 5453   0.479   3.125   6.472
 1518SOL    HW2 5454   0.497   3.240   6.357
 1519SOL     OW 5455   6.777   4.983   0.145
 1519SOL    HW1 5456   6.719   4.904   0.161
 1519SOL    HW2 5457   6.863   4.973   0.196
 1520SOL     OW 5458   0.598   6.051   3.349
 1520SOL    HW1 5459   0.655   6.120   3.304
 1520SOL    HW2 5460   0.589   5.972   3.289
 1521SOL     OW 5461   1.883   5.076   6.317
 1521SOL    HW1 5462   1.852   5.079   6.412
 1521SOL    HW2 5463   1.805   5.095   6.256
 1522SOL     OW 5464   6.148   5.864   3.930
 1522SOL    HW1 5465   6.086   5.786   3.918
 1522SOL    HW2 5466   6.218   5.840   3.998
 1523SOL     OW 5467   3.470   6.167   0.752
 1523SOL    HW1 5468   3.532   6.089   0.756
 1523SOL    HW2 5469   3.405   6.162   0.829
 1524SOL     OW 5470   2.145   1.641   3.718
 1524SOL    HW1 5471   2.168   1.552   3.677
 1524SOL    HW2 5472   2.217   1.707   3.695
 1525SOL     OW 5473   5.440   4.705   6.997
 1525SOL    HW1 5474   5.380   4.746   6.928
 1525SOL    HW2 5475   5.387   4.641   0.033
 1526SOL     OW 5476   1.197   1.825   0.803
 1526SOL    HW1 5477   1.191   1.763   0.725
 1526SOL    HW2 5478   1.209   1.772   0.887
 1527SOL     OW 5479   4.380   1.974   3.814
 1527SOL    HW1 5480   4.317   2.051   3.824
 1527SOL    HW2 5481   4.454   1.982   3.881
 1528SOL     OW 5482   3.236   3.611   2.449
 1528SOL    HW1 5483   3.235   3.522   2.405
 1528SOL    HW2 5484   3.327   3.629   2.487
 1529SOL     OW 5485   4.568   1.904   6.123
 1529SOL    HW1 5486   4.638   1.888   6.054
 1529SOL    HW2 5487   4.598   1.977   6.185
 1530SOL     OW 5488   2.415   6.719   1.155
 1530SOL    HW1 5489   2.325   6.691   1.188
 1530SOL    HW2 5490   2.405   6.795   1.090
 1531SOL     OW 5491   4.828   5.754   4.429
 1531SOL    HW1 5492   4.880   5.676   4.464
 1531SOL    HW2 5493   4.757   5.721   4.367
 1532SOL     OW 5494   3.018   5.574   0.445
 1532SOL    HW1 5495   3.032   5.476   0.461
 1532SOL    HW2 5496   3.013   5.591   0.346
 1533SOL     OW 5497   5.445   5.760   1.125
 1533SOL    HW1 5498   5.364   5.789   1.175
 1533SOL    HW2 5499   5.508   5.714   1.188
 1534SOL     OW 5500   2.636   4.689   6.689
 1534SOL    HW1 5501   2.668   4.719   6.599
 1534SOL    HW2 5502   2.539   4.666   6.684
 1535SOL     OW 5503   5.558   4.501   3.799
 1535SOL    HW1 5504   5.515   4.584   3.835
 1535SOL    HW2 5505   5.621   4.464   3.867
 1536SOL     OW 5506   4.820   3.714   6.933
 1536SOL    HW1 5507   4.815   3.707   6.833
 1536SOL    HW2 5508   4.805   3.809   6.960
 1537SOL     OW 5509   2.873   5.217   2.857
 1537SOL    HW1 5510   2.835   5.211   2.950
 1537SOL    HW2 5511   2.972   5.206   2.861
 1538SOL     OW 5512   2.547   1.608   0.607
 1538SOL    HW1 5513   2.513   1.635   0.698
 1538SOL    HW2 5514   2.563   1.510   0.605
 1539SOL     OW 5515   5.834   3.301   0.715
 1539SOL    HW1 5516   5.869   3.211   0.688
 1539SOL    HW2 5517   5.813   3.300   0.813
 1540SOL     OW 5518   3.379   6.908   3.491
 1540SOL    HW1 5519   3.393   6.995   3.539
 1540SOL    HW2 5520   3.287   6.906   3.452
 1541SOL     OW 5521   3.901   3.108   6.083
 1541SOL    HW1 5522   3.944   3.186   6.129
 1541SOL    HW2 5523   3.942   3.023   6.117
 1542SOL     OW 5524   0.250   5.899   2.702
 1542SOL    HW1 5525   0.230   5.995   2.681
 1542SOL    HW2 5526   0.344   5.891   2.734
 1543SOL     OW 5527   3.018   5.297   0.465
 1543SOL    HW1 5528   3.114   5.312   0.440
 1543SOL    HW2 5529   3.005   5.316   0.562
 1544SOL     OW 5530   3.756   3.583   3.962
 1544SOL    HW1 5531   3.794   3.513   3.902
 1544SOL    HW2 5532   3.733   3.664   3.909
 1545SOL     OW 5533   5.497   5.856   1.690
 1545SOL    HW1 5534   5.451   5.869   1.778
 1545SOL    HW2 5535   5.474   5.932   1.629
 1546SOL     OW 5536   5.768   6.224   6.085
 1546SOL    HW1 5537   5.751   6.129   6.060
 1546SOL    HW2 5538   5.842   6.260   6.028
 1547SOL     OW 5539   1.967   3.100   6.697
 1547SOL    HW1 5540   2.045   3.158   6.718
 1547SOL    HW2 5541   1.889   3.128   6.753
 1548SOL     OW 5542   7.006   2.446   0.373
 1548SOL    HW1 5543   6.910   2.438   0.399
 1548SOL    HW2 5544   7.016   2.516   0.302
 1549SOL     OW 5545   5.067   1.245   4.608
 1549SOL    HW1 5546   5.163   1.228   4.632
 1549SOL    HW2 5547   5.040   1.336   4.639
 1550SOL     OW 5548   3.948   3.092   4.188
 1550SOL    HW1 5549   3.980   3.110   4.281
 1550SOL    HW2 5550   3.886   3.013   4.188
 1551SOL     OW 5551   6.834   4.988   5.392
 1551SOL    HW1 5552   6.860   4.923   5.463
 1551SOL    HW2 5553   6.802   5.073   5.434
 1552SOL     OW 5554   2.064   4.003   0.988
 1552SOL    HW1 5555   2.069   4.042   0.896
 1552SOL    HW2 5556   2.079   4.075   1.056
 1553SOL     OW 5557   1.961   1.734   5.990
 1553SOL    HW1 5558   1.863   1.742   5.977
 1553SOL    HW2 5559   1.984   1.761   6.084
 1554SOL     OW 5560   3.690   1.852   3.591
 1554SOL    HW1 5561   3.646   1.936   3.624
 1554SOL    HW2 5562   3.705   1.790   3.668
 1555SOL     OW 5563   6.099   4.889   5.945
 1555SOL    HW1 5564   6.123   4.954   5.874
 1555SOL    HW2 5565   6.004   4.861   5.934
 1556SOL     OW 5566   1.879   0.889   5.913
 1556SOL    HW1 5567   1.969   0.930   5.929
 1556SOL    HW2 5568   1.887   0.790   5.914
 1557SOL     OW 5569   0.264   2.597   4.991
 1557SOL    HW1 5570   0.166   2.597   5.012
 1557SOL    HW2 5571   0.282   2.532   4.918
 1558SOL     OW 5572   0.425   6.991   4.735
 1558SOL    HW1 5573   0.360   6.923   4.701
 1558SOL    HW2 5574   0.382   0.024   4.808
 1559SOL     OW 5575   1.295   1.458   5.972
 1559SOL    HW1 5576   1.284   1.450   5.873
 1559SOL    HW2 5577   1.308   1.367   6.011
 1560SOL     OW 5578   0.246   0.296   6.946
 1560SOL    HW1 5579   0.336   0.304   6.989
 1560SOL    HW2 5580   0.227   0.200   6.928
 1561SOL     OW 5581   5.766   6.064   2.206
 1561SOL    HW1 5582   5.742   6.105   2.118
 1561SOL    HW2 5583   5.851   6.013   2.196
 1562SOL     OW 5584   6.270   0.688   3.806
 1562SOL    HW1 5585   6.362   0.726   3.797
 1562SOL    HW2 5586   6.227   0.726   3.888
 1563SOL     OW 5587   3.738   6.881   5.531
 1563SOL    HW1 5588   3.795   6.953   5.571
 1563SOL    HW2 5589   3.687   6.836   5.604
 1564SOL     OW 5590   0.770   2.116   2.818
 1564SOL    HW1 5591   0.677   2.083   2.802
 1564SOL    HW2 5592   0.795   2.180   2.746
 1565SOL     OW 5593   6.142   4.231   1.293
 1565SOL    HW1 5594   6.240   4.248   1.305
 1565SOL    HW2 5595   6.116   4.152   1.349
 1566SOL     OW 5596   6.022   4.502   3.226
 1566SOL    HW1 5597   5.993   4.430   3.289
 1566SOL    HW2 5598   5.942   4.549   3.189
 1567SOL     OW 5599   6.123   5.713   5.224
 1567SOL    HW1 5600   6.179   5.730   5.143
 1567SOL    HW2 5601   6.149   5.777   5.296
 1568SOL     OW 5602   0.317   6.634   0.023
 1568SOL    HW1 5603   0.225   6.600   0.007
 1568SOL    HW2 5604   0.375   6.613   6.965
 1569SOL     OW 5605   3.199   6.496   5.428
 1569SOL    HW1 5606   3.132   6.422   5.428
 1569SOL    HW2 5607   3.195   6.545   5.515
 1570SOL     OW 5608   3.058   2.044   1.736
 1570SOL    HW1 5609   3.084   2.037   1.832
 1570SOL    HW2 5610   3.033   2.139   1.715
 1571SOL     OW 5611   0.075   3.908   0.823
 1571SOL    HW1 5612   0.075   3.819   0.779
 1571SOL    HW2 5613   0.080   3.980   0.754
 1572SOL     OW 5614   1.753   5.696   2.452
 1572SOL    HW1 5615   1.707   5.723   2.367
 1572SOL    HW2 5616   1.697   5.724   2.530
 1573SOL     OW 5617   4.237   0.472   0.645
 1573SOL    HW1 5618   4.274   0.390   0.687
 1573SOL    HW2 5619   4.312   0.532   0.616
 1574SOL     OW 5620   5.728   2.521   2.341
 1574SOL    HW1 5621   5.791   2.483   2.273
 1574SOL    HW2 5622   5.696   2.611   2.310
 1575SOL     OW 5623   3.017   1.846   0.117
 1575SOL    HW1 5624   2.990   1.793   0.037
 1575SOL    HW2 5625   3.107   1.815   0.148
 1576SOL     OW 5626   6.405   5.687   3.659
 1576SOL    HW1 5627   6.317   5.640   3.649
 1576SOL    HW2 5628   6.453   5.653   3.740
 1577SOL     OW 5629   1.230   0.352   0.042
 1577SOL    HW1 5630   1.327   0.374   0.045
 1577SOL    HW2 5631   1.218   0.254   0.027
 1578SOL     OW 5632   5.900   5.511   4.838
 1578SOL    HW1 5633   5.963   5.467   4.902
 1578SOL    HW2 5634   5.870   5.444   4.770
 1579SOL     OW 5635   0.411   6.944   3.573
 1579SOL    HW1 5636   0.378   7.002   3.648
 1579SOL    HW2 5637   0.357   6.860   3.569
 1580SOL     OW 5638   3.060   3.755   5.829
 1580SOL    HW1 5639   3.141   3.735   5.775
 1580SOL    HW2 5640   3.005   3.672   5.839
 1581SOL     OW 5641   6.149   3.833   4.249
 1581SOL    HW1 5642   6.103   3.807   4.164
 1581SOL    HW2 5643   6.084   3.830   4.324
 1582SOL     OW 5644   6.440   6.186   5.111
 1582SOL    HW1 5645   6.496   6.209   5.032
 1582SOL    HW2 5646   6.355   6.239   5.109
 1583SOL     OW 5647   2.200   1.922   2.186
 1583SOL    HW1 5648   2.152   1.965   2.262
 1583SOL    HW2 5649   2.196   1.982   2.106
 1584SOL     OW 5650   2.204   0.414   6.240
 1584SOL    HW1 5651   2.116   0.458   6.225
 1584SOL    HW2 5652   2.196   0.344   6.310
 1585SOL     OW 5653   5.877   1.157   5.544
 1585SOL    HW1 5654   5.795   1.211   5.526
 1585SOL    HW2 5655   5.953   1.218   5.568
 1586SOL     OW 5656   3.606   4.108   3.082
 1586SOL    HW1 5657   3.572   4.105   3.176
 1586SOL    HW2 5658   3.664   4.189   3.071
 1587SOL     OW 5659   2.184   6.469   6.672
 1587SOL    HW1 5660   2.193   6.537   6.599
 1587SOL    HW2 5661   2.087   6.447   6.685
 1588SOL     OW 5662   5.816   3.969   1.630
 1588SOL    HW1 5663   5.878   3.895   1.605
 1588SOL    HW2 5664   5.862   4.033   1.692
 1589SOL     OW 5665   5.173   4.397   3.165
 1589SOL    HW1 5666   5.101   4.377   3.098
 1589SOL    HW2 5667   5.133   4.397   3.256
 1590SOL     OW 5668   2.140   6.844   5.387
 1590SOL    HW1 5669   2.040   6.849   5.396
 1590SOL    HW2 5670   2.182   6.910   5.448
 1591SOL     OW 5671   0.858   3.877   0.898
 1591SOL    HW1 5672   0.956   3.885   0.881
 1591SOL    HW2 5673   0.819   3.809   0.835
 1592SOL     OW 5674   3.151   3.966   3.717
 1592SOL    HW1 5675   3.207   4.022   3.778
 1592SOL    HW2 5676   3.077   3.923   3.769
 1593SOL     OW 5677   1.338   5.119   4.663
 1593SOL    HW1 5678   1.354   5.021   4.657
 1593SOL    HW2 5679   1.290   5.151   4.581
 1594SOL     OW 5680   1.208   4.872   3.288
 1594SOL    HW1 5681   1.139   4.899   3.220
 1594SOL    HW2 5682   1.199   4.929   3.369
 1595SOL     OW 5683   7.012   5.203   5.632
 1595SOL    HW1 5684   0.077   5.225   5.585
 1595SOL    HW2 5685   0.012   5.158   5.719
 1596SOL     OW 5686   2.659   5.029   0.112
 1596SOL    HW1 5687   2.746   5.078   0.118
 1596SOL    HW2 5688   2.676   4.932   0.094
 1597SOL     OW 5689   2.182   6.978   0.096
 1597SOL    HW1 5690   2.157   7.015   0.185
 1597SOL    HW2 5691   2.104   6.927   0.058
 1598SOL     OW 5692   6.915   5.497   1.819
 1598SOL    HW1 5693   6.903   5.401   1.793
 1598SOL    HW2 5694   6.941   5.550   1.738
 1599SOL     OW 5695   3.152   4.935   0.675
 1599SOL    HW1 5696   3.238   4.922   0.625
 1599SOL    HW2 5697   3.171   4.948   0.772
 1600SOL     OW 5698   3.535   0.974   5.112
 1600SOL    HW1 5699   3.493   1.012   5.029
 1600SOL    HW2 5700   3.475   0.990   5.190
 1601SOL     OW 5701   1.000   5.087   5.077
 1601SOL    HW1 5702   1.047   5.092   4.989
 1601SOL    HW2 5703   1.050   5.024   5.138
 1602SOL     OW 5704   0.320   4.042   2.231
 1602SOL    HW1 5705   0.220   4.044   2.223
 1602SOL    HW2 5706   0.345   4.031   2.327
 1603SOL     OW 5707   5.580   6.690   0.778
 1603SOL    HW1 5708   5.679   6.694   0.766
 1603SOL    HW2 5709   5.555   6.605   0.824
 1604SOL     OW 5710   0.154   5.767   4.836
 1604SOL    HW1 5711   0.194   5.745   4.925
 1604SOL    HW2 5712   0.152   5.867   4.824
 1605SOL     OW 5713   5.113   6.709   3.237
 1605SOL    HW1 5714   5.024   6.732   3.198
 1605SOL    HW2 5715   5.116   6.738   3.333
 1606SOL     OW 5716   5.454   6.584   5.683
 1606SOL    HW1 5717   5.507   6.531   5.750
 1606SOL    HW2 5718   5.515   6.645   5.632
 1607SOL     OW 5719   4.644   2.910   0.987
 1607SOL    HW1 5720   4.610   2.983   1.045
 1607SOL    HW2 5721   4.742   2.897   1.004
 1608SOL     OW 5722   2.343   0.556   0.734
 1608SOL    HW1 5723   2.304   0.596   0.651
 1608SOL    HW2 5724   2.271   0.514   0.788
 1609SOL     OW 5725   5.564   0.967   5.852
 1609SOL    HW1 5726   5.581   1.064   5.834
 1609SOL    HW2 5727   5.643   0.928   5.898
 1610SOL     OW 5728   5.421   6.669   4.042
 1610SOL    HW1 5729   5.478   6.589   4.062
 1610SOL    HW2 5730   5.376   6.700   4.125
 1611SOL     OW 5731   4.060   2.693   1.661
 1611SOL    HW1 5732   4.043   2.594   1.664
 1611SOL    HW2 5733   4.158   2.710   1.657
 1612SOL     OW 5734   3.471   1.155   4.630
 1612SOL    HW1 5735   3.454   1.245   4.590
 1612SOL    HW2 5736   3.490   1.089   4.558
 1613SOL     OW 5737   1.872   7.009   1.083
 1613SOL    HW1 5738   1.964   7.020   1.121
 1613SOL    HW2 5739   1.812   6.971   1.153
 1614SOL     OW 5740   0.634   2.955   6.122
 1614SOL    HW1 5741   0.613   2.985   6.029
 1614SOL    HW2 5742   0.562   2.894   6.155
 1615SOL     OW 5743   6.362   4.763   5.871
 1615SOL    HW1 5744   6.346   4.699   5.796
 1615SOL    HW2 5745   6.274   4.790   5.911
 1616SOL     OW 5746   2.671   1.618   5.851
 1616SOL    HW1 5747   2.632   1.695   5.902
 1616SOL    HW2 5748   2.770   1.619   5.859
 1617SOL     OW 5749   4.368   0.330   4.316
 1617SOL    HW1 5750   4.443   0.265   4.320
 1617SOL    HW2 5751   4.395   0.409   4.262
 1618SOL     OW 5752   5.893   2.378   1.686
 1618SOL    HW1 5753   5.884   2.298   1.626
 1618SOL    HW2 5754   5.819   2.442   1.667
 1619SOL     OW 5755   2.112   2.819   4.631
 1619SOL    HW1 5756   2.111   2.910   4.671
 1619SOL    HW2 5757   2.191   2.811   4.570
 1620SOL     OW 5758   3.565   5.691   1.659
 1620SOL    HW1 5759   3.465   5.695   1.648
 1620SOL    HW2 5760   3.595   5.767   1.716
 1621SOL     OW 5761   1.728   1.780   2.034
 1621SOL    HW1 5762   1.795   1.716   1.996
 1621SOL    HW2 5763   1.653   1.792   1.969
 1622SOL     OW 5764   1.909   2.334   4.906
 1622SOL    HW1 5765   1.952   2.421   4.928
 1622SOL    HW2 5766   1.869   2.294   4.988
 1623SOL     OW 5767   2.757   2.155   4.833
 1623SOL    HW1 5768   2.668   2.133   4.793
 1623SOL    HW2 5769   2.744   2.193   4.925
 1624SOL     OW 5770   2.210   0.816   0.659
 1624SOL    HW1 5771   2.131   0.870   0.690
 1624SOL    HW2 5772   2.179   0.726   0.631
 1625SOL     OW 5773   0.450   5.616   1.776
 1625SOL    HW1 5774   0.353   5.608   1.752
 1625SOL    HW2 5775   0.487   5.701   1.737
 1626SOL     OW 5776   2.078   2.762   5.790
 1626SOL    HW1 5777   2.143   2.748   5.715
 1626SOL    HW2 5778   2.127   2.792   5.871
 1627SOL     OW 5779   5.136   2.963   3.800
 1627SOL    HW1 5780   5.103   3.050   3.762
 1627SOL    HW2 5781   5.160   2.976   3.896
 1628SOL     OW 5782   3.186   3.410   0.113
 1628SOL    HW1 5783   3.138   3.432   0.198
 1628SOL    HW2 5784   3.263   3.474   0.101
 1629SOL     OW 5785   3.301   2.140   2.822
 1629SOL    HW1 5786   3.227   2.111   2.882
 1629SOL    HW2 5787   3.382   2.161   2.877
 1630SOL     OW 5788   6.659   4.902   4.703
 1630SOL    HW1 5789   6.704   4.886   4.790
 1630SOL    HW2 5790   6.666   4.820   4.646
 1631SOL     OW 5791   0.431   6.544   5.656
 1631SOL    HW1 5792   0.469   6.480   5.588
 1631SOL    HW2 5793   0.505   6.578   5.714
 1632SOL     OW 5794   4.870   0.220   0.549
 1632SOL    HW1 5795   4.832   0.308   0.522
 1632SOL    HW2 5796   4.949   0.198   0.491
 1633SOL     OW 5797   5.962   3.010   3.417
 1633SOL    HW1 5798   6.036   2.949   3.446
 1633SOL    HW2 5799   5.973   3.098   3.462
 1634SOL     OW 5800   3.908   0.492   0.103
 1634SOL    HW1 5801   3.987   0.439   0.072
 1634SOL    HW2 5802   3.910   0.499   0.203
 1635SOL     OW 5803   0.779   5.051   4.321
 1635SOL    HW1 5804   0.778   4.952   4.336
 1635SOL    HW2 5805   0.823   5.070   4.233
 1636SOL     OW 5806   2.735   6.475   1.116
 1636SOL    HW1 5807   2.639   6.468   1.143
 1636SOL    HW2 5808   2.741   6.522   1.028
 1637SOL     OW 5809   0.436   2.700   2.298
 1637SOL    HW1 5810   0.383   2.640   2.358
 1637SOL    HW2 5811   0.520   2.653   2.270
 1638SOL     OW 5812   1.203   2.785   5.660
 1638SOL    HW1 5813   1.298   2.758   5.672
 1638SOL    HW2 5814   1.195   2.884   5.671
 1639SOL     OW 5815   4.952   4.533   2.689
 1639SOL    HW1 5816   4.979   4.444   2.726
 1639SOL    HW2 5817   4.928   4.523   2.592
 1640SOL     OW 5818   5.589   0.773   1.232
 1640SOL    HW1 5819   5.581   0.702   1.162
 1640SOL    HW2 5820   5.529   0.850   1.209
 1641SOL     OW 5821   6.840   3.123   5.280
 1641SOL    HW1 5822   6.835   3.091   5.186
 1641SOL    HW2 5823   6.911   3.193   5.288
 1642SOL     OW 5824   0.326   1.956   1.302
 1642SOL    HW1 5825   0.414   1.942   1.257
 1642SOL    HW2 5826   0.267   2.011   1.243
 1643SOL     OW 5827   3.700   0.667   5.939
 1643SOL    HW1 5828   3.751   0.635   6.019
 1643SOL    HW2 5829   3.735   0.620   5.858
 1644SOL     OW 5830   3.205   1.024   0.505
 1644SOL    HW1 5831   3.223   1.067   0.417
 1644SOL    HW2 5832   3.287   0.975   0.535
 1645SOL     OW 5833   1.898   6.222   6.122
 1645SOL    HW1 5834   1.803   6.232   6.152
 1645SOL    HW2 5835   1.958   6.265   6.189
 1646SOL     OW 5836   1.395   4.036   6.974
 1646SOL    HW1 5837   1.343   3.999   0.030
 1646SOL    HW2 5838   1.414   4.133   6.989
 1647SOL     OW 5839   5.803   2.556   3.203
 1647SOL    HW1 5840   5.867   2.582   3.131
 1647SOL    HW2 5841   5.845   2.487   3.262
 1648SOL     OW 5842   4.010   0.302   2.441
 1648SOL    HW1 5843   4.058   0.336   2.361
 1648SOL    HW2 5844   4.017   0.368   2.516
 1649SOL     OW 5845   2.714   6.876   2.810
 1649SOL    HW1 5846   2.630   6.901   2.858
 1649SOL    HW2 5847   2.695   6.800   2.748
 1650SOL     OW 5848   3.647   6.888   4.025
 1650SOL    HW1 5849   3.555   6.876   4.062
 1650SOL    HW2 5850   3.706   6.813   4.054
 1651SOL     OW 5851   1.723   0.215   1.395
 1651SOL    HW1 5852   1.737   0.124   1.357
 1651SOL    HW2 5853   1.728   0.211   1.495
 1652SOL     OW 5854   2.931   3.197   1.893
 1652SOL    HW1 5855   2.926   3.166   1.798
 1652SOL    HW2 5856   3.019   3.242   1.909
 1653SOL     OW 5857   1.144   4.791   0.922
 1653SOL    HW1 5858   1.233   4.834   0.908
 1653SOL    HW2 5859   1.100   4.832   1.002
 1654SOL     OW 5860   0.495   2.088   3.251
 1654SOL    HW1 5861   0.581   2.071   3.203
 1654SOL    HW2 5862   0.514   2.133   3.338
 1655SOL     OW 5863   4.642   4.794   5.862
 1655SOL    HW1 5864   4.693   4.862   5.809
 1655SOL    HW2 5865   4.667   4.801   5.959
 1656SOL     OW 5866   0.495   4.488   2.986
 1656SOL    HW1 5867   0.486   4.406   2.929
 1656SOL    HW2 5868   0.453   4.471   3.075
 1657SOL     OW 5869   0.996   0.508   4.784
 1657SOL    HW1 5870   0.915   0.559   4.812
 1657SOL    HW2 5871   1.075   0.541   4.837
 1658SOL     OW 5872   6.550   6.935   2.903
 1658SOL    HW1 5873   6.587   6.895   2.819
 1658SOL    HW2 5874   6.516   6.862   2.962
 1659SOL     OW 5875   4.983   2.012   6.107
 1659SOL    HW1 5876   4.911   2.033   6.041
 1659SOL    HW2 5877   4.960   1.927   6.155
 1660SOL     OW 5878   2.353   6.105   3.528
 1660SOL    HW1 5879   2.414   6.027   3.540
 1660SOL    HW2 5880   2.312   6.101   3.437
 1661SOL     OW 5881   3.287   6.956   2.971
 1661SOL    HW1 5882   3.210   6.946   3.033
 1661SOL    HW2 5883   3.257   6.939   2.877
 1662SOL     OW 5884   0.044   0.365   2.870
 1662SOL    HW1 5885   0.138   0.378   2.838
 1662SOL    HW2 5886   0.030   0.417   2.955
 1663SOL     OW 5887   2.025   0.176   3.377
 1663SOL    HW1 5888   2.020   0.239   3.455
 1663SOL    HW2 5889   1.998   0.084   3.408
 1664SOL     OW 5890   2.323   5.154   4.255
 1664SOL    HW1 5891   2.228   5.166   4.282
 1664SOL    HW2 5892   2.335   5.186   4.161
 1665SOL     OW 5893   1.051   0.527   4.492
 1665SOL    HW1 5894   1.089   0.436   4.507
 1665SOL    HW2 5895   1.025   0.568   4.579
 1666SOL     OW 5896   5.515   3.626   6.499
 1666SOL    HW1 5897   5.574   3.654   6.574
 1666SOL    HW2 5898   5.571   3.593   6.422
 1667SOL     OW 5899   6.714   0.780   6.675
 1667SOL    HW1 5900   6.797   0.824   6.709
 1667SOL    HW2 5901   6.678   0.833   6.598
 1668SOL     OW 5902   2.200   0.462   4.946
 1668SOL    HW1 5903   2.169   0.391   5.009
 1668SOL    HW2 5904   2.288   0.435   4.906
 1669SOL     OW 5905   6.220   6.270   6.585
 1669SOL    HW1 5906   6.173   6.182   6.586
 1669SOL    HW2 5907   6.278   6.277   6.666
 1670SOL     OW 5908   6.078   3.521   6.522
 1670SOL    HW1 5909   5.986   3.489   6.544
 1670SOL    HW2 5910   6.074   3.588   6.447
 1671SOL     OW 5911   6.159   4.656   0.542
 1671SOL    HW1 5912   6.082   4.597   0.565
 1671SOL    HW2 5913   6.129   4.751   0.538
 1672SOL     OW 5914   1.737   5.396   2.105
 1672SOL    HW1 5915   1.743   5.309   2.155
 1672SOL    HW2 5916   1.807   5.458   2.139
 1673SOL     OW 5917   6.518   1.819   3.358
 1673SOL    HW1 5918   6.465   1.740   3.388
 1673SOL    HW2 5919   6.488   1.846   3.266
 1674SOL     OW 5920   2.204   5.329   6.764
 1674SOL    HW1 5921   2.258   5.277   6.831
 1674SOL    HW2 5922   2.108   5.302   6.772
 1675SOL     OW 5923   4.845   2.295   0.609
 1675SOL    HW1 5924   4.906   2.364   0.569
 1675SOL    HW2 5925   4.853   2.297   0.708
 1676SOL     OW 5926   2.492   1.326   4.270
 1676SOL    HW1 5927   2.432   1.404   4.285
 1676SOL    HW2 5928   2.473   1.256   4.340
 1677SOL     OW 5929   5.977   0.695   5.619
 1677SOL    HW1 5930   6.066   0.701   5.572
 1677SOL    HW2 5931   5.929   0.782   5.609
 1678SOL     OW 5932   4.833   0.497   1.459
 1678SOL    HW1 5933   4.765   0.570   1.463
 1678SOL    HW2 5934   4.906   0.522   1.396
 1679SOL     OW 5935   5.790   4.358   0.091
 1679SOL    HW1 5936   5.776   4.456   0.078
 1679SOL    HW2 5937   5.755   4.331   0.181
 1680SOL     OW 5938   0.938   2.419   5.000
 1680SOL    HW1 5939   1.001   2.364   4.944
 1680SOL    HW2 5940   0.987   2.458   5.077
 1681SOL     OW 5941   4.580   5.839   0.617
 1681SOL    HW1 5942   4.574   5.874   0.523
 1681SOL    HW2 5943   4.675   5.846   0.649
 1682SOL     OW 5944   6.903   3.820   5.296
 1682SOL    HW1 5945   6.902   3.721   5.308
 1682SOL    HW2 5946   6.968   3.844   5.225
 1683SOL     OW 5947   5.369   5.960   6.145
 1683SOL    HW1 5948   5.448   5.915   6.188
 1683SOL    HW2 5949   5.375   6.059   6.160
 1684SOL     OW 5950   0.100   6.485   4.776
 1684SOL    HW1 5951   0.127   6.523   4.864
 1684SOL    HW2 5952   0.002   6.465   4.777
 1685SOL     OW 5953   1.397   1.209   0.152
 1685SOL    HW1 5954   1.444   1.141   0.208
 1685SOL    HW2 5955   1.463   1.252   0.090
 1686SOL     OW 5956   2.278   5.939   6.794
 1686SOL    HW1 5957   2.345   6.011   6.773
 1686SOL    HW2 5958   2.265   5.882   6.714
 1687SOL     OW 5959   2.351   6.023   1.757
 1687SOL    HW1 5960   2.400   6.017   1.844
 1687SOL    HW2 5961   2.252   6.025   1.775
 1688SOL     OW 5962   0.591   1.507   3.752
 1688SOL    HW1 5963   0.686   1.487   3.729
 1688SOL    HW2 5964   0.574   1.484   3.848
 1689SOL     OW 5965   3.160   1.804   2.215
 1689SOL    HW1 5966   3.101   1.875   2.254
 1689SOL    HW2 5967   3.206   1.755   2.289
 1690SOL     OW 5968   0.878   2.026   0.704
 1690SOL    HW1 5969   0.837   2.075   0.627
 1690SOL    HW2 5970   0.910   1.937   0.673
 1691SOL     OW 5971   4.499   4.784   2.506
 1691SOL    HW1 5972   4.544   4.872   2.496
 1691SOL    HW2 5973   4.541   4.718   2.444
 1692SOL     OW 5974   1.679   7.010   3.188
 1692SOL    HW1 5975   1.649   0.075   3.232
 1692SOL    HW2 5976   1.640   6.932   3.237
 1693SOL     OW 5977   2.900   2.017   4.259
 1693SOL    HW1 5978   2.824   1.960   4.229
 1693SOL    HW2 5979   2.878   2.113   4.244
 1694SOL     OW 5980   4.779   5.950   5.283
 1694SOL    HW1 5981   4.727   5.903   5.212
 1694SOL    HW2 5982   4.874   5.920   5.279
 1695SOL     OW 5983   3.455   1.277   6.132
 1695SOL    HW1 5984   3.548   1.273   6.169
 1695SOL    HW2 5985   3.418   1.185   6.125
 1696SOL     OW 5986   3.605   5.458   1.935
 1696SOL    HW1 5987   3.609   5.421   1.842
 1696SOL    HW2 5988   3.590   5.383   2.000
 1697SOL     OW 5989   1.094   1.368   2.298
 1697SOL    HW1 5990   1.003   1.333   2.274
 1697SOL    HW2 5991   1.149   1.378   2.215
 1698SOL     OW 5992   5.012   1.960   0.750
 1698SOL    HW1 5993   4.941   1.901   0.788
 1698SOL    HW2 5994   4.982   1.995   0.662
 1699SOL     OW 5995   2.753   4.273   0.782
 1699SOL    HW1 5996   2.726   4.279   0.686
 1699SOL    HW2 5997   2.781   4.179   0.802
 1700SOL     OW 5998   6.374   2.861   4.587
 1700SOL    HW1 5999   6.437   2.790   4.621
 1700SOL    HW2 6000   6.293   2.818   4.547
 1701SOL     OW 6001   5.924   3.075   5.059
 1701SOL    HW1 6002   5.933   3.143   4.987
 1701SOL    HW2 6003   5.842   3.095   5.114
 1702SOL     OW 6004   4.925   2.861   1.884
 1702SOL    HW1 6005   4.905   2.764   1.893
 1702SOL    HW2 6006   4.845   2.915   1.912
 1703SOL     OW 6007   1.373   3.765   0.271
 1703SOL    HW1 6008   1.431   3.838   0.235
 1703SOL    HW2 6009   1.428   3.704   0.328
 1704SOL     OW 6010   0.397   0.842   1.782
 1704SOL    HW1 6011   0.309   0.825   1.827
 1704SOL    HW2 6012   0.389   0.924   1.725
 1705SOL     OW 6013   3.681   3.491   2.703
 1705SOL    HW1 6014   3.686   3.392   2.687
 1705SOL    HW2 6015   3.744   3.538   2.641
 1706SOL     OW 6016   2.439   0.491   6.688
 1706SOL    HW1 6017   2.429   0.395   6.662
 1706SOL    HW2 6018   2.465   0.545   6.608
 1707SOL     OW 6019   5.474   1.523   2.851
 1707SOL    HW1 6020   5.481   1.613   2.894
 1707SOL    HW2 6021   5.549   1.512   2.786
 1708SOL     OW 6022   0.437   4.503   1.746
 1708SOL    HW1 6023   0.341   4.492   1.721
 1708SOL    HW2 6024   0.477   4.415   1.770
 1709SOL     OW 6025   2.800   5.512   4.854
 1709SOL    HW1 6026   2.862   5.496   4.930
 1709SOL    HW2 6027   2.749   5.428   4.834
 1710SOL     OW 6028   0.263   5.214   4.023
 1710SOL    HW1 6029   0.336   5.282   4.035
 1710SOL    HW2 6030   0.257   5.157   4.105
 1711SOL     OW 6031   1.949   4.288   5.230
 1711SOL    HW1 6032   1.983   4.196   5.247
 1711SOL    HW2 6033   1.865   4.283   5.175
 1712SOL     OW 6034   1.739   5.031   1.386
 1712SOL    HW1 6035   1.805   4.979   1.332
 1712SOL    HW2 6036   1.782   5.116   1.418
 1713SOL     OW 6037   1.853   3.420   0.226
 1713SOL    HW1 6038   1.756   3.401   0.235
 1713SOL    HW2 6039   1.904   3.334   0.217
 1714SOL     OW 6040   3.853   1.472   1.295
 1714SOL    HW1 6041   3.948   1.441   1.284
 1714SOL    HW2 6042   3.819   1.443   1.385
 1715SOL     OW 6043   0.549   2.751   3.693
 1715SOL    HW1 6044   0.505   2.770   3.605
 1715SOL    HW2 6045   0.538   2.655   3.716
 1716SOL     OW 6046   6.991   0.102   6.999
 1716SOL    HW1 6047   0.026   0.048   6.936
 1716SOL    HW2 6048   0.016   0.105   0.068
 1717SOL     OW 6049   3.252   6.869   6.995
 1717SOL    HW1 6050   3.204   6.782   7.006
 1717SOL    HW2 6051   3.187   6.940   6.968
 1718SOL     OW 6052   1.432   4.562   5.659
 1718SOL    HW1 6053   1.337   4.536   5.672
 1718SOL    HW2 6054   1.491   4.484   5.678
 1719SOL     OW 6055   2.148   3.417   1.454
 1719SOL    HW1 6056   2.078   3.488   1.459
 1719SOL    HW2 6057   2.194   3.421   1.365
 1720SOL     OW 6058   6.655   1.286   2.807
 1720SOL    HW1 6059   6.561   1.303   2.837
 1720SOL    HW2 6060   6.708   1.248   2.883
 1721SOL     OW 6061   1.789   6.073   3.701
 1721SOL    HW1 6062   1.850   6.092   3.779
 1721SOL    HW2 6063   1.836   6.094   3.616
 1722SOL     OW 6064   5.609   0.224   1.570
 1722SOL    HW1 6065   5.537   0.250   1.634
 1722SOL    HW2 6066   5.574   0.230   1.476
 1723SOL     OW 6067   5.950   0.973   2.849
 1723SOL    HW1 6068   6.001   0.903   2.899
 1723SOL    HW2 6069   5.871   1.002   2.903
 1724SOL     OW 6070   5.142   0.477   6.953
 1724SOL    HW1 6071   5.043   0.464   6.954
 1724SOL    HW2 6072   5.164   0.567   6.993
 1725SOL     OW 6073   3.868   5.268   2.168
 1725SOL    HW1 6074   3.936   5.340   2.152
 1725SOL    HW2 6075   3.778   5.309   2.180
 1726SOL     OW 6076   6.993   3.813   4.238
 1726SOL    HW1 6077   0.057   3.796   4.189
 1726SOL    HW2 6078   6.946   3.892   4.198
 1727SOL     OW 6079   2.751   3.313   5.320
 1727SOL    HW1 6080   2.718   3.407   5.308
 1727SOL    HW2 6081   2.849   3.314   5.338
 1728SOL     OW 6082   4.340   4.615   3.541
 1728SOL    HW1 6083   4.278   4.682   3.582
 1728SOL    HW2 6084   4.299   4.578   3.458
 1729SOL     OW 6085   2.058   3.818   2.575
 1729SOL    HW1 6086   2.093   3.909   2.598
 1729SOL    HW2 6087   1.983   3.827   2.509
 1730SOL     OW 6088   5.765   2.108   4.604
 1730SOL    HW1 6089   5.767   2.030   4.542
 1730SOL    HW2 6090   5.690   2.098   4.669
 1731SOL     OW 6091   0.436   6.606   0.695
 1731SOL    HW1 6092   0.482   6.643   0.614
 1731SOL    HW2 6093   0.494   6.622   0.775
 1732SOL     OW 6094   0.700   4.633   6.871
 1732SOL    HW1 6095   0.651   4.693   6.808
 1732SOL    HW2 6096   0.654   4.545   6.876
 1733SOL     OW 6097   0.976   3.988   0.239
 1733SOL    HW1 6098   0.920   3.926   0.294
 1733SOL    HW2 6099   0.967   3.963   0.142
 1734SOL     OW 6100   4.773   3.624   1.563
 1734SOL    HW1 6101   4.821   3.685   1.501
 1734SOL    HW2 6102   4.836   3.553   1.595
 1735SOL     OW 6103   4.915   6.203   0.597
 1735SOL    HW1 6104   4.816   6.197   0.598
 1735SOL    HW2 6105   4.953   6.126   0.545
 1736SOL     OW 6106   3.212   3.781   0.203
 1736SOL    HW1 6107   3.231   3.817   0.295
 1736SOL    HW2 6108   3.290   3.727   0.172
 1737SOL     OW 6109   1.155   6.003   3.534
 1737SOL    HW1 6110   1.240   5.979   3.487
 1737SOL    HW2 6111   1.077   5.973   3.479
 1738SOL     OW 6112   1.017   1.572   1.572
 1738SOL    HW1 6113   1.056   1.659   1.603
 1738SOL    HW2 6114   1.087   1.501   1.574
 1739SOL     OW 6115   4.525   2.596   5.990
 1739SOL    HW1 6116   4.512   2.498   5.978
 1739SOL    HW2 6117   4.607   2.612   6.046
 1740SOL     OW 6118   0.722   1.258   5.347
 1740SOL    HW1 6119   0.767   1.266   5.436
 1740SOL    HW2 6120   0.786   1.285   5.275
 1741SOL     OW 6121   2.444   0.698   2.328
 1741SOL    HW1 6122   2.518   0.720   2.392
 1741SOL    HW2 6123   2.357   0.698   2.377
 1742SOL     OW 6124   6.085   6.368   4.774
 1742SOL    HW1 6125   6.111   6.437   4.706
 1742SOL    HW2 6126   6.004   6.399   4.824
 1743SOL     OW 6127   4.368   1.076   0.734
 1743SOL    HW1 6128   4.320   1.159   0.707
 1743SOL    HW2 6129   4.436   1.052   0.665
 1744SOL     OW 6130   3.013   6.641   1.516
 1744SOL    HW1 6131   2.980   6.612   1.607
 1744SOL    HW2 6132   2.956   6.716   1.483
 1745SOL     OW 6133   6.518   3.250   5.298
 1745SOL    HW1 6134   6.561   3.202   5.221
 1745SOL    HW2 6135   6.455   3.188   5.344
 1746SOL     OW 6136   2.825   0.978   5.744
 1746SOL    HW1 6137   2.749   1.002   5.683
 1746SOL    HW2 6138   2.899   1.045   5.733
 1747SOL     OW 6139   5.248   6.742   5.753
 1747SOL    HW1 6140   5.175   6.699   5.807
 1747SOL    HW2 6141   5.329   6.684   5.753
 1748SOL     OW 6142   5.863   1.468   1.622
 1748SOL    HW1 6143   5.877   1.512   1.711
 1748SOL    HW2 6144   5.847   1.370   1.636
 1749SOL     OW 6145   4.734   0.261   5.869
 1749SOL    HW1 6146   4.663   0.319   5.830
 1749SOL    HW2 6147   4.722   0.255   5.968
 1750SOL     OW 6148   4.723   0.343   4.139
 1750SOL    HW1 6149   4.804   0.383   4.182
 1750SOL    HW2 6150   4.681   0.277   4.202
 1751SOL     OW 6151   2.091   5.485   3.583
 1751SOL    HW1 6152   2.119   5.532   3.499
 1751SOL    HW2 6153   2.012   5.532   3.623
 1752SOL     OW 6154   0.125   1.848   6.678
 1752SOL    HW1 6155   0.042   1.862   6.623
 1752SOL    HW2 6156   0.201   1.824   6.618
 1753SOL     OW 6157   2.429   6.670   2.458
 1753SOL    HW1 6158   2.501   6.732   2.426
 1753SOL    HW2 6159   2.462   6.576   2.456
 1754SOL     OW 6160   3.747   2.812   1.803
 1754SOL    HW1 6161   3.842   2.842   1.811
 1754SOL    HW2 6162   3.745   2.713   1.790
 1755SOL     OW 6163   5.869   3.660   0.279
 1755SOL    HW1 6164   5.930   3.739   0.278
 1755SOL    HW2 6165   5.777   3.689   0.303
 1756SOL     OW 6166   5.767   5.752   4.781
 1756SOL    HW1 6167   5.830   5.830   4.779
 1756SOL    HW2 6168   5.818   5.667   4.780
 1757SOL     OW 6169   3.570   0.772   5.479
 1757SOL    HW1 6170   3.629   0.780   5.398
 1757SOL    HW2 6171   3.509   0.852   5.483
 1758SOL     OW 6172   2.648   1.686   3.428
 1758SOL    HW1 6173   2.658   1.597   3.382
 1758SOL    HW2 6174   2.736   1.714   3.466
 1759SOL     OW 6175   0.373   5.570   5.991
 1759SOL    HW1 6176   0.435   5.609   6.060
 1759SOL    HW2 6177   0.354   5.638   5.921
 1760SOL     OW 6178   5.189   0.221   2.162
 1760SOL    HW1 6179   5.278   0.209   2.206
 1760SOL    HW2 6180   5.155   0.133   2.130
 1761SOL     OW 6181   5.699   2.592   1.763
 1761SOL    HW1 6182   5.791   2.628   1.779
 1761SOL    HW2 6183   5.634   2.668   1.761
 1762SOL     OW 6184   5.417   2.639   0.709
 1762SOL    HW1 6185   5.492   2.575   0.698
 1762SOL    HW2 6186   5.380   2.631   0.802
 1763SOL     OW 6187   2.089   3.378   3.869
 1763SOL    HW1 6188   2.024   3.453   3.883
 1763SOL    HW2 6189   2.120   3.344   3.958
 1764SOL     OW 6190   6.300   2.996   4.008
 1764SOL    HW1 6191   6.219   3.025   4.059
 1764SOL    HW2 6192   6.354   2.933   4.064
 1765SOL     OW 6193   1.933   3.075   6.091
 1765SOL    HW1 6194   1.991   3.150   6.122
 1765SOL    HW2 6195   1.927   3.076   5.991
 1766SOL     OW 6196   5.962   3.365   5.341
 1766SOL    HW1 6197   5.944   3.412   5.254
 1766SOL    HW2 6198   5.926   3.421   5.416
 1767SOL     OW 6199   6.681   4.276   1.753
 1767SOL    HW1 6200   6.620   4.356   1.758
 1767SOL    HW2 6201   6.626   4.194   1.737
 1768SOL     OW 6202   6.306   6.825   3.704
 1768SOL    HW1 6203   6.310   6.829   3.604
 1768SOL    HW2 6204   6.354   6.743   3.736
 1769SOL     OW 6205   5.338   0.660   3.788
 1769SOL    HW1 6206   5.292   0.606   3.858
 1769SOL    HW2 6207   5.382   0.739   3.829
 1770SOL     OW 6208   3.492   5.361   5.129
 1770SOL    HW1 6209   3.572   5.398   5.175
 1770SOL    HW2 6210   3.484   5.400   5.037
 1771SOL     OW 6211   4.499   6.916   0.024
 1771SOL    HW1 6212   4.453   6.880   0.106
 1771SOL    HW2 6213   4.529   6.841   6.987
 1772SOL     OW 6214   3.457   6.140   3.420
 1772SOL    HW1 6215   3.402   6.210   3.375
 1772SOL    HW2 6216   3.538   6.120   3.366
 1773SOL     OW 6217   0.877   6.465   6.895
 1773SOL    HW1 6218   0.830   6.513   6.969
 1773SOL    HW2 6219   0.812   6.404   6.848
 1774SOL     OW 6220   2.964   4.867   2.234
 1774SOL    HW1 6221   2.957   4.966   2.229
 1774SOL    HW2 6222   3.026   4.841   2.308
 1775SOL     OW 6223   0.674   4.209   1.320
 1775SOL    HW1 6224   0.663   4.115   1.354
 1775SOL    HW2 6225   0.772   4.230   1.314
 1776SOL     OW 6226   3.072   6.296   5.961
 1776SOL    HW1 6227   2.987   6.243   5.965
 1776SOL    HW2 6228   3.116   6.281   5.872
 1777SOL     OW 6229   3.285   5.675   0.253
 1777SOL    HW1 6230   3.205   5.658   0.195
 1777SOL    HW2 6231   3.267   5.754   0.312
 1778SOL     OW 6232   6.624   3.741   5.726
 1778SOL    HW1 6233   6.672   3.697   5.802
 1778SOL    HW2 6234   6.686   3.804   5.680
 1779SOL     OW 6235   3.841   0.612   5.651
 1779SOL    HW1 6236   3.885   0.700   5.637
 1779SOL    HW2 6237   3.810   0.576   5.563
 1780SOL     OW 6238   3.401   3.605   6.613
 1780SOL    HW1 6239   3.324   3.543   6.596
 1780SOL    HW2 6240   3.462   3.563   6.680
 1781SOL     OW 6241   3.574   5.318   3.892
 1781SOL    HW1 6242   3.651   5.379   3.876
 1781SOL    HW2 6243   3.488   5.365   3.872
 1782SOL     OW 6244   3.103   1.809   4.278
 1782SOL    HW1 6245   3.025   1.871   4.282
 1782SOL    HW2 6246   3.137   1.791   4.371
 1783SOL     OW 6247   1.731   5.712   6.897
 1783SOL    HW1 6248   1.769   5.802   6.920
 1783SOL    HW2 6249   1.708   5.663   6.981
 1784SOL     OW 6250   3.166   6.809   5.889
 1784SOL    HW1 6251   3.176   6.908   5.890
 1784SOL    HW2 6252   3.143   6.776   5.981
 1785SOL     OW 6253   0.019   4.933   1.839
 1785SOL    HW1 6254   6.992   4.987   1.768
 1785SOL    HW2 6255   0.118   4.942   1.827
 1786SOL     OW 6256   4.052   2.297   1.032
 1786SOL    HW1 6257   4.100   2.225   0.982
 1786SOL    HW2 6258   4.090   2.305   1.124
 1787SOL     OW 6259   3.855   0.899   5.992
 1787SOL    HW1 6260   3.829   0.996   5.995
 1787SOL    HW2 6261   3.778   0.843   6.024
 1788SOL     OW 6262   1.435   4.773   6.155
 1788SOL    HW1 6263   1.499   4.787   6.231
 1788SOL    HW2 6264   1.348   4.739   6.191
 1789SOL     OW 6265   6.117   0.304   0.348
 1789SOL    HW1 6266   6.085   0.385   0.396
 1789SOL    HW2 6267   6.050   0.230   0.359
 1790SOL     OW 6268   3.336   6.503   2.858
 1790SOL    HW1 6269   3.246   6.502   2.903
 1790SOL    HW2 6270   3.349   6.590   2.811
 1791SOL     OW 6271   0.331   6.744   2.856
 1791SOL    HW1 6272   0.255   6.701   2.906
 1791SOL    HW2 6273   0.333   6.841   2.878
 1792SOL     OW 6274   0.938   4.086   4.837
 1792SOL    HW1 6275   0.986   4.168   4.867
 1792SOL    HW2 6276   0.997   4.033   4.776
 1793SOL     OW 6277   0.132   0.961   3.596
 1793SOL    HW1 6278   0.176   0.923   3.678
 1793SOL    HW2 6279   0.202   0.999   3.535
 1794SOL     OW 6280   4.448   6.369   6.471
 1794SOL    HW1 6281   4.471   6.389   6.376
 1794SOL    HW2 6282   4.447   6.270   6.485
 1795SOL     OW 6283   1.049   3.072   0.016
 1795SOL    HW1 6284   1.147   3.079   0.035
 1795SOL    HW2 6285   0.999   3.139   0.070
 1796SOL     OW 6286   3.461   0.743   6.325
 1796SOL    HW1 6287   3.495   0.835   6.340
 1796SOL    HW2 6288   3.409   0.740   6.240
 1797SOL     OW 6289   1.103   0.687   0.748
 1797SOL    HW1 6290   1.003   0.685   0.750
 1797SOL    HW2 6291   1.134   0.744   0.672
 1798SOL     OW 6292   5.435   2.101   3.124
 1798SOL    HW1 6293   5.431   2.006   3.093
 1798SOL    HW2 6294   5.451   2.103   3.222
 1799SOL     OW 6295   2.325   1.684   6.754
 1799SOL    HW1 6296   2.399   1.750   6.769
 1799SOL    HW2 6297   2.243   1.733   6.726
 1800SOL     OW 6298   3.788   4.936   2.452
 1800SOL    HW1 6299   3.699   4.900   2.424
 1800SOL    HW2 6300   3.809   5.018   2.399
 1801SOL     OW 6301   5.716   0.036   0.812
 1801SOL    HW1 6302   5.624   0.029   0.851
 1801SOL    HW2 6303   5.783   0.042   0.886
 1802SOL     OW 6304   5.323   4.980   3.712
 1802SOL    HW1 6305   5.408   4.964   3.661
 1802SOL    HW2 6306   5.251   4.922   3.675
 1803SOL     OW 6307   5.664   5.573   1.218
 1803SOL    HW1 6308   5.581   5.521   1.197
 1803SOL    HW2 6309   5.729   5.514   1.267
 1804SOL     OW 6310   3.353   3.346   5.961
 1804SOL    HW1 6311   3.380   3.442   5.950
 1804SOL    HW2 6312   3.260   3.342   5.999
 1805SOL     OW 6313   5.562   2.659   6.211
 1805SOL    HW1 6314   5.528   2.572   6.246
 1805SOL    HW2 6315   5.660   2.653   6.194
 1806SOL     OW 6316   0.187   0.664   0.872
 1806SOL    HW1 6317   0.226   0.640   0.961
 1806SOL    HW2 6318   0.201   0.761   0.855
 1807SOL     OW 6319   6.169   2.078   6.079
 1807SOL    HW1 6320   6.252   2.131   6.094
 1807SOL    HW2 6321   6.193   1.991   6.036
 1808SOL     OW 6322   1.803   4.589   3.990
 1808SOL    HW1 6323   1.751   4.674   3.994
 1808SOL    HW2 6324   1.841   4.569   4.080
 1809SOL     OW 6325   3.618   0.085   6.550
 1809SOL    HW1 6326   3.675   0.128   6.480
 1809SOL    HW2 6327   3.656   7.016   6.573
 1810SOL     OW 6328   3.449   6.095   2.804
 1810SOL    HW1 6329   3.434   6.152   2.723
 1810SOL    HW2 6330   3.490   6.008   2.776
 1811SOL     OW 6331   6.203   5.630   2.512
 1811SOL    HW1 6332   6.300   5.634   2.491
 1811SOL    HW2 6333   6.182   5.694   2.587
 1812SOL     OW 6334   4.405   5.473   6.533
 1812SOL    HW1 6335   4.502   5.451   6.519
 1812SOL    HW2 6336   4.378   5.544   6.469
 1813SOL     OW 6337   6.621   5.259   5.342
 1813SOL    HW1 6338   6.715   5.241   5.370
 1813SOL    HW2 6339   6.621   5.325   5.267
 1814SOL     OW 6340   5.070   6.894   2.583
 1814SOL    HW1 6341   5.050   6.939   2.496
 1814SOL    HW2 6342   5.119   6.958   2.643
 1815SOL     OW 6343   0.472   1.054   2.136
 1815SOL    HW1 6344   0.526   0.989   2.083
 1815SOL    HW2 6345   0.491   1.043   2.233
 1816SOL     OW 6346   0.974   4.227   0.355
 1816SOL    HW1 6347   0.984   4.133   0.322
 1816SOL    HW2 6348   1.057   4.254   0.405
 1817SOL     OW 6349   1.093   5.524   1.881
 1817SOL    HW1 6350   1.058   5.535   1.788
 1817SOL    HW2 6351   1.190   5.551   1.884
 1818SOL     OW 6352   1.506   1.165   3.037
 1818SOL    HW1 6353   1.504   1.103   3.115
 1818SOL    HW2 6354   1.507   1.259   3.068
 1819SOL     OW 6355   1.031   4.242   2.309
 1819SOL    HW1 6356   1.101   4.251   2.238
 1819SOL    HW2 6357   1.004   4.146   2.318
 1820SOL     OW 6358   5.801   0.349   2.616
 1820SOL    HW1 6359   5.702   0.337   2.625
 1820SOL    HW2 6360   5.842   0.366   2.705
 1821SOL     OW 6361   1.659   1.392   3.307
 1821SOL    HW1 6362   1.670   1.412   3.209
 1821SOL    HW2 6363   1.625   1.474   3.353
 1822SOL     OW 6364   3.525   3.527   1.705
 1822SOL    HW1 6365   3.557   3.442   1.745
 1822SOL    HW2 6366   3.425   3.526   1.700
 1823SOL     OW 6367   4.051   0.025   2.489
 1823SOL    HW1 6368   4.046   0.124   2.502
 1823SOL    HW2 6369   3.972   7.015   2.436
 1824SOL     OW 6370   4.971   2.417   1.620
 1824SOL    HW1 6371   4.976   2.516   1.604
 1824SOL    HW2 6372   5.061   2.383   1.646
 1825SOL     OW 6373   0.969   1.236   1.407
 1825SOL    HW1 6374   1.042   1.270   1.467
 1825SOL    HW2 6375   0.972   1.287   1.320
 1826SOL     OW 6376   2.980   5.906   6.568
 1826SOL    HW1 6377   2.907   5.848   6.532
 1826SOL    HW2 6378   3.033   5.944   6.492
 1827SOL     OW 6379   6.201   6.895   1.858
 1827SOL    HW1 6380   6.294   6.911   1.824
 1827SOL    HW2 6381   6.205   6.851   1.947
 1828SOL     OW 6382   1.589   2.514   0.028
 1828SOL    HW1 6383   1.679   2.513   7.006
 1828SOL    HW2 6384   1.596   2.555   0.120
 1829SOL     OW 6385   6.179   5.710   1.942
 1829SOL    HW1 6386   6.220   5.754   1.862
 1829SOL    HW2 6387   6.081   5.730   1.945
 1830SOL     OW 6388   5.584   6.059   3.625
 1830SOL    HW1 6389   5.554   6.143   3.670
 1830SOL    HW2 6390   5.681   6.066   3.604
 1831SOL     OW 6391   5.128   0.571   3.473
 1831SOL    HW1 6392   5.099   0.626   3.552
 1831SOL    HW2 6393   5.098   0.615   3.389
 1832SOL     OW 6394   5.154   2.844   0.431
 1832SOL    HW1 6395   5.213   2.771   0.466
 1832SOL    HW2 6396   5.062   2.807   0.415
 1833SOL     OW 6397   5.885   1.715   5.510
 1833SOL    HW1 6398   5.914   1.690   5.602
 1833SOL    HW2 6399   5.963   1.750   5.458
 1834SOL     OW 6400   2.619   3.984   0.649
 1834SOL    HW1 6401   2.695   3.942   0.700
 1834SOL    HW2 6402   2.559   3.912   0.614
 1835SOL     OW 6403   1.198   4.415   6.941
 1835SOL    HW1 6404   1.150   4.368   6.867
 1835SOL    HW2 6405   1.143   4.413   0.003
 1836SOL     OW 6406   0.466   5.776   0.633
 1836SOL    HW1 6407   0.418   5.842   0.575
 1836SOL    HW2 6408   0.405   5.747   0.707
 1837SOL     OW 6409   0.796   2.506   4.762
 1837SOL    HW1 6410   0.796   2.596   4.719
 1837SOL    HW2 6411   0.849   2.510   4.846
 1838SOL     OW 6412   0.711   2.645   4.103
 1838SOL    HW1 6413   0.644   2.710   4.138
 1838SOL    HW2 6414   0.751   2.595   4.180
 1839SOL     OW 6415   6.817   1.638   5.858
 1839SOL    HW1 6416   6.799   1.696   5.779
 1839SOL    HW2 6417   6.810   1.693   5.942
 1840SOL     OW 6418   1.436   5.199   0.387
 1840SOL    HW1 6419   1.515   5.146   0.357
 1840SOL    HW2 6420   1.379   5.144   0.448
 1841SOL     OW 6421   1.559   3.136   2.712
 1841SOL    HW1 6422   1.560   3.037   2.703
 1841SOL    HW2 6423   1.621   3.164   2.786
 1842SOL     OW 6424   0.813   4.971   6.940
 1842SOL    HW1 6425   0.840   5.023   6.859
 1842SOL    HW2 6426   0.714   4.970   6.947
 1843SOL     OW 6427   3.995   1.879   4.878
 1843SOL    HW1 6428   3.935   1.958   4.886
 1843SOL    HW2 6429   4.067   1.884   4.948
 1844SOL     OW 6430   5.498   3.478   3.627
 1844SOL    HW1 6431   5.454   3.394   3.658
 1844SOL    HW2 6432   5.443   3.557   3.657
 1845SOL     OW 6433   4.153   6.919   0.956
 1845SOL    HW1 6434   4.123   7.014   0.962
 1845SOL    HW2 6435   4.147   6.876   1.047
 1846SOL     OW 6436   3.476   1.024   5.517
 1846SOL    HW1 6437   3.500   1.061   5.606
 1846SOL    HW2 6438   3.488   1.094   5.447
 1847SOL     OW 6439   1.830   6.813   0.335
 1847SOL    HW1 6440   1.753   6.851   0.386
 1847SOL    HW2 6441   1.857   6.725   0.374
 1848SOL     OW 6442   2.904   6.667   2.468
 1848SOL    HW1 6443   2.940   6.626   2.552
 1848SOL    HW2 6444   2.927   6.609   2.390
 1849SOL     OW 6445   2.959   1.116   6.477
 1849SOL    HW1 6446   3.025   1.049   6.443
 1849SOL    HW2 6447   2.925   1.087   6.566
 1850SOL     OW 6448   5.552   1.560   1.624
 1850SOL    HW1 6449   5.542   1.659   1.622
 1850SOL    HW2 6450   5.644   1.535   1.593
 1851SOL     OW 6451   6.605   3.541   2.909
 1851SOL    HW1 6452   6.693   3.583   2.933
 1851SOL    HW2 6453   6.539   3.613   2.887
 1852SOL     OW 6454   5.368   3.030   6.352
 1852SOL    HW1 6455   5.351   3.048   6.449
 1852SOL    HW2 6456   5.384   2.932   6.338
 1853SOL     OW 6457   1.553   4.389   0.605
 1853SOL    HW1 6458   1.461   4.420   0.582
 1853SOL    HW2 6459   1.619   4.459   0.576
 1854SOL     OW 6460   2.896   5.478   4.128
 1854SOL    HW1 6461   2.903   5.574   4.154
 1854SOL    HW2 6462   2.826   5.433   4.185
 1855SOL     OW 6463   5.676   4.218   1.772
 1855SOL    HW1 6464   5.741   4.184   1.841
 1855SOL    HW2 6465   5.616   4.286   1.814
 1856SOL     OW 6466   4.981   3.479   6.560
 1856SOL    HW1 6467   4.905   3.460   6.499
 1856SOL    HW2 6468   5.066   3.446   6.519
 1857SOL     OW 6469   4.747   1.494   3.879
 1857SOL    HW1 6470   4.809   1.515   3.804
 1857SOL    HW2 6471   4.718   1.580   3.922
 1858SOL     OW 6472   5.629   3.372   3.374
 1858SOL    HW1 6473   5.579   3.401   3.456
 1858SOL    HW2 6474   5.655   3.276   3.382
 1859SOL     OW 6475   5.188   1.435   3.387
 1859SOL    HW1 6476   5.092   1.429   3.358
 1859SOL    HW2 6477   5.243   1.375   3.329
 1860SOL     OW 6478   4.231   2.012   5.292
 1860SOL    HW1 6479   4.248   2.108   5.316
 1860SOL    HW2 6480   4.222   1.958   5.376
 1861SOL     OW 6481   5.387   6.263   2.390
 1861SOL    HW1 6482   5.444   6.345   2.385
 1861SOL    HW2 6483   5.294   6.289   2.414
 1862SOL     OW 6484   1.733   1.667   0.670
 1862SOL    HW1 6485   1.696   1.688   0.579
 1862SOL    HW2 6486   1.738   1.568   0.683
 1863SOL     OW 6487   2.030   2.514   1.410
 1863SOL    HW1 6488   1.935   2.519   1.441
 1863SOL    HW2 6489   2.052   2.595   1.356
 1864SOL     OW 6490   1.035   6.488   3.177
 1864SOL    HW1 6491   1.087   6.567   3.209
 1864SOL    HW2 6492   0.941   6.493   3.211
 1865SOL     OW 6493   5.146   2.388   6.680
 1865SOL    HW1 6494   5.051   2.413   6.697
 1865SOL    HW2 6495   5.155   2.288   6.681
 1866SOL     OW 6496   5.247   5.516   2.571
 1866SOL    HW1 6497   5.163   5.531   2.517
 1866SOL    HW2 6498   5.248   5.422   2.605
 1867SOL     OW 6499   1.000   4.817   6.740
 1867SOL    HW1 6500   0.929   4.780   6.800
 1867SOL    HW2 6501   0.964   4.897   6.693
 1868SOL     OW 6502   6.300   4.037   5.616
 1868SOL    HW1 6503   6.204   4.058   5.634
 1868SOL    HW2 6504   6.348   4.121   5.592
 1869SOL     OW 6505   5.734   1.373   4.636
 1869SOL    HW1 6506   5.774   1.305   4.698
 1869SOL    HW2 6507   5.797   1.389   4.560
 1870SOL     OW 6508   2.197   4.211   4.210
 1870SOL    HW1 6509   2.275   4.233   4.269
 1870SOL    HW2 6510   2.112   4.237   4.255
 1871SOL     OW 6511   1.532   0.469   0.790
 1871SOL    HW1 6512   1.567   0.454   0.883
 1871SOL    HW2 6513   1.530   0.382   0.741
 1872SOL     OW 6514   2.493   4.688   0.087
 1872SOL    HW1 6515   2.546   4.669   0.004
 1872SOL    HW2 6516   2.419   4.621   0.095
 1873SOL     OW 6517   5.281   1.089   0.588
 1873SOL    HW1 6518   5.373   1.128   0.580
 1873SOL    HW2 6519   5.254   1.050   0.500
 1874SOL     OW 6520   1.517   3.591   2.696
 1874SOL    HW1 6521   1.490   3.511   2.642
 1874SOL    HW2 6522   1.484   3.674   2.652
 1875SOL     OW 6523   1.401   0.017   1.232
 1875SOL    HW1 6524   1.394   0.102   1.178
 1875SOL    HW2 6525   1.334   6.972   1.197
 1876SOL     OW 6526   2.348   6.929   4.311
 1876SOL    HW1 6527   2.330   7.020   4.273
 1876SOL    HW2 6528   2.414   6.937   4.386
 1877SOL     OW 6529   6.694   6.788   3.576
 1877SOL    HW1 6530   6.628   6.814   3.647
 1877SOL    HW2 6531   6.768   6.735   3.618
 1878SOL     OW 6532   5.720   2.456   5.807
 1878SOL    HW1 6533   5.640   2.452   5.867
 1878SOL    HW2 6534   5.798   2.414   5.852
 1879SOL     OW 6535   1.778   4.418   5.912
 1879SOL    HW1 6536   1.786   4.512   5.945
 1879SOL    HW2 6537   1.734   4.418   5.823
 1880SOL     OW 6538   6.235   0.673   5.163
 1880SOL    HW1 6539   6.183   0.749   5.200
 1880SOL    HW2 6540   6.320   0.707   5.122
 1881SOL     OW 6541   0.383   2.620   0.066
 1881SOL    HW1 6542   0.327   2.657   7.012
 1881SOL    HW2 6543   0.471   2.668   0.068
 1882SOL     OW 6544   1.288   6.376   6.604
 1882SOL    HW1 6545   1.192   6.405   6.603
 1882SOL    HW2 6546   1.292   6.276   6.593
 1883SOL     OW 6547   0.412   2.027   4.059
 1883SOL    HW1 6548   0.509   2.050   4.053
 1883SOL    HW2 6549   0.393   1.946   4.003
 1884SOL     OW 6550   0.711   2.749   0.907
 1884SOL    HW1 6551   0.740   2.657   0.878
 1884SOL    HW2 6552   0.683   2.746   1.002
 1885SOL     OW 6553   2.107   1.249   4.461
 1885SOL    HW1 6554   2.131   1.166   4.411
 1885SOL    HW2 6555   2.179   1.270   4.527
 1886SOL     OW 6556   0.773   6.566   3.339
 1886SOL    HW1 6557   0.840   6.607   3.401
 1886SOL    HW2 6558   0.739   6.481   3.378
 1887SOL     OW 6559   2.967   6.182   6.248
 1887SOL    HW1 6560   2.910   6.163   6.167
 1887SOL    HW2 6561   2.959   6.278   6.273
 1888SOL     OW 6562   2.844   1.012   3.111
 1888SOL    HW1 6563   2.891   0.946   3.169
 1888SOL    HW2 6564   2.858   1.104   3.146
 1889SOL     OW 6565   0.454   3.477   2.385
 1889SOL    HW1 6566   0.514   3.534   2.329
 1889SOL    HW2 6567   0.400   3.418   2.326
 1890SOL     OW 6568   0.795   5.921   4.769
 1890SOL    HW1 6569   0.887   5.893   4.741
 1890SOL    HW2 6570   0.728   5.855   4.735
 1891SOL     OW 6571   3.048   3.208   3.525
 1891SOL    HW1 6572   3.019   3.304   3.518
 1891SOL    HW2 6573   3.029   3.174   3.617
 1892SOL     OW 6574   0.902   0.252   2.794
 1892SOL    HW1 6575   0.858   0.341   2.787
 1892SOL    HW2 6576   0.997   0.264   2.823
 1893SOL     OW 6577   3.949   3.838   4.267
 1893SOL    HW1 6578   3.992   3.837   4.357
 1893SOL    HW2 6579   3.913   3.748   4.246
 1894SOL     OW 6580   3.171   3.545   4.565
 1894SOL    HW1 6581   3.164   3.606   4.486
 1894SOL    HW2 6582   3.127   3.587   4.644
 1895SOL     OW 6583   1.910   6.093   0.386
 1895SOL    HW1 6584   1.892   6.005   0.430
 1895SOL    HW2 6585   1.832   6.119   0.330
 1896SOL     OW 6586   6.070   2.403   1.299
 1896SOL    HW1 6587   6.169   2.405   1.288
 1896SOL    HW2 6588   6.043   2.323   1.353
 1897SOL     OW 6589   1.235   4.489   4.792
 1897SOL    HW1 6590   1.261   4.585   4.802
 1897SOL    HW2 6591   1.207   4.472   4.697
 1898SOL     OW 6592   1.687   6.148   2.875
 1898SOL    HW1 6593   1.704   6.077   2.806
 1898SOL    HW2 6594   1.716   6.237   2.839
 1899SOL     OW 6595   0.211   0.958   2.115
 1899SOL    HW1 6596   0.296   1.010   2.109
 1899SOL    HW2 6597   0.226   0.875   2.170
 1900SOL     OW 6598   2.475   6.590   0.052
 1900SOL    HW1 6599   2.408   6.537   0.000
 1900SOL    HW2 6600   2.437   6.680   0.074
 1901SOL     OW 6601   2.613   3.762   1.679
 1901SOL    HW1 6602   2.669   3.844   1.669
 1901SOL    HW2 6603   2.671   3.684   1.701
 1902SOL     OW 6604   1.424   0.124   5.042
 1902SOL    HW1 6605   1.431   0.025   5.030
 1902SOL    HW2 6606   1.329   0.152   5.033
 1903SOL     OW 6607   1.495   2.275   3.929
 1903SOL    HW1 6608   1.586   2.309   3.905
 1903SOL    HW2 6609   1.501   2.180   3.959
 1904SOL     OW 6610   5.563   6.146   1.997
 1904SOL    HW1 6611   5.629   6.101   1.936
 1904SOL    HW2 6612   5.547   6.239   1.964
 1905SOL     OW 6613   0.929   1.716   4.002
 1905SOL    HW1 6614   0.917   1.635   4.058
 1905SOL    HW2 6615   1.024   1.721   3.970
 1906SOL     OW 6616   1.401   6.489   4.626
 1906SOL    HW1 6617   1.471   6.503   4.556
 1906SOL    HW2 6618   1.436   6.427   4.696
 1907SOL     OW 6619   4.781   2.953   0.238
 1907SOL    HW1 6620   4.811   2.937   0.144
 1907SOL    HW2 6621   4.843   3.017   0.283
 1908SOL     OW 6622   3.666   1.481   1.108
 1908SOL    HW1 6623   3.741   1.482   1.175
 1908SOL    HW2 6624   3.688   1.544   1.034
 1909SOL     OW 6625   6.238   5.277   4.576
 1909SOL    HW1 6626   6.282   5.343   4.515
 1909SOL    HW2 6627   6.141   5.300   4.586
 1910SOL     OW 6628   0.470   5.960   5.796
 1910SOL    HW1 6629   0.538   5.935   5.864
 1910SOL    HW2 6630   0.421   6.042   5.826
 1911SOL     OW 6631   6.129   5.933   4.306
 1911SOL    HW1 6632   6.134   5.886   4.394
 1911SOL    HW2 6633   6.174   5.878   4.236
 1912SOL     OW 6634   3.524   5.025   2.006
 1912SOL    HW1 6635   3.473   5.060   1.927
 1912SOL    HW2 6636   3.523   4.925   2.005
 1913SOL     OW 6637   3.409   4.356   6.548
 1913SOL    HW1 6638   3.498   4.324   6.580
 1913SOL    HW2 6639   3.385   4.442   6.593
 1914SOL     OW 6640   3.223   4.552   0.035
 1914SOL    HW1 6641   3.197   4.644   0.063
 1914SOL    HW2 6642   3.187   4.486   0.100
 1915SOL     OW 6643   3.422   2.763   6.607
 1915SOL    HW1 6644   3.334   2.794   6.644
 1915SOL    HW2 6645   3.439   2.806   6.518
 1916SOL     OW 6646   4.025   0.928   2.786
 1916SOL    HW1 6647   3.998   0.986   2.709
 1916SOL    HW2 6648   4.122   0.905   2.777
 1917SOL     OW 6649   2.129   4.238   1.148
 1917SOL    HW1 6650   2.188   4.269   1.223
 1917SOL    HW2 6651   2.063   4.309   1.126
 1918SOL     OW 6652   5.483   2.116   3.382
 1918SOL    HW1 6653   5.488   2.049   3.456
 1918SOL    HW2 6654   5.545   2.192   3.403
 1919SOL     OW 6655   6.592   2.821   6.087
 1919SOL    HW1 6656   6.643   2.768   6.154
 1919SOL    HW2 6657   6.498   2.835   6.119
 1920SOL     OW 6658   4.907   3.120   0.576
 1920SOL    HW1 6659   4.974   3.091   0.507
 1920SOL    HW2 6660   4.932   3.082   0.665
 1921SOL     OW 6661   2.383   2.280   6.948
 1921SOL    HW1 6662   2.445   2.356   6.929
 1921SOL    HW2 6663   2.332   2.299   0.011
 1922SOL     OW 6664   3.311   2.999   3.670
 1922SOL    HW1 6665   3.290   3.008   3.767
 1922SOL    HW2 6666   3.344   2.906   3.652
 1923SOL     OW 6667   3.548   0.979   4.437
 1923SOL    HW1 6668   3.488   0.965   4.359
 1923SOL    HW2 6669   3.570   0.891   4.479
 1924SOL     OW 6670   5.076   1.257   0.626
 1924SOL    HW1 6671   4.996   1.226   0.676
 1924SOL    HW2 6672   5.139   1.180   0.612
 1925SOL     OW 6673   1.147   3.642   1.305
 1925SOL    HW1 6674   1.242   3.647   1.337
 1925SOL    HW2 6675   1.117   3.733   1.277
 1926SOL     OW 6676   3.845   0.859   2.099
 1926SOL    HW1 6677   3.748   0.864   2.076
 1926SOL    HW2 6678   3.898   0.836   2.017
 1927SOL     OW 6679   1.901   5.197   1.164
 1927SOL    HW1 6680   1.914   5.221   1.260
 1927SOL    HW2 6681   1.916   5.098   1.152
 1928SOL     OW 6682   6.548   4.691   2.412
 1928SOL    HW1 6683   6.615   4.618   2.401
 1928SOL    HW2 6684   6.581   4.774   2.366
 1929SOL     OW 6685   3.385   6.653   3.642
 1929SOL    HW1 6686   3.357   6.723   3.577
 1929SOL    HW2 6687   3.381   6.691   3.735
 1930SOL     OW 6688   3.789   3.503   0.418
 1930SOL    HW1 6689   3.858   3.438   0.385
 1930SOL    HW2 6690   3.814   3.533   0.510
 1931SOL     OW 6691   0.058   2.389   4.003
 1931SOL    HW1 6692   0.051   2.414   4.100
 1931SOL    HW2 6693   6.988   2.367   3.968
 1932SOL     OW 6694   4.662   1.777   2.349
 1932SOL    HW1 6695   4.622   1.731   2.428
 1932SOL    HW2 6696   4.751   1.815   2.374
 1933SOL     OW 6697   1.266   1.196   1.200
 1933SOL    HW1 6698   1.264   1.100   1.228
 1933SOL    HW2 6699   1.241   1.203   1.104
 1934SOL     OW 6700   6.698   1.095   6.939
 1934SOL    HW1 6701   6.679   1.013   6.993
 1934SOL    HW2 6702   6.778   1.079   6.881
 1935SOL     OW 6703   5.975   4.971   3.543
 1935SOL    HW1 6704   5.902   4.903   3.528
 1935SOL    HW2 6705   5.937   5.063   3.533
 1936SOL     OW 6706   4.758   3.217   5.973
 1936SOL    HW1 6707   4.694   3.293   5.987
 1936SOL    HW2 6708   4.851   3.249   5.988
 1937SOL     OW 6709   6.280   4.998   6.422
 1937SOL    HW1 6710   6.243   4.995   6.329
 1937SOL    HW2 6711   6.205   5.006   6.487
 1938SOL     OW 6712   6.674   2.863   0.342
 1938SOL    HW1 6713   6.637   2.866   0.435
 1938SOL    HW2 6714   6.626   2.793   0.290
 1939SOL     OW 6715   0.260   0.553   4.219
 1939SOL    HW1 6716   0.341   0.606   4.245
 1939SOL    HW2 6717   0.283   0.491   4.144
 1940SOL     OW 6718   0.359   5.163   0.422
 1940SOL    HW1 6719   0.406   5.131   0.340
 1940SOL    HW2 6720   0.415   5.143   0.503
 1941SOL     OW 6721   5.110   1.744   4.922
 1941SOL    HW1 6722   5.147   1.762   5.013
 1941SOL    HW2 6723   5.087   1.830   4.877
 1942SOL     OW 6724   0.190   4.637   1.808
 1942SOL    HW1 6725   0.220   4.731   1.795
 1942SOL    HW2 6726   0.107   4.620   1.756
 1943SOL     OW 6727   0.725   2.805   3.314
 1943SOL    HW1 6728   0.737   2.893   3.268
 1943SOL    HW2 6729   0.762   2.810   3.407
 1944SOL     OW 6730   0.841   3.298   3.728
 1944SOL    HW1 6731   0.903   3.369   3.695
 1944SOL    HW2 6732   0.756   3.301   3.674
 1945SOL     OW 6733   5.513   1.348   1.827
 1945SOL    HW1 6734   5.469   1.313   1.909
 1945SOL    HW2 6735   5.445   1.356   1.754
 1946SOL     OW 6736   6.352   5.722   0.767
 1946SOL    HW1 6737   6.386   5.634   0.801
 1946SOL    HW2 6738   6.252   5.723   0.773
 1947SOL     OW 6739   6.085   4.893   2.774
 1947SOL    HW1 6740   6.131   4.861   2.857
 1947SOL    HW2 6741   6.088   4.992   2.770
 1948SOL     OW 6742   5.339   3.267   3.712
 1948SOL    HW1 6743   5.291   3.277   3.799
 1948SOL    HW2 6744   5.282   3.213   3.650
 1949SOL     OW 6745   3.321   4.319   6.298
 1949SOL    HW1 6746   3.372   4.340   6.382
 1949SOL    HW2 6747   3.366   4.362   6.220
 1950SOL     OW 6748   3.876   3.899   3.479
 1950SOL    HW1 6749   3.928   3.909   3.564
 1950SOL    HW2 6750   3.783   3.932   3.493
 1951SOL     OW 6751   6.510   5.177   5.596
 1951SOL    HW1 6752   6.608   5.160   5.601
 1951SOL    HW2 6753   6.482   5.184   5.500
 1952SOL     OW 6754   5.808   4.791   6.873
 1952SOL    HW1 6755   5.735   4.858   6.856
 1952SOL    HW2 6756   5.776   4.723   6.938
 1953SOL     OW 6757   1.142   1.249   0.051
 1953SOL    HW1 6758   1.239   1.226   0.061
 1953SOL    HW2 6759   1.127   1.343   0.083
 1954SOL     OW 6760   3.575   6.718   2.008
 1954SOL    HW1 6761   3.566   6.618   2.007
 1954SOL    HW2 6762   3.605   6.749   1.918
 1955SOL     OW 6763   6.748   2.580   3.788
 1955SOL    HW1 6764   6.796   2.494   3.807
 1955SOL    HW2 6765   6.656   2.561   3.756
 1956SOL     OW 6766   5.049   0.942   1.584
 1956SOL    HW1 6767   5.070   1.035   1.612
 1956SOL    HW2 6768   5.133   0.887   1.585
 1957SOL     OW 6769   6.791   2.578   4.467
 1957SOL    HW1 6770   6.768   2.481   4.469
 1957SOL    HW2 6771   6.851   2.600   4.544
 1958SOL     OW 6772   4.424   1.441   0.562
 1958SOL    HW1 6773   4.329   1.418   0.584
 1958SOL    HW2 6774   4.428   1.536   0.529
 1959SOL     OW 6775   1.256   1.876   5.629
 1959SOL    HW1 6776   1.244   1.937   5.708
 1959SOL    HW2 6777   1.305   1.925   5.557
 1960SOL     OW 6778   5.606   4.012   3.287
 1960SOL    HW1 6779   5.561   3.927   3.314
 1960SOL    HW2 6780   5.626   4.010   3.189
 1961SOL     OW 6781   0.629   3.612   3.907
 1961SOL    HW1 6782   0.708   3.574   3.859
 1961SOL    HW2 6783   0.633   3.712   3.904
 1962SOL     OW 6784   0.654   0.427   1.803
 1962SOL    HW1 6785   0.627   0.508   1.856
 1962SOL    HW2 6786   0.743   0.394   1.836
 1963SOL     OW 6787   0.669   2.828   6.862
 1963SOL    HW1 6788   0.636   2.801   6.953
 1963SOL    HW2 6789   0.685   2.927   6.861
 1964SOL     OW 6790   5.616   3.706   0.586
 1964SOL    HW1 6791   5.520   3.681   0.571
 1964SOL    HW2 6792   5.653   3.747   0.503
 1965SOL     OW 6793   6.119   4.683   3.556
 1965SOL    HW1 6794   6.024   4.704   3.533
 1965SOL    HW2 6795   6.159   4.627   3.484
 1966SOL     OW 6796   0.970   4.573   6.435
 1966SOL    HW1 6797   1.000   4.668   6.423
 1966SOL    HW2 6798   0.900   4.569   6.505
 1967SOL     OW 6799   6.316   3.414   4.771
 1967SOL    HW1 6800   6.370   3.485   4.724
 1967SOL    HW2 6801   6.229   3.453   4.800
 1968SOL     OW 6802   2.590   0.772   6.037
 1968SOL    HW1 6803   2.664   0.705   6.034
 1968SOL    HW2 6804   2.551   0.783   5.946
 1969SOL     OW 6805   1.245   5.931   1.014
 1969SOL    HW1 6806   1.281   5.975   1.096
 1969SOL    HW2 6807   1.187   5.854   1.040
 1970SOL     OW 6808   5.497   4.469   4.152
 1970SOL    HW1 6809   5.410   4.518   4.142
 1970SOL    HW2 6810   5.538   4.491   4.240
 1971SOL     OW 6811   1.912   4.324   4.850
 1971SOL    HW1 6812   2.002   4.325   4.893
 1971SOL    HW2 6813   1.902   4.406   4.793
 1972SOL     OW 6814   6.181   1.948   2.613
 1972SOL    HW1 6815   6.204   1.868   2.558
 1972SOL    HW2 6816   6.242   2.024   2.589
 1973SOL     OW 6817   3.518   2.256   0.850
 1973SOL    HW1 6818   3.610   2.227   0.873
 1973SOL    HW2 6819   3.516   2.356   0.842
 1974SOL     OW 6820   2.452   0.064   5.078
 1974SOL    HW1 6821   2.510   0.023   5.007
 1974SOL    HW2 6822   2.366   0.013   5.084
 1975SOL     OW 6823   2.022   2.664   2.827
 1975SOL    HW1 6824   1.976   2.599   2.887
 1975SOL    HW2 6825   2.101   2.703   2.874
 1976SOL     OW 6826   1.425   0.886   4.982
 1976SOL    HW1 6827   1.330   0.875   5.009
 1976SOL    HW2 6828   1.452   0.812   4.921
 1977SOL     OW 6829   1.786   3.765   6.634
 1977SOL    HW1 6830   1.781   3.862   6.612
 1977SOL    HW2 6831   1.876   3.729   6.608
 1978SOL     OW 6832   2.941   0.434   2.058
 1978SOL    HW1 6833   2.931   0.338   2.083
 1978SOL    HW2 6834   2.944   0.490   2.141
 1979SOL     OW 6835   5.857   4.854   6.349
 1979SOL    HW1 6836   5.825   4.776   6.296
 1979SOL    HW2 6837   5.864   4.935   6.290
 1980SOL     OW 6838   3.758   0.327   0.682
 1980SOL    HW1 6839   3.691   0.307   0.754
 1980SOL    HW2 6840   3.800   0.241   0.652
 1981SOL     OW 6841   4.010   1.871   1.999
 1981SOL    HW1 6842   3.968   1.787   2.033
 1981SOL    HW2 6843   4.096   1.849   1.953
 1982SOL     OW 6844   1.567   2.849   6.157
 1982SOL    HW1 6845   1.592   2.869   6.062
 1982SOL    HW2 6846   1.470   2.869   6.170
 1983SOL     OW 6847   6.116   1.512   2.001
 1983SOL    HW1 6848   6.136   1.476   2.092
 1983SOL    HW2 6849   6.153   1.451   1.932
 1984SOL     OW 6850   4.732   4.130   6.223
 1984SOL    HW1 6851   4.822   4.143   6.182
 1984SOL    HW2 6852   4.700   4.037   6.206
 1985SOL     OW 6853   6.080   4.888   4.126
 1985SOL    HW1 6854   6.059   4.951   4.052
 1985SOL    HW2 6855   6.110   4.939   4.207
 1986SOL     OW 6856   2.896   3.572   2.200
 1986SOL    HW1 6857   2.849   3.539   2.118
 1986SOL    HW2 6858   2.994   3.559   2.190
 1987SOL     OW 6859   2.607   0.821   2.039
 1987SOL    HW1 6860   2.611   0.921   2.028
 1987SOL    HW2 6861   2.665   0.794   2.115
 1988SOL     OW 6862   0.452   1.953   1.745
 1988SOL    HW1 6863   0.522   1.921   1.810
 1988SOL    HW2 6864   0.386   1.880   1.728
 1989SOL     OW 6865   2.852   5.860   5.109
 1989SOL    HW1 6866   2.895   5.805   5.038
 1989SOL    HW2 6867   2.867   5.957   5.090
 1990SOL     OW 6868   3.850   0.165   0.032
 1990SOL    HW1 6869   3.795   0.225   0.090
 1990SOL    HW2 6870   3.895   0.219   6.982
 1991SOL     OW 6871   2.225   5.352   1.672
 1991SOL    HW1 6872   2.192   5.266   1.633
 1991SOL    HW2 6873   2.208   5.427   1.609
 1992SOL     OW 6874   0.922   6.405   2.704
 1992SOL    HW1 6875   0.888   6.494   2.673
 1992SOL    HW2 6876   1.012   6.417   2.746
 1993SOL     OW 6877   2.038   1.517   3.013
 1993SOL    HW1 6878   2.042   1.582   3.090
 1993SOL    HW2 6879   1.989   1.560   2.937
 1994SOL     OW 6880   3.903   3.032   1.311
 1994SOL    HW1 6881   3.834   2.961   1.299
 1994SOL    HW2 6882   3.885   3.081   1.397
 1995SOL     OW 6883   5.611   1.760   4.120
 1995SOL    HW1 6884   5.555   1.692   4.167
 1995SOL    HW2 6885   5.695   1.717   4.087
 1996SOL     OW 6886   4.896   0.800   0.628
 1996SOL    HW1 6887   4.898   0.861   0.706
 1996SOL    HW2 6888   4.914   0.706   0.658
 1997SOL     OW 6889   3.613   1.067   3.730
 1997SOL    HW1 6890   3.689   1.022   3.683
 1997SOL    HW2 6891   3.534   1.073   3.668
 1998SOL     OW 6892   2.936   3.873   1.302
 1998SOL    HW1 6893   2.988   3.878   1.387
 1998SOL    HW2 6894   2.851   3.925   1.312
 1999SOL     OW 6895   0.430   6.614   6.796
 1999SOL    HW1 6896   0.347   6.581   6.753
 1999SOL    HW2 6897   0.503   6.546   6.786
 2000SOL     OW 6898   4.050   4.364   6.180
 2000SOL    HW1 6899   4.054   4.294   6.252
 2000SOL    HW2 6900   4.141   4.373   6.138
 2001SOL     OW 6901   1.647   2.562   0.865
 2001SOL    HW1 6902   1.719   2.630   0.881
 2001SOL    HW2 6903   1.641   2.500   0.944
 2002SOL     OW 6904   6.491   5.482   0.812
 2002SOL    HW1 6905   6.537   5.452   0.728
 2002SOL    HW2 6906   6.494   5.408   0.879
 2003SOL     OW 6907   5.820   5.605   1.715
 2003SOL    HW1 6908   5.789   5.571   1.804
 2003SOL    HW2 6909   5.755   5.576   1.645
 2004SOL     OW 6910   3.803   6.907   2.857
 2004SOL    HW1 6911   3.723   6.968   2.853
 2004SOL    HW2 6912   3.800   6.844   2.780
 2005SOL     OW 6913   1.428   6.746   0.538
 2005SOL    HW1 6914   1.344   6.735   0.485
 2005SOL    HW2 6915   1.451   6.659   0.583
 2006SOL     OW 6916   5.599   6.716   2.516
 2006SOL    HW1 6917   5.606   6.726   2.616
 2006SOL    HW2 6918   5.621   6.804   2.472
 2007SOL     OW 6919   5.546   5.263   5.751
 2007SOL    HW1 6920   5.537   5.231   5.846
 2007SOL    HW2 6921   5.477   5.333   5.733
 2008SOL     OW 6922   2.124   3.403   2.830
 2008SOL    HW1 6923   2.030   3.392   2.799
 2008SOL    HW2 6924   2.187   3.368   2.759
 2009SOL     OW 6925   6.120   6.864   2.636
 2009SOL    HW1 6926   6.175   6.893   2.715
 2009SOL    HW2 6927   6.083   6.773   2.653
 2010SOL     OW 6928   6.737   1.749   1.798
 2010SOL    HW1 6929   6.781   1.834   1.770
 2010SOL    HW2 6930   6.729   1.747   1.898
 2011SOL     OW 6931   1.196   0.288   4.808
 2011SOL    HW1 6932   1.226   0.292   4.903
 2011SOL    HW2 6933   1.120   0.351   4.794
 2012SOL     OW 6934   0.638   2.974   0.806
 2012SOL    HW1 6935   0.682   2.986   0.717
 2012SOL    HW2 6936   0.651   2.880   0.837
 2013SOL     OW 6937   0.364   2.600   2.042
 2013SOL    HW1 6938   0.403   2.636   2.127
 2013SOL    HW2 6939   0.271   2.635   2.030
 2014SOL     OW 6940   3.809   1.428   4.222
 2014SOL    HW1 6941   3.742   1.363   4.255
 2014SOL    HW2 6942   3.823   1.500   4.290
 2015SOL     OW 6943   3.761   6.472   2.185
 2015SOL    HW1 6944   3.713   6.463   2.097
 2015SOL    HW2 6945   3.791   6.382   2.217
 2016SOL     OW 6946   2.058   0.615   4.743
 2016SOL    HW1 6947   2.104   0.564   4.816
 2016SOL    HW2 6948   2.098   0.590   4.655
 2017SOL     OW 6949   3.249   6.422   3.991
 2017SOL    HW1 6950   3.347   6.410   4.004
 2017SOL    HW2 6951   3.224   6.395   3.898
 2018SOL     OW 6952   0.254   0.286   4.089
 2018SOL    HW1 6953   0.159   0.277   4.118
 2018SOL    HW2 6954   0.287   0.197   4.055
 2019SOL     OW 6955   6.321   4.918   6.814
 2019SOL    HW1 6956   6.226   4.932   6.786
 2019SOL    HW2 6957   6.364   4.850   6.755
 2020SOL     OW 6958   2.075   6.617   1.012
 2020SOL    HW1 6959   2.011   6.569   0.952
 2020SOL    HW2 6960   2.079   6.572   1.101
 2021SOL     OW 6961   0.221   5.696   4.540
 2021SOL    HW1 6962   0.209   5.652   4.629
 2021SOL    HW2 6963   0.258   5.630   4.475
 2022SOL     OW 6964   1.676   3.402   4.259
 2022SOL    HW1 6965   1.591   3.452   4.240
 2022SOL    HW2 6966   1.655   3.306   4.276
 2023SOL     OW 6967   6.661   5.818   6.564
 2023SOL    HW1 6968   6.705   5.884   6.504
 2023SOL    HW2 6969   6.712   5.731   6.562
 2024SOL     OW 6970   0.375   5.651   3.985
 2024SOL    HW1 6971   0.292   5.638   3.931
 2024SOL    HW2 6972   0.455   5.653   3.924
 2025SOL     OW 6973   2.089   6.016   4.458
 2025SOL    HW1 6974   2.070   6.021   4.556
 2025SOL    HW2 6975   2.184   5.989   4.444
 2026SOL     OW 6976   0.607   0.155   5.556
 2026SOL    HW1 6977   0.602   0.060   5.586
 2026SOL    HW2 6978   0.689   0.198   5.594
 2027SOL     OW 6979   0.074   6.323   2.396
 2027SOL    HW1 6980   7.013   6.370   2.362
 2027SOL    HW2 6981   0.079   6.335   2.495
 2028SOL     OW 6982   3.001   5.459   5.006
 2028SOL    HW1 6983   3.041   5.535   5.056
 2028SOL    HW2 6984   3.074   5.408   4.958
 2029SOL     OW 6985   6.258   2.820   6.620
 2029SOL    HW1 6986   6.291   2.858   6.706
 2029SOL    HW2 6987   6.332   2.819   6.553
 2030SOL     OW 6988   2.171   6.837   2.942
 2030SOL    HW1 6989   2.113   6.917   2.955
 2030SOL    HW2 6990   2.157   6.801   2.849
 2031SOL     OW 6991   0.494   6.044   5.168
 2031SOL    HW1 6992   0.459   6.105   5.097
 2031SOL    HW2 6993   0.565   6.092   5.221
 2032SOL     OW 6994   2.228   2.816   6.039
 2032SOL    HW1 6995   2.306   2.879   6.042
 2032SOL    HW2 6996   2.162   2.842   6.110
 2033SOL     OW 6997   1.797   1.394   0.691
 2033SOL    HW1 6998   1.779   1.308   0.643
 2033SOL    HW2 6999   1.878   1.383   0.749
 2034SOL     OW 7000   0.764   4.808   4.877
 2034SOL    HW1 7001   0.856   4.770   4.890
 2034SOL    HW2 7002   0.698   4.733   4.868
 2035SOL     OW 7003   5.582   6.109   3.045
 2035SOL    HW1 7004   5.648   6.058   3.099
 2035SOL    HW2 7005   5.509   6.048   3.015
 2036SOL     OW 7006   0.201   4.250   6.426
 2036SOL    HW1 7007   0.280   4.311   6.432
 2036SOL    HW2 7008   0.152   4.267   6.340
 2037SOL     OW 7009   0.841   2.592   6.884
 2037SOL    HW1 7010   0.927   2.627   6.845
 2037SOL    HW2 7011   0.769   2.661   6.873
 2038SOL     OW 7012   0.960   1.325   5.986
 2038SOL    HW1 7013   0.989   1.356   5.895
 2038SOL    HW2 7014   0.899   1.247   5.977
 2039SOL     OW 7015   5.319   6.072   3.403
 2039SOL    HW1 7016   5.328   5.980   3.366
 2039SOL    HW2 7017   5.271   6.068   3.490
 2040SOL     OW 7018   2.602   2.162   0.206
 2040SOL    HW1 7019   2.528   2.208   0.256
 2040SOL    HW2 7020   2.648   2.229   0.147
 2041SOL     OW 7021   2.881   6.548   6.780
 2041SOL    HW1 7022   2.860   6.600   6.697
 2041SOL    HW2 7023   2.795   6.520   6.824
 2042SOL     OW 7024   6.190   0.428   6.223
 2042SOL    HW1 7025   6.207   0.520   6.188
 2042SOL    HW2 7026   6.117   0.431   6.291
 2043SOL     OW 7027   0.690   4.181   0.334
 2043SOL    HW1 7028   0.671   4.109   0.400
 2043SOL    HW2 7029   0.786   4.206   0.337
 2044SOL     OW 7030   4.266   0.640   1.804
 2044SOL    HW1 7031   4.361   0.665   1.822
 2044SOL    HW2 7032   4.223   0.713   1.750
 2045SOL     OW 7033   2.309   5.837   3.872
 2045SOL    HW1 7034   2.388   5.790   3.911
 2045SOL    HW2 7035   2.285   5.916   3.929
 2046SOL     OW 7036   0.602   3.019   5.857
 2046SOL    HW1 7037   0.635   3.087   5.790
 2046SOL    HW2 7038   0.507   2.994   5.835
 2047SOL     OW 7039   6.438   0.095   1.557
 2047SOL    HW1 7040   6.507   0.168   1.565
 2047SOL    HW2 7041   6.371   0.120   1.487
 2048SOL     OW 7042   2.158   0.562   4.168
 2048SOL    HW1 7043   2.122   0.642   4.121
 2048SOL    HW2 7044   2.094   0.486   4.157
 2049SOL     OW 7045   4.507   2.865   5.324
 2049SOL    HW1 7046   4.442   2.859   5.400
 2049SOL    HW2 7047   4.552   2.954   5.325
 2050SOL     OW 7048   0.933   1.015   3.474
 2050SOL    HW1 7049   0.849   1.047   3.431
 2050SOL    HW2 7050   0.911   0.975   3.563
 2051SOL     OW 7051   3.358   6.597   0.266
 2051SOL    HW1 7052   3.406   6.683   0.245
 2051SOL    HW2 7053   3.416   6.520   0.242
 2052SOL     OW 7054   0.746   3.696   0.736
 2052SOL    HW1 7055   0.837   3.657   0.719
 2052SOL    HW2 7056   0.684   3.667   0.663
 2053SOL     OW 7057   5.807   4.963   2.728
 2053SOL    HW1 7058   5.854   4.952   2.641
 2053SOL    HW2 7059   5.869   4.936   2.802
 2054SOL     OW 7060   2.925   3.578   3.112
 2054SOL    HW1 7061   2.914   3.479   3.124
 2054SOL    HW2 7062   2.912   3.601   3.016
 2055SOL     OW 7063   4.207   2.607   5.642
 2055SOL    HW1 7064   4.169   2.651   5.724
 2055SOL    HW2 7065   4.139   2.608   5.569
 2056SOL     OW 7066   2.901   4.706   1.680
 2056SOL    HW1 7067   2.880   4.681   1.774
 2056SOL    HW2 7068   2.961   4.637   1.640
 2057SOL     OW 7069   5.924   2.986   4.071
 2057SOL    HW1 7070   5.891   2.892   4.079
 2057SOL    HW2 7071   5.992   3.003   4.141
 2058SOL     OW 7072   5.871   0.126   3.656
 2058SOL    HW1 7073   5.970   0.117   3.660
 2058SOL    HW2 7074   5.828   0.049   3.704
 2059SOL     OW 7075   2.117   2.168   5.267
 2059SOL    HW1 7076   2.141   2.258   5.230
 2059SOL    HW2 7077   2.173   2.098   5.221
 2060SOL     OW 7078   1.901   2.437   6.398
 2060SOL    HW1 7079   1.957   2.402   6.473
 2060SOL    HW2 7080   1.822   2.377   6.384
 2061SOL     OW 7081   1.885   1.739   3.614
 2061SOL    HW1 7082   1.923   1.799   3.544
 2061SOL    HW2 7083   1.956   1.675   3.645
 2062SOL     OW 7084   6.184   5.063   4.309
 2062SOL    HW1 7085   6.111   5.128   4.331
 2062SOL    HW2 7086   6.273   5.110   4.311
 2063SOL     OW 7087   1.434   2.226   4.346
 2063SOL    HW1 7088   1.494   2.306   4.345
 2063SOL    HW2 7089   1.364   2.238   4.415
 2064SOL     OW 7090   0.615   3.803   4.355
 2064SOL    HW1 7091   0.652   3.722   4.310
 2064SOL    HW2 7092   0.690   3.860   4.389
 2065SOL     OW 7093   3.998   3.611   5.761
 2065SOL    HW1 7094   4.064   3.641   5.691
 2065SOL    HW2 7095   3.990   3.512   5.759
 2066SOL     OW 7096   1.512   2.481   5.110
 2066SOL    HW1 7097   1.485   2.539   5.034
 2066SOL    HW2 7098   1.500   2.385   5.086
 2067SOL     OW 7099   6.182   4.665   1.934
 2067SOL    HW1 7100   6.198   4.573   1.970
 2067SOL    HW2 7101   6.092   4.697   1.963
 2068SOL     OW 7102   4.278   6.352   4.349
 2068SOL    HW1 7103   4.330   6.268   4.333
 2068SOL    HW2 7104   4.194   6.350   4.295
 2069SOL     OW 7105   6.397   1.025   3.699
 2069SOL    HW1 7106   6.434   1.095   3.638
 2069SOL    HW2 7107   6.434   0.935   3.673
 2070SOL     OW 7108   1.260   5.087   1.353
 2070SOL    HW1 7109   1.241   5.002   1.404
 2070SOL    HW2 7110   1.174   5.127   1.323
 2071SOL     OW 7111   6.915   2.584   4.706
 2071SOL    HW1 7112   7.013   2.599   4.694
 2071SOL    HW2 7113   6.901   2.515   4.776
 2072SOL     OW 7114   5.604   3.959   5.317
 2072SOL    HW1 7115   5.697   3.978   5.349
 2072SOL    HW2 7116   5.605   3.946   5.218
 2073SOL     OW 7117   3.481   5.082   6.541
 2073SOL    HW1 7118   3.384   5.062   6.530
 2073SOL    HW2 7119   3.494   5.181   6.548
 2074SOL     OW 7120   2.518   4.823   5.976
 2074SOL    HW1 7121   2.519   4.855   6.071
 2074SOL    HW2 7122   2.565   4.735   5.969
 2075SOL     OW 7123   5.411   2.475   1.669
 2075SOL    HW1 7124   5.367   2.424   1.743
 2075SOL    HW2 7125   5.443   2.411   1.599
 2076SOL     OW 7126   6.853   6.654   4.436
 2076SOL    HW1 7127   6.878   6.594   4.512
 2076SOL    HW2 7128   6.754   6.657   4.428
 2077SOL     OW 7129   6.538   4.469   0.482
 2077SOL    HW1 7130   6.623   4.449   0.532
 2077SOL    HW2 7131   6.497   4.553   0.518
 2078SOL     OW 7132   1.021   2.740   6.395
 2078SOL    HW1 7133   1.115   2.754   6.425
 2078SOL    HW2 7134   0.966   2.705   6.471
 2079SOL     OW 7135   5.244   1.392   2.847
 2079SOL    HW1 7136   5.331   1.440   2.854
 2079SOL    HW2 7137   5.234   1.328   2.923
 2080SOL     OW 7138   2.433   3.252   6.249
 2080SOL    HW1 7139   2.503   3.185   6.227
 2080SOL    HW2 7140   2.391   3.285   6.164
 2081SOL     OW 7141   0.159   6.417   2.685
 2081SOL    HW1 7142   0.220   6.486   2.647
 2081SOL    HW2 7143   0.144   6.435   2.782
 2082SOL     OW 7144   0.179   5.654   3.817
 2082SOL    HW1 7145   0.081   5.669   3.834
 2082SOL    HW2 7146   0.220   5.739   3.784
 2083SOL     OW 7147   0.428   6.031   4.034
 2083SOL    HW1 7148   0.410   5.969   3.958
 2083SOL    HW2 7149   0.525   6.028   4.058
 2084SOL     OW 7150   6.664   2.425   1.396
 2084SOL    HW1 7151   6.733   2.489   1.363
 2084SOL    HW2 7152   6.617   2.382   1.319
 2085SOL     OW 7153   6.366   5.803   0.506
 2085SOL    HW1 7154   6.304   5.733   0.470
 2085SOL    HW2 7155   6.360   5.806   0.605
 2086SOL     OW 7156   5.486   0.122   6.537
 2086SOL    HW1 7157   5.536   0.183   6.599
 2086SOL    HW2 7158   5.544   0.101   6.458
 2087SOL     OW 7159   4.776   1.765   6.465
 2087SOL    HW1 7160   4.803   1.736   6.556
 2087SOL    HW2 7161   4.701   1.832   6.472
 2088SOL     OW 7162   0.106   4.494   6.116
 2088SOL    HW1 7163   0.072   4.575   6.163
 2088SOL    HW2 7164   0.080   4.412   6.168
 2089SOL     OW 7165   2.549   4.291   5.971
 2089SOL    HW1 7166   2.603   4.312   6.052
 2089SOL    HW2 7167   2.497   4.372   5.944
 2090SOL     OW 7168   5.137   2.801   0.058
 2090SOL    HW1 7169   5.208   2.869   0.044
 2090SOL    HW2 7170   5.123   2.787   0.157
 2091SOL     OW 7171   4.752   6.348   0.912
 2091SOL    HW1 7172   4.734   6.252   0.891
 2091SOL    HW2 7173   4.829   6.381   0.858
 2092SOL     OW 7174   3.385   3.199   2.270
 2092SOL    HW1 7175   3.335   3.239   2.346
 2092SOL    HW2 7176   3.483   3.220   2.279
 2093SOL     OW 7177   4.314   0.327   1.038
 2093SOL    HW1 7178   4.413   0.329   1.028
 2093SOL    HW2 7179   4.290   0.269   1.117
 2094SOL     OW 7180   5.005   2.152   0.941
 2094SOL    HW1 7181   5.070   2.145   1.016
 2094SOL    HW2 7182   5.010   2.069   0.885
 2095SOL     OW 7183   5.038   5.275   4.364
 2095SOL    HW1 7184   5.047   5.297   4.267
 2095SOL    HW2 7185   5.000   5.183   4.374
 2096SOL     OW 7186   4.025   0.026   2.798
 2096SOL    HW1 7187   4.006   6.983   2.723
 2096SOL    HW2 7188   3.958   0.012   2.871
 2097SOL     OW 7189   0.814   5.957   5.766
 2097SOL    HW1 7190   0.810   5.868   5.720
 2097SOL    HW2 7191   0.766   5.952   5.853
 2098SOL     OW 7192   2.197   0.065   3.643
 2098SOL    HW1 7193   2.150   0.056   3.731
 2098SOL    HW2 7194   2.229   6.996   3.613
 2099SOL     OW 7195   4.346   1.783   0.147
 2099SOL    HW1 7196   4.397   1.749   0.067
 2099SOL    HW2 7197   4.410   1.827   0.211
 2100SOL     OW 7198   4.636   0.738   6.942
 2100SOL    HW1 7199   4.671   0.721   0.013
 2100SOL    HW2 7200   4.549   0.786   6.948
 2101SOL     OW 7201   1.888   0.127   2.554
 2101SOL    HW1 7202   1.856   0.092   2.642
 2101SOL    HW2 7203   1.888   0.053   2.487
 2102SOL     OW 7204   3.683   2.552   1.746
 2102SOL    HW1 7205   3.591   2.568   1.711
 2102SOL    HW2 7206   3.692   2.458   1.777
 2103SOL     OW 7207   1.486   0.170   0.786
 2103SOL    HW1 7208   1.502   0.080   0.826
 2103SOL    HW2 7209   1.393   0.175   0.750
 2104SOL     OW 7210   2.083   4.363   2.676
 2104SOL    HW1 7211   2.179   4.390   2.670
 2104SOL    HW2 7212   2.028   4.420   2.615
 2105SOL     OW 7213   5.235   0.030   5.227
 2105SOL    HW1 7214   5.183   0.102   5.273
 2105SOL    HW2 7215   5.182   7.018   5.148
 2106SOL     OW 7216   3.463   2.424   1.510
 2106SOL    HW1 7217   3.451   2.483   1.590
 2106SOL    HW2 7218   3.557   2.433   1.476
 2107SOL     OW 7219   4.891   4.498   5.009
 2107SOL    HW1 7220   4.834   4.431   4.962
 2107SOL    HW2 7221   4.962   4.451   5.061
 2108SOL     OW 7222   4.642   0.071   4.747
 2108SOL    HW1 7223   4.709   0.069   4.821
 2108SOL    HW2 7224   4.553   0.042   4.783
 2109SOL     OW 7225   2.604   5.823   1.928
 2109SOL    HW1 7226   2.642   5.874   2.005
 2109SOL    HW2 7227   2.531   5.876   1.885
 2110SOL     OW 7228   3.523   5.550   0.169
 2110SOL    HW1 7229   3.496   5.506   0.083
 2110SOL    HW2 7230   3.450   5.611   0.199
 2111SOL     OW 7231   0.920   2.338   6.761
 2111SOL    HW1 7232   0.921   2.435   6.786
 2111SOL    HW2 7233   0.851   2.322   6.691
 2112SOL     OW 7234   0.766   0.443   6.611
 2112SOL    HW1 7235   0.678   0.492   6.610
 2112SOL    HW2 7236   0.815   0.466   6.695
 2113SOL     OW 7237   6.500   1.631   5.004
 2113SOL    HW1 7238   6.481   1.716   5.053
 2113SOL    HW2 7239   6.420   1.606   4.949
 2114SOL     OW 7240   2.567   0.853   5.527
 2114SOL    HW1 7241   2.489   0.818   5.474
 2114SOL    HW2 7242   2.634   0.893   5.464
 2115SOL     OW 7243   0.057   6.477   3.468
 2115SOL    HW1 7244   0.023   6.566   3.497
 2115SOL    HW2 7245   0.084   6.482   3.372
 2116SOL     OW 7246   2.396   1.178   6.821
 2116SOL    HW1 7247   2.308   1.131   6.827
 2116SOL    HW2 7248   2.384   1.266   6.775
 2117SOL     OW 7249   6.385   2.144   2.499
 2117SOL    HW1 7250   6.329   2.224   2.481
 2117SOL    HW2 7251   6.414   2.144   2.595
 2118SOL     OW 7252   6.915   2.942   2.528
 2118SOL    HW1 7253   6.947   2.914   2.619
 2118SOL    HW2 7254   6.847   3.014   2.538
 2119SOL     OW 7255   0.889   3.276   0.177
 2119SOL    HW1 7256   0.949   3.309   0.250
 2119SOL    HW2 7257   0.826   3.208   0.214
 2120SOL     OW 7258   5.330   1.789   0.575
 2120SOL    HW1 7259   5.262   1.715   0.573
 2120SOL    HW2 7260   5.379   1.792   0.488
 2121SOL     OW 7261   2.210   6.574   1.309
 2121SOL    HW1 7262   2.153   6.497   1.278
 2121SOL    HW2 7263   2.231   6.563   1.406
 2122SOL     OW 7264   6.666   0.964   4.779
 2122SOL    HW1 7265   6.635   1.058   4.765
 2122SOL    HW2 7266   6.656   0.913   4.693
 2123SOL     OW 7267   0.927   4.629   3.395
 2123SOL    HW1 7268   0.842   4.678   3.414
 2123SOL    HW2 7269   0.979   4.678   3.326
 2124SOL     OW 7270   5.082   3.599   6.086
 2124SOL    HW1 7271   5.030   3.593   6.171
 2124SOL    HW2 7272   5.024   3.640   6.015
 2125SOL     OW 7273   1.039   5.855   4.713
 2125SOL    HW1 7274   1.129   5.850   4.670
 2125SOL    HW2 7275   1.044   5.817   4.806
 2126SOL     OW 7276   2.925   3.819   0.453
 2126SOL    HW1 7277   3.001   3.754   0.438
 2126SOL    HW2 7278   2.962   3.912   0.455
 2127SOL     OW 7279   1.006   3.351   4.379
 2127SOL    HW1 7280   0.931   3.308   4.429
 2127SOL    HW2 7281   1.048   3.283   4.318
 2128SOL     OW 7282   5.152   3.191   2.119
 2128SOL    HW1 7283   5.062   3.233   2.106
 2128SOL    HW2 7284   5.141   3.092   2.131
 2129SOL     OW 7285   5.512   3.996   3.628
 2129SOL    HW1 7286   5.412   4.002   3.619
 2129SOL    HW2 7287   5.549   3.940   3.554
 2130SOL     OW 7288   1.842   0.672   2.010
 2130SOL    HW1 7289   1.848   0.769   1.986
 2130SOL    HW2 7290   1.919   0.623   1.968
 2131SOL     OW 7291   5.911   0.533   6.800
 2131SOL    HW1 7292   5.966   0.505   6.879
 2131SOL    HW2 7293   5.825   0.482   6.799
 2132SOL     OW 7294   2.813   2.727   0.294
 2132SOL    HW1 7295   2.722   2.710   0.257
 2132SOL    HW2 7296   2.805   2.770   0.384
 2133SOL     OW 7297   3.824   2.183   1.264
 2133SOL    HW1 7298   3.831   2.090   1.301
 2133SOL    HW2 7299   3.759   2.185   1.188
 2134SOL     OW 7300   2.133   6.846   5.696
 2134SOL    HW1 7301   2.069   6.778   5.660
 2134SOL    HW2 7302   2.119   6.856   5.794
 2135SOL     OW 7303   1.025   6.355   4.231
 2135SOL    HW1 7304   1.096   6.361   4.302
 2135SOL    HW2 7305   0.967   6.275   4.249
 2136SOL     OW 7306   0.831   5.050   3.499
 2136SOL    HW1 7307   0.813   5.107   3.418
 2136SOL    HW2 7308   0.918   5.077   3.539
 2137SOL     OW 7309   0.435   0.019   4.276
 2137SOL    HW1 7310   0.467   0.108   4.309
 2137SOL    HW2 7311   0.338   0.008   4.298
 2138SOL     OW 7312   1.327   2.420   6.047
 2138SOL    HW1 7313   1.237   2.453   6.077
 2138SOL    HW2 7314   1.399   2.465   6.099
 2139SOL     OW 7315   3.273   6.961   4.630
 2139SOL    HW1 7316   3.247   6.875   4.587
 2139SOL    HW2 7317   3.370   6.959   4.653
 2140SOL     OW 7318   1.570   5.970   4.021
 2140SOL    HW1 7319   1.587   5.962   4.120
 2140SOL    HW2 7320   1.491   5.915   3.996
 2141SOL     OW 7321   6.937   1.732   6.347
 2141SOL    HW1 7322   6.855   1.785   6.368
 2141SOL    HW2 7323   7.001   1.788   6.295
 2142SOL     OW 7324   3.798   0.954   3.565
 2142SOL    HW1 7325   3.820   1.018   3.491
 2142SOL    HW2 7326   3.769   0.867   3.527
 2143SOL     OW 7327   3.334   5.990   0.106
 2143SOL    HW1 7328   3.372   5.937   0.030
 2143SOL    HW2 7329   3.237   5.968   0.117
 2144SOL     OW 7330   1.128   1.205   1.787
 2144SOL    HW1 7331   1.171   1.179   1.873
 2144SOL    HW2 7332   1.039   1.160   1.780
 2145SOL     OW 7333   3.000   5.650   3.000
 2145SOL    HW1 7334   2.945   5.581   3.049
 2145SOL    HW2 7335   2.958   5.669   2.911
 2146SOL     OW 7336   2.808   2.378   0.952
 2146SOL    HW1 7337   2.896   2.413   0.984
 2146SOL    HW2 7338   2.774   2.437   0.879
 2147SOL     OW 7339   0.264   1.084   4.786
 2147SOL    HW1 7340   0.230   1.111   4.696
 2147SOL    HW2 7341   0.260   0.984   4.795
 2148SOL     OW 7342   6.139   3.384   3.970
 2148SOL    HW1 7343   6.093   3.472   3.984
 2148SOL    HW2 7344   6.238   3.397   3.981
 2149SOL     OW 7345   3.012   0.493   2.980
 2149SOL    HW1 7346   3.041   0.398   2.989
 2149SOL    HW2 7347   2.982   0.527   3.069
 2150SOL     OW 7348   4.803   0.090   3.366
 2150SOL    HW1 7349   4.715   0.127   3.395
 2150SOL    HW2 7350   4.809   7.015   3.395
 2151SOL     OW 7351   4.379   4.631   6.121
 2151SOL    HW1 7352   4.466   4.621   6.169
 2151SOL    HW2 7353   4.351   4.542   6.084
 2152SOL     OW 7354   6.942   6.818   2.426
 2152SOL    HW1 7355   6.937   6.913   2.458
 2152SOL    HW2 7356   6.902   6.810   2.335
 2153SOL     OW 7357   4.431   1.810   3.478
 2153SOL    HW1 7358   4.393   1.891   3.434
 2153SOL    HW2 7359   4.361   1.766   3.534
 2154SOL     OW 7360   3.500   6.481   5.359
 2154SOL    HW1 7361   3.405   6.469   5.387
 2154SOL    HW2 7362   3.517   6.429   5.275
 2155SOL     OW 7363   6.069   3.509   0.383
 2155SOL    HW1 7364   5.995   3.572   0.358
 2155SOL    HW2 7365   6.127   3.494   0.303
 2156SOL     OW 7366   6.599   0.353   2.430
 2156SOL    HW1 7367   6.567   0.361   2.524
 2156SOL    HW2 7368   6.623   0.258   2.410
 2157SOL     OW 7369   6.041   1.107   4.364
 2157SOL    HW1 7370   6.040   1.056   4.450
 2157SOL    HW2 7371   5.947   1.115   4.330
 2158SOL     OW 7372   4.833   0.136   3.811
 2158SOL    HW1 7373   4.893   0.060   3.836
 2158SOL    HW2 7374   4.767   0.151   3.885
 2159SOL     OW 7375   2.689   0.307   5.312
 2159SOL    HW1 7376   2.726   0.257   5.233
 2159SOL    HW2 7377   2.679   0.244   5.389
 2160SOL     OW 7378   2.947   2.844   0.692
 2160SOL    HW1 7379   3.016   2.897   0.643
 2160SOL    HW2 7380   2.858   2.886   0.679
 2161SOL     OW 7381   5.071   2.556   3.999
 2161SOL    HW1 7382   5.148   2.594   4.050
 2161SOL    HW2 7383   5.020   2.631   3.956
 2162SOL     OW 7384   2.225   1.404   1.775
 2162SOL    HW1 7385   2.322   1.413   1.751
 2162SOL    HW2 7386   2.202   1.306   1.779
 2163SOL     OW 7387   2.732   1.547   0.887
 2163SOL    HW1 7388   2.691   1.473   0.940
 2163SOL    HW2 7389   2.671   1.573   0.813
 2164SOL     OW 7390   6.698   0.779   1.409
 2164SOL    HW1 7391   6.711   0.848   1.338
 2164SOL    HW2 7392   6.763   0.795   1.483
 2165SOL     OW 7393   3.208   0.148   2.129
 2165SOL    HW1 7394   3.110   0.130   2.126
 2165SOL    HW2 7395   3.237   0.191   2.043
 2166SOL     OW 7396   5.398   2.082   5.503
 2166SOL    HW1 7397   5.416   2.128   5.590
 2166SOL    HW2 7398   5.419   1.985   5.511
 2167SOL     OW 7399   3.310   1.079   0.778
 2167SOL    HW1 7400   3.244   1.078   0.703
 2167SOL    HW2 7401   3.308   0.991   0.826
 2168SOL     OW 7402   5.744   6.235   4.508
 2168SOL    HW1 7403   5.839   6.264   4.498
 2168SOL    HW2 7404   5.728   6.208   4.603
 2169SOL     OW 7405   5.654   1.257   6.006
 2169SOL    HW1 7406   5.629   1.170   6.050
 2169SOL    HW2 7407   5.597   1.330   6.044
 2170SOL     OW 7408   5.369   4.691   4.441
 2170SOL    HW1 7409   5.305   4.615   4.454
 2170SOL    HW2 7410   5.319   4.777   4.440
 2171SOL     OW 7411   6.873   3.778   0.242
 2171SOL    HW1 7412   6.806   3.733   0.301
 2171SOL    HW2 7413   6.911   3.858   0.289
 2172SOL     OW 7414   2.561   0.545   2.011
 2172SOL    HW1 7415   2.564   0.533   1.912
 2172SOL    HW2 7416   2.564   0.643   2.032
 2173SOL     OW 7417   4.689   2.660   4.750
 2173SOL    HW1 7418   4.754   2.732   4.728
 2173SOL    HW2 7419   4.639   2.683   4.833
 2174SOL     OW 7420   1.300   5.606   4.417
 2174SOL    HW1 7421   1.355   5.523   4.407
 2174SOL    HW2 7422   1.342   5.680   4.365
 2175SOL     OW 7423   1.559   6.122   5.750
 2175SOL    HW1 7424   1.482   6.185   5.739
 2175SOL    HW2 7425   1.615   6.150   5.829
 2176SOL     OW 7426   1.974   2.386   2.345
 2176SOL    HW1 7427   2.057   2.364   2.396
 2176SOL    HW2 7428   1.995   2.452   2.273
 2177SOL     OW 7429   1.225   2.114   0.952
 2177SOL    HW1 7430   1.209   2.021   0.920
 2177SOL    HW2 7431   1.154   2.175   0.916
 2178SOL     OW 7432   6.005   6.466   0.908
 2178SOL    HW1 7433   5.921   6.495   0.863
 2178SOL    HW2 7434   6.074   6.444   0.839
 2179SOL     OW 7435   1.417   4.128   4.002
 2179SOL    HW1 7436   1.431   4.123   4.101
 2179SOL    HW2 7437   1.326   4.092   3.980
 2180SOL     OW 7438   3.388   2.619   1.701
 2180SOL    HW1 7439   3.387   2.703   1.755
 2180SOL    HW2 7440   3.295   2.596   1.673
 2181SOL     OW 7441   3.547   6.680   1.262
 2181SOL    HW1 7442   3.625   6.627   1.228
 2181SOL    HW2 7443   3.491   6.709   1.185
 2182SOL     OW 7444   4.955   3.002   0.828
 2182SOL    HW1 7445   4.930   3.049   0.913
 2182SOL    HW2 7446   4.920   2.909   0.830
 2183SOL     OW 7447   3.821   2.364   0.938
 2183SOL    HW1 7448   3.792   2.269   0.925
 2183SOL    HW2 7449   3.899   2.368   1.000
 2184SOL     OW 7450   5.224   3.507   6.409
 2184SOL    HW1 7451   5.250   3.432   6.349
 2184SOL    HW2 7452   5.302   3.535   6.465
 2185SOL     OW 7453   6.869   0.130   2.133
 2185SOL    HW1 7454   6.847   0.081   2.048
 2185SOL    HW2 7455   6.801   0.201   2.150
 2186SOL     OW 7456   0.519   4.168   3.761
 2186SOL    HW1 7457   0.599   4.227   3.764
 2186SOL    HW2 7458   0.545   4.074   3.785
 2187SOL     OW 7459   6.342   1.187   0.527
 2187SOL    HW1 7460   6.316   1.145   0.440
 2187SOL    HW2 7461   6.436   1.218   0.522
 2188SOL     OW 7462   4.484   1.415   3.762
 2188SOL    HW1 7463   4.574   1.419   3.806
 2188SOL    HW2 7464   4.415   1.390   3.830
 2189SOL     OW 7465   3.472   0.004   7.011
 2189SOL    HW1 7466   3.476   0.044   6.919
 2189SOL    HW2 7467   3.389   6.969   7.019
 2190SOL     OW 7468   5.239   2.899   0.846
 2190SOL    HW1 7469   5.282   2.942   0.767
 2190SOL    HW2 7470   5.142   2.921   0.848
 2191SOL     OW 7471   2.807   1.291   0.343
 2191SOL    HW1 7472   2.846   1.365   0.288
 2191SOL    HW2 7473   2.831   1.306   0.439
 2192SOL     OW 7474   4.488   5.937   2.658
 2192SOL    HW1 7475   4.396   5.950   2.696
 2192SOL    HW2 7476   4.486   5.957   2.560
 2193SOL     OW 7477   6.638   6.075   4.417
 2193SOL    HW1 7478   6.645   6.151   4.481
 2193SOL    HW2 7479   6.729   6.045   4.390
 2194SOL     OW 7480   2.598   6.829   1.938
 2194SOL    HW1 7481   2.680   6.877   1.908
 2194SOL    HW2 7482   2.614   6.730   1.932
 2195SOL     OW 7483   0.536   4.516   2.079
 2195SOL    HW1 7484   0.579   4.452   2.015
 2195SOL    HW2 7485   0.587   4.518   2.165
 2196SOL     OW 7486   4.362   3.883   0.427
 2196SOL    HW1 7487   4.303   3.962   0.440
 2196SOL    HW2 7488   4.379   3.839   0.515
 2197SOL     OW 7489   4.527   3.883   6.905
 2197SOL    HW1 7490   4.509   3.862   7.001
 2197SOL    HW2 7491   4.446   3.862   6.850
 2198SOL     OW 7492   6.763   4.237   0.413
 2198SOL    HW1 7493   6.681   4.192   0.449
 2198SOL    HW2 7494   6.790   4.311   0.474
 2199SOL     OW 7495   4.359   1.028   3.279
 2199SOL    HW1 7496   4.388   0.973   3.200
 2199SOL    HW2 7497   4.393   1.121   3.269
 2200SOL     OW 7498   3.590   7.003   4.394
 2200SOL    HW1 7499   3.592   6.903   4.405
 2200SOL    HW2 7500   3.683   0.017   4.390
 2201SOL     OW 7501   4.677   4.269   4.335
 2201SOL    HW1 7502   4.741   4.308   4.401
 2201SOL    HW2 7503   4.584   4.279   4.368
 2202SOL     OW 7504   4.573   5.247   3.546
 2202SOL    HW1 7505   4.627   5.215   3.624
 2202SOL    HW2 7506   4.633   5.267   3.469
 2203SOL     OW 7507   3.243   2.139   2.566
 2203SOL    HW1 7508   3.310   2.094   2.507
 2203SOL    HW2 7509   3.290   2.196   2.633
 2204SOL     OW 7510   2.601   2.355   0.548
 2204SOL    HW1 7511   2.572   2.344   0.643
 2204SOL    HW2 7512   2.700   2.342   0.542
 2205SOL     OW 7513   3.053   0.988   2.312
 2205SOL    HW1 7514   3.050   0.997   2.212
 2205SOL    HW2 7515   3.149   0.985   2.342
 2206SOL     OW 7516   1.876   3.261   0.478
 2206SOL    HW1 7517   1.811   3.186   0.490
 2206SOL    HW2 7518   1.894   3.275   0.381
 2207SOL     OW 7519   6.720   4.649   4.552
 2207SOL    HW1 7520   6.707   4.678   4.458
 2207SOL    HW2 7521   6.712   4.549   4.557
 2208SOL     OW 7522   0.105   5.479   2.155
 2208SOL    HW1 7523   0.026   5.540   2.155
 2208SOL    HW2 7524   0.088   5.402   2.093
 2209SOL     OW 7525   0.259   6.449   1.549
 2209SOL    HW1 7526   0.183   6.415   1.605
 2209SOL    HW2 7527   0.226   6.522   1.489
 2210SOL     OW 7528   2.052   5.007   4.070
 2210SOL    HW1 7529   2.130   4.956   4.032
 2210SOL    HW2 7530   2.054   5.001   4.170
 2211SOL     OW 7531   6.958   2.097   4.989
 2211SOL    HW1 7532   0.003   2.048   4.931
 2211SOL    HW2 7533   6.872   2.046   4.993
 2212SOL     OW 7534   2.645   6.911   6.034
 2212SOL    HW1 7535   2.621   6.822   6.074
 2212SOL    HW2 7536   2.744   6.917   6.025
 2213SOL     OW 7537   4.725   0.491   3.146
 2213SOL    HW1 7538   4.748   0.489   3.244
 2213SOL    HW2 7539   4.626   0.494   3.136
 2214SOL     OW 7540   3.955   0.019   5.278
 2214SOL    HW1 7541   3.873   0.059   5.236
 2214SOL    HW2 7542   3.969   6.947   5.241
 2215SOL     OW 7543   5.576   1.985   5.193
 2215SOL    HW1 7544   5.500   2.038   5.229
 2215SOL    HW2 7545   5.650   1.982   5.261
 2216SOL     OW 7546   3.294   1.400   2.423
 2216SOL    HW1 7547   3.360   1.464   2.382
 2216SOL    HW2 7548   3.342   1.317   2.450
 2217SOL     OW 7549   3.947   0.670   1.655
 2217SOL    HW1 7550   3.867   0.722   1.625
 2217SOL    HW2 7551   3.946   0.580   1.612
 2218SOL     OW 7552   0.641   0.175   2.445
 2218SOL    HW1 7553   0.663   0.082   2.414
 2218SOL    HW2 7554   0.585   0.171   2.527
 2219SOL     OW 7555   2.278   1.949   2.731
 2219SOL    HW1 7556   2.369   1.989   2.726
 2219SOL    HW2 7557   2.246   1.951   2.826
 2220SOL     OW 7558   1.398   0.585   2.101
 2220SOL    HW1 7559   1.466   0.628   2.042
 2220SOL    HW2 7560   1.335   0.531   2.046
 2221SOL     OW 7561   0.434   0.294   5.739
 2221SOL    HW1 7562   0.376   0.215   5.754
 2221SOL    HW2 7563   0.467   0.295   5.645
 2222SOL     OW 7564   6.593   5.005   3.943
 2222SOL    HW1 7565   6.499   5.035   3.924
 2222SOL    HW2 7566   6.607   4.913   3.906
 2223SOL     OW 7567   6.661   6.618   1.426
 2223SOL    HW1 7568   6.670   6.642   1.523
 2223SOL    HW2 7569   6.646   6.701   1.372
 2224SOL     OW 7570   0.910   4.852   0.804
 2224SOL    HW1 7571   0.990   4.812   0.848
 2224SOL    HW2 7572   0.832   4.792   0.816
 2225SOL     OW 7573   0.438   3.772   0.072
 2225SOL    HW1 7574   0.364   3.775   0.004
 2225SOL    HW2 7575   0.511   3.835   0.044
 2226SOL     OW 7576   3.673   3.702   2.373
 2226SOL    HW1 7577   3.751   3.673   2.428
 2226SOL    HW2 7578   3.597   3.726   2.433
 2227SOL     OW 7579   1.154   2.129   4.042
 2227SOL    HW1 7580   1.141   2.136   3.943
 2227SOL    HW2 7581   1.070   2.094   4.084
 2228SOL     OW 7582   2.714   4.834   3.756
 2228SOL    HW1 7583   2.644   4.772   3.790
 2228SOL    HW2 7584   2.797   4.826   3.812
 2229SOL     OW 7585   5.753   6.005   3.250
 2229SOL    HW1 7586   5.724   6.039   3.340
 2229SOL    HW2 7587   5.777   5.908   3.257
 2230SOL     OW 7588   1.991   5.642   2.216
 2230SOL    HW1 7589   2.019   5.646   2.312
 2230SOL    HW2 7590   2.072   5.629   2.158
 2231SOL     OW 7591   2.365   5.803   1.141
 2231SOL    HW1 7592   2.306   5.874   1.179
 2231SOL    HW2 7593   2.453   5.804   1.187
 2232SOL     OW 7594   5.492   2.482   3.821
 2232SOL    HW1 7595   5.512   2.512   3.728
 2232SOL    HW2 7596   5.394   2.464   3.830
 2233SOL     OW 7597   3.425   1.134   6.951
 2233SOL    HW1 7598   3.350   1.073   6.977
 2233SOL    HW2 7599   3.399   1.185   6.870
 2234SOL     OW 7600   3.810   2.640   1.409
 2234SOL    HW1 7601   3.813   2.700   1.489
 2234SOL    HW2 7602   3.765   2.688   1.334
 2235SOL     OW 7603   1.894   1.618   2.274
 2235SOL    HW1 7604   1.862   1.713   2.272
 2235SOL    HW2 7605   1.993   1.615   2.263
 2236SOL     OW 7606   1.226   4.755   5.556
 2236SOL    HW1 7607   1.160   4.807   5.610
 2236SOL    HW2 7608   1.303   4.727   5.615
 2237SOL     OW 7609   6.491   3.105   4.508
 2237SOL    HW1 7610   6.531   3.111   4.416
 2237SOL    HW2 7611   6.446   3.016   4.519
 2238SOL     OW 7612   5.787   6.539   0.208
 2238SOL    HW1 7613   5.727   6.514   0.284
 2238SOL    HW2 7614   5.790   6.464   0.141
 2239SOL     OW 7615   6.123   6.045   1.990
 2239SOL    HW1 7616   6.099   5.959   1.944
 2239SOL    HW2 7617   6.179   6.026   2.070
 2240SOL     OW 7618   6.048   3.514   1.804
 2240SOL    HW1 7619   6.129   3.502   1.862
 2240SOL    HW2 7620   6.050   3.448   1.729
 2241SOL     OW 7621   1.531   0.462   4.016
 2241SOL    HW1 7622   1.530   0.555   3.982
 2241SOL    HW2 7623   1.598   0.408   3.966
 2242SOL     OW 7624   3.237   1.863   2.718
 2242SOL    HW1 7625   3.167   1.841   2.651
 2242SOL    HW2 7626   3.230   1.960   2.743
 2243SOL     OW 7627   2.820   0.101   5.150
 2243SOL    HW1 7628   2.788   0.010   5.125
 2243SOL    HW2 7629   2.853   0.149   5.068
 2244SOL     OW 7630   4.017   0.876   5.323
 2244SOL    HW1 7631   4.110   0.903   5.347
 2244SOL    HW2 7632   3.970   0.952   5.277
 2245SOL     OW 7633   0.337   2.070   2.014
 2245SOL    HW1 7634   0.357   2.157   2.058
 2245SOL    HW2 7635   0.355   2.077   1.916
 2246SOL     OW 7636   0.723   4.496   5.293
 2246SOL    HW1 7637   0.764   4.445   5.368
 2246SOL    HW2 7638   0.782   4.574   5.269
 2247SOL     OW 7639   1.825   1.292   4.352
 2247SOL    HW1 7640   1.898   1.301   4.420
 2247SOL    HW2 7641   1.758   1.365   4.364
 2248SOL     OW 7642   4.770   3.960   5.871
 2248SOL    HW1 7643   4.684   3.921   5.902
 2248SOL    HW2 7644   4.766   3.975   5.772
 2249SOL     OW 7645   4.443   5.856   5.588
 2249SOL    HW1 7646   4.458   5.870   5.491
 2249SOL    HW2 7647   4.345   5.868   5.609
 2250SOL     OW 7648   4.849   5.235   1.654
 2250SOL    HW1 7649   4.872   5.200   1.563
 2250SOL    HW2 7650   4.757   5.273   1.652
 2251SOL     OW 7651   0.564   0.934   6.057
 2251SOL    HW1 7652   0.627   0.858   6.041
 2251SOL    HW2 7653   0.615   1.016   6.079
 2252SOL     OW 7654   3.365   0.817   6.803
 2252SOL    HW1 7655   3.343   0.862   6.889
 2252SOL    HW2 7656   3.421   0.736   6.820
 2253SOL     OW 7657   0.876   4.301   6.471
 2253SOL    HW1 7658   0.859   4.348   6.557
 2253SOL    HW2 7659   0.913   4.365   6.404
 2254SOL     OW 7660   1.352   4.805   6.495
 2254SOL    HW1 7661   1.322   4.850   6.579
 2254SOL    HW2 7662   1.445   4.770   6.508
 2255SOL     OW 7663   6.416   3.661   6.584
 2255SOL    HW1 7664   6.438   3.567   6.609
 2255SOL    HW2 7665   6.337   3.692   6.637
 2256SOL     OW 7666   2.611   4.623   1.791
 2256SOL    HW1 7667   2.624   4.680   1.709
 2256SOL    HW2 7668   2.697   4.617   1.841
 2257SOL     OW 7669   1.420   3.973   5.148
 2257SOL    HW1 7670   1.395   3.876   5.158
 2257SOL    HW2 7671   1.503   3.980   5.093
 2258SOL     OW 7672   2.163   5.335   4.705
 2258SOL    HW1 7673   2.064   5.344   4.716
 2258SOL    HW2 7674   2.193   5.392   4.628
 2259SOL     OW 7675   6.211   2.612   6.361
 2259SOL    HW1 7676   6.260   2.554   6.426
 2259SOL    HW2 7677   6.121   2.634   6.398
 2260SOL     OW 7678   4.247   3.010   0.595
 2260SOL    HW1 7679   4.324   3.070   0.575
 2260SOL    HW2 7680   4.209   3.033   0.685
 2261SOL     OW 7681   2.459   6.470   5.112
 2261SOL    HW1 7682   2.384   6.520   5.155
 2261SOL    HW2 7683   2.518   6.432   5.182
 2262SOL     OW 7684   3.257   1.736   2.954
 2262SOL    HW1 7685   3.250   1.777   2.863
 2262SOL    HW2 7686   3.196   1.657   2.959
 2263SOL     OW 7687   0.903   4.270   6.164
 2263SOL    HW1 7688   0.966   4.192   6.158
 2263SOL    HW2 7689   0.808   4.237   6.156
 2264SOL     OW 7690   3.278   3.726   3.622
 2264SOL    HW1 7691   3.301   3.634   3.591
 2264SOL    HW2 7692   3.236   3.777   3.547
 2265SOL     OW 7693   0.722   6.514   3.760
 2265SOL    HW1 7694   0.682   6.595   3.717
 2265SOL    HW2 7695   0.679   6.432   3.722
 2266SOL     OW 7696   6.523   0.450   5.974
 2266SOL    HW1 7697   6.608   0.462   5.923
 2266SOL    HW2 7698   6.455   0.516   5.941
 2267SOL     OW 7699   5.322   1.621   5.242
 2267SOL    HW1 7700   5.419   1.599   5.244
 2267SOL    HW2 7701   5.310   1.720   5.232
 2268SOL     OW 7702   6.939   5.405   0.245
 2268SOL    HW1 7703   6.896   5.453   0.322
 2268SOL    HW2 7704   6.870   5.380   0.178
 2269SOL     OW 7705   0.328   6.581   3.230
 2269SOL    HW1 7706   0.367   6.489   3.220
 2269SOL    HW2 7707   0.263   6.598   3.156
 2270SOL     OW 7708   4.038   3.132   3.478
 2270SOL    HW1 7709   4.059   3.159   3.572
 2270SOL    HW2 7710   3.939   3.129   3.465
 2271SOL     OW 7711   1.140   4.447   3.210
 2271SOL    HW1 7712   1.069   4.503   3.169
 2271SOL    HW2 7713   1.223   4.502   3.224
 2272SOL     OW 7714   5.337   0.789   5.906
 2272SOL    HW1 7715   5.414   0.851   5.921
 2272SOL    HW2 7716   5.261   0.816   5.966
 2273SOL     OW 7717   0.763   0.967   2.181
 2273SOL    HW1 7718   0.741   0.962   2.083
 2273SOL    HW2 7719   0.687   0.932   2.235
 2274SOL     OW 7720   1.015   3.906   3.830
 2274SOL    HW1 7721   1.008   3.874   3.736
 2274SOL    HW2 7722   1.058   3.835   3.887
 2275SOL     OW 7723   5.012   6.081   3.831
 2275SOL    HW1 7724   4.960   6.102   3.914
 2275SOL    HW2 7725   4.960   6.112   3.751
 2276SOL     OW 7726   3.318   5.978   2.480
 2276SOL    HW1 7727   3.233   6.000   2.527
 2276SOL    HW2 7728   3.300   5.912   2.407
 2277SOL     OW 7729   3.202   2.991   2.201
 2277SOL    HW1 7730   3.261   3.072   2.201
 2277SOL    HW2 7731   3.191   2.958   2.107
 2278SOL     OW 7732   3.995   5.598   1.054
 2278SOL    HW1 7733   3.940   5.644   1.123
 2278SOL    HW2 7734   4.075   5.654   1.032
 2279SOL     OW 7735   5.675   3.945   5.669
 2279SOL    HW1 7736   5.671   4.028   5.725
 2279SOL    HW2 7737   5.700   3.970   5.575
 2280SOL     OW 7738   5.608   0.290   6.165
 2280SOL    HW1 7739   5.571   0.258   6.077
 2280SOL    HW2 7740   5.532   0.316   6.225
 2281SOL     OW 7741   2.033   1.057   6.995
 2281SOL    HW1 7742   2.068   0.995   0.045
 2281SOL    HW2 7743   2.088   1.048   6.912
 2282SOL     OW 7744   4.070   5.968   2.607
 2282SOL    HW1 7745   4.128   5.966   2.688
 2282SOL    HW2 7746   3.983   5.922   2.627
 2283SOL     OW 7747   0.840   3.113   1.673
 2283SOL    HW1 7748   0.754   3.094   1.722
 2283SOL    HW2 7749   0.908   3.147   1.738
 2284SOL     OW 7750   2.199   2.197   1.618
 2284SOL    HW1 7751   2.235   2.272   1.564
 2284SOL    HW2 7752   2.266   2.169   1.686
 2285SOL     OW 7753   1.838   3.436   6.385
 2285SOL    HW1 7754   1.769   3.416   6.315
 2285SOL    HW2 7755   1.922   3.385   6.365
 2286SOL     OW 7756   6.482   6.888   4.062
 2286SOL    HW1 7757   6.546   6.918   4.132
 2286SOL    HW2 7758   6.393   6.870   4.104
 2287SOL     OW 7759   2.523   2.069   0.718
 2287SOL    HW1 7760   2.615   2.037   0.697
 2287SOL    HW2 7761   2.456   2.005   0.680
 2288SOL     OW 7762   2.511   5.584   4.558
 2288SOL    HW1 7763   2.536   5.499   4.512
 2288SOL    HW2 7764   2.490   5.565   4.654
 2289SOL     OW 7765   3.778   0.904   6.844
 2289SOL    HW1 7766   3.820   0.835   6.903
 2289SOL    HW2 7767   3.782   0.872   6.749
 2290SOL     OW 7768   3.489   3.539   4.641
 2290SOL    HW1 7769   3.392   3.521   4.659
 2290SOL    HW2 7770   3.521   3.613   4.699
 2291SOL     OW 7771   2.539   2.517   0.326
 2291SOL    HW1 7772   2.448   2.552   0.346
 2291SOL    HW2 7773   2.579   2.477   0.409
 2292SOL     OW 7774   4.811   2.050   3.175
 2292SOL    HW1 7775   4.778   1.997   3.253
 2292SOL    HW2 7776   4.877   2.118   3.208
 2293SOL     OW 7777   0.658   1.229   6.171
 2293SOL    HW1 7778   0.700   1.308   6.215
 2293SOL    HW2 7779   0.579   1.199   6.225
 2294SOL     OW 7780   6.684   2.024   5.085
 2294SOL    HW1 7781   6.610   1.959   5.101
 2294SOL    HW2 7782   6.648   2.105   5.038
 2295SOL     OW 7783   5.363   5.825   0.358
 2295SOL    HW1 7784   5.278   5.833   0.306
 2295SOL    HW2 7785   5.350   5.863   0.449
 2296SOL     OW 7786   3.566   5.558   4.957
 2296SOL    HW1 7787   3.563   5.593   5.051
 2296SOL    HW2 7788   3.569   5.635   4.894
 2297SOL     OW 7789   6.080   2.954   6.129
 2297SOL    HW1 7790   6.158   3.017   6.121
 2297SOL    HW2 7791   6.087   2.905   6.216
 2298SOL     OW 7792   2.633   3.579   5.377
 2298SOL    HW1 7793   2.643   3.599   5.475
 2298SOL    HW2 7794   2.649   3.662   5.324
 2299SOL     OW 7795   5.978   3.468   4.667
 2299SOL    HW1 7796   6.009   3.457   4.573
 2299SOL    HW2 7797   5.982   3.564   4.693
 2300SOL     OW 7798   5.492   0.039   2.588
 2300SOL    HW1 7799   5.506   0.127   2.633
 2300SOL    HW2 7800   5.431   7.003   2.644
 2301SOL     OW 7801   3.714   3.421   5.347
 2301SOL    HW1 7802   3.716   3.322   5.362
 2301SOL    HW2 7803   3.714   3.468   5.435
 2302SOL     OW 7804   6.720   3.379   6.222
 2302SOL    HW1 7805   6.808   3.416   6.194
 2302SOL    HW2 7806   6.703   3.399   6.318
 2303SOL     OW 7807   2.524   1.897   6.605
 2303SOL    HW1 7808   2.509   1.957   6.683
 2303SOL    HW2 7809   2.607   1.924   6.557
 2304SOL     OW 7810   6.173   7.007   2.302
 2304SOL    HW1 7811   6.243   6.968   2.362
 2304SOL    HW2 7812   6.141   0.073   2.340
 2305SOL     OW 7813   3.217   6.972   4.915
 2305SOL    HW1 7814   3.120   6.951   4.930
 2305SOL    HW2 7815   3.235   6.974   4.817
 2306SOL     OW 7816   1.321   4.216   5.160
 2306SOL    HW1 7817   1.255   4.215   5.085
 2306SOL    HW2 7818   1.366   4.127   5.167
 2307SOL     OW 7819   6.493   3.574   4.575
 2307SOL    HW1 7820   6.452   3.663   4.594
 2307SOL    HW2 7821   6.586   3.572   4.610
 2308SOL     OW 7822   0.844   5.790   1.901
 2308SOL    HW1 7823   0.806   5.702   1.874
 2308SOL    HW2 7824   0.930   5.777   1.950
 2309SOL     OW 7825   2.101   0.702   5.062
 2309SOL    HW1 7826   2.006   0.674   5.074
 2309SOL    HW2 7827   2.151   0.629   5.016
 2310SOL     OW 7828   4.056   6.773   0.194
 2310SOL    HW1 7829   4.097   6.861   0.170
 2310SOL    HW2 7830   4.083   6.748   0.287
 2311SOL     OW 7831   2.381   5.785   0.876
 2311SOL    HW1 7832   2.385   5.781   0.976
 2311SOL    HW2 7833   2.293   5.749   0.845
 2312SOL     OW 7834   3.060   4.897   2.882
 2312SOL    HW1 7835   3.025   4.935   2.796
 2312SOL    HW2 7836   3.103   4.969   2.936
 2313SOL     OW 7837   4.620   5.014   1.568
 2313SOL    HW1 7838   4.542   5.035   1.628
 2313SOL    HW2 7839   4.630   4.915   1.561
 2314SOL     OW 7840   2.453   4.426   3.271
 2314SOL    HW1 7841   2.478   4.474   3.187
 2314SOL    HW2 7842   2.483   4.480   3.350
 2315SOL     OW 7843   4.989   2.189   6.446
 2315SOL    HW1 7844   4.946   2.222   6.530
 2315SOL    HW2 7845   5.007   2.090   6.454
 2316SOL     OW 7846   5.036   3.559   2.219
 2316SOL    HW1 7847   5.136   3.566   2.214
 2316SOL    HW2 7848   4.999   3.550   2.127
 2317SOL     OW 7849   0.294   5.960   3.799
 2317SOL    HW1 7850   0.368   5.957   3.732
 2317SOL    HW2 7851   0.215   6.006   3.760
 2318SOL     OW 7852   0.336   1.345   3.743
 2318SOL    HW1 7853   0.297   1.328   3.833
 2318SOL    HW2 7854   0.419   1.400   3.752
 2319SOL     OW 7855   1.195   4.816   1.437
 2319SOL    HW1 7856   1.258   4.768   1.498
 2319SOL    HW2 7857   1.171   4.757   1.360
 2320SOL     OW 7858   5.993   4.584   4.352
 2320SOL    HW1 7859   5.989   4.537   4.440
 2320SOL    HW2 7860   6.026   4.677   4.365
 2321SOL     OW 7861   3.980   4.871   4.218
 2321SOL    HW1 7862   4.002   4.968   4.220
 2321SOL    HW2 7863   3.881   4.860   4.210
 2322SOL     OW 7864   2.620   0.864   4.528
 2322SOL    HW1 7865   2.685   0.820   4.467
 2322SOL    HW2 7866   2.542   0.897   4.475
 2323SOL     OW 7867   5.015   3.597   1.885
 2323SOL    HW1 7868   5.113   3.611   1.868
 2323SOL    HW2 7869   4.976   3.679   1.925
 2324SOL     OW 7870   0.635   5.378   4.139
 2324SOL    HW1 7871   0.716   5.432   4.164
 2324SOL    HW2 7872   0.642   5.287   4.181
 2325SOL     OW 7873   0.336   2.260   0.266
 2325SOL    HW1 7874   0.397   2.300   0.334
 2325SOL    HW2 7875   0.340   2.160   0.272
 2326SOL     OW 7876   0.657   4.298   0.710
 2326SOL    HW1 7877   0.635   4.257   0.799
 2326SOL    HW2 7878   0.750   4.275   0.685
 2327SOL     OW 7879   4.710   1.076   3.667
 2327SOL    HW1 7880   4.630   1.107   3.719
 2327SOL    HW2 7881   4.716   1.127   3.581
 2328SOL     OW 7882   6.364   5.113   3.843
 2328SOL    HW1 7883   6.417   5.168   3.780
 2328SOL    HW2 7884   6.289   5.068   3.794
 2329SOL     OW 7885   1.310   5.837   3.345
 2329SOL    HW1 7886   1.354   5.761   3.393
 2329SOL    HW2 7887   1.289   5.809   3.251
 2330SOL     OW 7888   1.304   4.516   0.424
 2330SOL    HW1 7889   1.236   4.577   0.464
 2330SOL    HW2 7890   1.320   4.541   0.328
 2331SOL     OW 7891   0.911   4.726   5.222
 2331SOL    HW1 7892   0.852   4.777   5.283
 2331SOL    HW2 7893   0.997   4.776   5.209
 2332SOL     OW 7894   5.558   3.192   5.663
 2332SOL    HW1 7895   5.612   3.178   5.746
 2332SOL    HW2 7896   5.542   3.290   5.650
 2333SOL     OW 7897   2.553   4.567   3.480
 2333SOL    HW1 7898   2.644   4.602   3.457
 2333SOL    HW2 7899   2.549   4.545   3.577
 2334SOL     OW 7900   2.414   0.445   6.017
 2334SOL    HW1 7901   2.396   0.530   6.066
 2334SOL    HW2 7902   2.337   0.382   6.030
 2335SOL     OW 7903   4.895   4.458   4.184
 2335SOL    HW1 7904   4.926   4.395   4.255
 2335SOL    HW2 7905   4.814   4.507   4.215
 2336SOL     OW 7906   4.100   2.798   5.841
 2336SOL    HW1 7907   4.184   2.850   5.828
 2336SOL    HW2 7908   4.114   2.729   5.911
 2337SOL     OW 7909   5.984   0.223   4.564
 2337SOL    HW1 7910   6.073   0.235   4.519
 2337SOL    HW2 7911   5.920   0.291   4.529
 2338SOL     OW 7912   1.292   0.048   6.974
 2338SOL    HW1 7913   1.338   0.027   6.888
 2338SOL    HW2 7914   1.354   0.031   0.030
 2339SOL     OW 7915   4.046   4.865   6.846
 2339SOL    HW1 7916   4.056   4.813   6.931
 2339SOL    HW2 7917   4.024   4.960   6.867
 2340SOL     OW 7918   3.521   5.289   4.500
 2340SOL    HW1 7919   3.541   5.367   4.559
 2340SOL    HW2 7920   3.422   5.276   4.493
 2341SOL     OW 7921   6.043   4.971   6.527
 2341SOL    HW1 7922   5.973   4.920   6.477
 2341SOL    HW2 7923   6.039   4.947   6.624
 2342SOL     OW 7924   6.665   1.131   5.439
 2342SOL    HW1 7925   6.565   1.123   5.450
 2342SOL    HW2 7926   6.695   1.070   5.365
 2343SOL     OW 7927   0.935   6.676   0.254
 2343SOL    HW1 7928   0.917   6.663   0.351
 2343SOL    HW2 7929   1.011   6.617   0.226
 2344SOL     OW 7930   2.538   1.047   2.607
 2344SOL    HW1 7931   2.486   1.047   2.522
 2344SOL    HW2 7932   2.503   0.975   2.667
 2345SOL     OW 7933   0.945   1.865   1.900
 2345SOL    HW1 7934   0.996   1.852   1.815
 2345SOL    HW2 7935   0.877   1.793   1.910
 2346SOL     OW 7936   4.621   3.133   5.301
 2346SOL    HW1 7937   4.649   3.196   5.228
 2346SOL    HW2 7938   4.690   3.132   5.373
 2347SOL     OW 7939   1.995   3.754   0.597
 2347SOL    HW1 7940   2.078   3.701   0.578
 2347SOL    HW2 7941   2.015   3.851   0.591
 2348SOL     OW 7942   2.198   6.819   1.693
 2348SOL    HW1 7943   2.153   6.886   1.633
 2348SOL    HW2 7944   2.135   6.794   1.767
 2349SOL     OW 7945   5.324   3.761   6.738
 2349SOL    HW1 7946   5.334   3.752   6.837
 2349SOL    HW2 7947   5.413   3.752   6.695
 2350SOL     OW 7948   2.228   6.301   5.069
 2350SOL    HW1 7949   2.179   6.354   5.001
 2350SOL    HW2 7950   2.324   6.331   5.073
 2351SOL     OW 7951   1.465   4.929   2.676
 2351SOL    HW1 7952   1.440   5.018   2.637
 2351SOL    HW2 7953   1.536   4.943   2.745
 2352SOL     OW 7954   5.615   5.274   0.640
 2352SOL    HW1 7955   5.593   5.183   0.604
 2352SOL    HW2 7956   5.537   5.334   0.626
 2353SOL     OW 7957   2.615   3.142   6.077
 2353SOL    HW1 7958   2.698   3.113   6.029
 2353SOL    HW2 7959   2.557   3.194   6.014
 2354SOL     OW 7960   4.072   1.601   2.287
 2354SOL    HW1 7961   4.010   1.664   2.334
 2354SOL    HW2 7962   4.032   1.574   2.200
 2355SOL     OW 7963   0.361   1.304   1.769
 2355SOL    HW1 7964   0.357   1.398   1.733
 2355SOL    HW2 7965   0.384   1.308   1.866
 2356SOL     OW 7966   3.122   5.338   4.027
 2356SOL    HW1 7967   3.079   5.277   3.959
 2356SOL    HW2 7968   3.051   5.394   4.070
 2357SOL     OW 7969   1.106   4.639   0.540
 2357SOL    HW1 7970   1.082   4.600   0.630
 2357SOL    HW2 7971   1.023   4.647   0.485
 2358SOL     OW 7972   2.951   0.697   5.140
 2358SOL    HW1 7973   2.988   0.786   5.170
 2358SOL    HW2 7974   2.856   0.690   5.169
 2359SOL     OW 7975   2.400   2.244   5.693
 2359SOL    HW1 7976   2.341   2.225   5.771
 2359SOL    HW2 7977   2.450   2.162   5.667
 2360SOL     OW 7978   3.196   5.005   0.993
 2360SOL    HW1 7979   3.119   5.052   1.037
 2360SOL    HW2 7980   3.207   4.915   1.035
 2361SOL     OW 7981   3.394   5.638   1.152
 2361SOL    HW1 7982   3.334   5.582   1.094
 2361SOL    HW2 7983   3.376   5.616   1.248
 2362SOL     OW 7984   3.251   5.250   4.519
 2362SOL    HW1 7985   3.190   5.329   4.512
 2362SOL    HW2 7986   3.217   5.175   4.462
 2363SOL     OW 7987   2.328   4.062   0.842
 2363SOL    HW1 7988   2.297   4.126   0.913
 2363SOL    HW2 7989   2.333   4.110   0.754
 2364SOL     OW 7990   4.139   1.518   2.522
 2364SOL    HW1 7991   4.178   1.594   2.574
 2364SOL    HW2 7992   4.127   1.546   2.426
 2365SOL     OW 7993   5.831   4.233   3.144
 2365SOL    HW1 7994   5.883   4.267   3.222
 2365SOL    HW2 7995   5.734   4.234   3.166
 2366SOL     OW 7996   2.876   5.254   5.286
 2366SOL    HW1 7997   2.969   5.222   5.302
 2366SOL    HW2 7998   2.847   5.227   5.194
 2367SOL     OW 7999   6.240   4.947   5.376
 2367SOL    HW1 8000   6.144   4.965   5.401
 2367SOL    HW2 8001   6.244   4.921   5.279
 2368SOL     OW 8002   5.050   0.862   5.087
 2368SOL    HW1 8003   4.956   0.888   5.106
 2368SOL    HW2 8004   5.061   0.848   4.989
 2369SOL     OW 8005   3.995   1.867   4.595
 2369SOL    HW1 8006   4.071   1.836   4.537
 2369SOL    HW2 8007   4.028   1.879   4.688
 2370SOL     OW 8008   5.126   1.905   1.919
 2370SOL    HW1 8009   5.074   1.821   1.901
 2370SOL    HW2 8010   5.073   1.984   1.890
 2371SOL     OW 8011   1.263   6.839   1.887
 2371SOL    HW1 8012   1.322   6.879   1.817
 2371SOL    HW2 8013   1.297   6.865   1.978
 2372SOL     OW 8014   6.593   0.166   5.924
 2372SOL    HW1 8015   6.554   0.257   5.937
 2372SOL    HW2 8016   6.689   0.166   5.953
 2373SOL     OW 8017   5.858   4.110   6.015
 2373SOL    HW1 8018   5.775   4.143   5.971
 2373SOL    HW2 8019   5.938   4.147   5.966
 2374SOL     OW 8020   6.732   6.465   2.351
 2374SOL    HW1 8021   6.710   6.375   2.314
 2374SOL    HW2 8022   6.738   6.532   2.277
 2375SOL     OW 8023   1.741   6.998   4.410
 2375SOL    HW1 8024   1.779   0.004   4.499
 2375SOL    HW2 8025   1.805   0.002   4.337
 2376SOL     OW 8026   4.790   2.435   3.312
 2376SOL    HW1 8027   4.716   2.468   3.254
 2376SOL    HW2 8028   4.754   2.364   3.373
 2377SOL     OW 8029   4.249   3.958   5.858
 2377SOL    HW1 8030   4.276   4.054   5.869
 2377SOL    HW2 8031   4.186   3.950   5.780
 2378SOL     OW 8032   0.472   0.692   0.744
 2378SOL    HW1 8033   0.543   0.640   0.697
 2378SOL    HW2 8034   0.437   0.764   0.684
 2379SOL     OW 8035   0.642   4.758   2.519
 2379SOL    HW1 8036   0.681   4.765   2.611
 2379SOL    HW2 8037   0.596   4.670   2.509
 2380SOL     OW 8038   4.253   5.809   6.565
 2380SOL    HW1 8039   4.162   5.813   6.605
 2380SOL    HW2 8040   4.321   5.843   6.630
 2381SOL     OW 8041   2.075   3.782   4.152
 2381SOL    HW1 8042   2.118   3.803   4.241
 2381SOL    HW2 8043   2.007   3.710   4.165
 2382SOL     OW 8044   0.018   5.193   3.168
 2382SOL    HW1 8045   0.070   5.123   3.216
 2382SOL    HW2 8046   0.048   5.284   3.198
 2383SOL     OW 8047   4.968   3.813   5.619
 2383SOL    HW1 8048   4.913   3.734   5.648
 2383SOL    HW2 8049   5.045   3.825   5.682
 2384SOL     OW 8050   0.752   2.536   2.502
 2384SOL    HW1 8051   0.842   2.559   2.539
 2384SOL    HW2 8052   0.695   2.498   2.575
 2385SOL     OW 8053   0.478   1.222   6.805
 2385SOL    HW1 8054   0.536   1.153   6.849
 2385SOL    HW2 8055   0.532   1.303   6.785
 2386SOL     OW 8056   6.086   5.380   4.991
 2386SOL    HW1 8057   6.063   5.311   5.060
 2386SOL    HW2 8058   6.151   5.342   4.926
 2387SOL     OW 8059   0.752   0.453   3.579
 2387SOL    HW1 8060   0.727   0.494   3.492
 2387SOL    HW2 8061   0.674   0.456   3.642
 2388SOL     OW 8062   0.711   3.211   5.338
 2388SOL    HW1 8063   0.733   3.280   5.407
 2388SOL    HW2 8064   0.616   3.183   5.347
 2389SOL     OW 8065   4.288   5.514   3.523
 2389SOL    HW1 8066   4.321   5.499   3.430
 2389SOL    HW2 8067   4.284   5.612   3.542
 2390SOL     OW 8068   5.115   2.596   5.941
 2390SOL    HW1 8069   5.031   2.618   5.891
 2390SOL    HW2 8070   5.191   2.649   5.903
 2391SOL     OW 8071   3.098   3.887   6.741
 2391SOL    HW1 8072   3.163   3.957   6.713
 2391SOL    HW2 8073   3.095   3.881   6.840
 2392SOL     OW 8074   3.873   5.250   5.981
 2392SOL    HW1 8075   3.858   5.162   5.935
 2392SOL    HW2 8076   3.962   5.250   6.025
 2393SOL     OW 8077   3.868   4.370   0.255
 2393SOL    HW1 8078   3.779   4.377   0.211
 2393SOL    HW2 8079   3.882   4.276   0.287
 2394SOL     OW 8080   6.412   1.431   3.923
 2394SOL    HW1 8081   6.344   1.419   3.851
 2394SOL    HW2 8082   6.500   1.395   3.893
 2395SOL     OW 8083   1.337   2.517   3.922
 2395SOL    HW1 8084   1.418   2.573   3.942
 2395SOL    HW2 8085   1.360   2.420   3.931
 2396SOL     OW 8086   6.965   0.379   6.860
 2396SOL    HW1 8087   6.972   0.355   6.763
 2396SOL    HW2 8088   6.984   0.298   6.915
 2397SOL     OW 8089   2.203   4.382   5.157
 2397SOL    HW1 8090   2.120   4.329   5.175
 2397SOL    HW2 8091   2.265   4.374   5.236
 2398SOL     OW 8092   3.948   6.010   4.626
 2398SOL    HW1 8093   3.952   6.030   4.528
 2398SOL    HW2 8094   3.977   6.091   4.678
 2399SOL     OW 8095   3.177   1.524   2.672
 2399SOL    HW1 8096   3.086   1.563   2.687
 2399SOL    HW2 8097   3.184   1.490   2.578
 2400SOL     OW 8098   1.318   3.136   0.045
 2400SOL    HW1 8099   1.345   3.211   7.006
 2400SOL    HW2 8100   1.371   3.054   0.023
 2401SOL     OW 8101   1.847   6.548   0.214
 2401SOL    HW1 8102   1.828   6.451   0.198
 2401SOL    HW2 8103   1.935   6.572   0.173
 2402SOL     OW 8104   0.769   4.081   2.006
 2402SOL    HW1 8105   0.843   4.132   1.962
 2402SOL    HW2 8106   0.796   3.985   2.017
 2403SOL     OW 8107   3.053   3.979   5.344
 2403SOL    HW1 8108   2.954   3.987   5.335
 2403SOL    HW2 8109   3.097   4.061   5.308
 2404SOL     OW 8110   6.208   1.444   1.402
 2404SOL    HW1 8111   6.217   1.532   1.449
 2404SOL    HW2 8112   6.165   1.459   1.313
 2405SOL     OW 8113   2.402   3.204   0.773
 2405SOL    HW1 8114   2.354   3.116   0.777
 2405SOL    HW2 8115   2.378   3.259   0.853
 2406SOL     OW 8116   3.831   5.463   4.924
 2406SOL    HW1 8117   3.868   5.431   4.837
 2406SOL    HW2 8118   3.731   5.472   4.916
 2407SOL     OW 8119   2.111   1.925   3.845
 2407SOL    HW1 8120   2.016   1.929   3.816
 2407SOL    HW2 8121   2.116   1.885   3.937
 2408SOL     OW 8122   3.782   0.487   6.180
 2408SOL    HW1 8123   3.714   0.433   6.131
 2408SOL    HW2 8124   3.868   0.437   6.184
 2409SOL     OW 8125   0.673   3.098   6.825
 2409SOL    HW1 8126   0.586   3.140   6.800
 2409SOL    HW2 8127   0.718   3.063   6.744
 2410SOL     OW 8128   6.820   3.630   4.582
 2410SOL    HW1 8129   6.772   3.542   4.591
 2410SOL    HW2 8130   6.901   3.629   4.641
 2411SOL     OW 8131   2.905   1.452   6.978
 2411SOL    HW1 8132   2.973   1.379   6.963
 2411SOL    HW2 8133   2.816   1.422   6.944
 2412SOL     OW 8134   3.553   2.445   6.262
 2412SOL    HW1 8135   3.644   2.487   6.251
 2412SOL    HW2 8136   3.495   2.507   6.315
 2413SOL     OW 8137   0.224   3.791   6.909
 2413SOL    HW1 8138   0.236   3.760   6.815
 2413SOL    HW2 8139   0.129   3.776   6.938
 2414SOL     OW 8140   0.021   1.335   5.546
 2414SOL    HW1 8141   0.063   1.404   5.488
 2414SOL    HW2 8142   0.066   1.334   5.635
 2415SOL     OW 8143   3.187   4.694   6.220
 2415SOL    HW1 8144   3.236   4.774   6.185
 2415SOL    HW2 8145   3.231   4.611   6.187
 2416SOL     OW 8146   0.358   2.656   3.096
 2416SOL    HW1 8147   0.297   2.589   3.138
 2416SOL    HW2 8148   0.452   2.635   3.119
 2417SOL     OW 8149   3.380   2.609   1.310
 2417SOL    HW1 8150   3.291   2.643   1.341
 2417SOL    HW2 8151   3.418   2.547   1.379
 2418SOL     OW 8152   5.200   4.617   6.808
 2418SOL    HW1 8153   5.186   4.669   6.724
 2418SOL    HW2 8154   5.217   4.521   6.785
 2419SOL     OW 8155   3.361   0.896   3.360
 2419SOL    HW1 8156   3.408   0.945   3.287
 2419SOL    HW2 8157   3.361   0.951   3.444
 2420SOL     OW 8158   1.744   3.776   2.735
 2420SOL    HW1 8159   1.668   3.720   2.768
 2420SOL    HW2 8160   1.804   3.721   2.677
 2421SOL     OW 8161   3.029   6.674   3.804
 2421SOL    HW1 8162   3.019   6.695   3.901
 2421SOL    HW2 8163   3.061   6.755   3.755
 2422SOL     OW 8164   3.870   5.993   0.195
 2422SOL    HW1 8165   3.774   5.967   0.207
 2422SOL    HW2 8166   3.920   5.976   0.281
 2423SOL     OW 8167   2.880   5.061   4.258
 2423SOL    HW1 8168   2.878   5.155   4.291
 2423SOL    HW2 8169   2.787   5.025   4.256
 2424SOL     OW 8170   4.984   6.688   6.594
 2424SOL    HW1 8171   5.023   6.597   6.585
 2424SOL    HW2 8172   4.885   6.684   6.581
 2425SOL     OW 8173   4.137   5.413   5.260
 2425SOL    HW1 8174   4.106   5.364   5.341
 2425SOL    HW2 8175   4.109   5.509   5.267
 2426SOL     OW 8176   3.028   2.082   5.187
 2426SOL    HW1 8177   3.097   2.126   5.129
 2426SOL    HW2 8178   2.992   2.148   5.252
 2427SOL     OW 8179   4.692   1.523   0.496
 2427SOL    HW1 8180   4.707   1.622   0.502
 2427SOL    HW2 8181   4.655   1.490   0.582
 2428SOL     OW 8182   1.661   1.516   3.033
 2428SOL    HW1 8183   1.727   1.591   3.043
 2428SOL    HW2 8184   1.656   1.489   2.937
 2429SOL     OW 8185   5.877   5.982   1.137
 2429SOL    HW1 8186   5.938   6.046   1.183
 2429SOL    HW2 8187   5.817   5.939   1.205
 2430SOL     OW 8188   6.253   0.671   6.467
 2430SOL    HW1 8189   6.272   0.573   6.478
 2430SOL    HW2 8190   6.176   0.696   6.525
 2431SOL     OW 8191   1.478   2.794   1.891
 2431SOL    HW1 8192   1.421   2.739   1.952
 2431SOL    HW2 8193   1.575   2.772   1.906
 2432SOL     OW 8194   2.420   5.565   2.256
 2432SOL    HW1 8195   2.428   5.551   2.157
 2432SOL    HW2 8196   2.511   5.575   2.296
 2433SOL     OW 8197   0.525   4.252   4.840
 2433SOL    HW1 8198   0.446   4.232   4.899
 2433SOL    HW2 8199   0.608   4.219   4.884
 2434SOL     OW 8200   4.655   1.170   3.398
 2434SOL    HW1 8201   4.580   1.228   3.365
 2434SOL    HW2 8202   4.651   1.081   3.352
 2435SOL     OW 8203   6.340   6.584   6.737
 2435SOL    HW1 8204   6.391   6.666   6.765
 2435SOL    HW2 8205   6.382   6.545   6.656
 2436SOL     OW 8206   6.926   3.546   0.538
 2436SOL    HW1 8207   6.986   3.604   0.592
 2436SOL    HW2 8208   6.837   3.590   0.528
 2437SOL     OW 8209   0.230   4.319   1.288
 2437SOL    HW1 8210   0.232   4.286   1.194
 2437SOL    HW2 8211   0.272   4.251   1.348
 2438SOL     OW 8212   3.616   1.718   4.896
 2438SOL    HW1 8213   3.616   1.638   4.836
 2438SOL    HW2 8214   3.570   1.795   4.851
 2439SOL     OW 8215   0.368   5.546   1.073
 2439SOL    HW1 8216   0.304   5.470   1.084
 2439SOL    HW2 8217   0.390   5.585   1.162
 2440SOL     OW 8218   6.570   1.427   5.185
 2440SOL    HW1 8219   6.604   1.359   5.120
 2440SOL    HW2 8220   6.537   1.507   5.135
 2441SOL     OW 8221   6.542   0.790   0.837
 2441SOL    HW1 8222   6.452   0.751   0.853
 2441SOL    HW2 8223   6.534   0.867   0.774
 2442SOL     OW 8224   5.432   3.309   2.511
 2442SOL    HW1 8225   5.350   3.277   2.464
 2442SOL    HW2 8226   5.405   3.364   2.591
 2443SOL     OW 8227   0.644   3.525   1.168
 2443SOL    HW1 8228   0.593   3.471   1.100
 2443SOL    HW2 8229   0.580   3.568   1.231
 2444SOL     OW 8230   3.258   5.757   3.074
 2444SOL    HW1 8231   3.166   5.727   3.051
 2444SOL    HW2 8232   3.253   5.839   3.131
 2445SOL     OW 8233   0.634   2.077   0.819
 2445SOL    HW1 8234   0.721   2.049   0.778
 2445SOL    HW2 8235   0.647   2.096   0.916
 2446SOL     OW 8236   0.045   6.022   2.110
 2446SOL    HW1 8237   0.083   6.039   2.201
 2446SOL    HW2 8238   0.109   5.967   2.056
 2447SOL     OW 8239   1.647   6.920   0.524
 2447SOL    HW1 8240   1.569   6.859   0.507
 2447SOL    HW2 8241   1.670   6.919   0.621
 2448SOL     OW 8242   5.912   1.016   4.058
 2448SOL    HW1 8243   5.826   0.967   4.073
 2448SOL    HW2 8244   5.908   1.105   4.103
 2449SOL     OW 8245   1.636   4.205   0.788
 2449SOL    HW1 8246   1.622   4.292   0.741
 2449SOL    HW2 8247   1.601   4.211   0.881
 2450SOL     OW 8248   0.840   6.524   5.105
 2450SOL    HW1 8249   0.910   6.456   5.128
 2450SOL    HW2 8250   0.882   6.615   5.101
 2451SOL     OW 8251   1.994   6.649   5.981
 2451SOL    HW1 8252   1.946   6.577   5.931
 2451SOL    HW2 8253   2.092   6.628   5.985
 2452SOL     OW 8254   2.133   1.733   4.241
 2452SOL    HW1 8255   2.085   1.728   4.329
 2452SOL    HW2 8256   2.071   1.704   4.168
 2453SOL     OW 8257   1.536   1.865   5.730
 2453SOL    HW1 8258   1.526   1.807   5.810
 2453SOL    HW2 8259   1.452   1.864   5.677
 2454SOL     OW 8260   3.294   6.077   0.949
 2454SOL    HW1 8261   3.207   6.125   0.963
 2454SOL    HW2 8262   3.276   5.986   0.912
 2455SOL     OW 8263   4.476   1.979   0.737
 2455SOL    HW1 8264   4.526   2.048   0.789
 2455SOL    HW2 8265   4.380   2.006   0.729
 2456SOL     OW 8266   0.547   3.763   6.164
 2456SOL    HW1 8267   0.636   3.720   6.181
 2456SOL    HW2 8268   0.539   3.785   6.067
 2457SOL     OW 8269   4.109   1.864   5.818
 2457SOL    HW1 8270   4.112   1.765   5.810
 2457SOL    HW2 8271   4.167   1.905   5.747
 2458SOL     OW 8272   0.628   6.930   2.472
 2458SOL    HW1 8273   0.529   6.940   2.463
 2458SOL    HW2 8274   0.664   6.879   2.394
 2459SOL     OW 8275   2.011   6.765   1.317
 2459SOL    HW1 8276   2.062   6.839   1.273
 2459SOL    HW2 8277   2.068   6.683   1.323
 2460SOL     OW 8278   0.671   0.483   4.071
 2460SOL    HW1 8279   0.703   0.471   4.165
 2460SOL    HW2 8280   0.656   0.394   4.029
 2461SOL     OW 8281   3.263   1.548   3.787
 2461SOL    HW1 8282   3.262   1.647   3.772
 2461SOL    HW2 8283   3.236   1.501   3.703
 2462SOL     OW 8284   0.763   5.298   0.907
 2462SOL    HW1 8285   0.669   5.321   0.881
 2462SOL    HW2 8286   0.816   5.382   0.918
 2463SOL     OW 8287   6.707   6.860   0.437
 2463SOL    HW1 8288   6.706   6.959   0.424
 2463SOL    HW2 8289   6.654   6.836   0.518
 2464SOL     OW 8290   0.731   2.470   4.332
 2464SOL    HW1 8291   0.821   2.488   4.371
 2464SOL    HW2 8292   0.664   2.532   4.372
 2465SOL     OW 8293   6.654   0.344   0.098
 2465SOL    HW1 8294   6.583   0.406   0.064
 2465SOL    HW2 8295   6.637   0.252   0.065
 2466SOL     OW 8296   0.581   2.230   1.739
 2466SOL    HW1 8297   0.566   2.213   1.642
 2466SOL    HW2 8298   0.658   2.175   1.771
 2467SOL     OW 8299   5.213   3.296   4.839
 2467SOL    HW1 8300   5.114   3.308   4.826
 2467SOL    HW2 8301   5.231   3.202   4.867
 2468SOL     OW 8302   3.474   0.130   5.255
 2468SOL    HW1 8303   3.397   0.099   5.200
 2468SOL    HW2 8304   3.460   0.100   5.350
 2469SOL     OW 8305   3.357   2.037   6.053
 2469SOL    HW1 8306   3.446   2.077   6.031
 2469SOL    HW2 8307   3.355   1.941   6.024
 2470SOL     OW 8308   2.413   5.644   6.849
 2470SOL    HW1 8309   2.389   5.726   6.902
 2470SOL    HW2 8310   2.415   5.565   6.910
 2471SOL     OW 8311   3.024   5.291   2.020
 2471SOL    HW1 8312   3.123   5.283   2.008
 2471SOL    HW2 8313   2.978   5.247   1.943
 2472SOL     OW 8314   4.857   1.400   3.338
 2472SOL    HW1 8315   4.789   1.406   3.265
 2472SOL    HW2 8316   4.871   1.304   3.362
 2473SOL     OW 8317   0.520   3.863   3.755
 2473SOL    HW1 8318   0.568   3.840   3.670
 2473SOL    HW2 8319   0.422   3.855   3.740
 2474SOL     OW 8320   1.139   6.558   1.584
 2474SOL    HW1 8321   1.207   6.529   1.652
 2474SOL    HW2 8322   1.160   6.651   1.554
 2475SOL     OW 8323   5.040   1.229   0.356
 2475SOL    HW1 8324   4.964   1.164   0.348
 2475SOL    HW2 8325   5.052   1.254   0.452
 2476SOL     OW 8326   4.083   0.174   0.938
 2476SOL    HW1 8327   4.151   0.244   0.960
 2476SOL    HW2 8328   3.991   0.211   0.948
 2477SOL     OW 8329   3.839   0.140   3.725
 2477SOL    HW1 8330   3.861   0.107   3.633
 2477SOL    HW2 8331   3.861   0.237   3.732
 2478SOL     OW 8332   4.227   0.047   5.071
 2478SOL    HW1 8333   4.226   0.134   5.119
 2478SOL    HW2 8334   4.289   7.004   5.117
 2479SOL     OW 8335   5.658   3.422   0.957
 2479SOL    HW1 8336   5.723   3.487   0.998
 2479SOL    HW2 8337   5.609   3.467   0.882
 2480SOL     OW 8338   3.735   2.387   1.447
 2480SOL    HW1 8339   3.753   2.482   1.423
 2480SOL    HW2 8340   3.789   2.327   1.387
 2481SOL     OW 8341   3.382   6.734   2.454
 2481SOL    HW1 8342   3.385   6.807   2.523
 2481SOL    HW2 8343   3.474   6.721   2.416
 2482SOL     OW 8344   6.220   3.340   0.710
 2482SOL    HW1 8345   6.171   3.311   0.628
 2482SOL    HW2 8346   6.298   3.280   0.726
 2483SOL     OW 8347   1.983   2.488   0.720
 2483SOL    HW1 8348   1.937   2.525   0.639
 2483SOL    HW2 8349   1.948   2.396   0.739
 2484SOL     OW 8350   4.215   0.570   0.013
 2484SOL    HW1 8351   4.282   0.552   0.085
 2484SOL    HW2 8352   4.258   0.557   6.944
 2485SOL     OW 8353   0.477   2.406   6.156
 2485SOL    HW1 8354   0.407   2.355   6.206
 2485SOL    HW2 8355   0.563   2.353   6.156
 2486SOL     OW 8356   6.899   5.347   3.594
 2486SOL    HW1 8357   6.879   5.322   3.689
 2486SOL    HW2 8358   6.881   5.269   3.534
 2487SOL     OW 8359   4.202   6.089   6.896
 2487SOL    HW1 8360   4.147   6.035   6.960
 2487SOL    HW2 8361   4.230   6.174   6.941
 2488SOL     OW 8362   6.805   4.131   0.701
 2488SOL    HW1 8363   6.724   4.184   0.730
 2488SOL    HW2 8364   6.877   4.194   0.674
 2489SOL     OW 8365   6.264   5.256   4.096
 2489SOL    HW1 8366   6.290   5.307   4.178
 2489SOL    HW2 8367   6.344   5.205   4.061
 2490SOL     OW 8368   2.620   5.738   3.381
 2490SOL    HW1 8369   2.604   5.771   3.474
 2490SOL    HW2 8370   2.718   5.748   3.359
 2491SOL     OW 8371   3.830   4.605   1.445
 2491SOL    HW1 8372   3.787   4.518   1.468
 2491SOL    HW2 8373   3.923   4.588   1.411
 2492SOL     OW 8374   6.478   4.986   1.138
 2492SOL    HW1 8375   6.560   4.930   1.130
 2492SOL    HW2 8376   6.452   4.995   1.234
 2493SOL     OW 8377   5.384   6.687   1.054
 2493SOL    HW1 8378   5.393   6.606   0.996
 2493SOL    HW2 8379   5.475   6.716   1.084
 2494SOL     OW 8380   6.878   3.193   1.205
 2494SOL    HW1 8381   6.919   3.160   1.290
 2494SOL    HW2 8382   6.858   3.115   1.145
 2495SOL     OW 8383   0.465   4.097   1.763
 2495SOL    HW1 8384   0.562   4.120   1.764
 2495SOL    HW2 8385   0.421   4.135   1.844
 2496SOL     OW 8386   5.721   4.704   6.595
 2496SOL    HW1 8387   5.785   4.756   6.539
 2496SOL    HW2 8388   5.749   4.708   6.691
 2497SOL     OW 8389   0.265   0.120   2.092
 2497SOL    HW1 8390   0.356   0.151   2.120
 2497SOL    HW2 8391   0.207   0.112   2.173
 2498SOL     OW 8392   1.712   3.419   4.973
 2498SOL    HW1 8393   1.803   3.414   4.932
 2498SOL    HW2 8394   1.657   3.488   4.926
 2499SOL     OW 8395   0.024   3.563   1.815
 2499SOL    HW1 8396   0.083   3.641   1.838
 2499SOL    HW2 8397   6.950   3.583   1.839
 2500SOL     OW 8398   3.829   3.188   1.541
 2500SOL    HW1 8399   3.772   3.175   1.622
 2500SOL    HW2 8400   3.894   3.262   1.557
 2501SOL     OW 8401   6.537   5.701   6.307
 2501SOL    HW1 8402   6.484   5.769   6.358
 2501SOL    HW2 8403   6.598   5.748   6.243
 2502SOL     OW 8404   2.343   6.331   4.560
 2502SOL    HW1 8405   2.398   6.262   4.606
 2502SOL    HW2 8406   2.392   6.365   4.480
 2503SOL     OW 8407   2.853   6.739   5.887
 2503SOL    HW1 8408   2.906   6.777   5.963
 2503SOL    HW2 8409   2.898   6.760   5.801
 2504SOL     OW 8410   3.995   6.752   3.655
 2504SOL    HW1 8411   4.048   6.776   3.574
 2504SOL    HW2 8412   3.898   6.743   3.630
 2505SOL     OW 8413   0.112   4.152   4.168
 2505SOL    HW1 8414   0.027   4.100   4.165
 2505SOL    HW2 8415   0.170   4.124   4.091
 2506SOL     OW 8416   5.696   5.239   6.071
 2506SOL    HW1 8417   5.706   5.332   6.107
 2506SOL    HW2 8418   5.599   5.221   6.055
 2507SOL     OW 8419   6.854   2.909   1.925
 2507SOL    HW1 8420   6.794   2.905   2.004
 2507SOL    HW2 8421   6.850   2.822   1.875
 2508SOL     OW 8422   5.487   1.354   4.508
 2508SOL    HW1 8423   5.451   1.431   4.561
 2508SOL    HW2 8424   5.577   1.378   4.472
 2509SOL     OW 8425   0.187   3.187   6.015
 2509SOL    HW1 8426   0.238   3.268   5.984
 2509SOL    HW2 8427   0.187   3.185   6.115
 2510SOL     OW 8428   3.217   3.897   2.403
 2510SOL    HW1 8429   3.208   3.798   2.405
 2510SOL    HW2 8430   3.169   3.937   2.482
 2511SOL     OW 8431   2.139   0.501   4.470
 2511SOL    HW1 8432   2.227   0.545   4.487
 2511SOL    HW2 8433   2.104   0.530   4.381
 2512SOL     OW 8434   4.224   4.740   4.234
 2512SOL    HW1 8435   4.293   4.812   4.245
 2512SOL    HW2 8436   4.133   4.781   4.228
 2513SOL     OW 8437   2.206   5.201   6.216
 2513SOL    HW1 8438   2.191   5.299   6.202
 2513SOL    HW2 8439   2.213   5.181   6.314
 2514SOL     OW 8440   1.405   1.910   2.843
 2514SOL    HW1 8441   1.352   1.838   2.887
 2514SOL    HW2 8442   1.344   1.981   2.809
 2515SOL     OW 8443   0.773   1.680   1.498
 2515SOL    HW1 8444   0.790   1.773   1.465
 2515SOL    HW2 8445   0.859   1.638   1.525
 2516SOL     OW 8446   5.579   2.005   4.818
 2516SOL    HW1 8447   5.611   1.930   4.876
 2516SOL    HW2 8448   5.548   2.081   4.876
 2517SOL     OW 8449   1.437   0.998   4.016
 2517SOL    HW1 8450   1.470   0.990   3.922
 2517SOL    HW2 8451   1.480   0.927   4.072
 2518SOL     OW 8452   2.333   4.747   1.637
 2518SOL    HW1 8453   2.271   4.767   1.713
 2518SOL    HW2 8454   2.284   4.758   1.550
 2519SOL     OW 8455   1.111   1.385   0.626
 2519SOL    HW1 8456   1.022   1.340   0.618
 2519SOL    HW2 8457   1.184   1.316   0.621
 2520SOL     OW 8458   2.390   2.258   0.394
 2520SOL    HW1 8459   2.307   2.240   0.447
 2520SOL    HW2 8460   2.456   2.306   0.451
 2521SOL     OW 8461   5.062   0.832   5.379
 2521SOL    HW1 8462   5.059   0.735   5.402
 2521SOL    HW2 8463   5.076   0.843   5.280
 2522SOL     OW 8464   1.268   2.066   6.847
 2522SOL    HW1 8465   1.350   2.107   6.888
 2522SOL    HW2 8466   1.187   2.116   6.876
 2523SOL     OW 8467   1.462   5.419   6.668
 2523SOL    HW1 8468   1.482   5.483   6.593
 2523SOL    HW2 8469   1.502   5.330   6.646
 2524SOL     OW 8470   1.505   0.433   4.474
 2524SOL    HW1 8471   1.567   0.459   4.548
 2524SOL    HW2 8472   1.496   0.333   4.471
 2525SOL     OW 8473   6.457   2.583   5.475
 2525SOL    HW1 8474   6.470   2.548   5.382
 2525SOL    HW2 8475   6.536   2.637   5.503
 2526SOL     OW 8476   1.669   6.964   1.256
 2526SOL    HW1 8477   1.689   6.866   1.265
 2526SOL    HW2 8478   1.570   6.978   1.260
 2527SOL     OW 8479   4.453   5.021   6.080
 2527SOL    HW1 8480   4.401   5.029   6.165
 2527SOL    HW2 8481   4.551   5.028   6.100
 2528SOL     OW 8482   4.979   5.956   6.492
 2528SOL    HW1 8483   4.889   5.986   6.460
 2528SOL    HW2 8484   4.987   5.975   6.590
 2529SOL     OW 8485   0.472   6.543   6.461
 2529SOL    HW1 8486   0.532   6.490   6.520
 2529SOL    HW2 8487   0.523   6.575   6.381
 2530SOL     OW 8488   2.418   5.703   6.563
 2530SOL    HW1 8489   2.475   5.655   6.497
 2530SOL    HW2 8490   2.450   5.683   6.655
 2531SOL     OW 8491   6.796   5.566   6.531
 2531SOL    HW1 8492   6.766   5.539   6.440
 2531SOL    HW2 8493   6.896   5.576   6.532
 2532SOL     OW 8494   5.357   6.397   1.394
 2532SOL    HW1 8495   5.300   6.475   1.370
 2532SOL    HW2 8496   5.303   6.331   1.446
 2533SOL     OW 8497   4.709   0.645   4.237
 2533SOL    HW1 8498   4.784   0.579   4.243
 2533SOL    HW2 8499   4.622   0.596   4.233
 2534SOL     OW 8500   3.919   1.412   2.708
 2534SOL    HW1 8501   3.958   1.490   2.756
 2534SOL    HW2 8502   3.912   1.433   2.610
 2535SOL     OW 8503   4.067   2.785   6.368
 2535SOL    HW1 8504   4.133   2.849   6.408
 2535SOL    HW2 8505   4.053   2.709   6.431
 2536SOL     OW 8506   1.332   0.951   0.805
 2536SOL    HW1 8507   1.243   0.958   0.850
 2536SOL    HW2 8508   1.397   1.013   0.849
 2537SOL     OW 8509   3.982   0.003   6.096
 2537SOL    HW1 8510   4.019   0.039   6.010
 2537SOL    HW2 8511   4.045   6.958   6.135
 2538SOL     OW 8512   6.346   3.123   3.350
 2538SOL    HW1 8513   6.395   3.174   3.421
 2538SOL    HW2 8514   6.411   3.089   3.282
 2539SOL     OW 8515   5.211   2.658   5.282
 2539SOL    HW1 8516   5.287   2.720   5.300
 2539SOL    HW2 8517   5.125   2.700   5.314
 2540SOL     OW 8518   2.584   1.742   1.606
 2540SOL    HW1 8519   2.678   1.714   1.586
 2540SOL    HW2 8520   2.564   1.829   1.559
 2541SOL     OW 8521   3.775   6.833   4.739
 2541SOL    HW1 8522   3.840   6.832   4.815
 2541SOL    HW2 8523   3.822   6.863   4.656
 2542SOL     OW 8524   1.904   5.425   6.483
 2542SOL    HW1 8525   1.995   5.464   6.471
 2542SOL    HW2 8526   1.876   5.436   6.579
 2543SOL     OW 8527   1.239   0.997   3.775
 2543SOL    HW1 8528   1.300   0.989   3.696
 2543SOL    HW2 8529   1.173   0.922   3.773
 2544SOL     OW 8530   0.962   5.484   0.090
 2544SOL    HW1 8531   1.004   5.574   0.099
 2544SOL    HW2 8532   0.900   5.467   0.167
 2545SOL     OW 8533   3.007   5.548   3.350
 2545SOL    HW1 8534   3.053   5.539   3.438
 2545SOL    HW2 8535   3.068   5.517   3.277
 2546SOL     OW 8536   6.467   1.437   1.127
 2546SOL    HW1 8537   6.432   1.529   1.147
 2546SOL    HW2 8538   6.523   1.406   1.203
 2547SOL     OW 8539   0.703   3.583   5.076
 2547SOL    HW1 8540   0.800   3.586   5.098
 2547SOL    HW2 8541   0.691   3.589   4.976
 2548SOL     OW 8542   0.916   0.121   4.714
 2548SOL    HW1 8543   0.834   0.105   4.659
 2548SOL    HW2 8544   0.894   0.108   4.811
 2549SOL     OW 8545   6.557   2.609   1.688
 2549SOL    HW1 8546   6.567   2.679   1.617
 2549SOL    HW2 8547   6.635   2.547   1.684
 2550SOL     OW 8548   6.043   5.714   0.182
 2550SOL    HW1 8549   6.042   5.734   0.084
 2550SOL    HW2 8550   5.953   5.735   0.221
 2551SOL     OW 8551   1.352   4.201   6.540
 2551SOL    HW1 8552   1.330   4.279   6.482
 2551SOL    HW2 8553   1.417   4.230   6.611
 2552SOL     OW 8554   1.848   5.407   3.173
 2552SOL    HW1 8555   1.894   5.390   3.086
 2552SOL    HW2 8556   1.880   5.493   3.212
 2553SOL     OW 8557   4.250   3.782   6.800
 2553SOL    HW1 8558   4.158   3.803   6.768
 2553SOL    HW2 8559   4.306   3.751   6.723
 2554SOL     OW 8560   2.222   1.542   0.335
 2554SOL    HW1 8561   2.209   1.498   0.247
 2554SOL    HW2 8562   2.249   1.473   0.403
 2555SOL     OW 8563   6.250   0.804   6.938
 2555SOL    HW1 8564   6.286   0.889   6.975
 2555SOL    HW2 8565   6.291   0.786   6.848
 2556SOL     OW 8566   3.227   5.388   0.957
 2556SOL    HW1 8567   3.161   5.461   0.977
 2556SOL    HW2 8568   3.203   5.306   1.008
 2557SOL     OW 8569   1.903   4.260   6.667
 2557SOL    HW1 8570   1.939   4.173   6.633
 2557SOL    HW2 8571   1.852   4.305   6.594
 2558SOL     OW 8572   3.867   0.423   5.887
 2558SOL    HW1 8573   3.956   0.379   5.876
 2558SOL    HW2 8574   3.834   0.457   5.799
 2559SOL     OW 8575   0.335   5.363   4.994
 2559SOL    HW1 8576   0.289   5.339   4.908
 2559SOL    HW2 8577   0.309   5.456   5.021
 2560SOL     OW 8578   6.323   1.286   6.814
 2560SOL    HW1 8579   6.356   1.201   6.774
 2560SOL    HW2 8580   6.244   1.319   6.762
 2561SOL     OW 8581   3.190   5.299   4.932
 2561SOL    HW1 8582   3.247   5.290   4.850
 2561SOL    HW2 8583   3.224   5.237   5.003
 2562SOL     OW 8584   2.611   3.882   6.595
 2562SOL    HW1 8585   2.669   3.806   6.566
 2562SOL    HW2 8586   2.668   3.963   6.610
 2563SOL     OW 8587   1.782   1.158   0.578
 2563SOL    HW1 8588   1.854   1.175   0.510
 2563SOL    HW2 8589   1.714   1.096   0.539
 2564SOL     OW 8590   1.650   6.588   1.739
 2564SOL    HW1 8591   1.663   6.570   1.837
 2564SOL    HW2 8592   1.554   6.572   1.715
 2565SOL     OW 8593   1.219   0.872   1.646
 2565SOL    HW1 8594   1.130   0.893   1.606
 2565SOL    HW2 8595   1.207   0.846   1.742
 2566SOL     OW 8596   1.833   6.752   6.154
 2566SOL    HW1 8597   1.884   6.700   6.086
 2566SOL    HW2 8598   1.849   6.713   6.245
 2567SOL     OW 8599   0.882   0.273   0.572
 2567SOL    HW1 8600   0.804   0.329   0.543
 2567SOL    HW2 8601   0.929   0.238   0.491
 2568SOL     OW 8602   5.315   3.797   7.007
 2568SOL    HW1 8603   5.408   3.800   0.022
 2568SOL    HW2 8604   5.253   3.766   0.058
 2569SOL     OW 8605   2.869   0.849   2.866
 2569SOL    HW1 8606   2.860   0.924   2.801
 2569SOL    HW2 8607   2.873   0.885   2.959
 2570SOL     OW 8608   5.217   2.431   6.111
 2570SOL    HW1 8609   5.175   2.478   6.034
 2570SOL    HW2 8610   5.146   2.400   6.173
 2571SOL     OW 8611   0.998   3.618   4.784
 2571SOL    HW1 8612   1.041   3.535   4.748
 2571SOL    HW2 8613   0.915   3.638   4.732
 2572SOL     OW 8614   1.190   4.808   3.912
 2572SOL    HW1 8615   1.219   4.847   3.825
 2572SOL    HW2 8616   1.265   4.816   3.979
 2573SOL     OW 8617   1.217   0.200   0.690
 2573SOL    HW1 8618   1.176   0.279   0.736
 2573SOL    HW2 8619   1.209   0.119   0.748
 2574SOL     OW 8620   5.863   3.592   0.694
 2574SOL    HW1 8621   5.872   3.492   0.695
 2574SOL    HW2 8622   5.783   3.618   0.641
 2575SOL     OW 8623   0.642   5.862   5.999
 2575SOL    HW1 8624   0.591   5.903   6.075
 2575SOL    HW2 8625   0.740   5.868   6.018
 2576SOL     OW 8626   4.246   5.466   4.180
 2576SOL    HW1 8627   4.238   5.367   4.189
 2576SOL    HW2 8628   4.154   5.507   4.178
 2577SOL     OW 8629   2.363   4.579   2.123
 2577SOL    HW1 8630   2.432   4.543   2.060
 2577SOL    HW2 8631   2.350   4.515   2.199
 2578SOL     OW 8632   4.104   2.151   2.731
 2578SOL    HW1 8633   4.140   2.222   2.792
 2578SOL    HW2 8634   4.004   2.154   2.731
 2579SOL     OW 8635   1.144   6.236   3.189
 2579SOL    HW1 8636   1.108   6.325   3.163
 2579SOL    HW2 8637   1.210   6.247   3.264
 2580SOL     OW 8638   2.005   1.908   5.781
 2580SOL    HW1 8639   1.998   1.839   5.853
 2580SOL    HW2 8640   1.913   1.933   5.751
 2581SOL     OW 8641   3.403   0.575   5.440
 2581SOL    HW1 8642   3.312   0.597   5.405
 2581SOL    HW2 8643   3.459   0.658   5.444
 2582SOL     OW 8644   6.674   3.190   1.713
 2582SOL    HW1 8645   6.603   3.228   1.773
 2582SOL    HW2 8646   6.762   3.229   1.738
 2583SOL     OW 8647   6.081   0.268   0.825
 2583SOL    HW1 8648   6.146   0.216   0.880
 2583SOL    HW2 8649   6.073   0.360   0.862
 2584SOL     OW 8650   3.748   4.330   6.141
 2584SOL    HW1 8651   3.834   4.354   6.095
 2584SOL    HW2 8652   3.769   4.276   6.223
 2585SOL     OW 8653   2.953   4.692   6.338
 2585SOL    HW1 8654   3.046   4.697   6.303
 2585SOL    HW2 8655   2.939   4.605   6.385
 2586SOL     OW 8656   2.841   0.825   3.798
 2586SOL    HW1 8657   2.834   0.728   3.822
 2586SOL    HW2 8658   2.751   0.868   3.807
 2587SOL     OW 8659   6.710   0.647   4.069
 2587SOL    HW1 8660   6.757   0.633   4.156
 2587SOL    HW2 8661   6.727   0.569   4.008
 2588SOL     OW 8662   4.486   0.799   6.602
 2588SOL    HW1 8663   4.461   0.819   6.507
 2588SOL    HW2 8664   4.555   0.865   6.633
 2589SOL     OW 8665   2.102   6.717   0.518
 2589SOL    HW1 8666   2.108   6.662   0.434
 2589SOL    HW2 8667   2.188   6.709   0.569
 2590SOL     OW 8668   2.754   5.914   0.336
 2590SOL    HW1 8669   2.686   5.928   0.408
 2590SOL    HW2 8670   2.735   5.827   0.289
 2591SOL     OW 8671   6.135   5.374   3.477
 2591SOL    HW1 8672   6.094   5.422   3.400
 2591SOL    HW2 8673   6.143   5.436   3.555
 2592SOL     OW 8674   2.835   4.000   0.884
 2592SOL    HW1 8675   2.913   4.030   0.939
 2592SOL    HW2 8676   2.831   3.900   0.883
 2593SOL     OW 8677   3.535   4.286   0.944
 2593SOL    HW1 8678   3.482   4.221   0.998
 2593SOL    HW2 8679   3.632   4.275   0.965
 2594SOL     OW 8680   2.124   3.120   4.429
 2594SOL    HW1 8681   2.142   3.077   4.518
 2594SOL    HW2 8682   2.140   3.054   4.356
 2595SOL     OW 8683   2.372   1.350   2.868
 2595SOL    HW1 8684   2.424   1.303   2.940
 2595SOL    HW2 8685   2.394   1.447   2.869
 2596SOL     OW 8686   1.354   1.675   0.099
 2596SOL    HW1 8687   1.435   1.669   0.041
 2596SOL    HW2 8688   1.352   1.764   0.144
 2597SOL     OW 8689   6.714   6.301   0.326
 2597SOL    HW1 8690   6.652   6.234   0.285
 2597SOL    HW2 8691   6.671   6.391   0.325
 2598SOL     OW 8692   5.871   2.492   2.625
 2598SOL    HW1 8693   5.797   2.523   2.685
 2598SOL    HW2 8694   5.840   2.492   2.530
 2599SOL     OW 8695   3.214   5.866   2.206
 2599SOL    HW1 8696   3.200   5.771   2.179
 2599SOL    HW2 8697   3.268   5.913   2.136
 2600SOL     OW 8698   5.825   3.592   4.354
 2600SOL    HW1 8699   5.892   3.574   4.283
 2600SOL    HW2 8700   5.799   3.505   4.397
 2601SOL     OW 8701   6.627   1.330   3.800
 2601SOL    HW1 8702   6.599   1.277   3.721
 2601SOL    HW2 8703   6.679   1.411   3.770
 2602SOL     OW 8704   0.871   4.441   2.776
 2602SOL    HW1 8705   0.883   4.384   2.695
 2602SOL    HW2 8706   0.866   4.537   2.750
 2603SOL     OW 8707   2.442   6.260   2.608
 2603SOL    HW1 8708   2.362   6.321   2.611
 2603SOL    HW2 8709   2.432   6.189   2.677
 2604SOL     OW 8710   4.555   2.571   3.275
 2604SOL    HW1 8711   4.565   2.599   3.370
 2604SOL    HW2 8712   4.463   2.534   3.261
 2605SOL     OW 8713   1.854   3.663   1.968
 2605SOL    HW1 8714   1.905   3.605   2.031
 2605SOL    HW2 8715   1.917   3.728   1.924
 2606SOL     OW 8716   4.801   3.818   1.374
 2606SOL    HW1 8717   4.705   3.801   1.349
 2606SOL    HW2 8718   4.842   3.882   1.310
 2607SOL     OW 8719   2.599   2.326   1.174
 2607SOL    HW1 8720   2.697   2.309   1.177
 2607SOL    HW2 8721   2.574   2.365   1.086
 2608SOL     OW 8722   2.723   4.945   5.833
 2608SOL    HW1 8723   2.674   5.031   5.815
 2608SOL    HW2 8724   2.664   4.885   5.888
 2609SOL     OW 8725   0.588   2.263   0.626
 2609SOL    HW1 8726   0.627   2.199   0.559
 2609SOL    HW2 8727   0.571   2.215   0.712
 2610SOL     OW 8728   1.610   3.994   4.970
 2610SOL    HW1 8729   1.573   3.941   4.894
 2610SOL    HW2 8730   1.709   4.005   4.958
 2611SOL     OW 8731   4.984   0.231   6.336
 2611SOL    HW1 8732   5.046   0.294   6.382
 2611SOL    HW2 8733   5.037   0.157   6.293
 2612SOL     OW 8734   6.754   0.043   6.617
 2612SOL    HW1 8735   6.751   0.142   6.602
 2612SOL    HW2 8736   6.676   7.020   6.572
 2613SOL     OW 8737   1.014   6.480   6.636
 2613SOL    HW1 8738   1.037   6.575   6.619
 2613SOL    HW2 8739   0.983   6.469   6.731
 2614SOL     OW 8740   6.139   1.946   0.001
 2614SOL    HW1 8741   6.062   2.005   0.027
 2614SOL    HW2 8742   6.130   1.922   6.925
 2615SOL     OW 8743   0.462   3.323   6.686
 2615SOL    HW1 8744   0.472   3.280   6.596
 2615SOL    HW2 8745   0.369   3.359   6.696
 2616SOL     OW 8746   1.395   1.173   5.000
 2616SOL    HW1 8747   1.472   1.203   5.056
 2616SOL    HW2 8748   1.408   1.077   4.975
 2617SOL     OW 8749   4.667   0.388   1.683
 2617SOL    HW1 8750   4.744   0.325   1.676
 2617SOL    HW2 8751   4.655   0.436   1.596
 2618SOL     OW 8752   1.522   6.812   6.317
 2618SOL    HW1 8753   1.451   6.879   6.296
 2618SOL    HW2 8754   1.603   6.858   6.353
 2619SOL     OW 8755   4.789   0.917   2.766
 2619SOL    HW1 8756   4.872   0.972   2.758
 2619SOL    HW2 8757   4.808   0.824   2.733
 2620SOL     OW 8758   6.103   1.806   1.688
 2620SOL    HW1 8759   6.099   1.713   1.724
 2620SOL    HW2 8760   6.039   1.864   1.738
 2621SOL     OW 8761   1.638   6.015   1.593
 2621SOL    HW1 8762   1.579   6.062   1.527
 2621SOL    HW2 8763   1.678   5.934   1.551
 2622SOL     OW 8764   2.858   3.748   6.779
 2622SOL    HW1 8765   2.941   3.791   6.744
 2622SOL    HW2 8766   2.863   3.742   6.879
 2623SOL     OW 8767   0.075   6.132   3.745
 2623SOL    HW1 8768   0.030   6.117   3.657
 2623SOL    HW2 8769   0.147   6.201   3.734
 2624SOL     OW 8770   0.935   1.374   5.190
 2624SOL    HW1 8771   1.029   1.375   5.222
 2624SOL    HW2 8772   0.892   1.462   5.210
 2625SOL     OW 8773   2.702   5.064   6.530
 2625SOL    HW1 8774   2.701   5.029   6.624
 2625SOL    HW2 8775   2.610   5.057   6.490
 2626SOL     OW 8776   6.739   6.476   6.761
 2626SOL    HW1 8777   6.825   6.431   6.785
 2626SOL    HW2 8778   6.735   6.566   6.804
 2627SOL     OW 8779   2.171   0.229   5.928
 2627SOL    HW1 8780   2.219   0.230   5.840
 2627SOL    HW2 8781   2.232   0.192   5.998
 2628SOL     OW 8782   0.165   4.407   1.555
 2628SOL    HW1 8783   0.116   4.321   1.568
 2628SOL    HW2 8784   0.236   4.396   1.486
 2629SOL     OW 8785   3.418   4.105   2.418
 2629SOL    HW1 8786   3.348   4.111   2.346
 2629SOL    HW2 8787   3.438   4.008   2.436
 2630SOL     OW 8788   3.871   0.642   4.431
 2630SOL    HW1 8789   3.933   0.679   4.362
 2630SOL    HW2 8790   3.919   0.573   4.485
 2631SOL     OW 8791   5.838   6.970   0.219
 2631SOL    HW1 8792   5.906   6.897   0.228
 2631SOL    HW2 8793   5.746   6.930   0.220
 2632SOL     OW 8794   5.987   5.208   2.026
 2632SOL    HW1 8795   5.888   5.200   2.037
 2632SOL    HW2 8796   6.022   5.278   2.088
 2633SOL     OW 8797   0.341   3.407   6.012
 2633SOL    HW1 8798   0.371   3.432   5.920
 2633SOL    HW2 8799   0.350   3.487   6.073
 2634SOL     OW 8800   0.824   1.423   5.583
 2634SOL    HW1 8801   0.871   1.509   5.602
 2634SOL    HW2 8802   0.757   1.405   5.655
 2635SOL     OW 8803   4.483   4.978   3.515
 2635SOL    HW1 8804   4.440   4.961   3.604
 2635SOL    HW2 8805   4.554   5.048   3.526
 2636SOL     OW 8806   3.456   6.688   6.192
 2636SOL    HW1 8807   3.474   6.684   6.290
 2636SOL    HW2 8808   3.357   6.691   6.176
 2637SOL     OW 8809   0.596   0.491   3.019
 2637SOL    HW1 8810   0.604   0.576   2.965
 2637SOL    HW2 8811   0.627   0.414   2.964
 2638SOL     OW 8812   0.773   6.632   4.088
 2638SOL    HW1 8813   0.783   6.689   4.169
 2638SOL    HW2 8814   0.838   6.663   4.018
 2639SOL     OW 8815   4.462   4.729   4.647
 2639SOL    HW1 8816   4.471   4.827   4.668
 2639SOL    HW2 8817   4.372   4.697   4.674
 2640SOL     OW 8818   2.376   0.700   3.869
 2640SOL    HW1 8819   2.352   0.727   3.962
 2640SOL    HW2 8820   2.328   0.615   3.846
 2641SOL     OW 8821   5.297   2.062   0.046
 2641SOL    HW1 8822   5.213   2.033   0.093
 2641SOL    HW2 8823   5.371   2.070   0.112
 2642SOL     OW 8824   6.763   0.185   2.701
 2642SOL    HW1 8825   6.799   0.274   2.674
 2642SOL    HW2 8826   6.665   0.192   2.719
 2643SOL     OW 8827   1.607   4.561   4.453
 2643SOL    HW1 8828   1.558   4.555   4.541
 2643SOL    HW2 8829   1.703   4.583   4.470
 2644SOL     OW 8830   5.444   5.591   4.843
 2644SOL    HW1 8831   5.461   5.684   4.811
 2644SOL    HW2 8832   5.493   5.526   4.784
 2645SOL     OW 8833   4.572   6.031   3.289
 2645SOL    HW1 8834   4.648   6.093   3.307
 2645SOL    HW2 8835   4.505   6.077   3.231
 2646SOL     OW 8836   0.861   2.487   6.356
 2646SOL    HW1 8837   0.837   2.492   6.259
 2646SOL    HW2 8838   0.886   2.578   6.390
 2647SOL     OW 8839   4.650   6.983   2.470
 2647SOL    HW1 8840   4.579   0.024   2.505
 2647SOL    HW2 8841   4.712   0.014   2.411
 2648SOL     OW 8842   0.884   6.794   6.216
 2648SOL    HW1 8843   0.889   6.836   6.307
 2648SOL    HW2 8844   0.835   6.855   6.154
 2649SOL     OW 8845   5.248   1.702   3.515
 2649SOL    HW1 8846   5.194   1.638   3.461
 2649SOL    HW2 8847   5.187   1.770   3.558
 2650SOL     OW 8848   2.793   6.857   3.531
 2650SOL    HW1 8849   2.751   6.934   3.580
 2650SOL    HW2 8850   2.738   6.834   3.451
 2651SOL     OW 8851   3.874   2.005   4.345
 2651SOL    HW1 8852   3.909   1.986   4.436
 2651SOL    HW2 8853   3.782   1.968   4.336
 2652SOL     OW 8854   5.375   3.947   5.613
 2652SOL    HW1 8855   5.474   3.942   5.627
 2652SOL    HW2 8856   5.356   3.988   5.524
 2653SOL     OW 8857   2.224   6.220   0.032
 2653SOL    HW1 8858   2.196   6.227   0.128
 2653SOL    HW2 8859   2.270   6.305   0.005
 2654SOL     OW 8860   0.229   0.956   0.836
 2654SOL    HW1 8861   0.321   0.953   0.874
 2654SOL    HW2 8862   0.191   1.047   0.847
 2655SOL     OW 8863   5.252   6.363   2.986
 2655SOL    HW1 8864   5.169   6.325   2.946
 2655SOL    HW2 8865   5.266   6.323   3.077
 2656SOL     OW 8866   4.669   5.764   3.997
 2656SOL    HW1 8867   4.625   5.764   3.907
 2656SOL    HW2 8868   4.753   5.817   3.992
 2657SOL     OW 8869   1.551   3.686   6.500
 2657SOL    HW1 8870   1.475   3.748   6.483
 2657SOL    HW2 8871   1.620   3.732   6.555
 2658SOL     OW 8872   3.868   5.308   0.173
 2658SOL    HW1 8873   3.816   5.388   0.140
 2658SOL    HW2 8874   3.928   5.336   0.248
 2659SOL     OW 8875   0.106   1.857   5.230
 2659SOL    HW1 8876   0.198   1.821   5.212
 2659SOL    HW2 8877   0.099   1.950   5.192
 2660SOL     OW 8878   0.622   1.225   0.924
 2660SOL    HW1 8879   0.607   1.257   1.017
 2660SOL    HW2 8880   0.635   1.303   0.863
 2661SOL     OW 8881   1.721   1.360   1.166
 2661SOL    HW1 8882   1.676   1.272   1.150
 2661SOL    HW2 8883   1.653   1.433   1.158
 2662SOL     OW 8884   2.779   1.930   2.059
 2662SOL    HW1 8885   2.834   1.862   2.011
 2662SOL    HW2 8886   2.706   1.884   2.109
 2663SOL     OW 8887   3.840   0.020   0.637
 2663SOL    HW1 8888   3.897   6.962   0.617
 2663SOL    HW2 8889   3.757   7.011   0.685
 2664SOL     OW 8890   4.858   3.736   5.387
 2664SOL    HW1 8891   4.919   3.778   5.454
 2664SOL    HW2 8892   4.807   3.662   5.430
 2665SOL     OW 8893   1.710   3.149   3.673
 2665SOL    HW1 8894   1.728   3.222   3.607
 2665SOL    HW2 8895   1.631   3.096   3.642
 2666SOL     OW 8896   2.153   4.188   1.560
 2666SOL    HW1 8897   2.193   4.102   1.528
 2666SOL    HW2 8898   2.187   4.263   1.504
 2667SOL     OW 8899   6.501   2.901   5.666
 2667SOL    HW1 8900   6.436   2.965   5.705
 2667SOL    HW2 8901   6.499   2.907   5.566
 2668SOL     OW 8902   6.323   0.383   3.107
 2668SOL    HW1 8903   6.417   0.417   3.094
 2668SOL    HW2 8904   6.286   0.420   3.192
 2669SOL     OW 8905   2.403   1.215   0.786
 2669SOL    HW1 8906   2.396   1.116   0.798
 2669SOL    HW2 8907   2.333   1.260   0.841
 2670SOL     OW 8908   0.197   0.017   6.845
 2670SOL    HW1 8909   0.276   6.982   6.871
 2670SOL    HW2 8910   0.187   0.018   6.746
 2671SOL     OW 8911   5.245   4.815   6.052
 2671SOL    HW1 8912   5.230   4.910   6.026
 2671SOL    HW2 8913   5.221   4.802   6.148
 2672SOL     OW 8914   2.943   0.968   2.017
 2672SOL    HW1 8915   3.026   0.942   1.967
 2672SOL    HW2 8916   2.889   0.886   2.036
 2673SOL     OW 8917   3.712   0.291   2.622
 2673SOL    HW1 8918   3.805   0.292   2.660
 2673SOL    HW2 8919   3.646   0.274   2.696
 2674SOL     OW 8920   6.938   5.922   3.121
 2674SOL    HW1 8921   6.906   5.850   3.183
 2674SOL    HW2 8922   6.965   5.881   3.034
 2675SOL     OW 8923   4.871   1.252   4.954
 2675SOL    HW1 8924   4.874   1.345   4.919
 2675SOL    HW2 8925   4.962   1.226   4.988
 2676SOL     OW 8926   3.596   4.138   3.974
 2676SOL    HW1 8927   3.665   4.066   3.981
 2676SOL    HW2 8928   3.528   4.126   4.047
 2677SOL     OW 8929   1.562   5.677   1.052
 2677SOL    HW1 8930   1.566   5.713   1.146
 2677SOL    HW2 8931   1.474   5.700   1.011
 2678SOL     OW 8932   3.465   1.663   2.660
 2678SOL    HW1 8933   3.528   1.661   2.737
 2678SOL    HW2 8934   3.385   1.719   2.684
 2679SOL     OW 8935   2.081   3.533   2.411
 2679SOL    HW1 8936   2.109   3.629   2.420
 2679SOL    HW2 8937   2.069   3.512   2.314
 2680SOL     OW 8938   5.489   2.882   0.011
 2680SOL    HW1 8939   5.474   2.905   0.107
 2680SOL    HW2 8940   5.586   2.896   7.010
 2681SOL     OW 8941   1.885   2.222   3.345
 2681SOL    HW1 8942   1.965   2.178   3.386
 2681SOL    HW2 8943   1.849   2.166   3.271
 2682SOL     OW 8944   3.590   3.738   1.853
 2682SOL    HW1 8945   3.558   3.666   1.791
 2682SOL    HW2 8946   3.629   3.695   1.935
 2683SOL     OW 8947   2.440   4.062   1.350
 2683SOL    HW1 8948   2.388   4.000   1.409
 2683SOL    HW2 8949   2.432   4.031   1.255
 2684SOL     OW 8950   6.375   0.310   3.719
 2684SOL    HW1 8951   6.359   0.383   3.653
 2684SOL    HW2 8952   6.342   0.338   3.809
 2685SOL     OW 8953   0.758   6.399   5.675
 2685SOL    HW1 8954   0.678   6.372   5.622
 2685SOL    HW2 8955   0.738   6.484   5.725
 2686SOL     OW 8956   1.550   0.817   5.613
 2686SOL    HW1 8957   1.606   0.736   5.595
 2686SOL    HW2 8958   1.609   0.896   5.628
 2687SOL     OW 8959   4.338   1.561   1.591
 2687SOL    HW1 8960   4.270   1.605   1.533
 2687SOL    HW2 8961   4.317   1.464   1.600
 2688SOL     OW 8962   4.195   2.788   0.151
 2688SOL    HW1 8963   4.164   2.790   0.056
 2688SOL    HW2 8964   4.119   2.813   0.211
 2689SOL     OW 8965   0.892   3.657   2.967
 2689SOL    HW1 8966   0.898   3.643   3.065
 2689SOL    HW2 8967   0.837   3.583   2.926
 2690SOL     OW 8968   5.163   1.212   5.374
 2690SOL    HW1 8969   5.095   1.274   5.335
 2690SOL    HW2 8970   5.125   1.167   5.454
 2691SOL     OW 8971   0.286   3.893   5.079
 2691SOL    HW1 8972   0.341   3.937   5.150
 2691SOL    HW2 8973   0.330   3.807   5.052
 2692SOL     OW 8974   2.486   5.586   1.976
 2692SOL    HW1 8975   2.467   5.525   1.900
 2692SOL    HW2 8976   2.535   5.667   1.944
 2693SOL     OW 8977   0.969   5.368   3.167
 2693SOL    HW1 8978   0.990   5.379   3.264
 2693SOL    HW2 8979   0.870   5.374   3.153
 2694SOL     OW 8980   2.599   0.425   2.288
 2694SOL    HW1 8981   2.632   0.476   2.367
 2694SOL    HW2 8982   2.558   0.487   2.222
 2695SOL     OW 8983   6.872   4.882   3.759
 2695SOL    HW1 8984   6.924   4.804   3.793
 2695SOL    HW2 8985   6.919   4.921   3.679
 2696SOL     OW 8986   4.313   4.754   6.445
 2696SOL    HW1 8987   4.308   4.780   6.541
 2696SOL    HW2 8988   4.232   4.702   6.420
 2697SOL     OW 8989   4.130   1.783   0.521
 2697SOL    HW1 8990   4.114   1.882   0.521
 2697SOL    HW2 8991   4.043   1.735   0.504
 2698SOL     OW 8992   1.293   5.479   5.920
 2698SOL    HW1 8993   1.373   5.428   5.951
 2698SOL    HW2 8994   1.238   5.507   5.998
 2699SOL     OW 8995   2.781   6.617   2.176
 2699SOL    HW1 8996   2.733   6.593   2.091
 2699SOL    HW2 8997   2.732   6.691   2.222
 2700SOL     OW 8998   4.205   1.996   1.572
 2700SOL    HW1 8999   4.159   1.930   1.631
 2700SOL    HW2 9000   4.142   2.071   1.550
 2701SOL     OW 9001   4.971   3.878   4.967
 2701SOL    HW1 9002   4.889   3.934   4.955
 2701SOL    HW2 9003   5.041   3.932   5.015
 2702SOL     OW 9004   2.521   1.251   4.840
 2702SOL    HW1 9005   2.476   1.339   4.857
 2702SOL    HW2 9006   2.585   1.260   4.764
 2703SOL     OW 9007   2.460   6.579   2.874
 2703SOL    HW1 9008   2.479   6.632   2.957
 2703SOL    HW2 9009   2.533   6.595   2.807
 2704SOL     OW 9010   4.674   0.408   3.883
 2704SOL    HW1 9011   4.758   0.457   3.860
 2704SOL    HW2 9012   4.680   0.374   3.977
 2705SOL     OW 9013   1.183   0.608   4.977
 2705SOL    HW1 9014   1.135   0.693   4.997
 2705SOL    HW2 9015   1.262   0.628   4.919
 2706SOL     OW 9016   6.825   4.576   3.983
 2706SOL    HW1 9017   6.858   4.548   4.073
 2706SOL    HW2 9018   6.732   4.611   3.991
 2707SOL     OW 9019   4.136   1.105   3.642
 2707SOL    HW1 9020   4.120   1.191   3.593
 2707SOL    HW2 9021   4.226   1.107   3.685
 2708SOL     OW 9022   5.434   3.419   5.928
 2708SOL    HW1 9023   5.432   3.320   5.942
 2708SOL    HW2 9024   5.371   3.444   5.855
 2709SOL     OW 9025   4.649   1.777   5.637
 2709SOL    HW1 9026   4.745   1.779   5.611
 2709SOL    HW2 9027   4.614   1.870   5.644
 2710SOL     OW 9028   1.049   2.690   4.152
 2710SOL    HW1 9029   1.032   2.622   4.080
 2710SOL    HW2 9030   1.126   2.659   4.208
 2711SOL     OW 9031   3.639   1.103   2.208
 2711SOL    HW1 9032   3.597   1.092   2.298
 2711SOL    HW2 9033   3.594   1.042   2.142
 2712SOL     OW 9034   5.544   5.798   2.209
 2712SOL    HW1 9035   5.535   5.737   2.288
 2712SOL    HW2 9036   5.491   5.881   2.224
 2713SOL     OW 9037   3.848   4.981   5.502
 2713SOL    HW1 9038   3.941   4.945   5.507
 2713SOL    HW2 9039   3.821   4.987   5.406
 2714SOL     OW 9040   3.014   4.374   6.070
 2714SOL    HW1 9041   2.974   4.436   6.137
 2714SOL    HW2 9042   2.951   4.362   5.993
 2715SOL     OW 9043   4.296   6.620   6.507
 2715SOL    HW1 9044   4.390   6.627   6.473
 2715SOL    HW2 9045   4.277   6.526   6.532
 2716SOL     OW 9046   4.242   0.421   2.648
 2716SOL    HW1 9047   4.295   0.454   2.726
 2716SOL    HW2 9048   4.270   0.470   2.565
 2717SOL     OW 9049   0.822   2.120   1.847
 2717SOL    HW1 9050   0.886   2.196   1.850
 2717SOL    HW2 9051   0.867   2.036   1.878
 2718SOL     OW 9052   6.502   1.642   5.600
 2718SOL    HW1 9053   6.551   1.579   5.660
 2718SOL    HW2 9054   6.484   1.597   5.512
 2719SOL     OW 9055   1.667   4.954   3.648
 2719SOL    HW1 9056   1.641   4.908   3.733
 2719SOL    HW2 9057   1.760   4.990   3.656
 2720SOL     OW 9058   1.750   5.726   6.366
 2720SOL    HW1 9059   1.820   5.763   6.427
 2720SOL    HW2 9060   1.784   5.726   6.272
 2721SOL     OW 9061   2.305   6.584   1.564
 2721SOL    HW1 9062   2.266   6.657   1.620
 2721SOL    HW2 9063   2.392   6.615   1.525
 2722SOL     OW 9064   3.904   4.869   6.520
 2722SOL    HW1 9065   3.940   4.870   6.427
 2722SOL    HW2 9066   3.968   4.915   6.582
 2723SOL     OW 9067   3.948   6.028   6.506
 2723SOL    HW1 9068   4.043   6.046   6.532
 2723SOL    HW2 9069   3.940   6.024   6.407
 2724SOL     OW 9070   6.545   5.468   1.235
 2724SOL    HW1 9071   6.595   5.553   1.217
 2724SOL    HW2 9072   6.570   5.433   1.325
 2725SOL     OW 9073   5.708   4.456   3.575
 2725SOL    HW1 9074   5.788   4.397   3.587
 2725SOL    HW2 9075   5.646   4.445   3.652
 2726SOL     OW 9076   6.013   1.615   2.637
 2726SOL    HW1 9077   6.020   1.572   2.727
 2726SOL    HW2 9078   5.917   1.635   2.616
 2727SOL     OW 9079   1.729   5.843   3.391
 2727SOL    HW1 9080   1.673   5.854   3.473
 2727SOL    HW2 9081   1.714   5.920   3.329
 2728SOL     OW 9082   4.184   5.973   6.143
 2728SOL    HW1 9083   4.214   5.903   6.208
 2728SOL    HW2 9084   4.252   5.983   6.071
 2729SOL     OW 9085   6.307   0.310   0.138
 2729SOL    HW1 9086   6.246   0.314   0.218
 2729SOL    HW2 9087   6.373   0.385   0.143
 2730SOL     OW 9088   1.562   5.566   2.850
 2730SOL    HW1 9089   1.476   5.538   2.806
 2730SOL    HW2 9090   1.638   5.522   2.803
 2731SOL     OW 9091   3.068   4.022   4.735
 2731SOL    HW1 9092   3.127   4.064   4.665
 2731SOL    HW2 9093   3.004   3.960   4.690
 2732SOL     OW 9094   5.298   0.753   1.562
 2732SOL    HW1 9095   5.346   0.669   1.538
 2732SOL    HW2 9096   5.364   0.823   1.591
 2733SOL     OW 9097   0.991   6.324   0.181
 2733SOL    HW1 9098   1.001   6.402   0.242
 2733SOL    HW2 9099   0.894   6.309   0.160
 2734SOL     OW 9100   3.831   6.228   2.293
 2734SOL    HW1 9101   3.920   6.190   2.318
 2734SOL    HW2 9102   3.760   6.190   2.352
 2735SOL     OW 9103   0.757   1.636   1.902
 2735SOL    HW1 9104   0.797   1.546   1.923
 2735SOL    HW2 9105   0.667   1.623   1.860
 2736SOL     OW 9106   5.866   3.992   2.995
 2736SOL    HW1 9107   5.859   4.056   3.071
 2736SOL    HW2 9108   5.834   4.036   2.911
 2737SOL     OW 9109   2.850   0.518   5.409
 2737SOL    HW1 9110   2.846   0.588   5.338
 2737SOL    HW2 9111   2.803   0.436   5.377
 2738SOL     OW 9112   5.190   5.668   1.322
 2738SOL    HW1 9113   5.286   5.659   1.349
 2738SOL    HW2 9114   5.137   5.595   1.365
 2739SOL     OW 9115   6.645   5.679   1.583
 2739SOL    HW1 9116   6.680   5.759   1.535
 2739SOL    HW2 9117   6.620   5.704   1.677
 2740SOL     OW 9118   0.373   5.236   3.084
 2740SOL    HW1 9119   0.380   5.217   2.986
 2740SOL    HW2 9120   0.336   5.156   3.131
 2741SOL     OW 9121   0.850   6.738   5.643
 2741SOL    HW1 9122   0.907   6.812   5.680
 2741SOL    HW2 9123   0.894   6.698   5.563
 2742SOL     OW 9124   3.352   5.675   2.822
 2742SOL    HW1 9125   3.342   5.676   2.921
 2742SOL    HW2 9126   3.267   5.709   2.780
 2743SOL     OW 9127   4.605   1.641   2.584
 2743SOL    HW1 9128   4.657   1.721   2.612
 2743SOL    HW2 9129   4.667   1.564   2.568
 2744SOL     OW 9130   3.663   4.105   2.577
 2744SOL    HW1 9131   3.597   4.134   2.508
 2744SOL    HW2 9132   3.617   4.096   2.666
 2745SOL     OW 9133   0.718   5.712   0.459
 2745SOL    HW1 9134   0.650   5.773   0.499
 2745SOL    HW2 9135   0.794   5.701   0.523
 2746SOL     OW 9136   2.057   1.046   3.614
 2746SOL    HW1 9137   2.032   1.141   3.632
 2746SOL    HW2 9138   2.018   1.017   3.527
 2747SOL     OW 9139   4.294   4.566   0.868
 2747SOL    HW1 9140   4.198   4.590   0.859
 2747SOL    HW2 9141   4.326   4.525   0.782
 2748SOL     OW 9142   3.652   0.505   0.485
 2748SOL    HW1 9143   3.694   0.465   0.567
 2748SOL    HW2 9144   3.636   0.433   0.418
 2749SOL     OW 9145   3.252   1.666   0.923
 2749SOL    HW1 9146   3.253   1.762   0.949
 2749SOL    HW2 9147   3.160   1.640   0.894
 2750SOL     OW 9148   2.976   5.932   3.037
 2750SOL    HW1 9149   2.917   6.012   3.047
 2750SOL    HW2 9150   2.923   5.857   2.997
 2751SOL     OW 9151   6.197   4.515   0.927
 2751SOL    HW1 9152   6.144   4.598   0.940
 2751SOL    HW2 9153   6.178   4.451   1.002
 2752SOL     OW 9154   4.034   5.863   6.754
 2752SOL    HW1 9155   4.103   5.811   6.805
 2752SOL    HW2 9156   3.968   5.901   6.819
 2753SOL     OW 9157   5.315   5.829   5.384
 2753SOL    HW1 9158   5.370   5.749   5.408
 2753SOL    HW2 9159   5.350   5.870   5.299
 2754SOL     OW 9160   1.251   0.177   5.672
 2754SOL    HW1 9161   1.273   0.125   5.755
 2754SOL    HW2 9162   1.264   0.274   5.688
 2755SOL     OW 9163   3.771   0.267   2.342
 2755SOL    HW1 9164   3.864   0.275   2.377
 2755SOL    HW2 9165   3.708   0.316   2.402
 2756SOL     OW 9166   4.665   6.397   0.256
 2756SOL    HW1 9167   4.678   6.470   0.323
 2756SOL    HW2 9168   4.655   6.310   0.304
 2757SOL     OW 9169   0.716   4.712   0.941
 2757SOL    HW1 9170   0.732   4.634   0.881
 2757SOL    HW2 9171   0.640   4.692   1.003
 2758SOL     OW 9172   4.736   1.077   5.400
 2758SOL    HW1 9173   4.745   0.989   5.353
 2758SOL    HW2 9174   4.709   1.148   5.334
 2759SOL     OW 9175   5.026   4.748   4.129
 2759SOL    HW1 9176   4.962   4.686   4.175
 2759SOL    HW2 9177   5.015   4.841   4.166
 2760SOL     OW 9178   1.664   6.453   3.740
 2760SOL    HW1 9179   1.664   6.376   3.805
 2760SOL    HW2 9180   1.669   6.417   3.647
 2761SOL     OW 9181   2.414   5.236   3.930
 2761SOL    HW1 9182   2.346   5.292   3.883
 2761SOL    HW2 9183   2.448   5.166   3.867
 2762SOL     OW 9184   1.670   0.712   5.073
 2762SOL    HW1 9185   1.730   0.783   5.036
 2762SOL    HW2 9186   1.706   0.679   5.161
 2763SOL     OW 9187   4.806   1.470   2.465
 2763SOL    HW1 9188   4.774   1.502   2.375
 2763SOL    HW2 9189   4.828   1.373   2.459
 2764SOL     OW 9190   5.990   0.874   1.583
 2764SOL    HW1 9191   5.965   0.971   1.583
 2764SOL    HW2 9192   6.042   0.853   1.666
 2765SOL     OW 9193   5.177   1.958   2.733
 2765SOL    HW1 9194   5.232   2.040   2.718
 2765SOL    HW2 9195   5.192   1.923   2.825
 2766SOL     OW 9196   5.856   0.040   2.563
 2766SOL    HW1 9197   5.836   0.137   2.556
 2766SOL    HW2 9198   5.787   7.008   2.515
 2767SOL     OW 9199   6.086   4.239   5.793
 2767SOL    HW1 9200   6.155   4.175   5.828
 2767SOL    HW2 9201   6.131   4.323   5.764
 2768SOL     OW 9202   6.048   1.418   6.579
 2768SOL    HW1 9203   6.116   1.421   6.505
 2768SOL    HW2 9204   5.971   1.478   6.555
 2769SOL     OW 9205   1.234   4.228   1.263
 2769SOL    HW1 9206   1.327   4.190   1.262
 2769SOL    HW2 9207   1.233   4.314   1.212
 2770SOL     OW 9208   6.436   5.936   1.909
 2770SOL    HW1 9209   6.338   5.927   1.889
 2770SOL    HW2 9210   6.453   6.023   1.954
 2771SOL     OW 9211   5.173   1.310   1.244
 2771SOL    HW1 9212   5.177   1.210   1.256
 2771SOL    HW2 9213   5.266   1.345   1.229
 2772SOL     OW 9214   3.740   2.208   6.969
 2772SOL    HW1 9215   3.661   2.269   6.975
 2772SOL    HW2 9216   3.822   2.255   7.000
 2773SOL     OW 9217   3.183   4.494   0.940
 2773SOL    HW1 9218   3.224   4.502   1.031
 2773SOL    HW2 9219   3.113   4.564   0.928
 2774SOL     OW 9220   5.559   3.307   2.269
 2774SOL    HW1 9221   5.633   3.240   2.269
 2774SOL    HW2 9222   5.521   3.315   2.362
 2775SOL     OW 9223   6.489   6.986   2.093
 2775SOL    HW1 9224   6.486   6.962   1.996
 2775SOL    HW2 9225   6.418   0.033   2.113
 2776SOL     OW 9226   3.163   6.329   6.579
 2776SOL    HW1 9227   3.098   6.370   6.515
 2776SOL    HW2 9228   3.123   6.246   6.618
 2777SOL     OW 9229   2.206   2.012   3.615
 2777SOL    HW1 9230   2.205   1.933   3.554
 2777SOL    HW2 9231   2.188   1.981   3.709
 2778SOL     OW 9232   2.164   2.317   4.232
 2778SOL    HW1 9233   2.098   2.325   4.306
 2778SOL    HW2 9234   2.240   2.259   4.261
 2779SOL     OW 9235   6.294   1.594   0.792
 2779SOL    HW1 9236   6.212   1.586   0.849
 2779SOL    HW2 9237   6.351   1.669   0.826
 2780SOL     OW 9238   3.605   5.901   0.202
 2780SOL    HW1 9239   3.527   5.963   0.206
 2780SOL    HW2 9240   3.607   5.855   0.113
 2781SOL     OW 9241   4.541   4.648   7.001
 2781SOL    HW1 9242   4.552   4.710   6.924
 2781SOL    HW2 9243   4.585   4.561   6.981
 2782SOL     OW 9244   3.121   1.233   6.084
 2782SOL    HW1 9245   3.089   1.264   6.174
 2782SOL    HW2 9246   3.055   1.169   6.045
 2783SOL     OW 9247   0.440   4.233   5.746
 2783SOL    HW1 9248   0.365   4.207   5.806
 2783SOL    HW2 9249   0.412   4.309   5.688
 2784SOL     OW 9250   2.365   2.420   1.752
 2784SOL    HW1 9251   2.465   2.416   1.746
 2784SOL    HW2 9252   2.327   2.438   1.661
 2785SOL     OW 9253   5.993   1.139   1.722
 2785SOL    HW1 9254   5.903   1.181   1.708
 2785SOL    HW2 9255   6.051   1.157   1.642
 2786SOL     OW 9256   3.005   0.111   0.290
 2786SOL    HW1 9257   3.089   0.130   0.240
 2786SOL    HW2 9258   2.983   0.014   0.284
 2787SOL     OW 9259   1.919   3.001   5.322
 2787SOL    HW1 9260   1.851   2.928   5.332
 2787SOL    HW2 9261   2.009   2.961   5.304
 2788SOL     OW 9262   0.362   4.056   6.907
 2788SOL    HW1 9263   0.298   3.998   6.958
 2788SOL    HW2 9264   0.450   4.010   6.900
 2789SOL     OW 9265   6.982   2.488   4.235
 2789SOL    HW1 9266   6.940   2.401   4.260
 2789SOL    HW2 9267   6.932   2.563   4.279
 2790SOL     OW 9268   3.277   6.221   4.186
 2790SOL    HW1 9269   3.194   6.200   4.238
 2790SOL    HW2 9270   3.262   6.302   4.130
 2791SOL     OW 9271   2.082   2.781   2.515
 2791SOL    HW1 9272   2.161   2.743   2.468
 2791SOL    HW2 9273   2.084   2.754   2.611
 2792SOL     OW 9274   1.153   2.139   5.065
 2792SOL    HW1 9275   1.246   2.116   5.039
 2792SOL    HW2 9276   1.096   2.144   4.983
 2793SOL     OW 9277   5.203   0.812   4.030
 2793SOL    HW1 9278   5.150   0.870   4.092
 2793SOL    HW2 9279   5.272   0.867   3.984
 2794SOL     OW 9280   0.709   1.292   1.498
 2794SOL    HW1 9281   0.700   1.378   1.548
 2794SOL    HW2 9282   0.805   1.278   1.474
 2795SOL     OW 9283   1.705   4.423   1.326
 2795SOL    HW1 9284   1.800   4.420   1.293
 2795SOL    HW2 9285   1.699   4.378   1.415
 2796SOL     OW 9286   5.660   4.273   2.147
 2796SOL    HW1 9287   5.667   4.263   2.247
 2796SOL    HW2 9288   5.702   4.194   2.103
 2797SOL     OW 9289   4.557   4.409   4.858
 2797SOL    HW1 9290   4.609   4.491   4.833
 2797SOL    HW2 9291   4.478   4.436   4.913
 2798SOL     OW 9292   1.807   3.322   3.411
 2798SOL    HW1 9293   1.811   3.394   3.342
 2798SOL    HW2 9294   1.862   3.348   3.490
 2799SOL     OW 9295   6.331   5.487   6.040
 2799SOL    HW1 9296   6.415   5.472   5.987
 2799SOL    HW2 9297   6.343   5.453   6.133
 2800SOL     OW 9298   2.760   1.954   6.835
 2800SOL    HW1 9299   2.798   1.863   6.849
 2800SOL    HW2 9300   2.832   2.022   6.848
 2801SOL     OW 9301   4.562   5.623   2.624
 2801SOL    HW1 9302   4.501   5.699   2.604
 2801SOL    HW2 9303   4.657   5.651   2.608
 2802SOL     OW 9304   6.002   0.839   6.275
 2802SOL    HW1 9305   6.052   0.881   6.351
 2802SOL    HW2 9306   5.905   0.834   6.298
 2803SOL     OW 9307   2.205   5.587   5.492
 2803SOL    HW1 9308   2.169   5.681   5.496
 2803SOL    HW2 9309   2.295   5.584   5.537
 2804SOL     OW 9310   0.272   4.802   2.360
 2804SOL    HW1 9311   0.353   4.856   2.383
 2804SOL    HW2 9312   0.251   4.813   2.263
 2805SOL     OW 9313   5.366   4.013   6.362
 2805SOL    HW1 9314   5.271   4.041   6.348
 2805SOL    HW2 9315   5.370   3.916   6.384
 2806SOL     OW 9316   6.641   5.471   2.843
 2806SOL    HW1 9317   6.661   5.436   2.752
 2806SOL    HW2 9318   6.600   5.398   2.898
 2807SOL     OW 9319   4.443   4.535   4.183
 2807SOL    HW1 9320   4.494   4.541   4.268
 2807SOL    HW2 9321   4.345   4.528   4.203
 2808SOL     OW 9322   4.432   5.570   4.015
 2808SOL    HW1 9323   4.380   5.537   4.094
 2808SOL    HW2 9324   4.493   5.644   4.044
 2809SOL     OW 9325   5.330   3.008   0.617
 2809SOL    HW1 9326   5.425   2.975   0.624
 2809SOL    HW2 9327   5.290   2.976   0.531
 2810SOL     OW 9328   1.532   0.336   5.872
 2810SOL    HW1 9329   1.533   0.404   5.945
 2810SOL    HW2 9330   1.475   0.369   5.797
 2811SOL     OW 9331   0.114   0.906   4.229
 2811SOL    HW1 9332   0.052   0.862   4.294
 2811SOL    HW2 9333   0.070   0.912   4.140
 2812SOL     OW 9334   4.941   3.452   2.462
 2812SOL    HW1 9335   4.963   3.455   2.364
 2812SOL    HW2 9336   5.022   3.424   2.513
 2813SOL     OW 9337   6.188   1.943   6.373
 2813SOL    HW1 9338   6.218   2.034   6.403
 2813SOL    HW2 9339   6.246   1.912   6.298
 2814SOL     OW 9340   5.093   4.383   5.170
 2814SOL    HW1 9341   5.149   4.439   5.231
 2814SOL    HW2 9342   5.149   4.313   5.128
 2815SOL     OW 9343   6.920   1.570   4.667
 2815SOL    HW1 9344   6.998   1.522   4.625
 2815SOL    HW2 9345   6.942   1.591   4.762
 2816SOL     OW 9346   5.859   6.377   3.104
 2816SOL    HW1 9347   5.768   6.344   3.078
 2816SOL    HW2 9348   5.925   6.303   3.097
 2817SOL     OW 9349   1.214   1.598   1.288
 2817SOL    HW1 9350   1.129   1.552   1.313
 2817SOL    HW2 9351   1.274   1.606   1.367
 2818SOL     OW 9352   0.762   3.625   6.279
 2818SOL    HW1 9353   0.856   3.636   6.247
 2818SOL    HW2 9354   0.761   3.616   6.379
 2819SOL     OW 9355   5.977   3.185   0.935
 2819SOL    HW1 9356   6.009   3.153   0.846
 2819SOL    HW2 9357   6.012   3.277   0.952
 2820SOL     OW 9358   5.587   2.670   3.999
 2820SOL    HW1 9359   5.618   2.743   3.938
 2820SOL    HW2 9360   5.560   2.591   3.944
 2821SOL     OW 9361   1.425   3.130   3.751
 2821SOL    HW1 9362   1.492   3.196   3.784
 2821SOL    HW2 9363   1.398   3.069   3.825
 2822SOL     OW 9364   2.831   1.934   0.372
 2822SOL    HW1 9365   2.814   1.995   0.294
 2822SOL    HW2 9366   2.758   1.866   0.379
 2823SOL     OW 9367   2.169   6.342   3.499
 2823SOL    HW1 9368   2.097   6.275   3.514
 2823SOL    HW2 9369   2.253   6.296   3.471
 2824SOL     OW 9370   3.167   1.884   4.918
 2824SOL    HW1 9371   3.120   1.972   4.908
 2824SOL    HW2 9372   3.111   1.823   4.973
 2825SOL     OW 9373   6.324   6.077   1.236
 2825SOL    HW1 9374   6.288   5.986   1.218
 2825SOL    HW2 9375   6.414   6.087   1.194
 2826SOL     OW 9376   4.537   2.563   3.969
 2826SOL    HW1 9377   4.559   2.582   4.064
 2826SOL    HW2 9378   4.454   2.506   3.965
 2827SOL     OW 9379   5.619   1.077   6.827
 2827SOL    HW1 9380   5.557   1.011   6.786
 2827SOL    HW2 9381   5.696   1.029   6.870
 2828SOL     OW 9382   3.678   1.974   0.032
 2828SOL    HW1 9383   3.704   2.060   7.008
 2828SOL    HW2 9384   3.603   1.991   0.096
 2829SOL     OW 9385   2.154   0.078   6.854
 2829SOL    HW1 9386   2.178   0.087   6.951
 2829SOL    HW2 9387   2.057   0.096   6.842
 2830SOL     OW 9388   3.340   4.033   6.645
 2830SOL    HW1 9389   3.339   3.948   6.593
 2830SOL    HW2 9390   3.378   4.106   6.588
 2831SOL     OW 9391   6.523   6.028   4.185
 2831SOL    HW1 9392   6.588   6.060   4.115
 2831SOL    HW2 9393   6.561   6.045   4.276
 2832SOL     OW 9394   0.161   0.827   1.877
 2832SOL    HW1 9395   0.162   0.907   1.937
 2832SOL    HW2 9396   0.142   0.745   1.931
 2833SOL     OW 9397   6.342   2.845   2.221
 2833SOL    HW1 9398   6.413   2.803   2.279
 2833SOL    HW2 9399   6.364   2.827   2.125
 2834SOL     OW 9400   4.139   0.930   6.099
 2834SOL    HW1 9401   4.161   1.025   6.076
 2834SOL    HW2 9402   4.040   0.915   6.088
 2835SOL     OW 9403   0.711   6.296   3.258
 2835SOL    HW1 9404   0.795   6.247   3.235
 2835SOL    HW2 9405   0.673   6.339   3.175
 2836SOL     OW 9406   6.752   0.780   0.993
 2836SOL    HW1 9407   6.806   0.864   0.995
 2836SOL    HW2 9408   6.670   0.795   0.937
 2837SOL     OW 9409   6.665   2.851   3.631
 2837SOL    HW1 9410   6.650   2.803   3.544
 2837SOL    HW2 9411   6.743   2.913   3.621
 2838SOL     OW 9412   1.623   4.751   3.846
 2838SOL    HW1 9413   1.626   4.661   3.802
 2838SOL    HW2 9414   1.541   4.757   3.903
 2839SOL     OW 9415   5.145   2.389   1.373
 2839SOL    HW1 9416   5.188   2.440   1.298
 2839SOL    HW2 9417   5.081   2.449   1.421
 2840SOL     OW 9418   6.684   2.852   5.160
 2840SOL    HW1 9419   6.711   2.946   5.179
 2840SOL    HW2 9420   6.637   2.813   5.240
 2841SOL     OW 9421   0.425   6.233   1.556
 2841SOL    HW1 9422   0.358   6.307   1.556
 2841SOL    HW2 9423   0.515   6.271   1.577
 2842SOL     OW 9424   6.123   3.060   2.972
 2842SOL    HW1 9425   6.071   3.018   3.046
 2842SOL    HW2 9426   6.120   3.160   2.981
 2843SOL     OW 9427   4.176   1.698   4.453
 2843SOL    HW1 9428   4.261   1.694   4.400
 2843SOL    HW2 9429   4.195   1.679   4.549
 2844SOL     OW 9430   0.096   4.011   5.518
 2844SOL    HW1 9431   0.111   3.916   5.493
 2844SOL    HW2 9432   0.064   4.016   5.612
 2845SOL     OW 9433   6.698   4.027   6.020
 2845SOL    HW1 9434   6.631   3.953   6.011
 2845SOL    HW2 9435   6.695   4.084   5.938
 2846SOL     OW 9436   4.900   0.967   6.450
 2846SOL    HW1 9437   4.928   1.023   6.529
 2846SOL    HW2 9438   4.839   1.021   6.392
 2847SOL     OW 9439   4.708   4.667   3.741
 2847SOL    HW1 9440   4.685   4.690   3.646
 2847SOL    HW2 9441   4.649   4.594   3.773
 2848SOL     OW 9442   1.645   6.290   5.317
 2848SOL    HW1 9443   1.545   6.291   5.314
 2848SOL    HW2 9444   1.679   6.380   5.345
 2849SOL     OW 9445   2.232   3.097   1.428
 2849SOL    HW1 9446   2.181   3.060   1.506
 2849SOL    HW2 9447   2.322   3.129   1.459
 2850SOL     OW 9448   3.477   0.700   0.442
 2850SOL    HW1 9449   3.478   0.793   0.478
 2850SOL    HW2 9450   3.566   0.657   0.458
 2851SOL     OW 9451   2.121   4.812   6.335
 2851SOL    HW1 9452   2.090   4.888   6.278
 2851SOL    HW2 9453   2.219   4.799   6.321
 2852SOL     OW 9454   0.296   3.096   6.265
 2852SOL    HW1 9455   0.322   3.047   6.347
 2852SOL    HW2 9456   0.377   3.129   6.217
 2853SOL     OW 9457   3.372   2.981   1.402
 2853SOL    HW1 9458   3.342   3.076   1.407
 2853SOL    HW2 9459   3.424   2.957   1.484
 2854SOL     OW 9460   1.079   0.752   3.751
 2854SOL    HW1 9461   1.062   0.686   3.678
 2854SOL    HW2 9462   1.061   0.709   3.840
 2855SOL     OW 9463   3.033   0.904   5.267
 2855SOL    HW1 9464   3.026   0.994   5.311
 2855SOL    HW2 9465   3.108   0.852   5.310
 2856SOL     OW 9466   2.534   1.646   5.248
 2856SOL    HW1 9467   2.525   1.689   5.338
 2856SOL    HW2 9468   2.620   1.596   5.242
 2857SOL     OW 9469   3.410   3.615   3.329
 2857SOL    HW1 9470   3.503   3.594   3.356
 2857SOL    HW2 9471   3.408   3.704   3.283
 2858SOL     OW 9472   5.653   2.476   2.876
 2858SOL    HW1 9473   5.656   2.381   2.908
 2858SOL    HW2 9474   5.562   2.494   2.838
 2859SOL     OW 9475   5.432   6.467   0.569
 2859SOL    HW1 9476   5.353   6.429   0.520
 2859SOL    HW2 9477   5.489   6.393   0.603
 2860SOL     OW 9478   4.305   2.486   1.326
 2860SOL    HW1 9479   4.360   2.499   1.409
 2860SOL    HW2 9480   4.252   2.402   1.334
 2861SOL     OW 9481   3.474   5.191   5.608
 2861SOL    HW1 9482   3.376   5.177   5.622
 2861SOL    HW2 9483   3.513   5.111   5.564
 2862SOL     OW 9484   6.260   0.215   4.468
 2862SOL    HW1 9485   6.267   0.301   4.419
 2862SOL    HW2 9486   6.271   0.139   4.404
 2863SOL     OW 9487   6.793   1.695   6.865
 2863SOL    HW1 9488   6.881   1.648   6.867
 2863SOL    HW2 9489   6.724   1.638   6.909
 2864SOL     OW 9490   3.364   1.444   0.022
 2864SOL    HW1 9491   3.313   1.358   0.021
 2864SOL    HW2 9492   3.460   1.425   0.040
 2865SOL     OW 9493   4.676   4.970   5.160
 2865SOL    HW1 9494   4.617   4.893   5.186
 2865SOL    HW2 9495   4.621   5.038   5.111
 2866SOL     OW 9496   6.902   6.868   6.509
 2866SOL    HW1 9497   6.849   6.942   6.551
 2866SOL    HW2 9498   6.842   6.791   6.488
 2867SOL     OW 9499   6.631   4.080   3.143
 2867SOL    HW1 9500   6.703   4.043   3.085
 2867SOL    HW2 9501   6.639   4.043   3.235
 2868SOL     OW 9502   1.591   4.781   5.115
 2868SOL    HW1 9503   1.562   4.685   5.113
 2868SOL    HW2 9504   1.532   4.835   5.055
 2869SOL     OW 9505   5.950   0.813   2.408
 2869SOL    HW1 9506   5.906   0.730   2.444
 2869SOL    HW2 9507   6.048   0.809   2.424
 2870SOL     OW 9508   5.089   2.131   2.306
 2870SOL    HW1 9509   5.020   2.148   2.234
 2870SOL    HW2 9510   5.176   2.171   2.278
 2871SOL     OW 9511   2.247   1.406   6.124
 2871SOL    HW1 9512   2.245   1.479   6.193
 2871SOL    HW2 9513   2.328   1.349   6.138
 2872SOL     OW 9514   2.450   6.411   3.989
 2872SOL    HW1 9515   2.475   6.391   3.895
 2872SOL    HW2 9516   2.417   6.505   3.996
 2873SOL     OW 9517   7.001   5.642   1.610
 2873SOL    HW1 9518   0.027   5.617   1.526
 2873SOL    HW2 9519   0.042   5.696   1.667
 2874SOL     OW 9520   5.754   1.665   3.017
 2874SOL    HW1 9521   5.751   1.664   3.117
 2874SOL    HW2 9522   5.672   1.710   2.981
 2875SOL     OW 9523   2.743   5.100   1.208
 2875SOL    HW1 9524   2.768   5.149   1.291
 2875SOL    HW2 9525   2.825   5.075   1.157
 2876SOL     OW 9526   0.331   1.546   2.555
 2876SOL    HW1 9527   0.383   1.460   2.560
 2876SOL    HW2 9528   0.240   1.532   2.594
 2877SOL     OW 9529   2.273   2.999   5.682
 2877SOL    HW1 9530   2.187   3.024   5.636
 2877SOL    HW2 9531   2.287   2.900   5.674
 2878SOL     OW 9532   3.440   5.054   0.136
 2878SOL    HW1 9533   3.395   5.141   0.116
 2878SOL    HW2 9534   3.467   5.009   0.050
 2879SOL     OW 9535   4.565   5.033   0.036
 2879SOL    HW1 9536   4.662   5.034   0.014
 2879SOL    HW2 9537   4.553   5.024   0.135
 2880SOL     OW 9538   0.984   6.840   1.786
 2880SOL    HW1 9539   1.071   6.829   1.834
 2880SOL    HW2 9540   0.961   6.938   1.781
 2881SOL     OW 9541   0.424   6.893   6.869
 2881SOL    HW1 9542   0.448   6.798   6.849
 2881SOL    HW2 9543   0.454   6.951   6.794
 2882SOL     OW 9544   6.744   3.251   3.653
 2882SOL    HW1 9545   6.783   3.161   3.672
 2882SOL    HW2 9546   6.778   3.316   3.722
 2883SOL     OW 9547   4.657   6.313   2.739
 2883SOL    HW1 9548   4.749   6.344   2.717
 2883SOL    HW2 9549   4.626   6.249   2.669
 2884SOL     OW 9550   1.761   5.934   3.057
 2884SOL    HW1 9551   1.692   5.863   3.040
 2884SOL    HW2 9552   1.735   6.017   3.008
 2885SOL     OW 9553   0.774   2.283   3.608
 2885SOL    HW1 9554   0.741   2.376   3.626
 2885SOL    HW2 9555   0.819   2.280   3.519
 2886SOL     OW 9556   2.483   2.890   6.137
 2886SOL    HW1 9557   2.515   2.796   6.124
 2886SOL    HW2 9558   2.556   2.953   6.111
 2887SOL     OW 9559   2.483   1.036   5.064
 2887SOL    HW1 9560   2.388   1.013   5.043
 2887SOL    HW2 9561   2.520   1.097   4.994
 2888SOL     OW 9562   0.041   5.076   7.002
 2888SOL    HW1 9563   0.117   5.015   6.977
 2888SOL    HW2 9564   0.015   5.059   0.076
 2889SOL     OW 9565   0.328   6.903   1.377
 2889SOL    HW1 9566   0.327   6.977   1.445
 2889SOL    HW2 9567   0.346   6.942   1.287
 2890SOL     OW 9568   2.797   6.923   0.539
 2890SOL    HW1 9569   2.793   6.935   0.440
 2890SOL    HW2 9570   2.886   6.954   0.573
 2891SOL     OW 9571   2.569   4.948   4.266
 2891SOL    HW1 9572   2.577   4.867   4.325
 2891SOL    HW2 9573   2.506   5.014   4.309
 2892SOL     OW 9574   4.343   4.461   5.568
 2892SOL    HW1 9575   4.387   4.387   5.619
 2892SOL    HW2 9576   4.312   4.532   5.631
 2893SOL     OW 9577   3.069   0.644   5.936
 2893SOL    HW1 9578   3.065   0.595   5.849
 2893SOL    HW2 9579   2.978   0.678   5.959
 2894SOL     OW 9580   3.419   2.646   1.014
 2894SOL    HW1 9581   3.416   2.672   1.111
 2894SOL    HW2 9582   3.338   2.592   0.991
 2895SOL     OW 9583   3.201   3.416   6.679
 2895SOL    HW1 9584   3.178   3.483   6.749
 2895SOL    HW2 9585   3.219   3.328   6.722
 2896SOL     OW 9586   2.687   5.442   0.769
 2896SOL    HW1 9587   2.642   5.514   0.716
 2896SOL    HW2 9588   2.640   5.355   0.753
 2897SOL     OW 9589   1.775   6.682   3.776
 2897SOL    HW1 9590   1.755   6.697   3.873
 2897SOL    HW2 9591   1.750   6.588   3.751
 2898SOL     OW 9592   2.467   5.047   2.752
 2898SOL    HW1 9593   2.518   5.076   2.671
 2898SOL    HW2 9594   2.427   4.956   2.735
 2899SOL     OW 9595   6.690   0.699   0.624
 2899SOL    HW1 9596   6.789   0.701   0.633
 2899SOL    HW2 9597   6.647   0.741   0.704
 2900SOL     OW 9598   2.527   5.813   6.271
 2900SOL    HW1 9599   2.430   5.819   6.246
 2900SOL    HW2 9600   2.582   5.794   6.189
 2901SOL     OW 9601   2.869   0.354   1.443
 2901SOL    HW1 9602   2.855   0.432   1.505
 2901SOL    HW2 9603   2.899   0.388   1.354
 2902SOL     OW 9604   5.768   5.299   1.783
 2902SOL    HW1 9605   5.678   5.268   1.755
 2902SOL    HW2 9606   5.759   5.371   1.852
 2903SOL     OW 9607   2.665   2.491   1.795
 2903SOL    HW1 9608   2.705   2.541   1.717
 2903SOL    HW2 9609   2.739   2.453   1.851
 2904SOL     OW 9610   1.858   2.989   4.587
 2904SOL    HW1 9611   1.834   2.954   4.678
 2904SOL    HW2 9612   1.857   2.914   4.522
 2905SOL     OW 9613   0.938   2.202   1.444
 2905SOL    HW1 9614   1.010   2.211   1.512
 2905SOL    HW2 9615   0.978   2.198   1.352
 2906SOL     OW 9616   5.238   5.851   2.490
 2906SOL    HW1 9617   5.194   5.762   2.481
 2906SOL    HW2 9618   5.178   5.923   2.457
 2907SOL     OW 9619   6.562   0.509   4.307
 2907SOL    HW1 9620   6.635   0.577   4.314
 2907SOL    HW2 9621   6.528   0.488   4.399
 2908SOL     OW 9622   4.058   6.114   5.065
 2908SOL    HW1 9623   4.059   6.124   5.165
 2908SOL    HW2 9624   4.102   6.194   5.024
 2909SOL     OW 9625   1.321   6.281   5.773
 2909SOL    HW1 9626   1.240   6.312   5.723
 2909SOL    HW2 9627   1.294   6.212   5.840
 2910SOL     OW 9628   4.851   6.490   5.795
 2910SOL    HW1 9629   4.835   6.479   5.697
 2910SOL    HW2 9630   4.886   6.405   5.833
 2911SOL     OW 9631   2.158   4.054   3.430
 2911SOL    HW1 9632   2.224   4.095   3.367
 2911SOL    HW2 9633   2.114   4.126   3.484
 2912SOL     OW 9634   2.816   5.332   0.997
 2912SOL    HW1 9635   2.732   5.295   1.036
 2912SOL    HW2 9636   2.794   5.387   0.916
 2913SOL     OW 9637   1.267   3.047   2.835
 2913SOL    HW1 9638   1.332   3.098   2.777
 2913SOL    HW2 9639   1.301   3.046   2.929
 2914SOL     OW 9640   4.917   5.374   5.385
 2914SOL    HW1 9641   5.017   5.368   5.382
 2914SOL    HW2 9642   4.878   5.286   5.358
 2915SOL     OW 9643   4.053   1.139   4.031
 2915SOL    HW1 9644   4.029   1.092   3.946
 2915SOL    HW2 9645   4.025   1.235   4.024
 2916SOL     OW 9646   4.612   5.695   4.263
 2916SOL    HW1 9647   4.627   5.745   4.178
 2916SOL    HW2 9648   4.612   5.597   4.244
 2917SOL     OW 9649   4.414   1.451   2.602
 2917SOL    HW1 9650   4.479   1.524   2.622
 2917SOL    HW2 9651   4.329   1.490   2.566
 2918SOL     OW 9652   0.485   3.251   3.824
 2918SOL    HW1 9653   0.495   3.343   3.862
 2918SOL    HW2 9654   0.408   3.250   3.760
 2919SOL     OW 9655   6.520   6.169   0.193
 2919SOL    HW1 9656   6.447   6.132   0.250
 2919SOL    HW2 9657   6.502   6.265   0.174
 2920SOL     OW 9658   4.231   2.326   2.928
 2920SOL    HW1 9659   4.295   2.363   2.996
 2920SOL    HW2 9660   4.268   2.341   2.836
 2921SOL     OW 9661   0.358   0.071   1.586
 2921SOL    HW1 9662   0.332   0.002   1.653
 2921SOL    HW2 9663   0.439   0.120   1.618
 2922SOL     OW 9664   4.194   6.310   5.643
 2922SOL    HW1 9665   4.152   6.270   5.725
 2922SOL    HW2 9666   4.293   6.305   5.651
 2923SOL     OW 9667   0.171   4.341   0.446
 2923SOL    HW1 9668   0.251   4.303   0.400
 2923SOL    HW2 9669   0.127   4.408   0.386
 2924SOL     OW 9670   5.940   0.165   5.697
 2924SOL    HW1 9671   5.869   0.192   5.762
 2924SOL    HW2 9672   6.025   0.213   5.719
 2925SOL     OW 9673   5.591   3.754   1.217
 2925SOL    HW1 9674   5.593   3.849   1.245
 2925SOL    HW2 9675   5.553   3.698   1.290
 2926SOL     OW 9676   6.959   1.282   3.891
 2926SOL    HW1 9677   6.883   1.225   3.924
 2926SOL    HW2 9678   6.940   1.378   3.912
 2927SOL     OW 9679   0.718   2.868   2.914
 2927SOL    HW1 9680   0.817   2.880   2.900
 2927SOL    HW2 9681   0.695   2.771   2.904
 2928SOL     OW 9682   5.620   6.247   1.065
 2928SOL    HW1 9683   5.620   6.274   1.161
 2928SOL    HW2 9684   5.581   6.155   1.057
 2929SOL     OW 9685   1.108   0.546   5.801
 2929SOL    HW1 9686   1.071   0.529   5.709
 2929SOL    HW2 9687   1.098   0.464   5.856
 2930SOL     OW 9688   3.710   6.349   4.914
 2930SOL    HW1 9689   3.750   6.430   4.871
 2930SOL    HW2 9690   3.743   6.267   4.867
 2931SOL     OW 9691   3.703   5.242   6.847
 2931SOL    HW1 9692   3.796   5.260   6.880
 2931SOL    HW2 9693   3.706   5.195   6.759
 2932SOL     OW 9694   1.196   4.296   2.114
 2932SOL    HW1 9695   1.159   4.380   2.073
 2932SOL    HW2 9696   1.268   4.320   2.179
 2933SOL     OW 9697   4.884   1.656   3.361
 2933SOL    HW1 9698   4.873   1.556   3.358
 2933SOL    HW2 9699   4.954   1.684   3.295
 2934SOL     OW 9700   2.488   0.807   0.401
 2934SOL    HW1 9701   2.543   0.880   0.360
 2934SOL    HW2 9702   2.482   0.821   0.499
 2935SOL     OW 9703   6.717   2.025   0.976
 2935SOL    HW1 9704   6.675   2.028   0.885
 2935SOL    HW2 9705   6.784   2.099   0.983
 2936SOL     OW 9706   3.545   5.967   1.022
 2936SOL    HW1 9707   3.482   6.039   0.992
 2936SOL    HW2 9708   3.584   5.921   0.942
 2937SOL     OW 9709   2.471   4.221   0.319
 2937SOL    HW1 9710   2.461   4.247   0.223
 2937SOL    HW2 9711   2.541   4.278   0.362
 2938SOL     OW 9712   5.185   5.003   5.526
 2938SOL    HW1 9713   5.242   5.041   5.454
 2938SOL    HW2 9714   5.142   4.918   5.494
 2939SOL     OW 9715   0.136   6.799   5.866
 2939SOL    HW1 9716   0.098   6.876   5.815
 2939SOL    HW2 9717   0.146   6.720   5.805
 2940SOL     OW 9718   4.283   0.321   5.577
 2940SOL    HW1 9719   4.297   0.392   5.507
 2940SOL    HW2 9720   4.260   0.235   5.532
 2941SOL     OW 9721   2.951   1.677   5.705
 2941SOL    HW1 9722   2.943   1.771   5.738
 2941SOL    HW2 9723   3.048   1.650   5.707
 2942SOL     OW 9724   3.725   6.252   4.591
 2942SOL    HW1 9725   3.800   6.187   4.587
 2942SOL    HW2 9726   3.642   6.205   4.622
 2943SOL     OW 9727   5.509   3.838   2.696
 2943SOL    HW1 9728   5.443   3.798   2.760
 2943SOL    HW2 9729   5.494   3.799   2.605
 2944SOL     OW 9730   4.204   6.136   6.614
 2944SOL    HW1 9731   4.292   6.103   6.579
 2944SOL    HW2 9732   4.205   6.132   6.714
 2945SOL     OW 9733   2.989   3.823   3.221
 2945SOL    HW1 9734   2.948   3.738   3.187
 2945SOL    HW2 9735   3.009   3.883   3.144
 2946SOL     OW 9736   0.087   6.003   5.836
 2946SOL    HW1 9737   0.148   6.013   5.914
 2946SOL    HW2 9738   0.003   6.053   5.853
 2947SOL     OW 9739   0.079   5.148   0.478
 2947SOL    HW1 9740   0.050   5.239   0.507
 2947SOL    HW2 9741   0.178   5.146   0.469
 2948SOL     OW 9742   5.774   4.341   5.141
 2948SOL    HW1 9743   5.680   4.308   5.155
 2948SOL    HW2 9744   5.772   4.437   5.115
 2949SOL     OW 9745   1.140   6.310   0.859
 2949SOL    HW1 9746   1.176   6.346   0.774
 2949SOL    HW2 9747   1.153   6.211   0.862
 2950SOL     OW 9748   5.217   3.852   4.451
 2950SOL    HW1 9749   5.167   3.936   4.431
 2950SOL    HW2 9750   5.160   3.773   4.426
 2951SOL     OW 9751   5.916   1.091   1.332
 2951SOL    HW1 9752   6.005   1.094   1.377
 2951SOL    HW2 9753   5.885   0.995   1.326
 2952SOL     OW 9754   1.725   3.837   2.137
 2952SOL    HW1 9755   1.807   3.869   2.184
 2952SOL    HW2 9756   1.751   3.788   2.054
 2953SOL     OW 9757   5.493   0.970   2.526
 2953SOL    HW1 9758   5.418   1.032   2.500
 2953SOL    HW2 9759   5.568   0.981   2.462
 2954SOL     OW 9760   5.978   6.108   1.629
 2954SOL    HW1 9761   5.901   6.143   1.574
 2954SOL    HW2 9762   5.995   6.012   1.606
 2955SOL     OW 9763   6.435   2.664   0.801
 2955SOL    HW1 9764   6.401   2.757   0.784
 2955SOL    HW2 9765   6.386   2.624   0.879
 2956SOL     OW 9766   6.670   5.317   2.618
 2956SOL    HW1 9767   6.639   5.372   2.541
 2956SOL    HW2 9768   6.594   5.264   2.654
 2957SOL     OW 9769   1.044   4.350   1.615
 2957SOL    HW1 9770   0.951   4.380   1.635
 2957SOL    HW2 9771   1.070   4.276   1.678
 2958SOL     OW 9772   3.583   4.680   6.543
 2958SOL    HW1 9773   3.605   4.612   6.473
 2958SOL    HW2 9774   3.628   4.766   6.521
 2959SOL     OW 9775   4.426   5.874   6.813
 2959SOL    HW1 9776   4.416   5.817   6.895
 2959SOL    HW2 9777   4.401   5.968   6.835
 2960SOL     OW 9778   2.637   1.664   6.707
 2960SOL    HW1 9779   2.604   1.622   6.791
 2960SOL    HW2 9780   2.580   1.741   6.682
 2961SOL     OW 9781   5.437   2.410   4.717
 2961SOL    HW1 9782   5.452   2.370   4.626
 2961SOL    HW2 9783   5.473   2.503   4.718
 2962SOL     OW 9784   3.658   1.240   3.237
 2962SOL    HW1 9785   3.588   1.169   3.234
 2962SOL    HW2 9786   3.678   1.271   3.144
 2963SOL     OW 9787   2.173   2.902   5.281
 2963SOL    HW1 9788   2.267   2.938   5.278
 2963SOL    HW2 9789   2.165   2.827   5.215
 2964SOL     OW 9790   2.976   6.101   0.365
 2964SOL    HW1 9791   2.924   6.143   0.439
 2964SOL    HW2 9792   2.926   6.021   0.331
 2965SOL     OW 9793   0.462   2.340   5.831
 2965SOL    HW1 9794   0.538   2.389   5.788
 2965SOL    HW2 9795   0.450   2.374   5.925
 2966SOL     OW 9796   4.714   4.443   3.461
 2966SOL    HW1 9797   4.661   4.426   3.545
 2966SOL    HW2 9798   4.734   4.540   3.454
 2967SOL     OW 9799   5.908   2.224   4.168
 2967SOL    HW1 9800   5.950   2.171   4.241
 2967SOL    HW2 9801   5.812   2.197   4.159
 2968SOL     OW 9802   6.691   4.275   3.418
 2968SOL    HW1 9803   6.645   4.187   3.408
 2968SOL    HW2 9804   6.723   4.306   3.328
 2969SOL     OW 9805   4.540   1.203   4.512
 2969SOL    HW1 9806   4.588   1.186   4.426
 2969SOL    HW2 9807   4.475   1.277   4.500
 2970SOL     OW 9808   0.986   4.878   6.373
 2970SOL    HW1 9809   0.908   4.879   6.311
 2970SOL    HW2 9810   1.017   4.972   6.389
 2971SOL     OW 9811   5.210   3.377   3.316
 2971SOL    HW1 9812   5.110   3.377   3.321
 2971SOL    HW2 9813   5.245   3.467   3.340
 2972SOL     OW 9814   0.865   3.981   6.031
 2972SOL    HW1 9815   0.962   3.988   6.052
 2972SOL    HW2 9816   0.853   3.945   5.939
 2973SOL     OW 9817   5.524   6.838   4.552
 2973SOL    HW1 9818   5.611   6.790   4.558
 2973SOL    HW2 9819   5.450   6.773   4.537
 2974SOL     OW 9820   0.387   4.087   2.530
 2974SOL    HW1 9821   0.465   4.057   2.584
 2974SOL    HW2 9822   0.382   4.187   2.532
 2975SOL     OW 9823   0.190   1.583   4.294
 2975SOL    HW1 9824   0.158   1.648   4.364
 2975SOL    HW2 9825   0.289   1.573   4.301
 2976SOL     OW 9826   2.781   6.071   1.728
 2976SOL    HW1 9827   2.860   6.132   1.739
 2976SOL    HW2 9828   2.814   5.976   1.726
 2977SOL     OW 9829   3.885   6.138   4.369
 2977SOL    HW1 9830   3.959   6.196   4.336
 2977SOL    HW2 9831   3.901   6.043   4.341
 2978SOL     OW 9832   3.541   5.889   6.958
 2978SOL    HW1 9833   3.479   5.824   6.914
 2978SOL    HW2 9834   3.565   5.962   6.894
 2979SOL     OW 9835   3.126   1.062   3.533
 2979SOL    HW1 9836   3.089   0.973   3.507
 2979SOL    HW2 9837   3.120   1.125   3.456
 2980SOL     OW 9838   6.738   6.138   3.705
 2980SOL    HW1 9839   6.663   6.156   3.640
 2980SOL    HW2 9840   6.825   6.145   3.657
 2981SOL     OW 9841   1.868   1.325   5.573
 2981SOL    HW1 9842   1.770   1.335   5.560
 2981SOL    HW2 9843   1.912   1.415   5.564
 2982SOL     OW 9844   4.876   6.851   3.165
 2982SOL    HW1 9845   4.879   6.836   3.264
 2982SOL    HW2 9846   4.884   6.949   3.146
 2983SOL     OW 9847   6.835   0.025   2.494
 2983SOL    HW1 9848   6.757   0.030   2.431
 2983SOL    HW2 9849   6.828   0.098   2.562
 2984SOL     OW 9850   6.018   5.203   1.720
 2984SOL    HW1 9851   5.923   5.225   1.740
 2984SOL    HW2 9852   6.033   5.105   1.730
 2985SOL     OW 9853   6.388   1.611   3.475
 2985SOL    HW1 9854   6.412   1.556   3.395
 2985SOL    HW2 9855   6.311   1.568   3.522
 2986SOL     OW 9856   2.300   3.824   5.357
 2986SOL    HW1 9857   2.366   3.884   5.312
 2986SOL    HW2 9858   2.341   3.734   5.369
 2987SOL     OW 9859   4.510   1.801   4.517
 2987SOL    HW1 9860   4.491   1.897   4.540
 2987SOL    HW2 9861   4.507   1.746   4.600
 2988SOL     OW 9862   0.535   0.193   1.733
 2988SOL    HW1 9863   0.607   0.132   1.768
 2988SOL    HW2 9864   0.558   0.287   1.757
 2989SOL     OW 9865   6.751   5.123   0.687
 2989SOL    HW1 9866   6.816   5.168   0.748
 2989SOL    HW2 9867   6.707   5.048   0.736
 2990SOL     OW 9868   3.257   0.220   1.009
 2990SOL    HW1 9869   3.241   0.314   0.979
 2990SOL    HW2 9870   3.320   0.220   1.087
 2991SOL     OW 9871   6.584   4.495   0.186
 2991SOL    HW1 9872   6.526   4.440   0.126
 2991SOL    HW2 9873   6.564   4.474   0.281
 2992SOL     OW 9874   4.226   4.632   6.798
 2992SOL    HW1 9875   4.267   4.718   6.769
 2992SOL    HW2 9876   4.194   4.639   6.892
 2993SOL     OW 9877   1.898   5.569   0.202
 2993SOL    HW1 9878   1.815   5.578   0.258
 2993SOL    HW2 9879   1.881   5.504   0.128
 2994SOL     OW 9880   3.982   6.240   0.095
 2994SOL    HW1 9881   3.949   6.146   0.110
 2994SOL    HW2 9882   3.943   6.275   0.010
 2995SOL     OW 9883   2.646   0.560   5.622
 2995SOL    HW1 9884   2.565   0.611   5.595
 2995SOL    HW2 9885   2.704   0.545   5.542
 2996SOL     OW 9886   4.289   5.486   5.826
 2996SOL    HW1 9887   4.353   5.508   5.753
 2996SOL    HW2 9888   4.196   5.501   5.795
 2997SOL     OW 9889   5.024   6.557   0.085
 2997SOL    HW1 9890   5.060   6.465   0.103
 2997SOL    HW2 9891   4.958   6.581   0.155
 2998SOL     OW 9892   6.089   5.176   5.177
 2998SOL    HW1 9893   6.064   5.118   5.255
 2998SOL    HW2 9894   6.184   5.205   5.186
 2999SOL     OW 9895   3.118   6.728   2.261
 2999SOL    HW1 9896   3.123   6.630   2.239
 2999SOL    HW2 9897   3.201   6.755   2.310
 3000SOL     OW 9898   1.456   2.538   4.664
 3000SOL    HW1 9899   1.461   2.576   4.757
 3000SOL    HW2 9900   1.548   2.537   4.624
 3001SOL     OW 9901   4.755   0.116   6.161
 3001SOL    HW1 9902   4.829   0.139   6.224
 3001SOL    HW2 9903   4.669   0.155   6.193
 3002SOL     OW 9904   3.238   0.065   5.915
 3002SOL    HW1 9905   3.202   0.154   5.887
 3002SOL    HW2 9906   3.216   0.048   6.011
 3003SOL     OW 9907   2.213   6.924   6.570
 3003SOL    HW1 9908   2.267   6.901   6.651
 3003SOL    HW2 9909   2.125   6.961   6.598
 3004SOL     OW 9910   6.323   3.643   5.139
 3004SOL    HW1 9911   6.331   3.588   5.222
 3004SOL    HW2 9912   6.230   3.634   5.102
 3005SOL     OW 9913   4.486   2.402   1.551
 3005SOL    HW1 9914   4.451   2.403   1.644
 3005SOL    HW2 9915   4.475   2.310   1.512
 3006SOL     OW 9916   5.148   0.603   1.156
 3006SOL    HW1 9917   5.127   0.628   1.251
 3006SOL    HW2 9918   5.189   0.681   1.109
 3007SOL     OW 9919   6.766   5.598   2.040
 3007SOL    HW1 9920   6.814   5.549   1.967
 3007SOL    HW2 9921   6.830   5.617   2.114
 3008SOL     OW 9922   4.341   5.924   5.923
 3008SOL    HW1 9923   4.269   5.949   5.858
 3008SOL    HW2 9924   4.396   5.850   5.884
 3009SOL     OW 9925   0.924   0.974   2.677
 3009SOL    HW1 9926   0.969   1.062   2.666
 3009SOL    HW2 9927   0.825   0.988   2.686
 3010SOL     OW 9928   2.950   6.524   2.692
 3010SOL    HW1 9929   2.992   6.545   2.780
 3010SOL    HW2 9930   2.925   6.427   2.690
 3011SOL     OW 9931   5.635   0.629   0.177
 3011SOL    HW1 9932   5.730   0.620   0.207
 3011SOL    HW2 9933   5.617   0.562   0.104
 3012SOL     OW 9934   0.249   4.813   2.093
 3012SOL    HW1 9935   0.162   4.810   2.043
 3012SOL    HW2 9936   0.323   4.787   2.032
 3013SOL     OW 9937   6.168   4.049   2.224
 3013SOL    HW1 9938   6.131   4.142   2.223
 3013SOL    HW2 9939   6.191   4.024   2.318
 3014SOL     OW 9940   5.303   0.735   5.188
 3014SOL    HW1 9941   5.227   0.787   5.150
 3014SOL    HW2 9942   5.282   0.637   5.184
 3015SOL     OW 9943   3.149   2.232   6.908
 3015SOL    HW1 9944   3.107   2.287   6.836
 3015SOL    HW2 9945   3.182   2.146   6.869
 3016SOL     OW 9946   3.918   6.039   3.715
 3016SOL    HW1 9947   3.944   6.117   3.657
 3016SOL    HW2 9948   3.822   6.015   3.698
 3017SOL     OW 9949   6.960   5.972   0.956
 3017SOL    HW1 9950   6.937   5.970   0.858
 3017SOL    HW2 9951   0.037   5.952   0.968
 3018SOL     OW 9952   3.855   6.924   6.352
 3018SOL    HW1 9953   3.815   6.977   6.277
 3018SOL    HW2 9954   3.923   6.861   6.316
 3019SOL     OW 9955   4.979   6.698   2.007
 3019SOL    HW1 9956   4.953   6.742   2.093
 3019SOL    HW2 9957   4.929   6.612   1.997
 3020SOL     OW 9958   1.965   1.468   1.093
 3020SOL    HW1 9959   2.031   1.453   1.167
 3020SOL    HW2 9960   1.874   1.440   1.122
 3021SOL     OW 9961   3.781   1.044   6.335
 3021SOL    HW1 9962   3.803   0.960   6.383
 3021SOL    HW2 9963   3.864   1.085   6.298
 3022SOL     OW 9964   5.505   6.845   1.744
 3022SOL    HW1 9965   5.469   6.752   1.749
 3022SOL    HW2 9966   5.575   6.849   1.673
 3023SOL     OW 9967   5.525   0.216   1.302
 3023SOL    HW1 9968   5.506   0.136   1.245
 3023SOL    HW2 9969   5.472   0.294   1.270
 3024SOL     OW 9970   2.999   6.682   7.000
 3024SOL    HW1 9971   2.923   6.712   0.037
 3024SOL    HW2 9972   2.963   6.639   6.917
 3025SOL     OW 9973   1.514   2.222   1.593
 3025SOL    HW1 9974   1.497   2.184   1.684
 3025SOL    HW2 9975   1.605   2.262   1.589
 3026SOL     OW 9976   1.658   4.993   0.659
 3026SOL    HW1 9977   1.672   4.954   0.750
 3026SOL    HW2 9978   1.739   5.045   0.632
 3027SOL     OW 9979   1.603   1.471   4.370
 3027SOL    HW1 9980   1.582   1.539   4.441
 3027SOL    HW2 9981   1.593   1.512   4.280
 3028SOL     OW 9982   1.508   0.761   4.505
 3028SOL    HW1 9983   1.463   0.675   4.528
 3028SOL    HW2 9984   1.440   0.830   4.482
 3029SOL     OW 9985   5.348   5.590   5.836
 3029SOL    HW1 9986   5.355   5.508   5.780
 3029SOL    HW2 9987   5.284   5.654   5.793
 3030SOL     OW 9988   1.237   1.454   5.695
 3030SOL    HW1 9989   1.239   1.375   5.633
 3030SOL    HW2 9990   1.252   1.538   5.643
 3031SOL     OW 9991   1.179   5.419   6.715
 3031SOL    HW1 9992   1.278   5.421   6.704
 3031SOL    HW2 9993   1.156   5.380   6.803
 3032SOL     OW 9994   4.277   0.736   5.803
 3032SOL    HW1 9995   4.372   0.719   5.830
 3032SOL    HW2 9996   4.221   0.657   5.829
 3033SOL     OW 9997   5.339   5.139   6.278
 3033SOL    HW1 9998   5.336   5.044   6.309
 3033SOL    HW2 9999   5.403   5.191   6.335
 3034SOL     OW10000   2.502   0.060   4.086
 3034SOL    HW110001   2.547   0.039   4.172
 3034SOL    HW210002   2.407   0.086   4.103
 3035SOL     OW10003   6.711   6.690   6.926
 3035SOL    HW110004   6.763   6.775   6.920
 3035SOL    HW210005   6.705   6.661   0.000
 3036SOL     OW10006   1.103   4.868   5.931
 3036SOL    HW110007   1.027   4.848   5.993
 3036SOL    HW210008   1.082   4.949   5.877
 3037SOL     OW10009   6.496   0.006   5.525
 3037SOL    HW110010   6.419   0.022   5.463
 3037SOL    HW210011   6.581   0.031   5.479
 3038SOL     OW10012   5.820   6.750   5.709
 3038SOL    HW110013   5.900   6.793   5.751
 3038SOL    HW210014   5.849   6.694   5.631
 3039SOL     OW10015   0.199   4.811   0.494
 3039SOL    HW110016   0.220   4.845   0.403
 3039SOL    HW210017   0.114   4.852   0.527
 3040SOL     OW10018   2.093   2.236   6.868
 3040SOL    HW110019   2.077   2.189   6.955
 3040SOL    HW210020   2.189   2.227   6.842
 3041SOL     OW10021   1.714   1.838   6.142
 3041SOL    HW110022   1.660   1.777   6.084
 3041SOL    HW210023   1.700   1.815   6.238
 3042SOL     OW10024   5.144   6.972   2.078
 3042SOL    HW110025   5.107   6.941   1.990
 3042SOL    HW210026   5.161   6.893   2.136
 3043SOL     OW10027   6.952   4.958   0.572
 3043SOL    HW110028   7.018   5.028   0.544
 3043SOL    HW210029   6.862   5.000   0.582
 3044SOL     OW10030   2.923   3.662   5.388
 3044SOL    HW110031   2.878   3.713   5.461
 3044SOL    HW210032   2.902   3.703   5.299
 3045SOL     OW10033   5.601   1.880   3.753
 3045SOL    HW110034   5.605   1.787   3.791
 3045SOL    HW210035   5.631   1.945   3.822
 3046SOL     OW10036   2.288   2.183   5.967
 3046SOL    HW110037   2.235   2.225   6.040
 3046SOL    HW210038   2.385   2.191   5.986
 3047SOL     OW10039   6.992   4.593   1.590
 3047SOL    HW110040   6.945   4.576   1.676
 3047SOL    HW210041   0.026   4.513   1.565
 3048SOL     OW10042   3.041   2.715   1.685
 3048SOL    HW110043   2.969   2.785   1.689
 3048SOL    HW210044   3.022   2.644   1.753
 3049SOL     OW10045   0.999   0.080   1.868
 3049SOL    HW110046   0.900   0.074   1.861
 3049SOL    HW210047   1.038   0.099   1.778
 3050SOL     OW10048   2.941   5.976   3.940
 3050SOL    HW110049   3.006   5.951   3.868
 3050SOL    HW210050   2.959   6.069   3.971
 3051SOL     OW10051   2.474   4.462   5.294
 3051SOL    HW110052   2.417   4.544   5.289
 3051SOL    HW210053   2.562   4.484   5.334
 3052SOL     OW10054   4.912   6.684   2.627
 3052SOL    HW110055   4.927   6.649   2.720
 3052SOL    HW210056   4.931   6.782   2.625
 3053SOL     OW10057   4.965   6.719   1.268
 3053SOL    HW110058   4.966   6.793   1.336
 3053SOL    HW210059   4.909   6.746   1.190
 3054SOL     OW10060   2.186   3.506   5.762
 3054SOL    HW110061   2.130   3.583   5.790
 3054SOL    HW210062   2.161   3.478   5.669
 3055SOL     OW10063   6.008   6.182   3.004
 3055SOL    HW110064   6.090   6.127   2.991
 3055SOL    HW210065   5.941   6.160   2.933
 3056SOL     OW10066   6.219   0.811   1.412
 3056SOL    HW110067   6.124   0.807   1.383
 3056SOL    HW210068   6.250   0.719   1.439
 3057SOL     OW10069   6.557   5.919   2.663
 3057SOL    HW110070   6.552   6.011   2.623
 3057SOL    HW210071   6.540   5.925   2.762
 3058SOL     OW10072   6.506   5.290   1.749
 3058SOL    HW110073   6.439   5.364   1.746
 3058SOL    HW210074   6.459   5.202   1.758
 3059SOL     OW10075   2.061   2.581   4.907
 3059SOL    HW110076   2.146   2.619   4.872
 3059SOL    HW210077   1.983   2.626   4.862
 3060SOL     OW10078   0.008   6.557   0.763
 3060SOL    HW110079   6.936   6.571   0.799
 3060SOL    HW210080   0.068   6.628   0.798
 3061SOL     OW10081   0.106   0.459   6.103
 3061SOL    HW110082   0.073   0.494   6.015
 3061SOL    HW210083   0.029   0.441   6.163
 3062SOL     OW10084   2.834   5.528   6.242
 3062SOL    HW110085   2.920   5.577   6.232
 3062SOL    HW210086   2.825   5.459   6.169
 3063SOL     OW10087   1.983   5.403   0.783
 3063SOL    HW110088   1.956   5.399   0.687
 3063SOL    HW210089   1.901   5.408   0.840
 3064SOL     OW10090   7.013   4.644   3.438
 3064SOL    HW110091   7.020   4.728   3.383
 3064SOL    HW210092   6.927   4.645   3.489
 3065SOL     OW10093   2.248   1.294   0.980
 3065SOL    HW110094   2.225   1.328   1.071
 3065SOL    HW210095   2.241   1.194   0.978
 3066SOL     OW10096   5.245   5.828   0.907
 3066SOL    HW110097   5.232   5.870   0.997
 3066SOL    HW210098   5.294   5.741   0.917
 3067SOL     OW10099   4.918   6.441   3.605
 3067SOL    HW110100   4.837   6.442   3.546
 3067SOL    HW210101   4.999   6.464   3.551
 3068SOL     OW10102   5.766   4.693   0.345
 3068SOL    HW110103   5.826   4.773   0.342
 3068SOL    HW210104   5.820   4.611   0.326
 3069SOL     OW10105   1.158   5.648   3.573
 3069SOL    HW110106   1.193   5.582   3.639
 3069SOL    HW210107   1.220   5.727   3.569
 3070SOL     OW10108   4.373   1.400   4.396
 3070SOL    HW110109   4.428   1.445   4.326
 3070SOL    HW210110   4.289   1.364   4.355
 3071SOL     OW10111   5.905   0.610   3.953
 3071SOL    HW110112   5.814   0.630   3.918
 3071SOL    HW210113   5.972   0.670   3.907
 3072SOL     OW10114   0.744   0.345   2.149
 3072SOL    HW110115   0.815   0.327   2.081
 3072SOL    HW210116   0.780   0.409   2.218
 3073SOL     OW10117   1.796   2.542   4.358
 3073SOL    HW110118   1.756   2.469   4.302
 3073SOL    HW210119   1.891   2.520   4.379
 3074SOL     OW10120   4.852   3.510   5.883
 3074SOL    HW110121   4.810   3.543   5.968
 3074SOL    HW210122   4.923   3.443   5.905
 3075SOL     OW10123   0.595   5.818   1.369
 3075SOL    HW110124   0.569   5.911   1.342
 3075SOL    HW210125   0.583   5.807   1.467
 3076SOL     OW10126   0.680   0.424   5.018
 3076SOL    HW110127   0.688   0.496   5.086
 3076SOL    HW210128   0.685   0.465   4.926
 3077SOL     OW10129   5.311   4.232   3.726
 3077SOL    HW110130   5.369   4.311   3.741
 3077SOL    HW210131   5.249   4.221   3.803
 3078SOL     OW10132   2.519   3.272   0.514
 3078SOL    HW110133   2.461   3.250   0.593
 3078SOL    HW210134   2.465   3.264   0.430
 3079SOL     OW10135   5.776   2.844   6.280
 3079SOL    HW110136   5.681   2.847   6.247
 3079SOL    HW210137   5.793   2.922   6.340
 3080SOL     OW10138   5.768   5.896   0.923
 3080SOL    HW110139   5.683   5.947   0.939
 3080SOL    HW210140   5.834   5.918   0.995
 3081SOL     OW10141   6.638   5.241   5.920
 3081SOL    HW110142   6.544   5.227   5.888
 3081SOL    HW210143   6.654   5.339   5.932
 3082SOL     OW10144   2.186   0.117   2.510
 3082SOL    HW110145   2.246   0.083   2.583
 3082SOL    HW210146   2.094   0.080   2.522
 3083SOL     OW10147   3.371   0.740   2.074
 3083SOL    HW110148   3.397   0.645   2.054
 3083SOL    HW210149   3.324   0.744   2.162
 3084SOL     OW10150   4.808   6.458   4.514
 3084SOL    HW110151   4.710   6.454   4.497
 3084SOL    HW210152   4.831   6.543   4.560
 3085SOL     OW10153   0.903   6.170   1.570
 3085SOL    HW110154   0.948   6.244   1.518
 3085SOL    HW210155   0.885   6.201   1.663
 3086SOL     OW10156   5.802   1.613   3.964
 3086SOL    HW110157   5.840   1.532   3.919
 3086SOL    HW210158   5.853   1.694   3.935
 3087SOL     OW10159   5.601   3.110   2.576
 3087SOL    HW110160   5.674   3.152   2.632
 3087SOL    HW210161   5.534   3.180   2.551
 3088SOL     OW10162   2.989   4.161   5.724
 3088SOL    HW110163   3.023   4.081   5.675
 3088SOL    HW210164   3.018   4.156   5.819
 3089SOL     OW10165   2.252   2.439   0.668
 3089SOL    HW110166   2.294   2.397   0.748
 3089SOL    HW210167   2.166   2.483   0.695
 3090SOL     OW10168   0.620   1.347   1.181
 3090SOL    HW110169   0.598   1.419   1.247
 3090SOL    HW210170   0.670   1.274   1.228
 3091SOL     OW10171   2.776   0.323   0.848
 3091SOL    HW110172   2.738   0.287   0.762
 3091SOL    HW210173   2.797   0.420   0.837
 3092SOL     OW10174   3.923   6.221   0.901
 3092SOL    HW110175   3.852   6.251   0.837
 3092SOL    HW210176   3.880   6.178   0.980
 3093SOL     OW10177   4.966   5.842   3.431
 3093SOL    HW110178   4.963   5.808   3.525
 3093SOL    HW210179   4.897   5.913   3.419
 3094SOL     OW10180   3.492   4.927   5.477
 3094SOL    HW110181   3.467   4.898   5.385
 3094SOL    HW210182   3.450   4.866   5.544
 3095SOL     OW10183   2.568   4.736   4.463
 3095SOL    HW110184   2.663   4.767   4.469
 3095SOL    HW210185   2.545   4.683   4.544
 3096SOL     OW10186   0.170   0.634   5.189
 3096SOL    HW110187   0.119   0.554   5.157
 3096SOL    HW210188   0.123   0.675   5.266
 3097SOL     OW10189   1.872   2.986   0.349
 3097SOL    HW110190   1.812   2.952   0.277
 3097SOL    HW210191   1.816   3.020   0.425
 3098SOL     OW10192   4.272   2.172   0.642
 3098SOL    HW110193   4.253   2.267   0.665
 3098SOL    HW210194   4.194   2.133   0.594
 3099SOL     OW10195   1.248   5.962   4.975
 3099SOL    HW110196   1.244   6.061   4.962
 3099SOL    HW210197   1.156   5.927   4.989
 3100SOL     OW10198   6.238   5.942   0.058
 3100SOL    HW110199   6.303   5.939   0.133
 3100SOL    HW210200   6.162   6.004   0.082
 3101SOL     OW10201   4.415   6.882   0.855
 3101SOL    HW110202   4.471   6.964   0.868
 3101SOL    HW210203   4.322   6.900   0.887
 3102SOL     OW10204   0.931   5.425   0.651
 3102SOL    HW110205   0.942   5.521   0.627
 3102SOL    HW210206   1.021   5.382   0.659
 3103SOL     OW10207   4.199   3.740   1.814
 3103SOL    HW110208   4.118   3.784   1.853
 3103SOL    HW210209   4.241   3.801   1.747
 3104SOL     OW10210   6.642   5.100   3.692
 3104SOL    HW110211   6.648   5.064   3.784
 3104SOL    HW210212   6.587   5.039   3.635
 3105SOL     OW10213   6.258   6.108   3.774
 3105SOL    HW110214   6.164   6.079   3.790
 3105SOL    HW210215   6.285   6.174   3.845
 3106SOL     OW10216   6.607   3.190   4.271
 3106SOL    HW110217   6.569   3.283   4.263
 3106SOL    HW210218   6.703   3.196   4.297
 3107SOL     OW10219   2.896   0.183   3.574
 3107SOL    HW110220   2.883   0.203   3.477
 3107SOL    HW210221   2.811   0.146   3.612
 3108SOL     OW10222   3.334   0.416   3.161
 3108SOL    HW110223   3.324   0.345   3.231
 3108SOL    HW210224   3.430   0.443   3.155
 3109SOL     OW10225   4.775   6.104   3.031
 3109SOL    HW110226   4.802   6.146   2.945
 3109SOL    HW210227   4.798   6.165   3.107
 3110SOL     OW10228   0.763   2.760   2.130
 3110SOL    HW110229   0.755   2.841   2.188
 3110SOL    HW210230   0.716   2.683   2.174
 3111SOL     OW10231   6.495   4.914   3.547
 3111SOL    HW110232   6.507   4.843   3.478
 3111SOL    HW210233   6.398   4.921   3.572
 3112SOL     OW10234   3.281   3.783   6.473
 3112SOL    HW110235   3.347   3.710   6.489
 3112SOL    HW210236   3.190   3.751   6.500
 3113SOL     OW10237   3.979   6.943   3.851
 3113SOL    HW110238   4.001   6.888   3.770
 3113SOL    HW210239   3.943   0.011   3.822
 3114SOL     OW10240   5.364   5.582   0.862
 3114SOL    HW110241   5.401   5.565   0.771
 3114SOL    HW210242   5.440   5.596   0.926
 3115SOL     OW10243   2.638   3.437   1.734
 3115SOL    HW110244   2.702   3.440   1.811
 3115SOL    HW210245   2.545   3.445   1.768
 3116SOL     OW10246   6.886   1.628   6.616
 3116SOL    HW110247   6.817   1.668   6.677
 3116SOL    HW210248   6.897   1.687   6.536
 3117SOL     OW10249   4.086   3.786   5.225
 3117SOL    HW110250   4.019   3.712   5.239
 3117SOL    HW210251   4.046   3.856   5.166
 3118SOL     OW10252   5.954   5.188   0.368
 3118SOL    HW110253   5.940   5.101   0.320
 3118SOL    HW210254   6.026   5.239   0.321
 3119SOL     OW10255   1.930   4.940   5.893
 3119SOL    HW110256   2.003   4.955   5.827
 3119SOL    HW210257   1.964   4.955   5.986
 3120SOL     OW10258   2.717   5.900   5.867
 3120SOL    HW110259   2.699   5.847   5.784
 3120SOL    HW210260   2.631   5.928   5.908
 3121SOL     OW10261   0.525   5.846   3.174
 3121SOL    HW110262   0.552   5.768   3.117
 3121SOL    HW210263   0.504   5.924   3.115
 3122SOL     OW10264   2.535   5.092   0.986
 3122SOL    HW110265   2.459   5.151   1.015
 3122SOL    HW210266   2.516   4.998   1.011
 3123SOL     OW10267   3.949   6.552   4.903
 3123SOL    HW110268   3.937   6.547   4.803
 3123SOL    HW210269   4.033   6.504   4.929
 3124SOL     OW10270   3.656   0.291   6.029
 3124SOL    HW110271   3.575   0.305   5.972
 3124SOL    HW210272   3.735   0.334   5.985
 3125SOL     OW10273   6.958   2.320   5.641
 3125SOL    HW110274   6.900   2.259   5.587
 3125SOL    HW210275   0.013   2.268   5.680
 3126SOL     OW10276   3.518   6.843   0.281
 3126SOL    HW110277   3.554   6.834   0.374
 3126SOL    HW210278   3.588   6.883   0.222
 3127SOL     OW10279   1.745   1.130   3.963
 3127SOL    HW110280   1.736   1.154   3.866
 3127SOL    HW210281   1.676   1.179   4.016
 3128SOL     OW10282   1.136   0.932   0.178
 3128SOL    HW110283   1.175   0.970   0.262
 3128SOL    HW210284   1.052   0.882   0.199
 3129SOL     OW10285   1.656   2.559   3.757
 3129SOL    HW110286   1.676   2.648   3.797
 3129SOL    HW210287   1.733   2.530   3.700
 3130SOL     OW10288   2.330   5.641   3.179
 3130SOL    HW110289   2.308   5.672   3.271
 3130SOL    HW210290   2.249   5.603   3.136
 3131SOL     OW10291   0.256   3.219   3.680
 3131SOL    HW110292   0.249   3.142   3.744
 3131SOL    HW210293   0.283   3.185   3.590
 3132SOL     OW10294   5.058   6.158   5.040
 3132SOL    HW110295   5.104   6.208   4.967
 3132SOL    HW210296   5.016   6.075   5.003
 3133SOL     OW10297   2.588   1.772   2.997
 3133SOL    HW110298   2.542   1.734   3.076
 3133SOL    HW210299   2.598   1.871   3.008
 3134SOL     OW10300   5.289   3.580   2.080
 3134SOL    HW110301   5.388   3.589   2.095
 3134SOL    HW210302   5.273   3.539   1.991
 3135SOL     OW10303   2.892   1.553   3.134
 3135SOL    HW110304   2.937   1.560   3.046
 3135SOL    HW210305   2.794   1.572   3.123
 3136SOL     OW10306   6.299   6.499   5.265
 3136SOL    HW110307   6.230   6.570   5.250
 3136SOL    HW210308   6.389   6.542   5.274
 3137SOL     OW10309   6.543   2.166   4.681
 3137SOL    HW110310   6.464   2.193   4.737
 3137SOL    HW210311   6.596   2.097   4.730
 3138SOL     OW10312   5.120   1.752   4.609
 3138SOL    HW110313   5.073   1.808   4.541
 3138SOL    HW210314   5.201   1.801   4.642
 3139SOL     OW10315   4.903   6.569   5.333
 3139SOL    HW110316   4.924   6.552   5.429
 3139SOL    HW210317   4.904   6.483   5.283
 3140SOL     OW10318   6.442   6.088   6.277
 3140SOL    HW110319   6.447   6.065   6.180
 3140SOL    HW210320   6.411   6.009   6.329
 3141SOL     OW10321   0.985   5.150   0.781
 3141SOL    HW110322   0.916   5.222   0.776
 3141SOL    HW210323   0.945   5.067   0.819
 3142SOL     OW10324   3.385   6.984   6.318
 3142SOL    HW110325   3.412   6.899   6.362
 3142SOL    HW210326   3.466   0.011   6.284
 3143SOL     OW10327   0.296   1.409   0.462
 3143SOL    HW110328   0.378   1.459   0.436
 3143SOL    HW210329   0.312   1.362   0.549
 3144SOL     OW10330   1.641   3.649   6.078
 3144SOL    HW110331   1.710   3.699   6.130
 3144SOL    HW210332   1.570   3.617   6.140
 3145SOL     OW10333   3.782   6.075   4.023
 3145SOL    HW110334   3.746   5.986   4.052
 3145SOL    HW210335   3.710   6.127   3.978
 3146SOL     OW10336   2.105   0.603   3.755
 3146SOL    HW110337   2.115   0.624   3.658
 3146SOL    HW210338   2.052   0.519   3.765
 3147SOL     OW10339   3.878   4.127   0.725
 3147SOL    HW110340   3.831   4.192   0.664
 3147SOL    HW210341   3.976   4.146   0.724
 3148SOL     OW10342   3.711   5.367   5.311
 3148SOL    HW110343   3.708   5.466   5.306
 3148SOL    HW210344   3.688   5.337   5.403
 3149SOL     OW10345   2.954   6.445   6.331
 3149SOL    HW110346   2.862   6.451   6.370
 3149SOL    HW210347   2.955   6.485   6.240
 3150SOL     OW10348   0.049   0.052   3.754
 3150SOL    HW110349   0.051   0.011   3.846
 3150SOL    HW210350   0.125   0.117   3.745
 3151SOL     OW10351   3.639   0.264   0.321
 3151SOL    HW110352   3.727   0.230   0.352
 3151SOL    HW210353   3.648   0.303   0.229
 3152SOL     OW10354   1.519   5.124   6.909
 3152SOL    HW110355   1.442   5.077   6.953
 3152SOL    HW210356   1.501   5.222   6.907
 3153SOL     OW10357   6.925   4.272   2.439
 3153SOL    HW110358   6.980   4.348   2.403
 3153SOL    HW210359   6.984   4.194   2.459
 3154SOL     OW10360   5.653   2.309   6.734
 3154SOL    HW110361   5.588   2.376   6.696
 3154SOL    HW210362   5.603   2.245   6.793
 3155SOL     OW10363   4.258   6.425   0.099
 3155SOL    HW110364   4.161   6.447   0.110
 3155SOL    HW210365   4.307   6.505   0.065
 3156SOL     OW10366   3.824   3.389   3.237
 3156SOL    HW110367   3.807   3.294   3.263
 3156SOL    HW210368   3.853   3.441   3.317
 3157SOL     OW10369   1.870   2.767   4.749
 3157SOL    HW110370   1.958   2.786   4.706
 3157SOL    HW210371   1.815   2.710   4.689
 3158SOL     OW10372   3.805   6.037   1.090
 3158SOL    HW110373   3.843   6.073   1.176
 3158SOL    HW210374   3.712   6.004   1.106
 3159SOL     OW10375   5.612   4.480   0.503
 3159SOL    HW110376   5.625   4.574   0.469
 3159SOL    HW210377   5.524   4.445   0.470
 3160SOL     OW10378   5.565   5.043   0.474
 3160SOL    HW110379   5.556   4.945   0.458
 3160SOL    HW210380   5.496   5.092   0.420
 3161SOL     OW10381   0.501   1.939   2.337
 3161SOL    HW110382   0.418   1.981   2.300
 3161SOL    HW210383   0.477   1.874   2.409
 3162SOL     OW10384   6.194   6.992   5.866
 3162SOL    HW110385   6.173   0.052   5.921
 3162SOL    HW210386   6.294   6.980   5.860
 3163SOL     OW10387   2.526   4.726   5.063
 3163SOL    HW110388   2.619   4.698   5.039
 3163SOL    HW210389   2.529   4.796   5.134
 3164SOL     OW10390   5.990   5.700   6.138
 3164SOL    HW110391   5.991   5.604   6.113
 3164SOL    HW210392   5.899   5.739   6.120
 3165SOL     OW10393   0.060   2.824   1.270
 3165SOL    HW110394   0.082   2.904   1.215
 3165SOL    HW210395   0.125   2.816   1.346
 3166SOL     OW10396   5.109   3.221   6.510
 3166SOL    HW110397   5.045   3.207   6.434
 3166SOL    HW210398   5.058   3.239   6.594
 3167SOL     OW10399   0.378   4.211   2.028
 3167SOL    HW110400   0.327   4.296   2.023
 3167SOL    HW210401   0.339   4.153   2.100
 3168SOL     OW10402   4.775   3.360   0.568
 3168SOL    HW110403   4.818   3.269   0.564
 3168SOL    HW210404   4.839   3.428   0.532
 3169SOL     OW10405   1.891   1.977   5.014
 3169SOL    HW110406   1.968   1.918   5.040
 3169SOL    HW210407   1.841   1.934   4.939
 3170SOL     OW10408   4.865   0.963   5.853
 3170SOL    HW110409   4.849   1.013   5.768
 3170SOL    HW210410   4.821   0.874   5.849
 3171SOL     OW10411   6.247   0.122   3.020
 3171SOL    HW110412   6.221   0.055   3.090
 3171SOL    HW210413   6.233   0.214   3.056
 3172SOL     OW10414   5.808   0.491   6.160
 3172SOL    HW110415   5.862   0.496   6.245
 3172SOL    HW210416   5.741   0.418   6.168
 3173SOL     OW10417   1.996   1.535   1.772
 3173SOL    HW110418   1.985   1.620   1.824
 3173SOL    HW210419   2.090   1.528   1.739
 3174SOL     OW10420   2.113   3.340   6.329
 3174SOL    HW110421   2.146   3.339   6.235
 3174SOL    HW210422   2.146   3.422   6.375
 3175SOL     OW10423   6.833   5.951   0.711
 3175SOL    HW110424   6.772   6.026   0.686
 3175SOL    HW210425   6.811   5.871   0.654
 3176SOL     OW10426   1.402   6.148   6.474
 3176SOL    HW110427   1.328   6.159   6.408
 3176SOL    HW210428   1.481   6.105   6.429
 3177SOL     OW10429   0.924   6.789   3.914
 3177SOL    HW110430   0.998   6.787   3.846
 3177SOL    HW210431   0.954   6.840   3.994
 3178SOL     OW10432   2.624   3.579   0.434
 3178SOL    HW110433   2.700   3.601   0.495
 3178SOL    HW210434   2.644   3.495   0.384
 3179SOL     OW10435   1.276   2.483   3.244
 3179SOL    HW110436   1.366   2.483   3.202
 3179SOL    HW210437   1.228   2.568   3.221
 3180SOL     OW10438   5.700   1.622   6.325
 3180SOL    HW110439   5.799   1.633   6.313
 3180SOL    HW210440   5.658   1.598   6.237
 3181SOL     OW10441   0.748   1.366   2.994
 3181SOL    HW110442   0.761   1.458   3.030
 3181SOL    HW210443   0.686   1.315   3.054
 3182SOL     OW10444   1.595   4.935   5.356
 3182SOL    HW110445   1.600   4.855   5.297
 3182SOL    HW210446   1.591   5.018   5.299
 3183SOL     OW10447   4.940   3.173   1.066
 3183SOL    HW110448   4.889   3.250   1.106
 3183SOL    HW210449   4.931   3.093   1.125
 3184SOL     OW10450   0.945   1.786   3.384
 3184SOL    HW110451   0.855   1.807   3.421
 3184SOL    HW210452   0.937   1.713   3.316
 3185SOL     OW10453   0.293   6.366   6.348
 3185SOL    HW110454   0.230   6.391   6.275
 3185SOL    HW210455   0.360   6.439   6.361
 3186SOL     OW10456   3.581   0.704   1.443
 3186SOL    HW110457   3.657   0.769   1.433
 3186SOL    HW210458   3.607   0.633   1.508
 3187SOL     OW10459   2.870   4.070   6.919
 3187SOL    HW110460   2.825   4.143   6.971
 3187SOL    HW210461   2.940   4.028   6.976
 3188SOL     OW10462   4.492   6.927   3.369
 3188SOL    HW110463   4.474   7.012   3.418
 3188SOL    HW210464   4.457   6.935   3.275
 3189SOL     OW10465   6.848   6.820   1.681
 3189SOL    HW110466   6.758   6.831   1.639
 3189SOL    HW210467   6.865   6.723   1.697
 3190SOL     OW10468   0.566   6.786   1.416
 3190SOL    HW110469   0.550   6.692   1.385
 3190SOL    HW210470   0.486   6.842   1.396
 3191SOL     OW10471   2.942   0.229   0.533
 3191SOL    HW110472   2.964   0.235   0.435
 3191SOL    HW210473   2.845   0.206   0.544
 3192SOL     OW10474   5.797   2.187   3.589
 3192SOL    HW110475   5.848   2.117   3.539
 3192SOL    HW210476   5.735   2.234   3.526
 3193SOL     OW10477   4.628   4.300   0.807
 3193SOL    HW110478   4.689   4.364   0.761
 3193SOL    HW210479   4.680   4.221   0.840
 3194SOL     OW10480   1.899   4.714   5.406
 3194SOL    HW110481   1.956   4.710   5.324
 3194SOL    HW210482   1.869   4.808   5.422
 3195SOL     OW10483   1.061   3.616   3.189
 3195SOL    HW110484   1.131   3.562   3.236
 3195SOL    HW210485   1.099   3.705   3.164
 3196SOL     OW10486   0.271   6.894   5.320
 3196SOL    HW110487   0.365   6.882   5.352
 3196SOL    HW210488   0.264   6.865   5.225
 3197SOL     OW10489   0.435   3.909   4.164
 3197SOL    HW110490   0.488   3.853   4.229
 3197SOL    HW210491   0.354   3.858   4.136
 3198SOL     OW10492   5.605   6.619   0.414
 3198SOL    HW110493   5.539   6.569   0.471
 3198SOL    HW210494   5.642   6.696   0.467
 3199SOL     OW10495   3.540   1.565   3.234
 3199SOL    HW110496   3.601   1.521   3.169
 3199SOL    HW210497   3.593   1.598   3.312
 3200SOL     OW10498   0.342   1.976   0.435
 3200SOL    HW110499   0.243   1.967   0.423
 3200SOL    HW210500   0.361   2.013   0.526
 3201SOL     OW10501   4.603   4.367   3.194
 3201SOL    HW110502   4.504   4.358   3.181
 3201SOL    HW210503   4.621   4.400   3.287
 3202SOL     OW10504   1.177   5.866   1.819
 3202SOL    HW110505   1.257   5.807   1.805
 3202SOL    HW210506   1.130   5.839   1.903
 3203SOL     OW10507   5.088   0.354   1.062
 3203SOL    HW110508   5.031   0.303   1.127
 3203SOL    HW210509   5.086   0.451   1.086
 3204SOL     OW10510   6.329   6.065   2.185
 3204SOL    HW110511   6.285   6.099   2.268
 3204SOL    HW210512   6.340   6.140   2.120
 3205SOL     OW10513   0.849   3.959   3.470
 3205SOL    HW110514   0.856   3.862   3.492
 3205SOL    HW210515   0.876   3.974   3.375
 3206SOL     OW10516   1.665   6.545   0.437
 3206SOL    HW110517   1.736   6.542   0.367
 3206SOL    HW210518   1.708   6.557   0.527
 3207SOL     OW10519   0.855   1.291   2.195
 3207SOL    HW110520   0.856   1.193   2.213
 3207SOL    HW210521   0.770   1.331   2.231
 3208SOL     OW10522   6.248   0.557   4.723
 3208SOL    HW110523   6.156   0.579   4.691
 3208SOL    HW210524   6.250   0.463   4.756
 3209SOL     OW10525   2.074   0.120   2.945
 3209SOL    HW110526   2.157   0.156   2.903
 3209SOL    HW210527   2.008   0.194   2.958
 3210SOL     OW10528   0.496   4.831   1.986
 3210SOL    HW110529   0.537   4.901   2.044
 3210SOL    HW210530   0.563   4.759   1.969
 3211SOL     OW10531   1.085   4.038   2.727
 3211SOL    HW110532   1.011   4.046   2.793
 3211SOL    HW210533   1.115   3.943   2.723
 3212SOL     OW10534   5.007   3.270   5.357
 3212SOL    HW110535   4.933   3.274   5.289
 3212SOL    HW210536   5.029   3.175   5.377
 3213SOL     OW10537   4.920   0.193   1.214
 3213SOL    HW110538   4.844   0.134   1.188
 3213SOL    HW210539   4.945   0.176   1.309
 3214SOL     OW10540   4.077   4.203   6.414
 3214SOL    HW110541   3.984   4.174   6.435
 3214SOL    HW210542   4.140   4.127   6.427
 3215SOL     OW10543   6.166   1.298   0.172
 3215SOL    HW110544   6.179   1.222   0.236
 3215SOL    HW210545   6.083   1.283   0.119
 3216SOL     OW10546   6.051   6.614   4.942
 3216SOL    HW110547   6.016   6.654   4.857
 3216SOL    HW210548   5.982   6.553   4.980
 3217SOL     OW10549   6.696   4.059   0.162
 3217SOL    HW110550   6.755   4.107   0.227
 3217SOL    HW210551   6.601   4.065   0.192
 3218SOL     OW10552   3.487   1.462   1.998
 3218SOL    HW110553   3.494   1.555   1.961
 3218SOL    HW210554   3.397   1.424   1.976
 3219SOL     OW10555   0.079   6.611   3.883
 3219SOL    HW110556   0.126   6.588   3.798
 3219SOL    HW210557   0.079   6.531   3.944
 3220SOL     OW10558   5.286   2.735   6.277
 3220SOL    HW110559   5.370   2.681   6.281
 3220SOL    HW210560   5.221   2.702   6.345
 3221SOL     OW10561   3.781   0.815   2.378
 3221SOL    HW110562   3.791   0.812   2.279
 3221SOL    HW210563   3.862   0.855   2.419
 3222SOL     OW10564   6.303   3.996   1.985
 3222SOL    HW110565   6.386   3.940   1.993
 3222SOL    HW210566   6.261   4.007   2.075
 3223SOL     OW10567   2.442   4.538   3.765
 3223SOL    HW110568   2.379   4.481   3.712
 3223SOL    HW210569   2.426   4.523   3.863
 3224SOL     OW10570   3.186   5.815   1.412
 3224SOL    HW110571   3.237   5.847   1.332
 3224SOL    HW210572   3.106   5.873   1.427
 3225SOL     OW10573   1.795   2.962   1.096
 3225SOL    HW110574   1.801   2.863   1.082
 3225SOL    HW210575   1.738   2.981   1.176
 3226SOL     OW10576   0.233   0.532   3.754
 3226SOL    HW110577   0.141   0.571   3.762
 3226SOL    HW210578   0.286   0.553   3.836
 3227SOL     OW10579   1.998   1.768   5.350
 3227SOL    HW110580   2.094   1.789   5.331
 3227SOL    HW210581   1.949   1.852   5.371
 3228SOL     OW10582   4.954   3.237   4.515
 3228SOL    HW110583   4.889   3.173   4.557
 3228SOL    HW210584   4.913   3.328   4.514
 3229SOL     OW10585   4.605   1.846   5.264
 3229SOL    HW110586   4.533   1.778   5.267
 3229SOL    HW210587   4.694   1.801   5.273
 3230SOL     OW10588   1.389   0.531   4.230
 3230SOL    HW110589   1.440   0.528   4.316
 3230SOL    HW210590   1.448   0.503   4.155
 3231SOL     OW10591   4.796   4.948   0.246
 3231SOL    HW110592   4.822   4.852   0.232
 3231SOL    HW210593   4.713   4.952   0.302
 3232SOL     OW10594   1.783   4.251   3.311
 3232SOL    HW110595   1.817   4.158   3.301
 3232SOL    HW210596   1.844   4.315   3.264
 3233SOL     OW10597   1.581   3.897   0.129
 3233SOL    HW110598   1.559   3.986   0.090
 3233SOL    HW210599   1.604   3.908   0.226
 3234SOL     OW10600   6.608   2.554   5.037
 3234SOL    HW110601   6.561   2.629   4.989
 3234SOL    HW210602   6.691   2.589   5.079
 3235SOL     OW10603   5.174   0.882   2.318
 3235SOL    HW110604   5.240   0.874   2.244
 3235SOL    HW210605   5.083   0.857   2.285
 3236SOL     OW10606   0.215   2.851   1.484
 3236SOL    HW110607   0.288   2.918   1.492
 3236SOL    HW210608   0.169   2.840   1.572
 3237SOL     OW10609   3.183   6.186   4.911
 3237SOL    HW110610   3.195   6.279   4.878
 3237SOL    HW210611   3.168   6.125   4.833
 3238SOL     OW10612   6.235   6.323   6.297
 3238SOL    HW110613   6.203   6.353   6.387
 3238SOL    HW210614   6.307   6.256   6.307
 3239SOL     OW10615   0.706   6.191   5.282
 3239SOL    HW110616   0.800   6.210   5.252
 3239SOL    HW210617   0.708   6.142   5.369
 3240SOL     OW10618   0.343   2.141   4.849
 3240SOL    HW110619   0.277   2.215   4.841
 3240SOL    HW210620   0.325   2.073   4.778
 3241SOL     OW10621   4.599   6.987   5.376
 3241SOL    HW110622   4.625   0.038   5.311
 3241SOL    HW210623   4.655   6.906   5.361
 3242SOL     OW10624   3.172   6.843   0.763
 3242SOL    HW110625   3.240   6.784   0.718
 3242SOL    HW210626   3.148   6.918   0.702
 3243SOL     OW10627   3.323   5.322   1.264
 3243SOL    HW110628   3.385   5.250   1.235
 3243SOL    HW210629   3.228   5.290   1.256
 3244SOL     OW10630   1.111   6.351   5.624
 3244SOL    HW110631   1.054   6.326   5.702
 3244SOL    HW210632   1.078   6.437   5.585
 3245SOL     OW10633   3.162   1.744   6.005
 3245SOL    HW110634   3.121   1.653   6.004
 3245SOL    HW210635   3.254   1.740   5.967
 3246SOL     OW10636   5.678   6.556   4.067
 3246SOL    HW110637   5.644   6.463   4.053
 3246SOL    HW210638   5.685   6.603   3.979
 3247SOL     OW10639   6.469   2.850   5.371
 3247SOL    HW110640   6.378   2.868   5.333
 3247SOL    HW210641   6.480   2.752   5.386
 3248SOL     OW10642   5.231   3.728   2.610
 3248SOL    HW110643   5.134   3.729   2.586
 3248SOL    HW210644   5.243   3.683   2.699
 3249SOL     OW10645   3.094   4.868   5.727
 3249SOL    HW110646   3.029   4.796   5.752
 3249SOL    HW210647   3.153   4.889   5.805
 3250SOL     OW10648   4.745   5.502   1.464
 3250SOL    HW110649   4.671   5.449   1.506
 3250SOL    HW210650   4.742   5.491   1.365
 3251SOL     OW10651   3.848   0.406   3.748
 3251SOL    HW110652   3.922   0.471   3.766
 3251SOL    HW210653   3.761   0.447   3.774
 3252SOL     OW10654   3.389   2.072   3.557
 3252SOL    HW110655   3.301   2.047   3.598
 3252SOL    HW210656   3.372   2.122   3.472
 3253SOL     OW10657   4.926   4.285   1.306
 3253SOL    HW110658   4.949   4.347   1.381
 3253SOL    HW210659   4.837   4.310   1.269
 3254SOL     OW10660   6.184   3.955   2.483
 3254SOL    HW110661   6.104   4.008   2.513
 3254SOL    HW210662   6.182   3.865   2.526
 3255SOL     OW10663   4.182   5.317   0.790
 3255SOL    HW110664   4.112   5.361   0.734
 3255SOL    HW210665   4.139   5.274   0.870
 3256SOL     OW10666   6.083   6.484   5.763
 3256SOL    HW110667   6.129   6.447   5.682
 3256SOL    HW210668   6.086   6.583   5.760
 3257SOL     OW10669   1.916   1.740   1.207
 3257SOL    HW110670   1.901   1.664   1.143
 3257SOL    HW210671   1.910   1.826   1.157
 3258SOL     OW10672   4.666   6.802   1.564
 3258SOL    HW110673   4.585   6.747   1.542
 3258SOL    HW210674   4.748   6.754   1.533
 3259SOL     OW10675   6.013   6.234   3.429
 3259SOL    HW110676   5.983   6.193   3.343
 3259SOL    HW210677   6.107   6.207   3.448
 3260SOL     OW10678   1.582   1.673   0.891
 3260SOL    HW110679   1.593   1.772   0.902
 3260SOL    HW210680   1.659   1.636   0.840
 3261SOL     OW10681   4.493   6.704   3.606
 3261SOL    HW110682   4.549   6.785   3.586
 3261SOL    HW210683   4.450   6.672   3.522
 3262SOL     OW10684   3.491   1.500   3.928
 3262SOL    HW110685   3.412   1.531   3.875
 3262SOL    HW210686   3.549   1.442   3.870
 3263SOL     OW10687   3.718   4.928   2.933
 3263SOL    HW110688   3.730   4.980   3.018
 3263SOL    HW210689   3.808   4.903   2.896
 3264SOL     OW10690   4.899   4.963   6.028
 3264SOL    HW110691   4.849   5.043   6.062
 3264SOL    HW210692   4.997   4.985   6.023
 3265SOL     OW10693   5.254   0.014   6.166
 3265SOL    HW110694   5.188   0.063   6.109
 3265SOL    HW210695   5.340   0.002   6.116
 3266SOL     OW10696   1.258   2.771   6.481
 3266SOL    HW110697   1.333   2.705   6.472
 3266SOL    HW210698   1.291   2.851   6.530
 3267SOL     OW10699   5.063   3.123   1.795
 3267SOL    HW110700   5.035   3.030   1.775
 3267SOL    HW210701   5.117   3.124   1.879
 3268SOL     OW10702   1.753   4.975   6.541
 3268SOL    HW110703   1.829   4.932   6.590
 3268SOL    HW210704   1.706   4.907   6.485
 3269SOL     OW10705   4.683   3.555   0.759
 3269SOL    HW110706   4.595   3.559   0.806
 3269SOL    HW210707   4.692   3.466   0.713
 3270SOL     OW10708   0.174   5.083   3.775
 3270SOL    HW110709   0.225   5.153   3.825
 3270SOL    HW210710   0.116   5.032   3.838
 3271SOL     OW10711   4.854   0.371   2.100
 3271SOL    HW110712   4.902   0.388   2.186
 3271SOL    HW210713   4.919   0.335   2.033
 3272SOL     OW10714   4.724   6.439   6.686
 3272SOL    HW110715   4.805   6.482   6.726
 3272SOL    HW210716   4.753   6.368   6.622
 3273SOL     OW10717   1.217   0.934   3.165
 3273SOL    HW110718   1.176   0.854   3.209
 3273SOL    HW210719   1.229   0.916   3.068
 3274SOL     OW10720   2.831   1.565   6.533
 3274SOL    HW110721   2.763   1.607   6.594
 3274SOL    HW210722   2.923   1.588   6.565
 3275SOL     OW10723   4.502   1.072   7.012
 3275SOL    HW110724   4.416   1.123   7.016
 3275SOL    HW210725   4.490   0.991   6.954
 3276SOL     OW10726   2.158   6.029   0.233
 3276SOL    HW110727   2.144   5.955   0.167
 3276SOL    HW210728   2.070   6.063   0.264
 3277SOL     OW10729   6.874   6.261   6.362
 3277SOL    HW110730   6.919   6.337   6.409
 3277SOL    HW210731   6.797   6.295   6.308
 3278SOL     OW10732   0.831   0.861   0.222
 3278SOL    HW110733   0.801   0.956   0.232
 3278SOL    HW210734   0.817   0.813   0.308
 3279SOL     OW10735   1.950   6.433   0.877
 3279SOL    HW110736   1.873   6.421   0.814
 3279SOL    HW210737   1.968   6.347   0.924
 3280SOL     OW10738   2.420   6.432   4.306
 3280SOL    HW110739   2.464   6.514   4.269
 3280SOL    HW210740   2.438   6.355   4.246
 3281SOL     OW10741   2.248   6.135   0.527
 3281SOL    HW110742   2.287   6.060   0.474
 3281SOL    HW210743   2.319   6.177   0.583
 3282SOL     OW10744   2.149   5.378   2.625
 3282SOL    HW110745   2.064   5.329   2.606
 3282SOL    HW210746   2.154   5.460   2.568
 3283SOL     OW10747   2.264   6.806   3.564
 3283SOL    HW110748   2.215   6.721   3.583
 3283SOL    HW210749   2.350   6.785   3.518
 3284SOL     OW10750   1.081   5.001   5.663
 3284SOL    HW110751   1.153   5.054   5.707
 3284SOL    HW210752   1.049   5.048   5.581
 3285SOL     OW10753   0.224   2.810   4.127
 3285SOL    HW110754   0.323   2.809   4.135
 3285SOL    HW210755   0.195   2.749   4.053
 3286SOL     OW10756   4.510   4.519   6.548
 3286SOL    HW110757   4.457   4.586   6.497
 3286SOL    HW210758   4.582   4.566   6.599
 3287SOL     OW10759   0.194   3.488   1.556
 3287SOL    HW110760   0.280   3.538   1.548
 3287SOL    HW210761   0.140   3.527   1.631
 3288SOL     OW10762   1.003   0.139   6.533
 3288SOL    HW110763   1.001   0.167   6.629
 3288SOL    HW210764   1.070   0.066   6.520
 3289SOL     OW10765   1.262   6.126   4.286
 3289SOL    HW110766   1.298   6.154   4.197
 3289SOL    HW210767   1.234   6.207   4.337
 3290SOL     OW10768   0.005   4.826   3.233
 3290SOL    HW110769   0.097   4.797   3.207
 3290SOL    HW210770   7.002   4.909   3.182
 3291SOL     OW10771   1.849   0.686   2.306
 3291SOL    HW110772   1.871   0.599   2.262
 3291SOL    HW210773   1.932   0.740   2.317
 3292SOL     OW10774   0.803   5.525   4.802
 3292SOL    HW110775   0.716   5.490   4.836
 3292SOL    HW210776   0.841   5.589   4.868
 3293SOL     OW10777   6.022   0.967   3.303
 3293SOL    HW110778   6.116   0.988   3.276
 3293SOL    HW210779   5.997   0.876   3.269
 3294SOL     OW10780   0.335   6.859   0.925
 3294SOL    HW110781   0.424   6.828   0.892
 3294SOL    HW210782   0.286   6.782   0.966
 3295SOL     OW10783   2.178   2.300   6.211
 3295SOL    HW110784   2.090   2.316   6.257
 3295SOL    HW210785   2.235   2.382   6.219
 3296SOL     OW10786   0.891   6.698   2.522
 3296SOL    HW110787   0.865   6.679   2.427
 3296SOL    HW210788   0.823   6.758   2.564
 3297SOL     OW10789   3.281   1.417   5.946
 3297SOL    HW110790   3.189   1.381   5.956
 3297SOL    HW210791   3.345   1.359   5.997
 3298SOL     OW10792   0.049   4.451   2.336
 3298SOL    HW110793   0.019   4.529   2.281
 3298SOL    HW210794   0.147   4.458   2.355
 3299SOL     OW10795   1.197   1.576   4.646
 3299SOL    HW110796   1.184   1.492   4.593
 3299SOL    HW210797   1.148   1.568   4.733
 3300SOL     OW10798   0.001   0.042   5.111
 3300SOL    HW110799   0.079   0.105   5.103
 3300SOL    HW210800   6.937   0.095   5.120
 3301SOL     OW10801   6.769   3.596   2.180
 3301SOL    HW110802   6.763   3.695   2.189
 3301SOL    HW210803   6.845   3.562   2.236
 3302SOL     OW10804   1.015   6.390   5.278
 3302SOL    HW110805   1.008   6.307   5.333
 3302SOL    HW210806   1.041   6.467   5.335
 3303SOL     OW10807   2.900   3.482   4.234
 3303SOL    HW110808   2.899   3.424   4.315
 3303SOL    HW210809   2.942   3.570   4.256
 3304SOL     OW10810   1.487   0.683   3.360
 3304SOL    HW110811   1.418   0.635   3.306
 3304SOL    HW210812   1.573   0.686   3.309
 3305SOL     OW10813   0.742   3.110   0.311
 3305SOL    HW110814   0.730   3.125   0.410
 3305SOL    HW210815   0.652   3.091   0.270
 3306SOL     OW10816   1.143   2.579   2.379
 3306SOL    HW110817   1.080   2.639   2.331
 3306SOL    HW210818   1.167   2.502   2.320
 3307SOL     OW10819   0.898   0.002   0.607
 3307SOL    HW110820   0.805   7.006   0.573
 3307SOL    HW210821   0.913   0.101   0.614
 3308SOL     OW10822   5.038   6.242   1.032
 3308SOL    HW110823   4.978   6.245   1.112
 3308SOL    HW210824   4.996   6.294   0.957
 3309SOL     OW10825   1.529   4.742   2.348
 3309SOL    HW110826   1.573   4.791   2.423
 3309SOL    HW210827   1.591   4.672   2.313
 3310SOL     OW10828   1.581   0.027   2.143
 3310SOL    HW110829   1.563   0.101   2.207
 3310SOL    HW210830   1.677   0.029   2.116
 3311SOL     OW10831   3.983   5.898   0.913
 3311SOL    HW110832   4.066   5.859   0.952
 3311SOL    HW210833   3.935   5.951   0.983
 3312SOL     OW10834   2.006   2.852   6.210
 3312SOL    HW110835   1.932   2.804   6.257
 3312SOL    HW210836   1.972   2.936   6.170
 3313SOL     OW10837   6.165   6.297   5.043
 3313SOL    HW110838   6.143   6.369   5.108
 3313SOL    HW210839   6.139   6.325   4.951
 3314SOL     OW10840   0.869   4.500   6.698
 3314SOL    HW110841   0.816   4.542   6.771
 3314SOL    HW210842   0.956   4.467   6.735
 3315SOL     OW10843   6.691   2.948   3.286
 3315SOL    HW110844   6.631   3.004   3.230
 3315SOL    HW210845   6.638   2.876   3.331
 3316SOL     OW10846   4.395   1.286   0.281
 3316SOL    HW110847   4.465   1.348   0.245
 3316SOL    HW210848   4.432   1.235   0.359
 3317SOL     OW10849   4.207   2.217   1.285
 3317SOL    HW110850   4.293   2.166   1.292
 3317SOL    HW210851   4.137   2.171   1.339
 3318SOL     OW10852   2.566   5.416   5.644
 3318SOL    HW110853   2.628   5.488   5.615
 3318SOL    HW210854   2.479   5.456   5.675
 3319SOL     OW10855   6.554   6.318   6.619
 3319SOL    HW110856   6.617   6.390   6.650
 3319SOL    HW210857   6.507   6.279   6.698
 3320SOL     OW10858   0.889   0.554   0.950
 3320SOL    HW110859   0.972   0.576   1.002
 3320SOL    HW210860   0.849   0.638   0.914
 3321SOL     OW10861   3.716   3.886   4.056
 3321SOL    HW110862   3.698   3.851   3.963
 3321SOL    HW210863   3.814   3.886   4.073
 3322SOL     OW10864   4.554   2.162   2.010
 3322SOL    HW110865   4.483   2.094   2.029
 3322SOL    HW210866   4.590   2.148   1.918
 3323SOL     OW10867   1.983   4.844   0.091
 3323SOL    HW110868   1.950   4.805   0.004
 3323SOL    HW210869   1.928   4.807   0.166
 3324SOL     OW10870   6.131   3.215   1.422
 3324SOL    HW110871   6.205   3.222   1.490
 3324SOL    HW210872   6.136   3.293   1.360
 3325SOL     OW10873   0.824   5.009   5.873
 3325SOL    HW110874   0.798   4.952   5.795
 3325SOL    HW210875   0.838   4.951   5.953
 3326SOL     OW10876   5.523   0.379   2.258
 3326SOL    HW110877   5.448   0.410   2.199
 3326SOL    HW210878   5.533   0.280   2.250
 3327SOL     OW10879   4.712   6.000   1.968
 3327SOL    HW110880   4.729   5.978   1.872
 3327SOL    HW210881   4.790   6.050   2.006
 3328SOL     OW10882   6.218   6.539   4.135
 3328SOL    HW110883   6.120   6.517   4.136
 3328SOL    HW210884   6.230   6.638   4.134
 3329SOL     OW10885   6.042   0.658   6.088
 3329SOL    HW110886   6.015   0.742   6.135
 3329SOL    HW210887   5.974   0.587   6.104
 3330SOL     OW10888   6.775   6.852   2.685
 3330SOL    HW110889   6.773   6.767   2.632
 3330SOL    HW210890   6.785   6.929   2.623
 3331SOL     OW10891   1.824   3.843   2.422
 3331SOL    HW110892   1.829   3.748   2.453
 3331SOL    HW210893   1.774   3.897   2.490
 3332SOL     OW10894   3.688   5.312   0.490
 3332SOL    HW110895   3.695   5.394   0.433
 3332SOL    HW210896   3.780   5.282   0.517
 3333SOL     OW10897   1.925   3.605   0.844
 3333SOL    HW110898   1.953   3.668   0.772
 3333SOL    HW210899   2.000   3.541   0.862
 3334SOL     OW10900   1.191   2.325   2.259
 3334SOL    HW110901   1.097   2.294   2.271
 3334SOL    HW210902   1.218   2.314   2.163
 3335SOL     OW10903   3.554   4.259   5.648
 3335SOL    HW110904   3.612   4.319   5.702
 3335SOL    HW210905   3.465   4.248   5.694
 3336SOL     OW10906   3.933   5.957   5.765
 3336SOL    HW110907   3.935   5.880   5.829
 3336SOL    HW210908   3.943   6.043   5.816
 3337SOL     OW10909   3.682   2.888   3.892
 3337SOL    HW110910   3.620   2.966   3.899
 3337SOL    HW210911   3.711   2.877   3.797
 3338SOL     OW10912   2.716   3.347   1.510
 3338SOL    HW110913   2.715   3.432   1.458
 3338SOL    HW210914   2.694   3.365   1.606
 3339SOL     OW10915   0.743   6.581   6.629
 3339SOL    HW110916   0.727   6.658   6.690
 3339SOL    HW210917   0.839   6.553   6.636
 3340SOL     OW10918   4.253   1.303   6.424
 3340SOL    HW110919   4.308   1.227   6.460
 3340SOL    HW210920   4.250   1.376   6.492
 3341SOL     OW10921   1.567   3.876   1.139
 3341SOL    HW110922   1.620   3.915   1.063
 3341SOL    HW210923   1.470   3.878   1.116
 3342SOL     OW10924   5.962   0.255   2.293
 3342SOL    HW110925   5.927   0.345   2.267
 3342SOL    HW210926   6.024   0.265   2.371
 3343SOL     OW10927   3.494   5.369   0.877
 3343SOL    HW110928   3.446   5.405   0.957
 3343SOL    HW210929   3.497   5.438   0.806
 3344SOL     OW10930   1.265   3.195   1.760
 3344SOL    HW110931   1.259   3.099   1.733
 3344SOL    HW210932   1.340   3.207   1.825
 3345SOL     OW10933   5.399   5.435   1.201
 3345SOL    HW110934   5.307   5.455   1.166
 3345SOL    HW210935   5.392   5.386   1.287
 3346SOL     OW10936   1.437   0.854   0.079
 3346SOL    HW110937   1.383   0.897   0.007
 3346SOL    HW210938   1.416   0.756   0.083
 3347SOL     OW10939   1.184   3.800   5.519
 3347SOL    HW110940   1.188   3.900   5.527
 3347SOL    HW210941   1.207   3.758   5.607
 3348SOL     OW10942   3.323   4.038   6.210
 3348SOL    HW110943   3.288   4.025   6.117
 3348SOL    HW210944   3.290   4.125   6.246
 3349SOL     OW10945   1.548   5.642   1.718
 3349SOL    HW110946   1.625   5.672   1.775
 3349SOL    HW210947   1.576   5.562   1.664
 3350SOL     OW10948   2.197   4.948   5.008
 3350SOL    HW110949   2.245   4.905   5.085
 3350SOL    HW210950   2.099   4.927   5.015
 3351SOL     OW10951   5.159   0.076   1.724
 3351SOL    HW110952   5.094   0.010   1.761
 3351SOL    HW210953   5.228   0.029   1.670
 3352SOL     OW10954   5.384   1.518   6.737
 3352SOL    HW110955   5.480   1.500   6.759
 3352SOL    HW210956   5.325   1.473   6.804
 3353SOL     OW10957   3.942   1.308   6.523
 3353SOL    HW110958   3.943   1.256   6.608
 3353SOL    HW210959   3.960   1.405   6.543
 3354SOL     OW10960   2.389   3.239   0.269
 3354SOL    HW110961   2.353   3.162   0.216
 3354SOL    HW210962   2.437   3.302   0.208
 3355SOL     OW10963   1.377   1.061   4.662
 3355SOL    HW110964   1.368   1.025   4.569
 3355SOL    HW210965   1.326   1.146   4.671
 3356SOL     OW10966   2.883   0.597   6.293
 3356SOL    HW110967   2.824   0.518   6.314
 3356SOL    HW210968   2.974   0.564   6.269
 3357SOL     OW10969   3.056   3.661   3.451
 3357SOL    HW110970   2.991   3.710   3.510
 3357SOL    HW210971   3.053   3.699   3.359
 3358SOL     OW10972   6.988   1.924   1.048
 3358SOL    HW110973   0.035   1.996   1.034
 3358SOL    HW210974   6.948   1.933   1.139
 3359SOL     OW10975   1.495   0.020   4.107
 3359SOL    HW110976   1.464   6.946   4.110
 3359SOL    HW210977   1.507   0.054   4.200
 3360SOL     OW10978   1.627   5.269   4.576
 3360SOL    HW110979   1.606   5.367   4.571
 3360SOL    HW210980   1.579   5.228   4.653
 3361SOL     OW10981   6.582   6.658   4.196
 3361SOL    HW110982   6.594   6.581   4.134
 3361SOL    HW210983   6.543   6.736   4.146
 3362SOL     OW10984   3.941   0.370   4.305
 3362SOL    HW110985   3.954   0.328   4.395
 3362SOL    HW210986   3.852   0.342   4.268
 3363SOL     OW10987   5.243   4.005   0.250
 3363SOL    HW110988   5.330   4.037   0.214
 3363SOL    HW210989   5.244   3.905   0.255
 3364SOL     OW10990   1.936   3.629   1.546
 3364SOL    HW110991   1.872   3.556   1.519
 3364SOL    HW210992   1.979   3.606   1.633
 3365SOL     OW10993   1.239   2.536   2.787
 3365SOL    HW110994   1.227   2.636   2.782
 3365SOL    HW210995   1.336   2.514   2.773
 3366SOL     OW10996   6.071   2.502   4.450
 3366SOL    HW110997   6.009   2.426   4.465
 3366SOL    HW210998   6.117   2.491   4.362
 3367SOL     OW10999   3.724   3.242   3.628
 3367SOL    HW111000   3.718   3.236   3.528
 3367SOL    HW211001   3.703   3.152   3.668
 3368SOL     OW11002   2.534   1.031   3.537
 3368SOL    HW111003   2.574   1.018   3.627
 3368SOL    HW211004   2.445   1.076   3.547
 3369SOL     OW11005   5.029   2.939   1.256
 3369SOL    HW111006   4.971   2.933   1.337
 3369SOL    HW211007   5.105   3.000   1.274
 3370SOL     OW11008   1.170   5.484   3.023
 3370SOL    HW111009   1.140   5.491   2.928
 3370SOL    HW211010   1.094   5.455   3.081
 3371SOL     OW11011   2.649   3.108   1.397
 3371SOL    HW111012   2.645   3.129   1.299
 3371SOL    HW211013   2.688   3.186   1.446
 3372SOL     OW11014   5.616   2.737   3.431
 3372SOL    HW111015   5.704   2.709   3.470
 3372SOL    HW211016   5.628   2.759   3.335
 3373SOL     OW11017   0.134   4.541   0.647
 3373SOL    HW111018   0.160   4.638   0.654
 3373SOL    HW211019   0.159   4.506   0.557
 3374SOL     OW11020   1.173   5.704   4.110
 3374SOL    HW111021   1.137   5.612   4.122
 3374SOL    HW211022   1.131   5.765   4.177
 3375SOL     OW11023   0.420   6.248   5.879
 3375SOL    HW111024   0.388   6.341   5.861
 3375SOL    HW211025   0.500   6.252   5.940
 3376SOL     OW11026   3.456   3.529   5.024
 3376SOL    HW111027   3.387   3.540   5.095
 3376SOL    HW211028   3.437   3.447   4.972
 3377SOL     OW11029   6.692   5.302   4.252
 3377SOL    HW111030   6.739   5.315   4.165
 3377SOL    HW211031   6.756   5.264   4.319
 3378SOL     OW11032   0.929   5.713   0.661
 3378SOL    HW111033   0.840   5.714   0.706
 3378SOL    HW211034   0.987   5.784   0.699
 3379SOL     OW11035   5.817   4.224   4.116
 3379SOL    HW111036   5.718   4.209   4.125
 3379SOL    HW211037   5.857   4.235   4.207
 3380SOL     OW11038   1.790   5.321   1.677
 3380SOL    HW111039   1.838   5.259   1.739
 3380SOL    HW211040   1.760   5.402   1.727
 3381SOL     OW11041   2.907   4.002   6.075
 3381SOL    HW111042   2.884   4.097   6.094
 3381SOL    HW211043   2.935   3.957   6.159
 3382SOL     OW11044   6.922   3.874   6.684
 3382SOL    HW111045   6.843   3.917   6.639
 3382SOL    HW211046   6.991   3.944   6.703
 3383SOL     OW11047   2.939   5.985   0.684
 3383SOL    HW111048   3.015   6.048   0.701
 3383SOL    HW211049   2.968   5.916   0.617
 3384SOL     OW11050   2.814   2.866   6.407
 3384SOL    HW111051   2.908   2.863   6.375
 3384SOL    HW211052   2.813   2.878   6.507
 3385SOL     OW11053   5.969   2.605   4.986
 3385SOL    HW111054   5.934   2.685   4.936
 3385SOL    HW211055   6.051   2.631   5.037
 3386SOL     OW11056   0.694   6.161   4.802
 3386SOL    HW111057   0.708   6.062   4.809
 3386SOL    HW211058   0.762   6.208   4.858
 3387SOL     OW11059   6.100   0.156   2.673
 3387SOL    HW111060   6.173   0.091   2.695
 3387SOL    HW211061   6.016   0.106   2.654
 3388SOL     OW11062   0.675   4.004   0.541
 3388SOL    HW111063   0.709   3.912   0.522
 3388SOL    HW211064   0.644   4.009   0.635
 3389SOL     OW11065   6.693   5.462   6.277
 3389SOL    HW111066   6.721   5.465   6.182
 3389SOL    HW211067   6.616   5.524   6.291
 3390SOL     OW11068   3.136   5.438   0.701
 3390SOL    HW111069   3.219   5.415   0.751
 3390SOL    HW211070   3.064   5.462   0.766
 3391SOL     OW11071   5.152   3.805   5.201
 3391SOL    HW111072   5.204   3.874   5.251
 3391SOL    HW211073   5.214   3.752   5.143
 3392SOL     OW11074   5.232   6.443   5.613
 3392SOL    HW111075   5.311   6.493   5.650
 3392SOL    HW211076   5.263   6.381   5.541
 3393SOL     OW11077   3.322   6.938   0.441
 3393SOL    HW111078   3.380   7.004   0.489
 3393SOL    HW211079   3.379   6.884   0.379
 3394SOL     OW11080   2.765   5.261   1.453
 3394SOL    HW111081   2.675   5.227   1.482
 3394SOL    HW211082   2.755   5.355   1.419
 3395SOL     OW11083   1.895   6.614   3.046
 3395SOL    HW111084   1.919   6.711   3.052
 3395SOL    HW211085   1.976   6.559   3.066
 3396SOL     OW11086   4.797   0.576   4.680
 3396SOL    HW111087   4.732   0.643   4.644
 3396SOL    HW211088   4.755   0.527   4.756
 3397SOL     OW11089   2.457   6.170   1.126
 3397SOL    HW111090   2.498   6.114   1.055
 3397SOL    HW211091   2.448   6.264   1.094
 3398SOL     OW11092   6.642   0.922   6.430
 3398SOL    HW111093   6.733   0.964   6.426
 3398SOL    HW211094   6.573   0.991   6.409
 3399SOL     OW11095   0.289   6.458   2.276
 3399SOL    HW111096   0.232   6.389   2.321
 3399SOL    HW211097   0.254   6.549   2.300
 3400SOL     OW11098   3.515   2.723   5.436
 3400SOL    HW111099   3.513   2.623   5.438
 3400SOL    HW211100   3.582   2.756   5.503
 3401SOL     OW11101   0.027   3.017   4.207
 3401SOL    HW111102   6.988   3.050   4.133
 3401SOL    HW211103   0.085   2.943   4.172
 3402SOL     OW11104   5.501   3.209   0.285
 3402SOL    HW111105   5.465   3.279   0.223
 3402SOL    HW211106   5.559   3.253   0.354
 3403SOL     OW11107   5.726   6.179   4.818
 3403SOL    HW111108   5.739   6.263   4.871
 3403SOL    HW211109   5.633   6.178   4.781
 3404SOL     OW11110   5.087   5.158   3.149
 3404SOL    HW111111   5.155   5.125   3.214
 3404SOL    HW211112   5.005   5.101   3.155
 3405SOL     OW11113   4.234   6.193   0.936
 3405SOL    HW111114   4.135   6.180   0.944
 3405SOL    HW211115   4.274   6.203   1.027
 3406SOL     OW11116   3.732   5.191   1.223
 3406SOL    HW111117   3.779   5.279   1.232
 3406SOL    HW211118   3.777   5.137   1.151
 3407SOL     OW11119   1.504   2.872   0.497
 3407SOL    HW111120   1.420   2.880   0.442
 3407SOL    HW211121   1.487   2.810   0.574
 3408SOL     OW11122   4.258   6.531   4.048
 3408SOL    HW111123   4.228   6.537   3.952
 3408SOL    HW211124   4.271   6.435   4.073
 3409SOL     OW11125   4.518   2.020   6.967
 3409SOL    HW111126   4.543   2.117   6.977
 3409SOL    HW211127   4.421   2.012   6.948
 3410SOL     OW11128   6.813   0.681   2.273
 3410SOL    HW111129   6.834   0.702   2.177
 3410SOL    HW211130   6.858   0.595   2.298
 3411SOL     OW11131   5.675   3.106   5.923
 3411SOL    HW111132   5.744   3.134   5.989
 3411SOL    HW211133   5.703   3.019   5.881
 3412SOL     OW11134   5.674   2.801   3.761
 3412SOL    HW111135   5.648   2.895   3.738
 3412SOL    HW211136   5.734   2.765   3.689
 3413SOL     OW11137   0.447   2.590   0.773
 3413SOL    HW111138   0.435   2.653   0.850
 3413SOL    HW211139   0.449   2.496   0.807
 3414SOL     OW11140   3.937   3.100   2.025
 3414SOL    HW111141   3.917   3.068   1.932
 3414SOL    HW211142   3.990   3.185   2.020
 3415SOL     OW11143   2.446   1.419   6.398
 3415SOL    HW111144   2.519   1.366   6.441
 3415SOL    HW211145   2.411   1.370   6.319
 3416SOL     OW11146   5.612   6.659   6.139
 3416SOL    HW111147   5.626   6.710   6.224
 3416SOL    HW211148   5.541   6.704   6.085
 3417SOL     OW11149   5.549   0.331   2.699
 3417SOL    HW111150   5.518   0.352   2.792
 3417SOL    HW211151   5.505   0.393   2.634
 3418SOL     OW11152   4.261   6.203   0.658
 3418SOL    HW111153   4.178   6.253   0.633
 3418SOL    HW211154   4.272   6.203   0.757
 3419SOL     OW11155   3.125   4.815   5.209
 3419SOL    HW111156   3.171   4.850   5.128
 3419SOL    HW211157   3.074   4.732   5.184
 3420SOL     OW11158   4.090   1.079   2.138
 3420SOL    HW111159   4.138   1.079   2.050
 3420SOL    HW211160   3.999   1.041   2.126
 3421SOL     OW11161   0.098   1.797   4.450
 3421SOL    HW111162   0.129   1.748   4.531
 3421SOL    HW211163   7.020   1.782   4.437
 3422SOL     OW11164   3.479   5.692   2.021
 3422SOL    HW111165   3.381   5.688   1.999
 3422SOL    HW211166   3.524   5.610   1.987
 3423SOL     OW11167   2.166   4.511   6.170
 3423SOL    HW111168   2.131   4.590   6.120
 3423SOL    HW211169   2.177   4.535   6.267
 3424SOL     OW11170   5.321   0.068   2.394
 3424SOL    HW111171   5.377   0.065   2.311
 3424SOL    HW211172   5.379   0.067   2.474
 3425SOL     OW11173   5.870   3.091   6.109
 3425SOL    HW111174   5.951   3.033   6.109
 3425SOL    HW211175   5.883   3.167   6.172
 3426SOL     OW11176   6.695   5.518   6.873
 3426SOL    HW111177   6.714   5.548   6.779
 3426SOL    HW211178   6.671   5.421   6.874
 3427SOL     OW11179   2.015   1.354   6.332
 3427SOL    HW111180   2.056   1.444   6.321
 3427SOL    HW211181   2.088   1.286   6.340
 3428SOL     OW11182   5.025   0.553   4.529
 3428SOL    HW111183   4.933   0.568   4.564
 3428SOL    HW211184   5.091   0.596   4.590
 3429SOL     OW11185   3.966   6.533   0.781
 3429SOL    HW111186   4.060   6.566   0.791
 3429SOL    HW211187   3.964   6.433   0.781
 3430SOL     OW11188   2.944   4.625   6.727
 3430SOL    HW111189   2.853   4.666   6.718
 3430SOL    HW211190   3.009   4.694   6.757
 3431SOL     OW11191   0.962   4.206   2.940
 3431SOL    HW111192   1.059   4.187   2.954
 3431SOL    HW211193   0.950   4.262   2.858
 3432SOL     OW11194   0.492   5.295   6.893
 3432SOL    HW111195   0.521   5.313   6.988
 3432SOL    HW211196   0.409   5.346   6.873
 3433SOL     OW11197   0.704   0.652   0.479
 3433SOL    HW111198   0.723   0.577   0.416
 3433SOL    HW211199   0.605   0.658   0.495
 3434SOL     OW11200   3.931   2.095   2.134
 3434SOL    HW111201   3.958   2.014   2.082
 3434SOL    HW211202   3.850   2.136   2.093
 3435SOL     OW11203   2.071   2.916   1.095
 3435SOL    HW111204   2.126   2.997   1.117
 3435SOL    HW211205   1.975   2.943   1.082
 3436SOL     OW11206   4.192   6.178   5.881
 3436SOL    HW111207   4.259   6.211   5.947
 3436SOL    HW211208   4.101   6.174   5.924
 3437SOL     OW11209   1.581   6.716   0.031
 3437SOL    HW111210   1.516   6.649   7.015
 3437SOL    HW211211   1.647   6.669   0.090
 3438SOL     OW11212   1.948   4.359   0.427
 3438SOL    HW111213   1.897   4.273   0.417
 3438SOL    HW211214   2.016   4.366   0.354
 3439SOL     OW11215   2.654   5.968   0.598
 3439SOL    HW111216   2.614   6.049   0.642
 3439SOL    HW211217   2.745   5.951   0.636
 3440SOL     OW11218   3.572   3.847   5.858
 3440SOL    HW111219   3.555   3.910   5.933
 3440SOL    HW211220   3.636   3.776   5.887
 3441SOL     OW11221   6.489   5.102   4.910
 3441SOL    HW111222   6.445   5.026   4.863
 3441SOL    HW211223   6.513   5.074   5.003
 3442SOL     OW11224   1.364   2.176   0.332
 3442SOL    HW111225   1.270   2.157   0.362
 3442SOL    HW211226   1.428   2.145   0.403
 3443SOL     OW11227   0.515   5.874   2.751
 3443SOL    HW111228   0.552   5.836   2.666
 3443SOL    HW211229   0.555   5.963   2.768
 3444SOL     OW11230   0.501   4.387   6.144
 3444SOL    HW111231   0.452   4.429   6.067
 3444SOL    HW211232   0.546   4.304   6.112
 3445SOL     OW11233   5.533   5.439   4.636
 3445SOL    HW111234   5.597   5.479   4.570
 3445SOL    HW211235   5.484   5.364   4.593
 3446SOL     OW11236   4.753   1.894   0.051
 3446SOL    HW111237   4.729   1.989   0.070
 3446SOL    HW211238   4.696   1.859   6.998
 3447SOL     OW11239   4.866   1.490   6.074
 3447SOL    HW111240   4.866   1.550   6.155
 3447SOL    HW211241   4.915   1.535   6.000
 3448SOL     OW11242   0.802   4.884   5.418
 3448SOL    HW111243   0.844   4.974   5.431
 3448SOL    HW211244   0.823   4.826   5.497
 3449SOL     OW11245   1.353   3.619   5.109
 3449SOL    HW111246   1.409   3.582   5.035
 3449SOL    HW211247   1.264   3.645   5.073
 3450SOL     OW11248   2.688   6.784   2.355
 3450SOL    HW111249   2.636   6.850   2.409
 3450SOL    HW211250   2.751   6.735   2.415
 3451SOL     OW11251   1.982   2.402   0.197
 3451SOL    HW111252   1.971   2.311   0.156
 3451SOL    HW211253   2.079   2.426   0.197
 3452SOL     OW11254   4.363   1.119   6.567
 3452SOL    HW111255   4.448   1.103   6.617
 3452SOL    HW211256   4.285   1.105   6.629
 3453SOL     OW11257   4.658   6.382   5.966
 3453SOL    HW111258   4.735   6.324   5.938
 3453SOL    HW211259   4.685   6.478   5.957
 3454SOL     OW11260   1.259   2.793   2.700
 3454SOL    HW111261   1.234   2.833   2.612
 3454SOL    HW211262   1.263   2.864   2.770
 3455SOL     OW11263   0.344   4.532   5.983
 3455SOL    HW111264   0.334   4.602   5.913
 3455SOL    HW211265   0.256   4.516   6.027
 3456SOL     OW11266   4.374   5.410   3.287
 3456SOL    HW111267   4.348   5.313   3.291
 3456SOL    HW211268   4.328   5.454   3.211
 3457SOL     OW11269   4.097   4.358   0.053
 3457SOL    HW111270   4.060   4.348   6.981
 3457SOL    HW211271   4.027   4.332   0.119
 3458SOL     OW11272   4.485   2.104   1.044
 3458SOL    HW111273   4.406   2.046   1.026
 3458SOL    HW211274   4.567   2.047   1.054
 3459SOL     OW11275   6.461   6.658   2.413
 3459SOL    HW111276   6.458   6.647   2.512
 3459SOL    HW211277   6.532   6.599   2.374
 3460SOL     OW11278   3.991   1.360   5.434
 3460SOL    HW111279   3.978   1.452   5.397
 3460SOL    HW211280   3.952   1.355   5.526
 3461SOL     OW11281   4.736   4.141   3.749
 3461SOL    HW111282   4.733   4.215   3.816
 3461SOL    HW211283   4.660   4.151   3.685
 3462SOL     OW11284   1.150   5.091   6.422
 3462SOL    HW111285   1.221   5.055   6.362
 3462SOL    HW211286   1.159   5.051   6.513
 3463SOL     OW11287   5.687   3.860   0.352
 3463SOL    HW111288   5.726   3.951   0.369
 3463SOL    HW211289   5.661   3.852   0.256
 3464SOL     OW11290   0.097   4.349   3.771
 3464SOL    HW111291   7.019   4.351   3.756
 3464SOL    HW211292   0.144   4.383   3.690
 3465SOL     OW11293   0.609   3.222   2.108
 3465SOL    HW111294   0.654   3.137   2.082
 3465SOL    HW211295   0.528   3.236   2.050
 3466SOL     OW11296   6.451   3.795   3.454
 3466SOL    HW111297   6.425   3.706   3.491
 3466SOL    HW211298   6.478   3.784   3.359
 3467SOL     OW11299   1.574   2.687   6.348
 3467SOL    HW111300   1.668   2.710   6.374
 3467SOL    HW211301   1.548   2.741   6.268
 3468SOL     OW11302   4.538   6.160   1.656
 3468SOL    HW111303   4.572   6.250   1.685
 3468SOL    HW211304   4.605   6.090   1.679
 3469SOL     OW11305   5.131   4.552   0.543
 3469SOL    HW111306   5.137   4.576   0.640
 3469SOL    HW211307   5.116   4.634   0.489
 3470SOL     OW11308   6.207   5.019   1.478
 3470SOL    HW111309   6.161   5.032   1.566
 3470SOL    HW211310   6.300   5.057   1.483
 3471SOL     OW11311   4.225   6.715   4.665
 3471SOL    HW111312   4.192   6.793   4.611
 3471SOL    HW211313   4.251   6.747   4.757
 3472SOL     OW11314   4.197   0.724   4.551
 3472SOL    HW111315   4.157   0.736   4.460
 3472SOL    HW211316   4.252   0.804   4.574
 3473SOL     OW11317   4.546   6.291   3.910
 3473SOL    HW111318   4.503   6.290   3.820
 3473SOL    HW211319   4.496   6.354   3.970
 3474SOL     OW11320   4.275   4.800   0.256
 3474SOL    HW111321   4.274   4.827   0.353
 3474SOL    HW211322   4.346   4.731   0.242
 3475SOL     OW11323   1.554   5.171   5.190
 3475SOL    HW111324   1.513   5.254   5.229
 3475SOL    HW211325   1.504   5.145   5.108
 3476SOL     OW11326   4.036   1.932   3.592
 3476SOL    HW111327   4.030   1.835   3.616
 3476SOL    HW211328   4.114   1.946   3.531
 3477SOL     OW11329   5.007   5.323   2.360
 3477SOL    HW111330   5.033   5.368   2.274
 3477SOL    HW211331   4.924   5.366   2.396
 3478SOL     OW11332   3.545   4.124   0.455
 3478SOL    HW111333   3.628   4.134   0.510
 3478SOL    HW211334   3.502   4.213   0.443
 3479SOL     OW11335   1.725   0.486   0.502
 3479SOL    HW111336   1.753   0.437   0.420
 3479SOL    HW211337   1.697   0.420   0.572
 3480SOL     OW11338   1.235   6.687   4.379
 3480SOL    HW111339   1.285   6.773   4.384
 3480SOL    HW211340   1.299   6.613   4.358
 3481SOL     OW11341   2.413   5.595   0.214
 3481SOL    HW111342   2.428   5.523   0.146
 3481SOL    HW211343   2.328   5.578   0.263
 3482SOL     OW11344   0.106   2.561   1.124
 3482SOL    HW111345   0.026   2.543   1.066
 3482SOL    HW211346   0.105   2.656   1.155
 3483SOL     OW11347   3.915   1.111   0.809
 3483SOL    HW111348   3.817   1.118   0.831
 3483SOL    HW211349   3.931   1.146   0.717
 3484SOL     OW11350   3.475   4.087   3.317
 3484SOL    HW111351   3.423   4.135   3.388
 3484SOL    HW211352   3.412   4.035   3.259
 3485SOL     OW11353   5.883   2.023   5.116
 3485SOL    HW111354   5.868   2.121   5.112
 3485SOL    HW211355   5.861   1.983   5.027
 3486SOL     OW11356   5.746   0.678   3.439
 3486SOL    HW111357   5.682   0.723   3.502
 3486SOL    HW211358   5.832   0.660   3.487
 3487SOL     OW11359   1.188   0.044   0.931
 3487SOL    HW111360   1.089   0.035   0.935
 3487SOL    HW211361   1.231   6.986   0.976
 3488SOL     OW11362   5.870   3.952   4.337
 3488SOL    HW111363   5.883   4.050   4.321
 3488SOL    HW211364   5.839   3.908   4.253
 3489SOL     OW11365   2.728   5.696   6.918
 3489SOL    HW111366   2.635   5.690   6.883
 3489SOL    HW211367   2.743   5.787   6.958
 3490SOL     OW11368   4.595   4.117   0.384
 3490SOL    HW111369   4.593   4.204   0.434
 3490SOL    HW211370   4.656   4.125   0.305
 3491SOL     OW11371   5.737   2.628   5.127
 3491SOL    HW111372   5.739   2.721   5.164
 3491SOL    HW211373   5.822   2.610   5.078
 3492SOL     OW11374   6.503   4.755   6.669
 3492SOL    HW111375   6.508   4.663   6.630
 3492SOL    HW211376   6.523   4.823   6.597
 3493SOL     OW11377   6.451   4.402   1.236
 3493SOL    HW111378   6.481   4.371   1.326
 3493SOL    HW211379   6.526   4.446   1.188
 3494SOL     OW11380   3.038   6.150   1.021
 3494SOL    HW111381   3.004   6.217   1.087
 3494SOL    HW211382   2.966   6.085   0.999
 3495SOL     OW11383   5.808   4.628   6.192
 3495SOL    HW111384   5.864   4.550   6.221
 3495SOL    HW211385   5.713   4.599   6.179
 3496SOL     OW11386   0.795   5.627   0.973
 3496SOL    HW111387   0.737   5.667   0.902
 3496SOL    HW211388   0.762   5.655   1.063
 3497SOL     OW11389   3.957   6.879   4.922
 3497SOL    HW111390   3.979   6.892   5.018
 3497SOL    HW211391   4.006   6.947   4.867
 3498SOL     OW11392   1.133   1.514   0.069
 3498SOL    HW111393   1.215   1.564   0.098
 3498SOL    HW211394   1.137   1.499   6.991
 3499SOL     OW11395   6.884   4.042   4.111
 3499SOL    HW111396   6.875   4.133   4.150
 3499SOL    HW211397   6.803   4.021   4.056
 3500SOL     OW11398   5.648   2.895   0.889
 3500SOL    HW111399   5.660   2.987   0.927
 3500SOL    HW211400   5.581   2.897   0.815
 3501SOL     OW11401   0.743   4.828   3.052
 3501SOL    HW111402   0.769   4.733   3.066
 3501SOL    HW211403   0.674   4.855   3.119
 3502SOL     OW11404   0.882   5.228   1.631
 3502SOL    HW111405   0.854   5.295   1.563
 3502SOL    HW211406   0.802   5.183   1.669
 3503SOL     OW11407   3.734   6.745   3.602
 3503SOL    HW111408   3.709   6.840   3.624
 3503SOL    HW211409   3.662   6.683   3.635
 3504SOL     OW11410   2.064   2.991   2.325
 3504SOL    HW111411   1.998   3.056   2.362
 3504SOL    HW211412   2.074   2.913   2.387
 3505SOL     OW11413   4.851   6.705   4.842
 3505SOL    HW111414   4.784   6.710   4.916
 3505SOL    HW211415   4.803   6.705   4.754
 3506SOL     OW11416   6.889   4.583   2.175
 3506SOL    HW111417   6.885   4.678   2.143
 3506SOL    HW211418   6.826   4.572   2.251
 3507SOL     OW11419   6.840   0.153   6.154
 3507SOL    HW111420   6.919   0.103   6.189
 3507SOL    HW211421   6.853   0.251   6.169
 3508SOL     OW11422   6.551   4.331   6.770
 3508SOL    HW111423   6.603   4.259   6.818
 3508SOL    HW211424   6.490   4.288   6.704
 3509SOL     OW11425   5.230   6.670   6.949
 3509SOL    HW111426   5.146   6.644   6.997
 3509SOL    HW211427   5.306   6.614   6.981
 3510SOL     OW11428   1.980   1.316   1.977
 3510SOL    HW111429   2.065   1.264   1.986
 3510SOL    HW211430   2.000   1.405   1.936
 3511SOL     OW11431   0.895   0.805   4.611
 3511SOL    HW111432   0.845   0.767   4.689
 3511SOL    HW211433   0.973   0.858   4.644
 3512SOL     OW11434   4.099   3.088   1.126
 3512SOL    HW111435   4.004   3.081   1.155
 3512SOL    HW211436   4.144   2.999   1.134
 3513SOL     OW11437   6.082   4.323   1.046
 3513SOL    HW111438   6.143   4.254   1.009
 3513SOL    HW211439   6.054   4.298   1.138
 3514SOL     OW11440   2.423   6.017   2.034
 3514SOL    HW111441   2.327   6.009   2.060
 3514SOL    HW211442   2.469   6.078   2.099
 3515SOL     OW11443   3.633   5.788   3.272
 3515SOL    HW111444   3.622   5.853   3.196
 3515SOL    HW211445   3.729   5.764   3.283
 3516SOL     OW11446   2.014   0.764   0.185
 3516SOL    HW111447   1.938   0.735   0.128
 3516SOL    HW211448   2.008   0.719   0.275
 3517SOL     OW11449   0.524   0.561   6.706
 3517SOL    HW111450   0.436   0.523   6.735
 3517SOL    HW211451   0.580   0.582   6.787
 3518SOL     OW11452   4.269   3.435   6.252
 3518SOL    HW111453   4.229   3.345   6.231
 3518SOL    HW211454   4.367   3.432   6.237
 3519SOL     OW11455   3.070   7.011   0.571
 3519SOL    HW111456   3.036   0.080   0.540
 3519SOL    HW211457   3.144   6.981   0.511
 3520SOL     OW11458   3.623   4.852   1.656
 3520SOL    HW111459   3.593   4.937   1.700
 3520SOL    HW211460   3.587   4.774   1.708
 3521SOL     OW11461   6.690   2.083   5.755
 3521SOL    HW111462   6.729   2.092   5.664
 3521SOL    HW211463   6.763   2.087   5.823
 3522SOL     OW11464   2.834   0.711   0.826
 3522SOL    HW111465   2.743   0.690   0.790
 3522SOL    HW211466   2.849   0.809   0.824
 3523SOL     OW11467   2.238   4.647   5.062
 3523SOL    HW111468   2.333   4.676   5.048
 3523SOL    HW211469   2.237   4.553   5.096
 3524SOL     OW11470   2.603   1.303   3.418
 3524SOL    HW111471   2.588   1.204   3.415
 3524SOL    HW211472   2.567   1.339   3.505
 3525SOL     OW11473   1.590   3.013   3.416
 3525SOL    HW111474   1.533   2.931   3.415
 3525SOL    HW211475   1.534   3.092   3.436
 3526SOL     OW11476   3.516   6.200   3.719
 3526SOL    HW111477   3.435   6.195   3.661
 3526SOL    HW211478   3.564   6.286   3.701
 3527SOL     OW11479   5.426   3.419   0.135
 3527SOL    HW111480   5.347   3.467   0.172
 3527SOL    HW211481   5.504   3.482   0.131
 3528SOL     OW11482   1.804   0.050   4.655
 3528SOL    HW111483   1.745   0.081   4.730
 3528SOL    HW211484   1.877   0.116   4.640
 3529SOL     OW11485   3.722   5.544   0.357
 3529SOL    HW111486   3.812   5.567   0.320
 3529SOL    HW211487   3.651   5.589   0.303
 3530SOL     OW11488   1.924   5.735   2.911
 3530SOL    HW111489   1.994   5.791   2.867
 3530SOL    HW211490   1.878   5.789   2.982
 3531SOL     OW11491   5.241   4.938   0.089
 3531SOL    HW111492   5.291   4.939   0.176
 3531SOL    HW211493   5.283   5.003   0.026
 3532SOL     OW11494   2.377   6.449   1.050
 3532SOL    HW111495   2.348   6.499   1.131
 3532SOL    HW211496   2.297   6.427   0.994
 3533SOL     OW11497   1.422   0.977   3.508
 3533SOL    HW111498   1.468   0.926   3.436
 3533SOL    HW211499   1.333   1.008   3.476
 3534SOL     OW11500   5.311   6.679   4.585
 3534SOL    HW111501   5.220   6.649   4.555
 3534SOL    HW211502   5.303   6.722   4.675
 3535SOL     OW11503   4.686   6.305   6.962
 3535SOL    HW111504   4.645   6.338   0.027
 3535SOL    HW211505   4.649   6.358   6.885
 3536SOL     OW11506   1.214   3.491   2.403
 3536SOL    HW111507   1.277   3.455   2.472
 3536SOL    HW211508   1.264   3.503   2.317
 3537SOL     OW11509   2.835   4.957   1.678
 3537SOL    HW111510   2.785   4.988   1.597
 3537SOL    HW211511   2.875   4.867   1.659
 3538SOL     OW11512   4.154   0.729   3.578
 3538SOL    HW111513   4.103   0.725   3.664
 3538SOL    HW211514   4.239   0.781   3.592
 3539SOL     OW11515   4.800   5.663   4.943
 3539SOL    HW111516   4.834   5.626   5.029
 3539SOL    HW211517   4.760   5.590   4.888
 3540SOL     OW11518   3.816   4.807   6.211
 3540SOL    HW111519   3.792   4.877   6.279
 3540SOL    HW211520   3.817   4.849   6.120
 3541SOL     OW11521   0.269   2.899   2.407
 3541SOL    HW111522   0.177   2.859   2.413
 3541SOL    HW211523   0.335   2.826   2.390
 3542SOL     OW11524   5.631   1.862   0.053
 3542SOL    HW111525   5.537   1.835   0.031
 3542SOL    HW211526   5.643   1.864   0.152
 3543SOL     OW11527   0.083   2.517   3.713
 3543SOL    HW111528   0.057   2.484   3.803
 3543SOL    HW211529   0.128   2.444   3.662
 3544SOL     OW11530   2.473   4.591   6.425
 3544SOL    HW111531   2.559   4.585   6.475
 3544SOL    HW211532   2.449   4.501   6.388
 3545SOL     OW11533   3.520   6.587   0.967
 3545SOL    HW111534   3.614   6.613   0.946
 3545SOL    HW211535   3.462   6.668   0.966
 3546SOL     OW11536   6.203   4.552   1.598
 3546SOL    HW111537   6.272   4.513   1.659
 3546SOL    HW211538   6.247   4.611   1.530
 3547SOL     OW11539   0.695   3.570   4.175
 3547SOL    HW111540   0.638   3.570   4.092
 3547SOL    HW211541   0.671   3.492   4.232
 3548SOL     OW11542   6.827   0.580   5.461
 3548SOL    HW111543   6.918   0.616   5.478
 3548SOL    HW211544   6.830   0.516   5.384
 3549SOL     OW11545   1.930   6.364   6.692
 3549SOL    HW111546   1.874   6.357   6.609
 3549SOL    HW211547   1.889   6.430   6.755
 3550SOL     OW11548   5.931   2.001   6.203
 3550SOL    HW111549   6.022   1.998   6.162
 3550SOL    HW211550   5.932   2.058   6.284
 3551SOL     OW11551   5.631   1.344   5.218
 3551SOL    HW111552   5.706   1.378   5.274
 3551SOL    HW211553   5.560   1.306   5.277
 3552SOL     OW11554   0.043   0.346   3.383
 3552SOL    HW111555   0.006   0.277   3.321
 3552SOL    HW211556   7.015   0.343   3.471
 3553SOL     OW11557   6.115   6.118   6.141
 3553SOL    HW111558   6.108   6.203   6.192
 3553SOL    HW211559   6.211   6.093   6.130
 3554SOL     OW11560   4.951   4.332   6.845
 3554SOL    HW111561   5.033   4.297   6.891
 3554SOL    HW211562   4.970   4.423   6.808
 3555SOL     OW11563   2.741   1.142   5.148
 3555SOL    HW111564   2.762   1.135   5.246
 3555SOL    HW211565   2.656   1.093   5.129
 3556SOL     OW11566   6.491   0.769   0.445
 3556SOL    HW111567   6.550   0.735   0.519
 3556SOL    HW211568   6.540   0.839   0.394
 3557SOL     OW11569   4.789   6.591   1.422
 3557SOL    HW111570   4.834   6.519   1.475
 3557SOL    HW211571   4.853   6.628   1.355
 3558SOL     OW11572   4.380   5.552   2.390
 3558SOL    HW111573   4.309   5.598   2.444
 3558SOL    HW211574   4.445   5.508   2.452
 3559SOL     OW11575   3.689   6.584   6.387
 3559SOL    HW111576   3.763   6.637   6.430
 3559SOL    HW211577   3.710   6.487   6.393
 3560SOL     OW11578   2.331   5.945   4.452
 3560SOL    HW111579   2.404   5.998   4.495
 3560SOL    HW211580   2.372   5.874   4.395
 3561SOL     OW11581   3.809   3.001   5.772
 3561SOL    HW111582   3.766   2.955   5.850
 3561SOL    HW211583   3.894   3.045   5.801
 3562SOL     OW11584   2.577   1.323   0.597
 3562SOL    HW111585   2.559   1.304   0.501
 3562SOL    HW211586   2.504   1.284   0.653
 3563SOL     OW11587   0.363   2.383   6.938
 3563SOL    HW111588   0.379   2.446   7.015
 3563SOL    HW211589   0.400   2.293   6.961
 3564SOL     OW11590   6.415   3.718   2.753
 3564SOL    HW111591   6.327   3.672   2.736
 3564SOL    HW211592   6.397   3.810   2.791
 3565SOL     OW11593   4.652   6.265   5.249
 3565SOL    HW111594   4.706   6.182   5.235
 3565SOL    HW211595   4.633   6.308   5.161
 3566SOL     OW11596   1.060   0.919   5.684
 3566SOL    HW111597   1.056   0.835   5.738
 3566SOL    HW211598   1.150   0.929   5.643
 3567SOL     OW11599   0.123   4.523   6.931
 3567SOL    HW111600   0.161   4.451   6.872
 3567SOL    HW211601   0.026   4.537   6.909
 3568SOL     OW11602   4.130   3.957   5.614
 3568SOL    HW111603   4.044   3.993   5.649
 3568SOL    HW211604   4.161   4.014   5.538
 3569SOL     OW11605   1.833   0.611   3.222
 3569SOL    HW111606   1.853   0.663   3.306
 3569SOL    HW211607   1.880   0.523   3.226
 3570SOL     OW11608   5.891   1.786   4.656
 3570SOL    HW111609   5.908   1.879   4.687
 3570SOL    HW211610   5.859   1.787   4.561
 3571SOL     OW11611   5.973   5.657   4.414
 3571SOL    HW111612   6.006   5.731   4.473
 3571SOL    HW211613   6.042   5.636   4.345
 3572SOL     OW11614   6.274   0.042   5.384
 3572SOL    HW111615   6.196   0.060   5.443
 3572SOL    HW211616   6.312   0.129   5.351
 3573SOL     OW11617   0.224   2.023   1.047
 3573SOL    HW111618   0.219   2.113   1.004
 3573SOL    HW211619   0.292   1.967   1.000
 3574SOL     OW11620   6.200   3.659   6.786
 3574SOL    HW111621   6.222   3.575   6.836
 3574SOL    HW211622   6.113   3.648   6.739
 3575SOL     OW11623   6.466   6.603   1.906
 3575SOL    HW111624   6.399   6.647   1.967
 3575SOL    HW211625   6.419   6.542   1.843
 3576SOL     OW11626   0.185   0.476   0.200
 3576SOL    HW111627   0.125   0.452   0.277
 3576SOL    HW211628   0.196   0.397   0.141
 3577SOL     OW11629   2.335   4.479   6.948
 3577SOL    HW111630   2.268   4.539   6.991
 3577SOL    HW211631   2.323   4.482   6.848
 3578SOL     OW11632   3.749   4.449   1.665
 3578SOL    HW111633   3.690   4.483   1.738
 3578SOL    HW211634   3.757   4.350   1.673
 3579SOL     OW11635   1.866   3.874   5.269
 3579SOL    HW111636   1.946   3.934   5.264
 3579SOL    HW211637   1.886   3.787   5.224
 3580SOL     OW11638   6.400   2.328   0.642
 3580SOL    HW111639   6.428   2.301   0.734
 3580SOL    HW211640   6.328   2.268   0.609
 3581SOL     OW11641   6.977   0.952   3.273
 3581SOL    HW111642   7.010   0.859   3.267
 3581SOL    HW211643   0.033   1.015   3.281
 3582SOL     OW11644   0.303   0.041   5.839
 3582SOL    HW111645   0.336   6.968   5.852
 3582SOL    HW211646   0.260   0.073   5.923
 3583SOL     OW11647   0.895   5.569   1.592
 3583SOL    HW111648   0.877   5.523   1.505
 3583SOL    HW211649   0.914   5.666   1.576
 3584SOL     OW11650   5.875   0.582   5.317
 3584SOL    HW111651   5.834   0.500   5.275
 3584SOL    HW211652   5.960   0.556   5.364
 3585SOL     OW11653   2.130   4.936   3.271
 3585SOL    HW111654   2.205   4.995   3.240
 3585SOL    HW211655   2.148   4.906   3.365
 3586SOL     OW11656   0.898   1.042   6.220
 3586SOL    HW111657   0.820   1.046   6.282
 3586SOL    HW211658   0.867   1.058   6.126
 3587SOL     OW11659   3.438   6.398   6.587
 3587SOL    HW111660   3.347   6.365   6.564
 3587SOL    HW211661   3.435   6.445   6.676
 3588SOL     OW11662   2.724   2.218   5.695
 3588SOL    HW111663   2.700   2.307   5.659
 3588SOL    HW211664   2.642   2.168   5.721
 3589SOL     OW11665   3.507   6.730   4.440
 3589SOL    HW111666   3.419   6.746   4.485
 3589SOL    HW211667   3.558   6.660   4.490
 3590SOL     OW11668   1.111   5.705   6.743
 3590SOL    HW111669   1.168   5.742   6.817
 3590SOL    HW211670   1.140   5.612   6.722
 3591SOL     OW11671   5.225   1.850   5.173
 3591SOL    HW111672   5.141   1.893   5.206
 3591SOL    HW211673   5.282   1.920   5.129
 3592SOL     OW11674   5.745   2.115   1.629
 3592SOL    HW111675   5.815   2.061   1.676
 3592SOL    HW211676   5.669   2.133   1.692
 3593SOL     OW11677   1.232   5.615   4.711
 3593SOL    HW111678   1.166   5.541   4.719
 3593SOL    HW211679   1.254   5.630   4.614
 3594SOL     OW11680   3.866   1.616   4.440
 3594SOL    HW111681   3.880   1.707   4.479
 3594SOL    HW211682   3.843   1.551   4.513
 3595SOL     OW11683   2.265   6.257   5.549
 3595SOL    HW111684   2.191   6.192   5.565
 3595SOL    HW211685   2.227   6.347   5.529
 3596SOL     OW11686   0.239   3.593   3.490
 3596SOL    HW111687   0.247   3.633   3.399
 3596SOL    HW211688   0.331   3.578   3.528
 3597SOL     OW11689   4.008   6.969   4.115
 3597SOL    HW111690   4.073   6.896   4.135
 3597SOL    HW211691   3.995   6.976   4.016
 3598SOL     OW11692   1.577   0.314   6.875
 3598SOL    HW111693   1.665   0.359   6.889
 3598SOL    HW211694   1.561   0.248   6.949
 3599SOL     OW11695   6.507   1.956   4.505
 3599SOL    HW111696   6.544   1.972   4.413
 3599SOL    HW211697   6.512   2.041   4.558
 3600SOL     OW11698   6.243   0.104   1.336
 3600SOL    HW111699   6.197   0.016   1.321
 3600SOL    HW211700   6.175   0.173   1.361
 3601SOL     OW11701   5.946   3.729   5.783
 3601SOL    HW111702   5.994   3.774   5.708
 3601SOL    HW211703   6.012   3.680   5.840
 3602SOL     OW11704   2.843   2.191   1.186
 3602SOL    HW111705   2.942   2.186   1.199
 3602SOL    HW211706   2.816   2.131   1.110
 3603SOL     OW11707   4.505   5.027   4.670
 3603SOL    HW111708   4.422   5.067   4.632
 3603SOL    HW211709   4.585   5.061   4.621
 3604SOL     OW11710   6.205   4.122   3.263
 3604SOL    HW111711   6.234   4.134   3.357
 3604SOL    HW211712   6.197   4.024   3.242
 3605SOL     OW11713   6.281   2.412   6.529
 3605SOL    HW111714   6.208   2.391   6.594
 3605SOL    HW211715   6.301   2.331   6.474
 3606SOL     OW11716   2.064   3.881   3.232
 3606SOL    HW111717   2.134   3.882   3.161
 3606SOL    HW211718   2.095   3.934   3.311
 3607SOL     OW11719   4.325   0.136   6.801
 3607SOL    HW111720   4.242   0.079   6.803
 3607SOL    HW211721   4.298   0.233   6.804
 3608SOL     OW11722   0.932   2.982   3.128
 3608SOL    HW111723   0.958   2.991   3.032
 3608SOL    HW211724   0.991   3.041   3.184
 3609SOL     OW11725   6.878   0.078   4.023
 3609SOL    HW111726   6.945   0.004   4.032
 3609SOL    HW211727   6.789   0.046   4.057
 3610SOL     OW11728   1.550   5.376   5.980
 3610SOL    HW111729   1.585   5.283   5.969
 3610SOL    HW211730   1.531   5.394   6.076
 3611SOL     OW11731   4.566   5.296   5.218
 3611SOL    HW111732   4.654   5.257   5.189
 3611SOL    HW211733   4.533   5.359   5.149
 3612SOL     OW11734   2.027   6.200   1.024
 3612SOL    HW111735   2.077   6.123   0.982
 3612SOL    HW211736   1.953   6.165   1.081
 3613SOL     OW11737   4.919   5.106   5.557
 3613SOL    HW111738   4.916   5.196   5.601
 3613SOL    HW211739   5.014   5.075   5.552
 3614SOL     OW11740   3.602   2.966   4.526
 3614SOL    HW111741   3.550   3.036   4.478
 3614SOL    HW211742   3.647   2.906   4.459
 3615SOL     OW11743   5.600   6.393   6.200
 3615SOL    HW111744   5.662   6.338   6.145
 3615SOL    HW211745   5.613   6.490   6.178
 3616SOL     OW11746   6.282   0.718   4.446
 3616SOL    HW111747   6.341   0.714   4.526
 3616SOL    HW211748   6.195   0.761   4.471
 3617SOL     OW11749   6.917   0.774   6.969
 3617SOL    HW111750   7.015   0.779   6.987
 3617SOL    HW211751   6.886   0.679   6.978
 3618SOL     OW11752   2.529   6.355   6.102
 3618SOL    HW111753   2.581   6.310   6.175
 3618SOL    HW211754   2.432   6.354   6.125
 3619SOL     OW11755   5.225   3.657   3.583
 3619SOL    HW111756   5.145   3.600   3.604
 3619SOL    HW211757   5.213   3.698   3.492
 3620SOL     OW11758   6.017   1.330   5.040
 3620SOL    HW111759   6.002   1.413   4.987
 3620SOL    HW211760   6.065   1.263   4.983
 3621SOL     OW11761   1.412   2.972   5.504
 3621SOL    HW111762   1.474   3.015   5.439
 3621SOL    HW211763   1.446   2.882   5.528
 3622SOL     OW11764   0.811   3.771   1.165
 3622SOL    HW111765   0.843   3.778   1.071
 3622SOL    HW211766   0.767   3.682   1.179
 3623SOL     OW11767   6.883   4.951   4.265
 3623SOL    HW111768   6.784   4.957   4.252
 3623SOL    HW211769   6.903   4.902   4.349
 3624SOL     OW11770   2.354   0.851   1.897
 3624SOL    HW111771   2.294   0.818   1.969
 3624SOL    HW211772   2.450   0.834   1.922
 3625SOL     OW11773   0.971   2.931   4.260
 3625SOL    HW111774   0.976   2.842   4.214
 3625SOL    HW211775   0.885   2.976   4.236
 3626SOL     OW11776   2.830   4.312   5.461
 3626SOL    HW111777   2.926   4.313   5.434
 3626SOL    HW211778   2.779   4.378   5.405
 3627SOL     OW11779   3.220   3.431   4.079
 3627SOL    HW111780   3.306   3.394   4.044
 3627SOL    HW211781   3.196   3.513   4.027
 3628SOL     OW11782   3.159   5.705   4.283
 3628SOL    HW111783   3.223   5.781   4.272
 3628SOL    HW211784   3.070   5.731   4.245
 3629SOL     OW11785   5.342   3.086   5.257
 3629SOL    HW111786   5.424   3.122   5.213
 3629SOL    HW211787   5.282   3.161   5.283
 3630SOL     OW11788   5.492   1.031   4.967
 3630SOL    HW111789   5.460   1.088   5.043
 3630SOL    HW211790   5.500   1.087   4.884
 3631SOL     OW11791   2.164   0.979   3.976
 3631SOL    HW111792   2.226   0.995   3.899
 3631SOL    HW211793   2.108   1.060   3.992
 3632SOL     OW11794   4.261   6.895   6.155
 3632SOL    HW111795   4.267   6.993   6.135
 3632SOL    HW211796   4.195   6.853   6.094
 3633SOL     OW11797   0.896   3.053   5.717
 3633SOL    HW111798   0.826   3.048   5.646
 3633SOL    HW211799   0.922   2.960   5.745
 3634SOL     OW11800   3.189   4.955   5.971
 3634SOL    HW111801   3.246   4.912   6.040
 3634SOL    HW211802   3.204   5.054   5.972
 3635SOL     OW11803   2.091   1.356   4.887
 3635SOL    HW111804   2.111   1.426   4.956
 3635SOL    HW211805   1.993   1.360   4.865
 3636SOL     OW11806   1.272   6.169   0.509
 3636SOL    HW111807   1.276   6.108   0.430
 3636SOL    HW211808   1.177   6.196   0.526
 3637SOL     OW11809   4.775   0.906   1.563
 3637SOL    HW111810   4.763   0.989   1.509
 3637SOL    HW211811   4.872   0.884   1.570
 3638SOL     OW11812   6.354   4.805   3.303
 3638SOL    HW111813   6.287   4.870   3.341
 3638SOL    HW211814   6.329   4.712   3.330
 3639SOL     OW11815   2.575   6.235   0.428
 3639SOL    HW111816   2.513   6.185   0.368
 3639SOL    HW211817   2.580   6.331   0.398
 3640SOL     OW11818   2.094   0.011   1.549
 3640SOL    HW111819   2.079   7.000   1.455
 3640SOL    HW211820   2.153   0.092   1.548
 3641SOL     OW11821   2.356   0.617   4.559
 3641SOL    HW111822   2.454   0.599   4.571
 3641SOL    HW211823   2.319   0.659   4.642
 3642SOL     OW11824   5.731   6.800   2.175
 3642SOL    HW111825   5.719   6.844   2.086
 3642SOL    HW211826   5.692   6.858   2.247
 3643SOL     OW11827   4.004   5.279   5.478
 3643SOL    HW111828   4.007   5.326   5.566
 3643SOL    HW211829   3.923   5.307   5.428
 3644SOL     OW11830   6.663   0.112   1.352
 3644SOL    HW111831   6.756   0.106   1.317
 3644SOL    HW211832   6.663   0.164   1.437
 3645SOL     OW11833   3.737   6.195   2.880
 3645SOL    HW111834   3.719   6.288   2.913
 3645SOL    HW211835   3.652   6.156   2.842
 3646SOL     OW11836   6.972   5.437   4.848
 3646SOL    HW111837   6.985   5.415   4.752
 3646SOL    HW211838   6.935   5.358   4.896
 3647SOL     OW11839   2.714   2.639   1.112
 3647SOL    HW111840   2.807   2.603   1.114
 3647SOL    HW211841   2.702   2.707   1.184
 3648SOL     OW11842   3.227   6.289   3.411
 3648SOL    HW111843   3.205   6.302   3.507
 3648SOL    HW211844   3.254   6.376   3.370
 3649SOL     OW11845   3.193   3.358   2.430
 3649SOL    HW111846   3.094   3.347   2.430
 3649SOL    HW211847   3.231   3.320   2.515
 3650SOL     OW11848   5.638   6.968   1.328
 3650SOL    HW111849   5.540   6.967   1.313
 3650SOL    HW211850   5.676   0.035   1.297
 3651SOL     OW11851   1.522   6.349   2.268
 3651SOL    HW111852   1.424   6.333   2.253
 3651SOL    HW211853   1.555   6.289   2.341
 3652SOL     OW11854   4.679   5.393   3.023
 3652SOL    HW111855   4.641   5.302   3.041
 3652SOL    HW211856   4.607   5.452   2.985
 3653SOL     OW11857   6.232   3.078   4.713
 3653SOL    HW111858   6.257   3.089   4.809
 3653SOL    HW211859   6.283   3.001   4.674
 3654SOL     OW11860   1.277   6.795   1.531
 3654SOL    HW111861   1.323   6.742   1.460
 3654SOL    HW211862   1.343   6.825   1.600
 3655SOL     OW11863   6.821   1.111   3.457
 3655SOL    HW111864   6.867   1.072   3.377
 3655SOL    HW211865   6.887   1.126   3.530
 3656SOL     OW11866   2.734   1.548   2.889
 3656SOL    HW111867   2.702   1.461   2.928
 3656SOL    HW211868   2.673   1.622   2.918
 3657SOL     OW11869   4.760   5.078   2.347
 3657SOL    HW111870   4.821   5.007   2.312
 3657SOL    HW211871   4.801   5.168   2.331
 3658SOL     OW11872   1.954   5.409   5.740
 3658SOL    HW111873   1.945   5.348   5.818
 3658SOL    HW211874   2.035   5.383   5.687
 3659SOL     OW11875   1.165   3.465   0.299
 3659SOL    HW111876   1.212   3.504   0.379
 3659SOL    HW211877   1.231   3.450   0.226
 3660SOL     OW11878   4.031   4.885   0.912
 3660SOL    HW111879   3.968   4.953   0.951
 3660SOL    HW211880   4.108   4.933   0.869
 3661SOL     OW11881   5.173   1.686   1.436
 3661SOL    HW111882   5.090   1.718   1.390
 3661SOL    HW211883   5.248   1.679   1.369
 3662SOL     OW11884   2.188   5.908   4.710
 3662SOL    HW111885   2.218   5.868   4.623
 3662SOL    HW211886   2.225   5.855   4.786
 3663SOL     OW11887   1.581   3.437   5.372
 3663SOL    HW111888   1.603   3.431   5.470
 3663SOL    HW211889   1.497   3.490   5.361
 3664SOL     OW11890   3.708   0.102   2.111
 3664SOL    HW111891   3.721   0.179   2.173
 3664SOL    HW211892   3.635   0.123   2.046
 3665SOL     OW11893   1.884   1.013   5.433
 3665SOL    HW111894   1.939   0.931   5.416
 3665SOL    HW211895   1.944   1.093   5.435
 3666SOL     OW11896   0.807   4.512   4.160
 3666SOL    HW111897   0.843   4.422   4.184
 3666SOL    HW211898   0.713   4.503   4.127
 3667SOL     OW11899   0.904   1.536   6.527
 3667SOL    HW111900   0.917   1.478   6.607
 3667SOL    HW211901   0.989   1.586   6.507
 3668SOL     OW11902   1.635   5.739   2.195
 3668SOL    HW111903   1.711   5.728   2.131
 3668SOL    HW211904   1.558   5.783   2.148
 3669SOL     OW11905   5.533   1.628   3.810
 3669SOL    HW111906   5.477   1.569   3.869
 3669SOL    HW211907   5.615   1.578   3.782
 3670SOL     OW11908   2.186   5.564   6.555
 3670SOL    HW111909   2.236   5.651   6.555
 3670SOL    HW211910   2.214   5.510   6.634
 3671SOL     OW11911   1.798   0.757   3.512
 3671SOL    HW111912   1.703   0.732   3.530
 3671SOL    HW211913   1.837   0.802   3.593
 3672SOL     OW11914   6.526   6.872   0.650
 3672SOL    HW111915   6.436   6.910   0.630
 3672SOL    HW211916   6.554   6.902   0.742
 3673SOL     OW11917   4.240   0.395   6.755
 3673SOL    HW111918   4.308   0.415   6.684
 3673SOL    HW211919   4.176   0.471   6.762
 3674SOL     OW11920   1.359   6.560   0.915
 3674SOL    HW111921   1.261   6.570   0.933
 3674SOL    HW211922   1.373   6.533   0.820
 3675SOL     OW11923   1.784   2.222   4.457
 3675SOL    HW111924   1.759   2.133   4.418
 3675SOL    HW211925   1.772   2.219   4.556
 3676SOL     OW11926   1.701   4.969   2.821
 3676SOL    HW111927   1.778   4.908   2.804
 3676SOL    HW211928   1.718   5.022   2.904
 3677SOL     OW11929   6.520   6.622   3.848
 3677SOL    HW111930   6.616   6.629   3.875
 3677SOL    HW211931   6.470   6.570   3.916
 3678SOL     OW11932   1.629   1.617   3.462
 3678SOL    HW111933   1.702   1.668   3.508
 3678SOL    HW211934   1.589   1.674   3.390
 3679SOL     OW11935   6.978   0.740   1.636
 3679SOL    HW111936   0.048   0.759   1.675
 3679SOL    HW211937   6.908   0.786   1.690
 3680SOL     OW11938   6.026   4.549   4.863
 3680SOL    HW111939   6.097   4.502   4.916
 3680SOL    HW211940   6.005   4.637   4.907
 3681SOL     OW11941   5.498   6.135   4.676
 3681SOL    HW111942   5.461   6.168   4.589
 3681SOL    HW211943   5.429   6.146   4.747
 3682SOL     OW11944   0.504   2.435   6.517
 3682SOL    HW111945   0.558   2.364   6.471
 3682SOL    HW211946   0.532   2.441   6.613
 3683SOL     OW11947   5.465   6.292   3.714
 3683SOL    HW111948   5.455   6.370   3.651
 3683SOL    HW211949   5.385   6.232   3.705
 3684SOL     OW11950   2.070   3.230   0.695
 3684SOL    HW111951   2.064   3.222   0.596
 3684SOL    HW211952   2.053   3.141   0.737
 3685SOL     OW11953   6.485   6.799   6.833
 3685SOL    HW111954   6.559   6.738   6.861
 3685SOL    HW211955   6.442   6.839   6.914
 3686SOL     OW11956   6.821   4.408   1.470
 3686SOL    HW111957   6.854   4.389   1.378
 3686SOL    HW211958   6.875   4.483   1.509
 3687SOL     OW11959   3.642   1.410   0.152
 3687SOL    HW111960   3.640   1.312   0.173
 3687SOL    HW211961   3.701   1.425   0.073
 3688SOL     OW11962   6.349   3.359   0.367
 3688SOL    HW111963   6.340   3.458   0.376
 3688SOL    HW211964   6.418   3.325   0.432
 3689SOL     OW11965   3.054   6.807   3.461
 3689SOL    HW111966   2.957   6.811   3.484
 3689SOL    HW211967   3.065   6.806   3.362
 3690SOL     OW11968   4.259   5.731   5.102
 3690SOL    HW111969   4.173   5.732   5.153
 3690SOL    HW211970   4.271   5.819   5.057
 3691SOL     OW11971   3.201   2.940   6.194
 3691SOL    HW111972   3.146   2.898   6.122
 3691SOL    HW211973   3.270   2.999   6.153
 3692SOL     OW11974   0.818   0.051   6.091
 3692SOL    HW111975   0.806   0.118   6.163
 3692SOL    HW211976   0.857   0.095   6.010
 3693SOL     OW11977   2.026   1.428   3.385
 3693SOL    HW111978   2.041   1.425   3.484
 3693SOL    HW211979   1.976   1.346   3.357
 3694SOL     OW11980   2.251   5.464   2.859
 3694SOL    HW111981   2.289   5.377   2.892
 3694SOL    HW211982   2.196   5.447   2.777
 3695SOL     OW11983   1.407   2.902   1.141
 3695SOL    HW111984   1.406   2.979   1.204
 3695SOL    HW211985   1.484   2.910   1.078
 3696SOL     OW11986   3.037   5.894   5.992
 3696SOL    HW111987   2.983   5.815   6.021
 3696SOL    HW211988   3.109   5.864   5.929
 3697SOL     OW11989   5.333   0.379   4.019
 3697SOL    HW111990   5.249   0.345   3.977
 3697SOL    HW211991   5.311   0.457   4.078
 3698SOL     OW11992   3.431   0.279   6.365
 3698SOL    HW111993   3.503   0.347   6.368
 3698SOL    HW211994   3.469   0.189   6.388
 3699SOL     OW11995   1.075   4.523   2.038
 3699SOL    HW111996   1.144   4.596   2.044
 3699SOL    HW211997   0.999   4.544   2.099
 3700SOL     OW11998   0.218   0.540   3.326
 3700SOL    HW111999   0.311   0.515   3.350
 3700SOL    HW212000   0.157   0.462   3.340
 3701SOL     OW12001   5.362   0.421   3.588
 3701SOL    HW112002   5.346   0.485   3.663
 3701SOL    HW212003   5.285   0.424   3.524
 3702SOL     OW12004   4.907   0.690   6.468
 3702SOL    HW112005   4.905   0.789   6.481
 3702SOL    HW212006   4.825   0.660   6.420
 3703SOL     OW12007   3.717   4.574   0.479
 3703SOL    HW112008   3.643   4.568   0.412
 3703SOL    HW212009   3.802   4.601   0.434
 3704SOL     OW12010   2.625   0.002   2.200
 3704SOL    HW112011   2.631   0.071   2.128
 3704SOL    HW212012   2.705   6.962   2.194
 3705SOL     OW12013   5.820   1.216   4.235
 3705SOL    HW112014   5.870   1.303   4.237
 3705SOL    HW212015   5.725   1.232   4.263
 3706SOL     OW12016   2.461   2.591   3.377
 3706SOL    HW112017   2.484   2.612   3.472
 3706SOL    HW212018   2.378   2.535   3.374
 3707SOL     OW12019   4.346   2.479   5.422
 3707SOL    HW112020   4.345   2.390   5.468
 3707SOL    HW212021   4.299   2.547   5.478
 3708SOL     OW12022   6.260   0.037   6.390
 3708SOL    HW112023   6.229   6.979   6.444
 3708SOL    HW212024   6.302   0.005   6.305
 3709SOL     OW12025   5.243   0.707   0.295
 3709SOL    HW112026   5.205   0.723   0.203
 3709SOL    HW212027   5.285   0.791   0.329
 3710SOL     OW12028   0.330   4.659   0.030
 3710SOL    HW112029   0.276   4.599   6.992
 3710SOL    HW212030   0.411   4.611   0.062
 3711SOL     OW12031   6.981   5.098   2.315
 3711SOL    HW112032   0.050   5.143   2.309
 3711SOL    HW212033   6.941   5.091   2.223
 3712SOL     OW12034   1.435   0.328   0.227
 3712SOL    HW112035   1.504   0.268   0.184
 3712SOL    HW212036   1.371   0.272   0.279
 3713SOL     OW12037   3.591   5.048   6.032
 3713SOL    HW112038   3.532   5.125   6.055
 3713SOL    HW212039   3.676   5.082   5.991
 3714SOL     OW12040   4.428   1.619   5.257
 3714SOL    HW112041   4.353   1.640   5.193
 3714SOL    HW212042   4.497   1.565   5.210
 3715SOL     OW12043   5.618   4.205   3.760
 3715SOL    HW112044   5.557   4.133   3.727
 3715SOL    HW212045   5.563   4.286   3.783
 3716SOL     OW12046   0.914   1.557   4.213
 3716SOL    HW112047   0.907   1.461   4.237
 3716SOL    HW212048   0.971   1.605   4.280
 3717SOL     OW12049   6.466   0.447   0.391
 3717SOL    HW112050   6.493   0.467   0.297
 3717SOL    HW212051   6.389   0.506   0.417
 3718SOL     OW12052   0.744   5.482   0.287
 3718SOL    HW112053   0.733   5.417   0.362
 3718SOL    HW212054   0.748   5.575   0.325
 3719SOL     OW12055   3.682   4.756   0.079
 3719SOL    HW112056   3.653   4.848   0.053
 3719SOL    HW212057   3.690   4.700   7.017
 3720SOL     OW12058   0.218   1.393   5.758
 3720SOL    HW112059   0.250   1.382   5.852
 3720SOL    HW212060   0.217   1.490   5.734
 3721SOL     OW12061   4.724   3.722   0.285
 3721SOL    HW112062   4.685   3.629   0.287
 3721SOL    HW212063   4.699   3.766   0.199
 3722SOL     OW12064   5.765   6.145   1.475
 3722SOL    HW112065   5.711   6.061   1.478
 3722SOL    HW212066   5.704   6.224   1.481
 3723SOL     OW12067   4.558   0.990   0.568
 3723SOL    HW112068   4.652   0.965   0.591
 3723SOL    HW212069   4.555   1.023   0.473
 3724SOL     OW12070   6.900   4.799   5.603
 3724SOL    HW112071   6.944   4.741   5.535
 3724SOL    HW212072   6.869   4.744   5.680
 3725SOL     OW12073   6.371   6.060   0.781
 3725SOL    HW112074   6.425   5.994   0.833
 3725SOL    HW212075   6.306   6.106   0.843
 3726SOL     OW12076   5.872   3.312   1.264
 3726SOL    HW112077   5.960   3.266   1.257
 3726SOL    HW212078   5.887   3.410   1.278
 3727SOL     OW12079   2.433   2.748   5.240
 3727SOL    HW112080   2.438   2.840   5.200
 3727SOL    HW212081   2.337   2.720   5.246
 3728SOL     OW12082   0.777   3.777   6.856
 3728SOL    HW112083   0.698   3.733   6.814
 3728SOL    HW212084   0.857   3.718   6.845
 3729SOL     OW12085   0.625   2.595   3.170
 3729SOL    HW112086   0.665   2.578   3.080
 3729SOL    HW212087   0.665   2.678   3.209
 3730SOL     OW12088   2.166   0.470   0.911
 3730SOL    HW112089   2.149   0.373   0.891
 3730SOL    HW212090   2.236   0.477   0.982
 3731SOL     OW12091   3.117   5.986   6.343
 3731SOL    HW112092   3.066   6.063   6.306
 3731SOL    HW212093   3.198   6.020   6.391
 3732SOL     OW12094   1.870   3.607   4.484
 3732SOL    HW112095   1.942   3.653   4.535
 3732SOL    HW212096   1.893   3.510   4.474
 3733SOL     OW12097   3.336   3.182   0.895
 3733SOL    HW112098   3.432   3.170   0.916
 3733SOL    HW212099   3.294   3.094   0.873
 3734SOL     OW12100   5.067   7.011   3.857
 3734SOL    HW112101   5.136   0.039   3.804
 3734SOL    HW212102   5.100   6.919   3.879
 3735SOL     OW12103   3.351   1.969   1.586
 3735SOL    HW112104   3.382   2.026   1.662
 3735SOL    HW212105   3.260   1.933   1.605
 3736SOL     OW12106   5.221   1.184   5.865
 3736SOL    HW112107   5.295   1.247   5.842
 3736SOL    HW212108   5.177   1.152   5.781
 3737SOL     OW12109   3.845   6.421   4.025
 3737SOL    HW112110   3.823   6.372   3.940
 3737SOL    HW212111   3.842   6.519   4.008
 3738SOL     OW12112   0.237   0.201   4.446
 3738SOL    HW112113   0.222   0.106   4.420
 3738SOL    HW212114   0.186   0.221   4.530
 3739SOL     OW12115   1.013   3.272   1.857
 3739SOL    HW112116   1.109   3.267   1.828
 3739SOL    HW212117   1.010   3.277   1.957
 3740SOL     OW12118   5.611   0.514   6.953
 3740SOL    HW112119   5.537   0.452   6.929
 3740SOL    HW212120   5.665   0.535   6.872
 3741SOL     OW12121   3.374   2.206   0.038
 3741SOL    HW112122   3.449   2.246   7.004
 3741SOL    HW212123   3.287   2.233   7.019
 3742SOL     OW12124   3.352   3.559   5.526
 3742SOL    HW112125   3.305   3.483   5.571
 3742SOL    HW212126   3.451   3.544   5.530
 3743SOL     OW12127   1.246   5.820   6.112
 3743SOL    HW112128   1.345   5.807   6.098
 3743SOL    HW212129   1.224   5.806   6.208
 3744SOL     OW12130   6.789   5.377   3.160
 3744SOL    HW112131   6.814   5.393   3.064
 3744SOL    HW212132   6.855   5.312   3.200
 3745SOL     OW12133   5.237   6.066   1.921
 3745SOL    HW112134   5.297   6.038   1.996
 3745SOL    HW212135   5.283   6.136   1.867
 3746SOL     OW12136   4.409   1.576   1.870
 3746SOL    HW112137   4.406   1.551   1.773
 3746SOL    HW212138   4.502   1.599   1.896
 3747SOL     OW12139   2.652   0.195   0.551
 3747SOL    HW112140   2.647   0.284   0.505
 3747SOL    HW212141   2.568   0.180   0.603
 3748SOL     OW12142   5.414   0.672   1.974
 3748SOL    HW112143   5.343   0.607   2.002
 3748SOL    HW212144   5.491   0.622   1.936
 3749SOL     OW12145   1.854   0.430   4.232
 3749SOL    HW112146   1.826   0.514   4.186
 3749SOL    HW212147   1.814   0.426   4.323
 3750SOL     OW12148   6.984   4.290   6.248
 3750SOL    HW112149   6.923   4.213   6.226
 3750SOL    HW212150   6.949   4.339   6.328
 3751SOL     OW12151   1.527   3.953   1.389
 3751SOL    HW112152   1.578   3.903   1.319
 3751SOL    HW212153   1.538   3.908   1.477
 3752SOL     OW12154   5.138   6.012   6.993
 3752SOL    HW112155   5.219   6.070   6.989
 3752SOL    HW212156   5.058   6.069   7.011
 3753SOL     OW12157   0.470   0.115   3.354
 3753SOL    HW112158   0.445   0.205   3.389
 3753SOL    HW212159   0.448   0.045   3.421
 3754SOL     OW12160   2.463   1.504   1.541
 3754SOL    HW112161   2.537   1.560   1.577
 3754SOL    HW212162   2.478   1.487   1.444
 3755SOL     OW12163   2.965   5.363   4.671
 3755SOL    HW112164   3.033   5.418   4.624
 3755SOL    HW212165   2.927   5.415   4.748
 3756SOL     OW12166   1.528   6.947   0.909
 3756SOL    HW112167   1.507   6.910   0.999
 3756SOL    HW212168   1.612   6.906   0.874
 3757SOL     OW12169   0.605   4.175   1.053
 3757SOL    HW112170   0.509   4.193   1.030
 3757SOL    HW212171   0.617   4.178   1.152
 3758SOL     OW12172   1.749   6.741   4.038
 3758SOL    HW112173   1.783   6.718   4.129
 3758SOL    HW212174   1.658   6.781   4.045
 3759SOL     OW12175   5.637   0.283   4.335
 3759SOL    HW112176   5.557   0.254   4.388
 3759SOL    HW212177   5.640   0.230   4.250
 3760SOL     OW12178   1.010   0.889   2.944
 3760SOL    HW112179   1.016   0.957   3.017
 3760SOL    HW212180   0.973   0.932   2.861
 3761SOL     OW12181   4.330   1.936   5.674
 3761SOL    HW112182   4.323   1.857   5.613
 3761SOL    HW212183   4.421   1.976   5.665
 3762SOL     OW12184   0.522   2.968   3.860
 3762SOL    HW112185   0.537   3.063   3.835
 3762SOL    HW212186   0.553   2.908   3.786
 3763SOL     OW12187   0.620   5.390   6.619
 3763SOL    HW112188   0.714   5.413   6.642
 3763SOL    HW212189   0.586   5.320   6.682
 3764SOL     OW12190   2.836   1.069   2.703
 3764SOL    HW112191   2.890   1.142   2.745
 3764SOL    HW212192   2.758   1.109   2.655
 3765SOL     OW12193   5.401   2.757   2.838
 3765SOL    HW112194   5.344   2.825   2.792
 3765SOL    HW212195   5.368   2.665   2.815
 3766SOL     OW12196   1.235   2.908   2.307
 3766SOL    HW112197   1.211   2.932   2.213
 3766SOL    HW212198   1.156   2.867   2.352
 3767SOL     OW12199   1.496   5.781   6.039
 3767SOL    HW112200   1.572   5.716   6.042
 3767SOL    HW212201   1.458   5.782   5.946
 3768SOL     OW12202   1.804   6.740   2.742
 3768SOL    HW112203   1.722   6.738   2.799
 3768SOL    HW212204   1.777   6.735   2.646
 3769SOL     OW12205   5.188   5.569   4.189
 3769SOL    HW112206   5.275   5.547   4.235
 3769SOL    HW212207   5.143   5.485   4.160
 3770SOL     OW12208   2.952   0.741   1.535
 3770SOL    HW112209   2.905   0.801   1.600
 3770SOL    HW212210   2.892   0.726   1.456
 3771SOL     OW12211   6.780   5.812   5.437
 3771SOL    HW112212   6.835   5.849   5.512
 3771SOL    HW212213   6.690   5.857   5.437
 3772SOL     OW12214   1.637   6.399   2.030
 3772SOL    HW112215   1.607   6.392   2.125
 3772SOL    HW212216   1.570   6.353   1.971
 3773SOL     OW12217   4.991   5.008   0.015
 3773SOL    HW112218   5.075   5.018   0.068
 3773SOL    HW212219   4.922   4.962   0.070
 3774SOL     OW12220   6.733   4.700   1.809
 3774SOL    HW112221   6.773   4.608   1.810
 3774SOL    HW212222   6.736   4.738   1.902
 3775SOL     OW12223   5.241   5.193   5.056
 3775SOL    HW112224   5.264   5.289   5.069
 3775SOL    HW212225   5.142   5.182   5.056
 3776SOL     OW12226   4.402   3.182   6.368
 3776SOL    HW112227   4.346   3.164   6.287
 3776SOL    HW212228   4.495   3.207   6.339
 3777SOL     OW12229   3.017   5.186   3.835
 3777SOL    HW112230   3.032   5.105   3.892
 3777SOL    HW212231   2.918   5.199   3.821
 3778SOL     OW12232   3.122   4.935   6.888
 3778SOL    HW112233   3.105   5.017   6.833
 3778SOL    HW212234   3.220   4.916   6.890
 3779SOL     OW12235   6.871   4.536   6.907
 3779SOL    HW112236   6.817   4.617   6.884
 3779SOL    HW212237   6.834   4.456   6.860
 3780SOL     OW12238   5.826   3.190   1.752
 3780SOL    HW112239   5.865   3.107   1.712
 3780SOL    HW212240   5.822   3.262   1.683
 3781SOL     OW12241   1.348   6.770   5.650
 3781SOL    HW112242   1.421   6.802   5.711
 3781SOL    HW212243   1.336   6.671   5.662
 3782SOL     OW12244   4.029   5.336   0.384
 3782SOL    HW112245   4.100   5.266   0.390
 3782SOL    HW212246   3.990   5.352   0.475
 3783SOL     OW12247   4.714   5.255   4.947
 3783SOL    HW112248   4.647   5.183   4.926
 3783SOL    HW212249   4.677   5.344   4.921
 3784SOL     OW12250   5.060   3.018   5.498
 3784SOL    HW112251   5.154   2.986   5.481
 3784SOL    HW212252   5.055   3.056   5.590
 3785SOL     OW12253   1.035   2.319   2.911
 3785SOL    HW112254   1.038   2.264   2.994
 3785SOL    HW212255   1.095   2.399   2.921
 3786SOL     OW12256   1.974   3.379   4.896
 3786SOL    HW112257   2.025   3.345   4.817
 3786SOL    HW212258   2.011   3.467   4.925
 3787SOL     OW12259   5.495   6.297   3.999
 3787SOL    HW112260   5.418   6.343   4.042
 3787SOL    HW212261   5.502   6.326   3.903
 3788SOL     OW12262   5.156   2.913   5.788
 3788SOL    HW112263   5.090   2.988   5.788
 3788SOL    HW212264   5.199   2.906   5.877
 3789SOL     OW12265   2.145   3.194   1.160
 3789SOL    HW112266   2.195   3.170   1.243
 3789SOL    HW212267   2.171   3.286   1.131
 3790SOL     OW12268   0.754   6.893   1.579
 3790SOL    HW112269   0.672   6.865   1.530
 3790SOL    HW212270   0.815   6.814   1.590
 3791SOL     OW12271   4.949   0.778   4.823
 3791SOL    HW112272   4.928   0.867   4.782
 3791SOL    HW212273   4.892   0.708   4.782
 3792SOL     OW12274   6.507   0.203   4.275
 3792SOL    HW112275   6.563   0.285   4.266
 3792SOL    HW212276   6.478   0.192   4.371
 3793SOL     OW12277   4.024   4.514   0.734
 3793SOL    HW112278   3.930   4.519   0.767
 3793SOL    HW212279   4.036   4.429   0.682
 3794SOL     OW12280   1.644   5.053   5.864
 3794SOL    HW112281   1.551   5.034   5.894
 3794SOL    HW212282   1.695   4.967   5.857
 3795SOL     OW12283   3.106   6.194   0.730
 3795SOL    HW112284   3.051   6.259   0.678
 3795SOL    HW212285   3.084   6.201   0.827
 3796SOL     OW12286   5.018   1.124   0.027
 3796SOL    HW112287   5.016   1.044   6.987
 3796SOL    HW212288   5.095   1.183   0.001
 3797SOL     OW12289   0.262   3.014   1.136
 3797SOL    HW112290   0.264   3.109   1.165
 3797SOL    HW212291   0.339   2.964   1.178
 3798SOL     OW12292   1.048   5.160   3.705
 3798SOL    HW112293   0.984   5.224   3.747
 3798SOL    HW212294   1.133   5.158   3.758
 3799SOL     OW12295   0.356   1.050   3.433
 3799SOL    HW112296   0.406   1.090   3.509
 3799SOL    HW212297   0.410   0.977   3.392
 3800SOL     OW12298   5.523   2.405   3.174
 3800SOL    HW112299   5.451   2.353   3.128
 3800SOL    HW212300   5.567   2.467   3.109
 3801SOL     OW12301   6.036   1.092   0.547
 3801SOL    HW112302   6.075   1.132   0.629
 3801SOL    HW212303   6.090   1.119   0.467
 3802SOL     OW12304   6.448   3.277   1.872
 3802SOL    HW112305   6.402   3.359   1.906
 3802SOL    HW212306   6.394   3.197   1.897
 3803SOL     OW12307   4.424   3.905   5.402
 3803SOL    HW112308   4.336   3.953   5.397
 3803SOL    HW212309   4.412   3.811   5.373
 3804SOL     OW12310   3.807   6.350   3.770
 3804SOL    HW112311   3.869   6.322   3.697
 3804SOL    HW212312   3.745   6.421   3.735
 3805SOL     OW12313   2.295   2.257   6.545
 3805SOL    HW112314   2.343   2.200   6.478
 3805SOL    HW212315   2.354   2.333   6.572
 3806SOL     OW12316   2.134   5.138   1.468
 3806SOL    HW112317   2.133   5.092   1.379
 3806SOL    HW212318   2.115   5.071   1.540
 3807SOL     OW12319   1.161   4.372   3.625
 3807SOL    HW112320   1.101   4.315   3.570
 3807SOL    HW212321   1.162   4.465   3.587
 3808SOL     OW12322   2.619   6.611   6.057
 3808SOL    HW112323   2.663   6.606   5.967
 3808SOL    HW212324   2.579   6.522   6.079
 3809SOL     OW12325   5.361   1.824   1.758
 3809SOL    HW112326   5.281   1.882   1.769
 3809SOL    HW212327   5.414   1.822   1.842
 3810SOL     OW12328   4.779   2.384   2.805
 3810SOL    HW112329   4.712   2.310   2.814
 3810SOL    HW212330   4.820   2.403   2.894
 3811SOL     OW12331   6.776   6.075   5.190
 3811SOL    HW112332   6.775   6.114   5.282
 3811SOL    HW212333   6.848   6.118   5.136
 3812SOL     OW12334   4.173   5.921   0.091
 3812SOL    HW112335   4.198   5.833   0.049
 3812SOL    HW212336   4.171   5.912   0.190
 3813SOL     OW12337   5.690   4.359   6.862
 3813SOL    HW112338   5.726   4.304   6.786
 3813SOL    HW212339   5.744   4.340   6.944
 3814SOL     OW12340   0.482   0.202   5.001
 3814SOL    HW112341   0.415   0.274   4.980
 3814SOL    HW212342   0.571   0.244   5.019
 3815SOL     OW12343   5.822   3.524   6.192
 3815SOL    HW112344   5.907   3.576   6.186
 3815SOL    HW212345   5.789   3.502   6.101
 3816SOL     OW12346   6.251   6.206   1.003
 3816SOL    HW112347   6.313   6.284   1.001
 3816SOL    HW212348   6.271   6.149   1.083
 3817SOL     OW12349   4.310   3.614   1.532
 3817SOL    HW112350   4.361   3.634   1.616
 3817SOL    HW212351   4.235   3.679   1.521
 3818SOL     OW12352   5.276   6.115   2.710
 3818SOL    HW112353   5.297   6.021   2.737
 3818SOL    HW212354   5.357   6.172   2.724
 3819SOL     OW12355   6.354   3.521   3.219
 3819SOL    HW112356   6.369   3.612   3.182
 3819SOL    HW212357   6.367   3.521   3.318
 3820SOL     OW12358   3.613   6.753   5.809
 3820SOL    HW112359   3.521   6.744   5.771
 3820SOL    HW212360   3.626   6.685   5.881
 3821SOL     OW12361   1.812   0.152   0.482
 3821SOL    HW112362   1.743   0.082   0.501
 3821SOL    HW212363   1.797   0.231   0.541
 3822SOL     OW12364   4.818   0.107   2.319
 3822SOL    HW112365   4.912   0.081   2.295
 3822SOL    HW212366   4.813   0.207   2.326
 3823SOL     OW12367   5.413   6.489   5.236
 3823SOL    HW112368   5.331   6.514   5.185
 3823SOL    HW212369   5.391   6.412   5.297
 3824SOL     OW12370   2.435   2.863   0.485
 3824SOL    HW112371   2.400   2.772   0.466
 3824SOL    HW212372   2.403   2.894   0.575
 3825SOL     OW12373   0.236   5.090   5.872
 3825SOL    HW112374   0.160   5.030   5.896
 3825SOL    HW212375   0.281   5.054   5.790
 3826SOL     OW12376   5.306   3.686   3.285
 3826SOL    HW112377   5.393   3.677   3.238
 3826SOL    HW212378   5.241   3.735   3.226
 3827SOL     OW12379   0.094   1.633   6.856
 3827SOL    HW112380   0.098   1.673   6.948
 3827SOL    HW212381   0.092   1.706   6.788
 3828SOL     OW12382   4.099   3.492   4.255
 3828SOL    HW112383   4.113   3.494   4.354
 3828SOL    HW212384   4.001   3.490   4.235
 3829SOL     OW12385   0.591   3.444   1.681
 3829SOL    HW112386   0.664   3.447   1.749
 3829SOL    HW212387   0.612   3.373   1.613
 3830SOL     OW12388   5.811   0.296   3.434
 3830SOL    HW112389   5.747   0.362   3.473
 3830SOL    HW212390   5.840   0.232   3.506
 3831SOL     OW12391   4.636   2.256   3.055
 3831SOL    HW112392   4.725   2.302   3.051
 3831SOL    HW212393   4.648   2.163   3.090
 3832SOL     OW12394   6.520   0.739   3.697
 3832SOL    HW112395   6.590   0.799   3.660
 3832SOL    HW212396   6.557   0.647   3.710
 3833SOL     OW12397   1.766   2.779   5.332
 3833SOL    HW112398   1.782   2.682   5.318
 3833SOL    HW212399   1.669   2.800   5.315
 3834SOL     OW12400   5.141   4.679   1.034
 3834SOL    HW112401   5.191   4.732   1.103
 3834SOL    HW212402   5.153   4.581   1.052
 3835SOL     OW12403   4.193   5.620   5.493
 3835SOL    HW112404   4.281   5.587   5.526
 3835SOL    HW212405   4.135   5.645   5.572
 3836SOL     OW12406   6.660   6.160   4.916
 3836SOL    HW112407   6.697   6.090   4.976
 3836SOL    HW212408   6.728   6.232   4.902
 3837SOL     OW12409   4.194   4.807   6.032
 3837SOL    HW112410   4.240   4.896   6.031
 3837SOL    HW212411   4.248   4.742   6.085
 3838SOL     OW12412   6.949   0.331   4.114
 3838SOL    HW112413   6.931   0.237   4.088
 3838SOL    HW212414   6.985   0.333   4.208
 3839SOL     OW12415   4.994   0.703   3.695
 3839SOL    HW112416   5.043   0.767   3.754
 3839SOL    HW212417   4.979   0.617   3.745
 3840SOL     OW12418   3.343   1.256   6.733
 3840SOL    HW112419   3.246   1.259   6.757
 3840SOL    HW212420   3.355   1.208   6.646
 3841SOL     OW12421   5.857   4.316   3.763
 3841SOL    HW112422   5.779   4.253   3.760
 3841SOL    HW212423   5.923   4.285   3.831
 3842SOL     OW12424   2.215   4.255   5.950
 3842SOL    HW112425   2.264   4.180   5.907
 3842SOL    HW212426   2.280   4.326   5.978
 3843SOL     OW12427   4.991   2.381   6.274
 3843SOL    HW112428   4.986   2.306   6.340
 3843SOL    HW212429   4.915   2.374   6.210
 3844SOL     OW12430   6.872   0.323   1.345
 3844SOL    HW112431   6.845   0.331   1.249
 3844SOL    HW212432   6.935   0.246   1.356
 3845SOL     OW12433   1.799   5.772   0.728
 3845SOL    HW112434   1.806   5.688   0.783
 3845SOL    HW212435   1.791   5.851   0.789
 3846SOL     OW12436   0.489   3.342   2.636
 3846SOL    HW112437   0.510   3.385   2.548
 3846SOL    HW212438   0.402   3.293   2.630
 3847SOL     OW12439   0.351   1.798   6.540
 3847SOL    HW112440   0.409   1.874   6.571
 3847SOL    HW212441   0.329   1.810   6.444
 3848SOL     OW12442   6.233   4.210   1.813
 3848SOL    HW112443   6.248   4.133   1.875
 3848SOL    HW212444   6.221   4.175   1.720
 3849SOL     OW12445   7.000   4.895   6.128
 3849SOL    HW112446   0.064   4.877   6.078
 3849SOL    HW212447   7.020   4.944   6.212
 3850SOL     OW12448   3.038   2.424   1.333
 3850SOL    HW112449   3.094   2.344   1.354
 3850SOL    HW212450   2.951   2.417   1.381
 3851SOL     OW12451   0.448   6.287   2.901
 3851SOL    HW112452   0.498   6.367   2.867
 3851SOL    HW212453   0.350   6.307   2.905
 3852SOL     OW12454   1.524   0.150   4.442
 3852SOL    HW112455   1.600   0.085   4.446
 3852SOL    HW212456   1.437   0.100   4.437
 3853SOL     OW12457   3.187   0.600   3.564
 3853SOL    HW112458   3.090   0.584   3.583
 3853SOL    HW212459   3.196   0.643   3.474
 3854SOL     OW12460   6.882   2.189   1.863
 3854SOL    HW112461   6.869   2.288   1.867
 3854SOL    HW212462   6.967   2.164   1.909
 3855SOL     OW12463   3.490   6.723   0.017
 3855SOL    HW112464   3.403   6.716   6.990
 3855SOL    HW212465   3.490   6.803   0.076
 3856SOL     OW12466   0.145   2.696   6.243
 3856SOL    HW112467   0.225   2.717   6.299
 3856SOL    HW212468   0.096   2.780   6.221
 3857SOL     OW12469   2.350   0.187   6.158
 3857SOL    HW112470   2.324   0.279   6.189
 3857SOL    HW212471   2.431   0.157   6.209
 3858SOL     OW12472   4.728   1.197   4.316
 3858SOL    HW112473   4.713   1.098   4.306
 3858SOL    HW212474   4.749   1.236   4.227
 3859SOL     OW12475   5.944   6.698   1.486
 3859SOL    HW112476   5.874   6.645   1.438
 3859SOL    HW212477   5.902   6.747   1.562
 3860SOL     OW12478   1.589   6.785   4.350
 3860SOL    HW112479   1.532   6.787   4.268
 3860SOL    HW212480   1.633   6.874   4.362
 3861SOL     OW12481   2.585   5.057   1.523
 3861SOL    HW112482   2.560   5.032   1.617
 3861SOL    HW212483   2.504   5.093   1.476
 3862SOL     OW12484   1.711   0.576   4.620
 3862SOL    HW112485   1.726   0.629   4.536
 3862SOL    HW212486   1.799   0.559   4.665
 3863SOL     OW12487   3.159   0.379   0.706
 3863SOL    HW112488   3.212   0.455   0.668
 3863SOL    HW212489   3.115   0.330   0.631
 3864SOL     OW12490   1.832   0.350   4.826
 3864SOL    HW112491   1.819   0.437   4.875
 3864SOL    HW212492   1.746   0.299   4.825
 3865SOL     OW12493   4.569   1.282   0.731
 3865SOL    HW112494   4.519   1.223   0.795
 3865SOL    HW212495   4.505   1.323   0.667
 3866SOL     OW12496   2.740   1.999   6.420
 3866SOL    HW112497   2.798   2.057   6.363
 3866SOL    HW212498   2.753   1.903   6.394
 3867SOL     OW12499   0.422   2.976   1.872
 3867SOL    HW112500   0.380   3.064   1.851
 3867SOL    HW212501   0.433   2.968   1.971
 3868SOL     OW12502   4.627   0.695   0.359
 3868SOL    HW112503   4.612   0.793   0.368
 3868SOL    HW212504   4.661   0.674   0.267
 3869SOL     OW12505   4.702   1.717   4.058
 3869SOL    HW112506   4.802   1.719   4.050
 3869SOL    HW212507   4.676   1.756   4.147
 3870SOL     OW12508   0.355   0.783   5.087
 3870SOL    HW112509   0.264   0.749   5.108
 3870SOL    HW212510   0.351   0.882   5.075
 3871SOL     OW12511   2.481   5.746   4.336
 3871SOL    HW112512   2.466   5.691   4.418
 3871SOL    HW212513   2.530   5.692   4.267
 3872SOL     OW12514   3.040   3.402   5.380
 3872SOL    HW112515   3.120   3.413   5.321
 3872SOL    HW212516   2.990   3.488   5.384
 3873SOL     OW12517   4.379   1.712   0.483
 3873SOL    HW112518   4.286   1.744   0.500
 3873SOL    HW212519   4.412   1.750   0.397
 3874SOL     OW12520   1.955   1.243   0.376
 3874SOL    HW112521   1.986   1.151   0.350
 3874SOL    HW212522   2.028   1.289   0.427
 3875SOL     OW12523   1.184   2.192   6.219
 3875SOL    HW112524   1.207   2.277   6.171
 3875SOL    HW212525   1.250   2.121   6.194
 3876SOL     OW12526   3.587   5.247   2.395
 3876SOL    HW112527   3.527   5.209   2.466
 3876SOL    HW212528   3.683   5.229   2.419
 3877SOL     OW12529   0.317   1.767   6.253
 3877SOL    HW112530   0.274   1.678   6.237
 3877SOL    HW212531   0.260   1.839   6.213
 3878SOL     OW12532   5.307   0.939   4.502
 3878SOL    HW112533   5.286   0.844   4.478
 3878SOL    HW212534   5.301   0.951   4.601
 3879SOL     OW12535   5.783   5.603   0.237
 3879SOL    HW112536   5.834   5.566   0.160
 3879SOL    HW212537   5.791   5.541   0.315
 3880SOL     OW12538   4.528   4.480   3.922
 3880SOL    HW112539   4.471   4.462   4.003
 3880SOL    HW212540   4.615   4.431   3.931
 3881SOL     OW12541   1.311   3.503   6.892
 3881SOL    HW112542   1.221   3.463   6.880
 3881SOL    HW212543   1.381   3.439   6.858
 3882SOL     OW12544   0.596   2.112   6.164
 3882SOL    HW112545   0.558   2.058   6.089
 3882SOL    HW212546   0.696   2.111   6.158
 3883SOL     OW12547   4.593   5.565   3.507
 3883SOL    HW112548   4.544   5.478   3.496
 3883SOL    HW212549   4.677   5.562   3.452
 3884SOL     OW12550   0.466   3.901   2.025
 3884SOL    HW112551   0.407   3.957   2.084
 3884SOL    HW212552   0.536   3.959   1.983
 3885SOL     OW12553   5.258   5.542   2.880
 3885SOL    HW112554   5.240   5.513   2.786
 3885SOL    HW212555   5.216   5.632   2.895
 3886SOL     OW12556   2.686   6.403   5.830
 3886SOL    HW112557   2.666   6.341   5.905
 3886SOL    HW212558   2.603   6.420   5.776
 3887SOL     OW12559   1.250   6.096   2.395
 3887SOL    HW112560   1.332   6.041   2.405
 3887SOL    HW212561   1.189   6.080   2.473
 3888SOL     OW12562   5.592   4.994   3.907
 3888SOL    HW112563   5.614   5.025   3.815
 3888SOL    HW212564   5.523   4.922   3.902
 3889SOL     OW12565   5.349   3.901   0.729
 3889SOL    HW112566   5.398   3.837   0.670
 3889SOL    HW212567   5.300   3.968   0.673
 3890SOL     OW12568   5.338   3.284   4.450
 3890SOL    HW112569   5.383   3.223   4.385
 3890SOL    HW212570   5.391   3.368   4.460
 3891SOL     OW12571   5.213   5.618   3.330
 3891SOL    HW112572   5.128   5.671   3.333
 3891SOL    HW212573   5.192   5.523   3.309
 3892SOL     OW12574   6.980   2.555   1.401
 3892SOL    HW112575   0.040   2.499   1.422
 3892SOL    HW212576   6.942   2.526   1.313
 3893SOL     OW12577   3.996   3.776   2.851
 3893SOL    HW112578   3.952   3.687   2.863
 3893SOL    HW212579   4.024   3.811   2.940
 3894SOL     OW12580   4.719   0.719   5.771
 3894SOL    HW112581   4.652   0.731   5.845
 3894SOL    HW212582   4.706   0.631   5.727
 3895SOL     OW12583   0.923   0.330   4.319
 3895SOL    HW112584   0.898   0.413   4.370
 3895SOL    HW212585   0.973   0.356   4.236
 3896SOL     OW12586   1.268   1.381   6.497
 3896SOL    HW112587   1.220   1.313   6.552
 3896SOL    HW212588   1.236   1.376   6.403
 3897SOL     OW12589   4.058   6.307   1.420
 3897SOL    HW112590   3.999   6.379   1.384
 3897SOL    HW212591   4.017   6.217   1.402
 3898SOL     OW12592   3.697   2.806   1.231
 3898SOL    HW112593   3.731   2.760   1.149
 3898SOL    HW212594   3.612   2.854   1.210
 3899SOL     OW12595   3.442   0.393   5.655
 3899SOL    HW112596   3.527   0.341   5.644
 3899SOL    HW212597   3.434   0.459   5.580
 3900SOL     OW12598   4.952   3.578   3.107
 3900SOL    HW112599   5.006   3.510   3.059
 3900SOL    HW212600   4.998   3.667   3.103
 3901SOL     OW12601   2.637   0.411   0.011
 3901SOL    HW112602   2.585   0.374   0.087
 3901SOL    HW212603   2.593   0.495   6.999
 3902SOL     OW12604   5.972   2.750   2.616
 3902SOL    HW112605   5.939   2.657   2.605
 3902SOL    HW212606   6.070   2.754   2.597
 3903SOL     OW12607   3.295   4.428   6.018
 3903SOL    HW112608   3.260   4.489   5.946
 3903SOL    HW212609   3.221   4.369   6.050
 3904SOL     OW12610   1.433   0.562   0.534
 3904SOL    HW112611   1.462   0.518   0.619
 3904SOL    HW212612   1.507   0.555   0.467
 3905SOL     OW12613   6.440   5.719   5.370
 3905SOL    HW112614   6.501   5.643   5.393
 3905SOL    HW212615   6.482   5.775   5.298
 3906SOL     OW12616   6.712   6.461   4.862
 3906SOL    HW112617   6.629   6.458   4.805
 3906SOL    HW212618   6.691   6.505   4.949
 3907SOL     OW12619   6.615   1.930   3.686
 3907SOL    HW112620   6.677   1.919   3.608
 3907SOL    HW212621   6.553   1.851   3.690
 3908SOL     OW12622   2.149   3.367   6.046
 3908SOL    HW112623   2.095   3.445   6.014
 3908SOL    HW212624   2.240   3.370   6.005
 3909SOL     OW12625   5.788   5.474   3.839
 3909SOL    HW112626   5.744   5.538   3.776
 3909SOL    HW212627   5.722   5.442   3.906
 3910SOL     OW12628   4.146   3.675   2.656
 3910SOL    HW112629   4.144   3.721   2.568
 3910SOL    HW212630   4.096   3.730   2.724
 3911SOL     OW12631   6.521   2.297   5.513
 3911SOL    HW112632   6.468   2.380   5.497
 3911SOL    HW212633   6.618   2.320   5.523
 3912SOL     OW12634   5.369   2.723   6.840
 3912SOL    HW112635   5.401   2.767   6.923
 3912SOL    HW212636   5.402   2.774   6.760
 3913SOL     OW12637   0.819   6.542   1.277
 3913SOL    HW112638   0.864   6.631   1.285
 3913SOL    HW212639   0.723   6.551   1.302
 3914SOL     OW12640   3.229   5.461   5.616
 3914SOL    HW112641   3.249   5.514   5.698
 3914SOL    HW212642   3.196   5.370   5.643
 3915SOL     OW12643   6.985   6.058   1.432
 3915SOL    HW112644   6.961   6.017   1.344
 3915SOL    HW212645   7.012   6.153   1.418
 3916SOL     OW12646   0.782   7.016   3.129
 3916SOL    HW112647   0.843   6.999   3.206
 3916SOL    HW212648   0.699   6.963   3.138
 3917SOL     OW12649   1.861   0.283   0.244
 3917SOL    HW112650   1.903   0.228   0.173
 3917SOL    HW212651   1.842   0.227   0.325
 3918SOL     OW12652   5.581   3.290   0.522
 3918SOL    HW112653   5.501   3.279   0.581
 3918SOL    HW212654   5.657   3.329   0.575
 3919SOL     OW12655   3.317   6.670   0.623
 3919SOL    HW112656   3.299   6.574   0.599
 3919SOL    HW212657   3.397   6.702   0.571
 3920SOL     OW12658   2.100   1.490   6.771
 3920SOL    HW112659   2.194   1.455   6.773
 3920SOL    HW212660   2.099   1.580   6.728
 3921SOL     OW12661   1.579   3.989   1.899
 3921SOL    HW112662   1.542   4.082   1.900
 3921SOL    HW212663   1.630   3.972   1.983
 3922SOL     OW12664   1.071   4.605   1.222
 3922SOL    HW112665   1.088   4.533   1.155
 3922SOL    HW212666   1.036   4.686   1.175
 3923SOL     OW12667   6.554   0.223   0.759
 3923SOL    HW112668   6.526   0.298   0.819
 3923SOL    HW212669   6.646   0.191   0.786
 3924SOL     OW12670   6.911   5.066   4.694
 3924SOL    HW112671   6.861   5.139   4.742
 3924SOL    HW212672   6.847   4.996   4.663
 3925SOL     OW12673   1.497   4.915   2.138
 3925SOL    HW112674   1.539   4.849   2.200
 3925SOL    HW212675   1.475   4.999   2.189
 3926SOL     OW12676   3.649   5.063   2.693
 3926SOL    HW112677   3.696   5.014   2.766
 3926SOL    HW212678   3.611   4.997   2.628
 3927SOL     OW12679   0.797   3.450   6.024
 3927SOL    HW112680   0.803   3.516   6.098
 3927SOL    HW212681   0.768   3.361   6.061
 3928SOL     OW12682   5.387   5.556   6.279
 3928SOL    HW112683   5.371   5.645   6.323
 3928SOL    HW212684   5.427   5.493   6.345
 3929SOL     OW12685   1.002   2.197   4.815
 3929SOL    HW112686   0.910   2.207   4.854
 3929SOL    HW212687   1.013   2.106   4.777
 3930SOL     OW12688   2.500   1.546   4.029
 3930SOL    HW112689   2.416   1.492   4.020
 3930SOL    HW212690   2.538   1.565   3.939
 3931SOL     OW12691   5.260   0.450   2.026
 3931SOL    HW112692   5.203   0.476   1.948
 3931SOL    HW212693   5.225   0.366   2.066
 3932SOL     OW12694   2.058   1.652   3.970
 3932SOL    HW112695   2.014   1.564   3.987
 3932SOL    HW212696   2.100   1.651   3.879
 3933SOL     OW12697   0.603   6.816   5.189
 3933SOL    HW112698   0.546   6.775   5.117
 3933SOL    HW212699   0.555   6.813   5.276
 3934SOL     OW12700   5.373   6.918   0.084
 3934SOL    HW112701   5.355   6.821   0.069
 3934SOL    HW212702   5.433   6.952   0.012
 3935SOL     OW12703   4.871   0.319   0.868
 3935SOL    HW112704   4.939   0.341   0.937
 3935SOL    HW212705   4.907   0.247   0.808
 3936SOL     OW12706   0.293   4.794   3.155
 3936SOL    HW112707   0.290   4.778   3.057
 3936SOL    HW212708   0.301   4.707   3.203
 3937SOL     OW12709   0.458   1.314   2.584
 3937SOL    HW112710   0.522   1.301   2.660
 3937SOL    HW212711   0.399   1.234   2.576
 3938SOL     OW12712   0.001   2.172   2.482
 3938SOL    HW112713   6.943   2.124   2.444
 3938SOL    HW212714   7.000   2.202   2.575
 3939SOL     OW12715   2.846   1.899   1.634
 3939SOL    HW112716   2.855   1.800   1.640
 3939SOL    HW212717   2.937   1.941   1.628
 3940SOL     OW12718   4.154   3.374   1.470
 3940SOL    HW112719   4.143   3.308   1.545
 3940SOL    HW212720   4.179   3.463   1.508
 3941SOL     OW12721   4.924   3.946   6.626
 3941SOL    HW112722   4.947   4.021   6.563
 3941SOL    HW212723   4.849   3.975   6.686
 3942SOL     OW12724   6.845   6.934   6.879
 3942SOL    HW112725   6.816   6.977   6.793
 3942SOL    HW212726   6.886   7.003   6.939
 3943SOL     OW12727   6.724   3.343   4.634
 3943SOL    HW112728   6.800   3.301   4.584
 3943SOL    HW212729   6.657   3.272   4.658
 3944SOL     OW12730   5.049   2.615   4.744
 3944SOL    HW112731   5.047   2.515   4.732
 3944SOL    HW212732   5.129   2.641   4.798
 3945SOL     OW12733   0.014   0.842   0.649
 3945SOL    HW112734   0.096   0.886   0.685
 3945SOL    HW212735   6.997   0.780   0.718
 3946SOL     OW12736   4.221   4.705   2.908
 3946SOL    HW112737   4.239   4.680   2.813
 3946SOL    HW212738   4.272   4.644   2.969
 3947SOL     OW12739   5.989   5.391   6.635
 3947SOL    HW112740   5.931   5.467   6.662
 3947SOL    HW212741   6.082   5.407   6.669
 3948SOL     OW12742   6.405   4.051   0.748
 3948SOL    HW112743   6.333   4.120   0.751
 3948SOL    HW212744   6.369   3.964   0.780
 3949SOL     OW12745   5.517   6.271   3.248
 3949SOL    HW112746   5.532   6.225   3.160
 3949SOL    HW212747   5.480   6.206   3.314
 3950SOL     OW12748   1.460   6.092   0.693
 3950SOL    HW112749   1.489   6.000   0.665
 3950SOL    HW212750   1.407   6.134   0.619
 3951SOL     OW12751   5.371   7.012   1.585
 3951SOL    HW112752   5.450   0.052   1.594
 3951SOL    HW212753   5.397   6.919   1.609
 3952SOL     OW12754   5.676   2.167   0.129
 3952SOL    HW112755   5.643   2.124   0.046
 3952SOL    HW212756   5.602   2.169   0.197
 3953SOL     OW12757   3.554   4.016   2.802
 3953SOL    HW112758   3.585   4.025   2.897
 3953SOL    HW212759   3.460   3.984   2.801
 3954SOL     OW12760   4.188   4.893   5.638
 3954SOL    HW112761   4.141   4.806   5.657
 3954SOL    HW212762   4.256   4.910   5.709
 3955SOL     OW12763   4.035   1.058   4.696
 3955SOL    HW112764   4.008   1.007   4.778
 3955SOL    HW212765   3.957   1.067   4.635
 3956SOL     OW12766   2.329   1.241   1.505
 3956SOL    HW112767   2.376   1.329   1.513
 3956SOL    HW212768   2.281   1.221   1.591
 3957SOL     OW12769   4.029   0.411   4.720
 3957SOL    HW112770   4.126   0.430   4.735
 3957SOL    HW212771   4.019   0.334   4.657
 3958SOL     OW12772   5.854   0.464   5.861
 3958SOL    HW112773   5.951   0.481   5.844
 3958SOL    HW212774   5.837   0.461   5.960
 3959SOL     OW12775   4.536   5.549   0.267
 3959SOL    HW112776   4.503   5.484   0.335
 3959SOL    HW212777   4.635   5.541   0.259
 3960SOL     OW12778   5.086   2.190   4.385
 3960SOL    HW112779   5.171   2.208   4.335
 3960SOL    HW212780   5.094   2.103   4.434
 3961SOL     OW12781   5.722   6.623   3.809
 3961SOL    HW112782   5.700   6.659   3.718
 3961SOL    HW212783   5.805   6.568   3.804
 3962SOL     OW12784   0.106   5.830   5.153
 3962SOL    HW112785   0.119   5.878   5.239
 3962SOL    HW212786   0.024   5.772   5.159
 3963SOL     OW12787   4.567   6.906   2.027
 3963SOL    HW112788   4.578   6.813   2.062
 3963SOL    HW212789   4.471   6.934   2.036
 3964SOL     OW12790   5.427   3.279   3.143
 3964SOL    HW112791   5.365   3.305   3.217
 3964SOL    HW212792   5.476   3.196   3.169
 3965SOL     OW12793   4.841   3.895   4.486
 3965SOL    HW112794   4.875   3.830   4.553
 3965SOL    HW212795   4.831   3.985   4.528
 3966SOL     OW12796   2.681   6.242   6.295
 3966SOL    HW112797   2.688   6.144   6.276
 3966SOL    HW212798   2.698   6.259   6.392
 3967SOL     OW12799   1.931   4.454   3.185
 3967SOL    HW112800   2.015   4.480   3.232
 3967SOL    HW212801   1.949   4.444   3.087
 3968SOL     OW12802   3.591   6.834   0.558
 3968SOL    HW112803   3.647   6.753   0.574
 3968SOL    HW212804   3.596   6.894   0.637
 3969SOL     OW12805   0.351   5.261   2.810
 3969SOL    HW112806   0.404   5.342   2.836
 3969SOL    HW212807   0.380   5.229   2.720
 3970SOL     OW12808   5.124   6.244   2.457
 3970SOL    HW112809   5.101   6.168   2.397
 3970SOL    HW212810   5.163   6.210   2.542
 3971SOL     OW12811   2.249   6.089   3.268
 3971SOL    HW112812   2.340   6.062   3.235
 3971SOL    HW212813   2.179   6.031   3.226
 3972SOL     OW12814   1.939   3.920   0.222
 3972SOL    HW112815   1.898   3.830   0.208
 3972SOL    HW212816   1.935   3.972   0.137
 3973SOL     OW12817   1.563   5.331   0.791
 3973SOL    HW112818   1.520   5.243   0.773
 3973SOL    HW212819   1.589   5.337   0.887
 3974SOL     OW12820   2.226   0.940   5.029
 3974SOL    HW112821   2.196   0.846   5.048
 3974SOL    HW212822   2.153   1.003   5.056
 3975SOL     OW12823   5.905   2.405   6.162
 3975SOL    HW112824   5.926   2.465   6.239
 3975SOL    HW212825   5.933   2.312   6.184
 3976SOL     OW12826   1.988   5.300   2.040
 3976SOL    HW112827   2.078   5.316   1.998
 3976SOL    HW212828   1.991   5.215   2.092
 3977SOL     OW12829   1.358   3.454   6.553
 3977SOL    HW112830   1.422   3.531   6.556
 3977SOL    HW212831   1.396   3.376   6.603
 3978SOL     OW12832   6.612   4.472   3.590
 3978SOL    HW112833   6.637   4.412   3.514
 3978SOL    HW212834   6.555   4.423   3.655
 3979SOL     OW12835   4.033   0.044   6.501
 3979SOL    HW112836   4.125   0.010   6.522
 3979SOL    HW212837   3.977   6.990   6.465
 3980SOL     OW12838   5.552   6.144   5.757
 3980SOL    HW112839   5.618   6.219   5.762
 3980SOL    HW212840   5.552   6.105   5.665
 3981SOL     OW12841   4.508   6.585   0.093
 3981SOL    HW112842   4.574   6.619   0.026
 3981SOL    HW212843   4.556   6.531   0.162
 3982SOL     OW12844   3.185   6.348   3.140
 3982SOL    HW112845   3.208   6.308   3.229
 3982SOL    HW212846   3.234   6.299   3.068
 3983SOL     OW12847   3.505   5.948   4.376
 3983SOL    HW112848   3.558   6.030   4.353
 3983SOL    HW212849   3.547   5.868   4.333
 3984SOL     OW12850   6.624   2.395   2.876
 3984SOL    HW112851   6.589   2.428   2.788
 3984SOL    HW212852   6.558   2.334   2.918
 3985SOL     OW12853   4.020   5.253   6.571
 3985SOL    HW112854   3.973   5.341   6.566
 3985SOL    HW212855   4.063   5.243   6.661
 3986SOL     OW12856   5.158   0.689   2.506
 3986SOL    HW112857   5.122   0.603   2.471
 3986SOL    HW212858   5.144   0.761   2.439
 3987SOL     OW12859   3.372   5.246   4.746
 3987SOL    HW112860   3.333   5.235   4.655
 3987SOL    HW212861   3.454   5.190   4.755
 3988SOL     OW12862   3.923   6.009   0.472
 3988SOL    HW112863   3.954   5.953   0.549
 3988SOL    HW212864   3.948   6.104   0.488
 3989SOL     OW12865   5.459   2.156   0.315
 3989SOL    HW112866   5.371   2.175   0.359
 3989SOL    HW212867   5.522   2.114   0.380
 3990SOL     OW12868   6.471   1.605   2.517
 3990SOL    HW112869   6.563   1.639   2.497
 3990SOL    HW212870   6.452   1.525   2.460
 3991SOL     OW12871   6.659   0.650   3.177
 3991SOL    HW112872   6.677   0.607   3.266
 3991SOL    HW212873   6.621   0.582   3.114
 3992SOL     OW12874   2.974   1.635   0.922
 3992SOL    HW112875   2.963   1.665   1.017
 3992SOL    HW212876   2.897   1.576   0.897
 3993SOL     OW12877   1.274   2.920   1.727
 3993SOL    HW112878   1.342   2.857   1.764
 3993SOL    HW212879   1.241   2.887   1.639
 3994SOL     OW12880   2.518   6.127   4.670
 3994SOL    HW112881   2.597   6.175   4.708
 3994SOL    HW212882   2.514   6.035   4.707
 3995SOL     OW12883   1.538   2.242   5.008
 3995SOL    HW112884   1.478   2.164   4.989
 3995SOL    HW212885   1.602   2.218   5.081
 3996SOL     OW12886   6.858   6.473   4.644
 3996SOL    HW112887   6.841   6.396   4.582
 3996SOL    HW212888   6.814   6.454   4.732
 3997SOL     OW12889   4.572   0.746   4.648
 3997SOL    HW112890   4.619   0.798   4.577
 3997SOL    HW212891   4.504   0.685   4.606
 3998SOL     OW12892   4.691   1.866   3.379
 3998SOL    HW112893   4.611   1.840   3.433
 3998SOL    HW212894   4.758   1.792   3.379
 3999SOL     OW12895   5.326   2.183   4.255
 3999SOL    HW112896   5.316   2.249   4.180
 3999SOL    HW212897   5.317   2.090   4.219
 4000SOL     OW12898   4.132   6.732   4.211
 4000SOL    HW112899   4.056   6.705   4.270
 4000SOL    HW212900   4.167   6.652   4.162
 4001SOL     OW12901   1.029   2.298   4.345
 4001SOL    HW112902   1.052   2.330   4.437
 4001SOL    HW212903   1.103   2.323   4.282
 4002SOL     OW12904   2.412   3.960   1.707
 4002SOL    HW112905   2.324   3.938   1.666
 4002SOL    HW212906   2.479   3.890   1.681
 4003SOL     OW12907   3.894   1.923   5.287
 4003SOL    HW112908   3.957   1.981   5.235
 4003SOL    HW212909   3.835   1.980   5.344
 4004SOL     OW12910   6.881   1.671   5.376
 4004SOL    HW112911   6.870   1.711   5.284
 4004SOL    HW212912   6.844   1.578   5.377
 4005SOL     OW12913   6.352   5.221   5.234
 4005SOL    HW112914   6.450   5.203   5.239
 4005SOL    HW212915   6.333   5.311   5.273
 4006SOL     OW12916   3.894   5.750   2.614
 4006SOL    HW112917   3.812   5.795   2.650
 4006SOL    HW212918   3.880   5.651   2.615
 4007SOL     OW12919   6.726   1.843   6.436
 4007SOL    HW112920   6.638   1.796   6.434
 4007SOL    HW212921   6.712   1.940   6.454
 4008SOL     OW12922   2.627   2.317   5.051
 4008SOL    HW112923   2.676   2.333   5.138
 4008SOL    HW212924   2.563   2.392   5.035
 4009SOL     OW12925   3.290   3.439   3.143
 4009SOL    HW112926   3.350   3.483   3.209
 4009SOL    HW212927   3.202   3.417   3.186
 4010SOL     OW12928   1.749   2.947   6.877
 4010SOL    HW112929   1.799   2.861   6.872
 4010SOL    HW212930   1.684   2.952   6.801
 4011SOL     OW12931   1.236   2.676   1.098
 4011SOL    HW112932   1.151   2.718   1.067
 4011SOL    HW212933   1.307   2.746   1.104
 4012SOL     OW12934   5.840   2.609   3.578
 4012SOL    HW112935   5.933   2.647   3.585
 4012SOL    HW212936   5.836   2.521   3.625
 4013SOL     OW12937   4.397   2.365   3.166
 4013SOL    HW112938   4.490   2.346   3.132
 4013SOL    HW212939   4.387   2.326   3.257
 4014SOL     OW12940   5.701   6.542   2.184
 4014SOL    HW112941   5.731   6.635   2.165
 4014SOL    HW212942   5.687   6.530   2.282
 4015SOL     OW12943   4.656   3.497   6.887
 4015SOL    HW112944   4.697   3.405   6.891
 4015SOL    HW212945   4.722   3.564   6.922
 4016SOL     OW12946   3.181   6.047   5.368
 4016SOL    HW112947   3.186   6.136   5.412
 4016SOL    HW212948   3.089   6.010   5.376
 4017SOL     OW12949   6.225   6.641   0.166
 4017SOL    HW112950   6.292   6.714   0.153
 4017SOL    HW212951   6.169   6.661   0.247
 4018SOL     OW12952   2.071   6.338   0.430
 4018SOL    HW112953   2.137   6.278   0.474
 4018SOL    HW212954   1.992   6.284   0.399
 4019SOL     OW12955   5.008   5.429   3.230
 4019SOL    HW112956   5.021   5.330   3.239
 4019SOL    HW212957   4.980   5.450   3.137
 4020SOL     OW12958   5.012   1.987   5.251
 4020SOL    HW112959   5.037   2.040   5.332
 4020SOL    HW212960   4.937   2.033   5.203
 4021SOL     OW12961   4.366   4.360   0.140
 4021SOL    HW112962   4.285   4.359   0.082
 4021SOL    HW212963   4.379   4.452   0.178
 4022SOL     OW12964   5.498   0.717   0.877
 4022SOL    HW112965   5.564   0.744   0.807
 4022SOL    HW212966   5.418   0.776   0.874
 4023SOL     OW12967   0.117   0.301   5.747
 4023SOL    HW112968   0.176   0.258   5.814
 4023SOL    HW212969   0.078   0.231   5.687
 4024SOL     OW12970   4.549   4.534   4.451
 4024SOL    HW112971   4.608   4.472   4.502
 4024SOL    HW212972   4.491   4.584   4.515
 4025SOL     OW12973   1.387   4.243   3.592
 4025SOL    HW112974   1.341   4.325   3.627
 4025SOL    HW212975   1.319   4.175   3.568
 4026SOL     OW12976   4.829   0.075   4.939
 4026SOL    HW112977   4.890   7.017   4.927
 4026SOL    HW212978   4.883   0.160   4.932
 4027SOL     OW12979   4.002   5.034   2.190
 4027SOL    HW112980   3.975   4.965   2.122
 4027SOL    HW212981   3.937   5.110   2.187
 4028SOL     OW12982   2.771   6.088   3.599
 4028SOL    HW112983   2.823   6.010   3.563
 4028SOL    HW212984   2.769   6.084   3.699
 4029SOL     OW12985   1.709   3.620   3.842
 4029SOL    HW112986   1.798   3.576   3.851
 4029SOL    HW212987   1.706   3.701   3.901
 4030SOL     OW12988   1.272   1.672   6.144
 4030SOL    HW112989   1.257   1.595   6.083
 4030SOL    HW212990   1.227   1.654   6.232
 4031SOL     OW12991   5.733   5.602   4.121
 4031SOL    HW112992   5.744   5.689   4.169
 4031SOL    HW212993   5.646   5.602   4.072
 4032SOL     OW12994   3.982   6.762   5.208
 4032SOL    HW112995   3.886   6.755   5.234
 4032SOL    HW212996   4.024   6.672   5.211
 4033SOL     OW12997   3.399   3.616   5.919
 4033SOL    HW112998   3.386   3.661   5.831
 4033SOL    HW212999   3.420   3.684   5.989
 4034SOL     OW13000   5.890   2.845   4.906
 4034SOL    HW113001   5.933   2.916   4.962
 4034SOL    HW213002   5.792   2.862   4.900
 4035SOL     OW13003   0.345   5.056   1.540
 4035SOL    HW113004   0.294   5.009   1.468
 4035SOL    HW213005   0.402   5.128   1.499
 4036SOL     OW13006   6.538   6.265   2.763
 4036SOL    HW113007   6.453   6.245   2.812
 4036SOL    HW213008   6.538   6.218   2.675
 4037SOL     OW13009   6.905   3.970   6.230
 4037SOL    HW113010   6.864   3.999   6.317
 4037SOL    HW213011   6.834   3.945   6.165
 4038SOL     OW13012   6.608   5.425   3.348
 4038SOL    HW113013   6.680   5.423   3.278
 4038SOL    HW213014   6.629   5.497   3.414
 4039SOL     OW13015   3.558   5.833   1.391
 4039SOL    HW113016   3.562   5.758   1.458
 4039SOL    HW213017   3.546   5.794   1.299
 4040SOL     OW13018   3.287   6.370   0.585
 4040SOL    HW113019   3.245   6.308   0.651
 4040SOL    HW213020   3.239   6.364   0.498
 4041SOL     OW13021   1.147   6.427   2.856
 4041SOL    HW113022   1.106   6.422   2.947
 4041SOL    HW213023   1.219   6.497   2.856
 4042SOL     OW13024   5.999   5.936   2.308
 4042SOL    HW113025   6.001   5.836   2.309
 4042SOL    HW213026   6.045   5.971   2.390
 4043SOL     OW13027   6.336   3.857   1.622
 4043SOL    HW113028   6.326   3.903   1.534
 4043SOL    HW213029   6.249   3.862   1.672
 4044SOL     OW13030   6.031   5.551   3.288
 4044SOL    HW113031   6.098   5.610   3.334
 4044SOL    HW213032   6.057   5.540   3.192
 4045SOL     OW13033   2.438   4.860   5.611
 4045SOL    HW113034   2.498   4.926   5.566
 4045SOL    HW213035   2.365   4.908   5.659
 4046SOL     OW13036   0.365   3.232   0.556
 4046SOL    HW113037   0.390   3.230   0.652
 4046SOL    HW213038   0.269   3.204   0.545
 4047SOL     OW13039   3.013   3.953   2.603
 4047SOL    HW113040   2.974   3.863   2.586
 4047SOL    HW213041   2.962   3.998   2.677
 4048SOL     OW13042   4.613   2.468   0.650
 4048SOL    HW113043   4.708   2.448   0.627
 4048SOL    HW213044   4.609   2.550   0.707
 4049SOL     OW13045   6.780   0.520   5.851
 4049SOL    HW113046   6.876   0.538   5.869
 4049SOL    HW213047   6.740   0.597   5.803
 4050SOL     OW13048   2.785   0.767   1.831
 4050SOL    HW113049   2.798   0.673   1.800
 4050SOL    HW213050   2.705   0.772   1.892
 4051SOL     OW13051   1.307   3.867   1.073
 4051SOL    HW113052   1.246   3.803   1.027
 4051SOL    HW213053   1.256   3.918   1.143
 4052SOL     OW13054   1.267   6.864   1.085
 4052SOL    HW113055   1.186   6.809   1.104
 4052SOL    HW213056   1.343   6.804   1.061
 4053SOL     OW13057   3.198   5.233   3.639
 4053SOL    HW113058   3.122   5.203   3.696
 4053SOL    HW213059   3.192   5.332   3.625
 4054SOL     OW13060   5.434   1.655   6.339
 4054SOL    HW113061   5.429   1.556   6.326
 4054SOL    HW213062   5.530   1.684   6.335
 4055SOL     OW13063   4.869   2.723   0.320
 4055SOL    HW113064   4.858   2.820   0.298
 4055SOL    HW213065   4.780   2.683   0.343
 4056SOL     OW13066   4.580   2.654   0.851
 4056SOL    HW113067   4.506   2.715   0.821
 4056SOL    HW213068   4.603   2.674   0.946
 4057SOL     OW13069   6.277   2.114   0.156
 4057SOL    HW113070   6.217   2.052   0.106
 4057SOL    HW213071   6.236   2.135   0.246
 4058SOL     OW13072   1.299   1.790   4.250
 4058SOL    HW113073   1.269   1.884   4.233
 4058SOL    HW213074   1.393   1.791   4.283
 4059SOL     OW13075   6.839   2.120   5.497
 4059SOL    HW113076   6.853   2.137   5.400
 4059SOL    HW213077   6.905   2.051   5.528
 4060SOL     OW13078   3.220   5.741   5.803
 4060SOL    HW113079   3.311   5.763   5.838
 4060SOL    HW213080   3.200   5.798   5.723
 4061SOL     OW13081   2.178   2.736   1.297
 4061SOL    HW113082   2.256   2.727   1.235
 4061SOL    HW213083   2.121   2.813   1.269
 4062SOL     OW13084   3.528   6.365   2.486
 4062SOL    HW113085   3.550   6.431   2.559
 4062SOL    HW213086   3.430   6.370   2.466
 4063SOL     OW13087   2.426   5.008   6.529
 4063SOL    HW113088   2.421   4.938   6.458
 4063SOL    HW213089   2.381   4.975   6.612
 4064SOL     OW13090   5.913   6.983   4.071
 4064SOL    HW113091   5.834   0.021   4.088
 4064SOL    HW213092   5.957   7.009   3.986
 4065SOL     OW13093   6.983   4.638   6.306
 4065SOL    HW113094   6.902   4.693   6.283
 4065SOL    HW213095   6.979   4.613   6.403
 4066SOL     OW13096   6.054   5.415   1.497
 4066SOL    HW113097   6.139   5.407   1.446
 4066SOL    HW213098   6.057   5.356   1.578
 4067SOL     OW13099   5.731   1.239   1.684
 4067SOL    HW113100   5.666   1.282   1.745
 4067SOL    HW213101   5.691   1.157   1.644
 4068SOL     OW13102   5.362   1.505   4.850
 4068SOL    HW113103   5.327   1.421   4.810
 4068SOL    HW213104   5.309   1.583   4.817
 4069SOL     OW13105   6.933   6.292   0.705
 4069SOL    HW113106   6.861   6.278   0.773
 4069SOL    HW213107   6.972   6.383   0.715
 4070SOL     OW13108   0.170   3.693   3.252
 4070SOL    HW113109   0.212   3.613   3.208
 4070SOL    HW213110   0.104   3.735   3.190
 4071SOL     OW13111   2.944   0.572   3.917
 4071SOL    HW113112   2.961   0.484   3.873
 4071SOL    HW213113   3.020   0.634   3.897
 4072SOL     OW13114   1.214   0.041   3.700
 4072SOL    HW113115   1.259   0.098   3.769
 4072SOL    HW213116   1.136   0.091   3.661
 4073SOL     OW13117   2.228   5.385   1.945
 4073SOL    HW113118   2.212   5.480   1.971
 4073SOL    HW213119   2.219   5.376   1.845
 4074SOL     OW13120   0.606   2.784   0.108
 4074SOL    HW113121   0.549   2.854   0.152
 4074SOL    HW213122   0.695   2.780   0.153
 4075SOL     OW13123   5.577   0.205   3.598
 4075SOL    HW113124   5.522   0.285   3.573
 4075SOL    HW213125   5.647   0.190   3.528
 4076SOL     OW13126   2.113   2.404   2.732
 4076SOL    HW113127   2.130   2.389   2.634
 4076SOL    HW213128   2.150   2.492   2.759
 4077SOL     OW13129   3.761   0.938   0.556
 4077SOL    HW113130   3.746   0.843   0.582
 4077SOL    HW213131   3.795   0.989   0.634
 4078SOL     OW13132   4.976   3.744   2.517
 4078SOL    HW113133   4.937   3.657   2.489
 4078SOL    HW213134   4.944   3.816   2.454
 4079SOL     OW13135   5.817   0.455   4.419
 4079SOL    HW113136   5.787   0.551   4.415
 4079SOL    HW213137   5.754   0.399   4.365
 4080SOL     OW13138   3.712   2.899   3.599
 4080SOL    HW113139   3.805   2.894   3.562
 4080SOL    HW213140   3.646   2.905   3.524
 4081SOL     OW13141   2.501   2.060   6.829
 4081SOL    HW113142   2.472   2.139   6.883
 4081SOL    HW213143   2.601   2.053   6.829
 4082SOL     OW13144   0.974   2.082   5.898
 4082SOL    HW113145   1.057   2.048   5.854
 4082SOL    HW213146   0.938   2.160   5.846
 4083SOL     OW13147   6.140   5.153   2.780
 4083SOL    HW113148   6.058   5.182   2.830
 4083SOL    HW213149   6.173   5.228   2.723
 4084SOL     OW13150   5.006   0.281   1.892
 4084SOL    HW113151   5.058   0.205   1.853
 4084SOL    HW213152   4.997   0.354   1.824
 4085SOL     OW13153   2.437   4.391   2.906
 4085SOL    HW113154   2.513   4.448   2.939
 4085SOL    HW213155   2.436   4.305   2.958
 4086SOL     OW13156   5.982   5.055   5.454
 4086SOL    HW113157   5.947   5.129   5.511
 4086SOL    HW213158   5.909   4.990   5.435
 4087SOL     OW13159   2.075   0.953   1.856
 4087SOL    HW113160   2.163   0.956   1.903
 4087SOL    HW213161   2.001   0.963   1.922
 4088SOL     OW13162   0.273   1.644   5.685
 4088SOL    HW113163   0.210   1.641   5.607
 4088SOL    HW213164   0.360   1.685   5.656
 4089SOL     OW13165   1.159   0.821   2.614
 4089SOL    HW113166   1.235   0.887   2.610
 4089SOL    HW213167   1.074   0.869   2.633
 4090SOL     OW13168   3.030   2.534   5.846
 4090SOL    HW113169   3.115   2.550   5.796
 4090SOL    HW213170   3.003   2.438   5.838
 4091SOL     OW13171   3.102   6.078   2.637
 4091SOL    HW113172   3.042   6.153   2.609
 4091SOL    HW213173   3.104   6.072   2.737
 4092SOL     OW13174   5.925   1.645   5.788
 4092SOL    HW113175   5.911   1.703   5.869
 4092SOL    HW213176   5.881   1.556   5.803
 4093SOL     OW13177   5.538   3.953   2.988
 4093SOL    HW113178   5.595   3.964   2.907
 4093SOL    HW213179   5.458   4.012   2.981
 4094SOL     OW13180   6.944   6.772   0.572
 4094SOL    HW113181   6.980   6.792   0.664
 4094SOL    HW213182   6.857   6.818   0.559
 4095SOL     OW13183   1.856   5.436   0.536
 4095SOL    HW113184   1.761   5.454   0.564
 4095SOL    HW213185   1.888   5.510   0.477
 4096SOL     OW13186   0.602   0.182   6.598
 4096SOL    HW113187   0.680   0.226   6.553
 4096SOL    HW213188   0.517   0.212   6.554
 4097SOL     OW13189   0.713   3.875   5.533
 4097SOL    HW113190   0.627   3.832   5.504
 4097SOL    HW213191   0.703   3.975   5.530
 4098SOL     OW13192   1.176   6.140   1.941
 4098SOL    HW113193   1.195   6.062   1.882
 4098SOL    HW213194   1.169   6.109   2.036
 4099SOL     OW13195   6.894   3.520   5.304
 4099SOL    HW113196   6.957   3.443   5.288
 4099SOL    HW213197   6.835   3.532   5.225
 4100SOL     OW13198   2.333   0.692   3.266
 4100SOL    HW113199   2.355   0.698   3.168
 4100SOL    HW213200   2.413   0.718   3.320
 4101SOL     OW13201   6.337   6.007   6.019
 4101SOL    HW113202   6.314   5.912   5.996
 4101SOL    HW213203   6.309   6.067   5.944
 4102SOL     OW13204   1.133   5.892   0.592
 4102SOL    HW113205   1.059   5.931   0.537
 4102SOL    HW213206   1.194   5.840   0.532
 4103SOL     OW13207   2.786   5.462   3.080
 4103SOL    HW113208   2.687   5.457   3.094
 4103SOL    HW213209   2.827   5.375   3.107
 4104SOL     OW13210   1.377   6.247   5.221
 4104SOL    HW113211   1.366   6.153   5.255
 4104SOL    HW213212   1.312   6.264   5.148
 4105SOL     OW13213   3.564   6.427   2.006
 4105SOL    HW113214   3.519   6.341   2.030
 4105SOL    HW213215   3.648   6.408   1.954
 4106SOL     OW13216   1.566   0.233   2.332
 4106SOL    HW113217   1.532   0.231   2.426
 4106SOL    HW213218   1.624   0.313   2.319
 4107SOL     OW13219   1.573   1.146   0.806
 4107SOL    HW113220   1.513   1.177   0.732
 4107SOL    HW213221   1.667   1.141   0.772
 4108SOL     OW13222   6.414   6.604   5.591
 4108SOL    HW113223   6.458   6.654   5.516
 4108SOL    HW213224   6.337   6.657   5.626
 4109SOL     OW13225   5.004   6.483   4.917
 4109SOL    HW113226   4.942   6.561   4.912
 4109SOL    HW213227   5.043   6.466   4.826
 4110SOL     OW13228   4.401   3.118   0.235
 4110SOL    HW113229   4.442   3.050   0.297
 4110SOL    HW213230   4.472   3.155   0.175
 4111SOL     OW13231   5.409   4.792   3.961
 4111SOL    HW113232   5.352   4.852   3.906
 4111SOL    HW213233   5.351   4.731   4.015
 4112SOL     OW13234   4.506   5.814   4.487
 4112SOL    HW113235   4.545   5.765   4.409
 4112SOL    HW213236   4.576   5.869   4.532
 4113SOL     OW13237   4.823   4.884   4.907
 4113SOL    HW113238   4.913   4.858   4.941
 4113SOL    HW213239   4.774   4.935   4.978
 4114SOL     OW13240   0.283   0.717   2.275
 4114SOL    HW113241   0.284   0.686   2.370
 4114SOL    HW213242   0.372   0.700   2.234
 4115SOL     OW13243   4.224   5.771   4.284
 4115SOL    HW113244   4.192   5.708   4.214
 4115SOL    HW213245   4.306   5.818   4.251
 4116SOL     OW13246   6.185   3.323   3.282
 4116SOL    HW113247   6.241   3.404   3.263
 4116SOL    HW213248   6.244   3.248   3.310
 4117SOL     OW13249   0.158   1.215   3.082
 4117SOL    HW113250   0.140   1.193   3.178
 4117SOL    HW213251   0.104   1.155   3.023
 4118SOL     OW13252   1.571   0.403   1.052
 4118SOL    HW113253   1.618   0.408   1.140
 4118SOL    HW213254   1.499   0.334   1.056
 4119SOL     OW13255   0.190   0.777   4.722
 4119SOL    HW113256   0.281   0.736   4.728
 4119SOL    HW213257   0.128   0.729   4.785
 4120SOL     OW13258   1.964   0.731   6.300
 4120SOL    HW113259   2.056   0.749   6.336
 4120SOL    HW213260   1.970   0.664   6.226
 4121SOL     OW13261   6.392   0.878   1.961
 4121SOL    HW113262   6.367   0.816   2.035
 4121SOL    HW213263   6.313   0.936   1.939
 4122SOL     OW13264   1.138   5.057   2.818
 4122SOL    HW113265   1.154   4.974   2.766
 4122SOL    HW213266   1.078   5.037   2.896
 4123SOL     OW13267   5.551   4.370   1.520
 4123SOL    HW113268   5.592   4.336   1.605
 4123SOL    HW213269   5.478   4.308   1.491
 4124SOL     OW13270   6.415   6.858   0.083
 4124SOL    HW113271   6.496   6.815   0.122
 4124SOL    HW213272   6.391   6.939   0.136
 4125SOL     OW13273   0.075   2.914   6.966
 4125SOL    HW113274   0.097   3.011   6.962
 4125SOL    HW213275   7.000   2.902   6.994
 4126SOL     OW13276   1.234   3.922   4.252
 4126SOL    HW113277   1.243   4.022   4.254
 4126SOL    HW213278   1.196   3.889   4.338
 4127SOL     OW13279   5.357   2.235   3.941
 4127SOL    HW113280   5.382   2.310   3.881
 4127SOL    HW213281   5.439   2.192   3.977
 4128SOL     OW13282   6.719   2.375   6.084
 4128SOL    HW113283   6.732   2.472   6.065
 4128SOL    HW213284   6.663   2.334   6.011
 4129SOL     OW13285   3.220   1.272   1.191
 4129SOL    HW113286   3.279   1.349   1.163
 4129SOL    HW213287   3.158   1.302   1.263
 4130SOL     OW13288   5.604   2.511   0.446
 4130SOL    HW113289   5.672   2.573   0.408
 4130SOL    HW213290   5.553   2.468   0.371
 4131SOL     OW13291   4.803   6.233   3.977
 4131SOL    HW113292   4.848   6.321   3.964
 4131SOL    HW213293   4.704   6.247   3.984
 4132SOL     OW13294   6.593   4.272   2.912
 4132SOL    HW113295   6.576   4.176   2.935
 4132SOL    HW213296   6.506   4.321   2.906
 4133SOL     OW13297   5.451   6.444   3.458
 4133SOL    HW113298   5.470   6.405   3.367
 4133SOL    HW213299   5.529   6.500   3.487
 4134SOL     OW13300   1.419   3.647   1.387
 4134SOL    HW113301   1.473   3.697   1.455
 4134SOL    HW213302   1.472   3.571   1.351
 4135SOL     OW13303   6.273   1.244   1.022
 4135SOL    HW113304   6.347   1.306   1.046
 4135SOL    HW213305   6.207   1.240   1.097
 4136SOL     OW13306   0.686   4.446   0.470
 4136SOL    HW113307   0.596   4.484   0.447
 4136SOL    HW213308   0.674   4.364   0.526
 4137SOL     OW13309   0.111   2.946   5.888
 4137SOL    HW113310   0.139   3.042   5.890
 4137SOL    HW213311   0.096   2.914   5.982
 4138SOL     OW13312   5.040   6.968   6.614
 4138SOL    HW113313   5.097   7.019   6.549
 4138SOL    HW213314   5.034   6.872   6.585
 4139SOL     OW13315   1.679   4.500   2.273
 4139SOL    HW113316   1.644   4.412   2.241
 4139SOL    HW213317   1.750   4.485   2.343
 4140SOL     OW13318   2.318   6.840   6.817
 4140SOL    HW113319   2.279   6.929   6.839
 4140SOL    HW213320   2.396   6.822   6.877
 4141SOL     OW13321   5.315   0.603   6.146
 4141SOL    HW113322   5.222   0.608   6.182
 4141SOL    HW213323   5.313   0.602   6.046
 4142SOL     OW13324   6.317   5.669   1.319
 4142SOL    HW113325   6.322   5.704   1.225
 4142SOL    HW213326   6.409   5.668   1.359
 4143SOL     OW13327   5.819   3.858   6.442
 4143SOL    HW113328   5.870   3.926   6.389
 4143SOL    HW213329   5.745   3.821   6.386
 4144SOL     OW13330   4.007   0.451   1.503
 4144SOL    HW113331   4.025   0.457   1.405
 4144SOL    HW213332   4.093   0.445   1.552
 4145SOL     OW13333   5.366   0.446   1.232
 4145SOL    HW113334   5.414   0.432   1.146
 4145SOL    HW213335   5.278   0.490   1.214
 4146SOL     OW13336   4.280   0.089   1.845
 4146SOL    HW113337   4.298   0.034   1.927
 4146SOL    HW213338   4.220   0.038   1.783
 4147SOL     OW13339   4.294   4.898   6.684
 4147SOL    HW113340   4.215   4.911   6.744
 4147SOL    HW213341   4.331   4.987   6.658
 4148SOL     OW13342   2.908   1.553   6.096
 4148SOL    HW113343   2.936   1.461   6.067
 4148SOL    HW213344   2.813   1.550   6.127
 4149SOL     OW13345   1.385   3.442   5.885
 4149SOL    HW113346   1.443   3.452   5.804
 4149SOL    HW213347   1.338   3.354   5.882
 4150SOL     OW13348   5.564   1.510   0.424
 4150SOL    HW113349   5.574   1.544   0.518
 4150SOL    HW213350   5.654   1.504   0.381
 4151SOL     OW13351   2.471   5.536   4.825
 4151SOL    HW113352   2.410   5.487   4.888
 4151SOL    HW213353   2.564   5.534   4.861
 4152SOL     OW13354   3.049   3.757   1.082
 4152SOL    HW113355   3.100   3.831   1.039
 4152SOL    HW213356   2.986   3.795   1.150
 4153SOL     OW13357   6.962   5.713   2.195
 4153SOL    HW113358   0.029   5.747   2.230
 4153SOL    HW213359   6.895   5.713   2.268
 4154SOL     OW13360   0.291   6.818   3.885
 4154SOL    HW113361   0.356   6.743   3.899
 4154SOL    HW213362   0.208   6.783   3.842
 4155SOL     OW13363   6.337   0.745   2.213
 4155SOL    HW113364   6.310   0.826   2.266
 4155SOL    HW213365   6.421   0.707   2.250
 4156SOL     OW13366   0.570   4.605   5.582
 4156SOL    HW113367   0.574   4.687   5.639
 4156SOL    HW213368   0.661   4.564   5.576
 4157SOL     OW13369   4.872   5.917   0.700
 4157SOL    HW113370   4.936   5.978   0.746
 4157SOL    HW213371   4.911   5.825   0.696
 4158SOL     OW13372   0.643   2.739   0.579
 4158SOL    HW113373   0.593   2.819   0.544
 4158SOL    HW213374   0.581   2.683   0.634
 4159SOL     OW13375   3.212   0.845   4.359
 4159SOL    HW113376   3.177   0.810   4.446
 4159SOL    HW213377   3.205   0.774   4.289
 4160SOL     OW13378   1.572   6.741   6.066
 4160SOL    HW113379   1.531   6.742   6.158
 4160SOL    HW213380   1.671   6.739   6.074
 4161SOL     OW13381   3.446   2.882   3.391
 4161SOL    HW113382   3.471   2.976   3.370
 4161SOL    HW213383   3.401   2.841   3.311
 4162SOL     OW13384   5.372   6.069   1.526
 4162SOL    HW113385   5.360   6.107   1.435
 4162SOL    HW213386   5.348   6.137   1.595
 4163SOL     OW13387   4.019   5.560   1.546
 4163SOL    HW113388   4.022   5.603   1.637
 4163SOL    HW213389   3.929   5.519   1.532
 4164SOL     OW13390   5.274   2.198   6.490
 4164SOL    HW113391   5.188   2.245   6.507
 4164SOL    HW213392   5.270   2.152   6.401
 4165SOL     OW13393   3.720   1.586   4.050
 4165SOL    HW113394   3.763   1.516   4.108
 4165SOL    HW213395   3.635   1.550   4.011
 4166SOL     OW13396   6.171   2.127   1.687
 4166SOL    HW113397   6.201   2.223   1.692
 4166SOL    HW213398   6.129   2.100   1.773
 4167SOL     OW13399   3.582   5.510   4.654
 4167SOL    HW113400   3.554   5.606   4.663
 4167SOL    HW213401   3.682   5.505   4.650
 4168SOL     OW13402   5.386   4.488   0.161
 4168SOL    HW113403   5.390   4.418   0.089
 4168SOL    HW213404   5.344   4.449   0.243
 4169SOL     OW13405   5.182   3.551   6.873
 4169SOL    HW113406   5.173   3.630   6.812
 4169SOL    HW213407   5.262   3.497   6.846
 4170SOL     OW13408   0.935   2.864   5.177
 4170SOL    HW113409   0.919   2.943   5.236
 4170SOL    HW213410   0.853   2.845   5.124
 4171SOL     OW13411   0.532   1.605   6.117
 4171SOL    HW113412   0.529   1.542   6.040
 4171SOL    HW213413   0.469   1.575   6.188
 4172SOL     OW13414   2.637   2.283   6.439
 4172SOL    HW113415   2.605   2.215   6.505
 4172SOL    HW213416   2.576   2.285   6.360
 4173SOL     OW13417   4.910   1.808   5.559
 4173SOL    HW113418   4.892   1.771   5.467
 4173SOL    HW213419   4.989   1.761   5.599
 4174SOL     OW13420   3.673   6.502   4.534
 4174SOL    HW113421   3.678   6.406   4.559
 4174SOL    HW213422   3.673   6.558   4.617
 4175SOL     OW13423   1.198   4.748   6.274
 4175SOL    HW113424   1.114   4.801   6.266
 4175SOL    HW213425   1.242   4.767   6.361
 4176SOL     OW13426   5.023   6.917   5.852
 4176SOL    HW113427   5.108   6.884   5.812
 4176SOL    HW213428   4.946   6.866   5.814
 4177SOL     OW13429   4.135   5.154   2.729
 4177SOL    HW113430   4.171   5.108   2.648
 4177SOL    HW213431   4.145   5.094   2.808
 4178SOL     OW13432   3.540   6.088   1.501
 4178SOL    HW113433   3.543   5.993   1.468
 4178SOL    HW213434   3.445   6.113   1.521
 4179SOL     OW13435   4.387   2.515   0.005
 4179SOL    HW113436   4.388   2.609   0.038
 4179SOL    HW213437   4.328   2.459   0.064
 4180SOL     OW13438   3.807   3.764   0.299
 4180SOL    HW113439   3.905   3.758   0.317
 4180SOL    HW213440   3.760   3.686   0.341
 4181SOL     OW13441   5.770   6.340   5.783
 4181SOL    HW113442   5.863   6.315   5.811
 4181SOL    HW213443   5.744   6.426   5.827
 4182SOL     OW13444   0.684   6.011   5.499
 4182SOL    HW113445   0.648   5.926   5.462
 4182SOL    HW213446   0.687   6.007   5.599
 4183SOL     OW13447   4.536   2.088   0.479
 4183SOL    HW113448   4.445   2.103   0.517
 4183SOL    HW213449   4.600   2.067   0.553
 4184SOL     OW13450   3.402   5.623   3.241
 4184SOL    HW113451   3.338   5.662   3.176
 4184SOL    HW213452   3.463   5.694   3.276
 4185SOL     OW13453   4.904   3.764   3.367
 4185SOL    HW113454   4.837   3.835   3.386
 4185SOL    HW213455   4.913   3.751   3.268
 4186SOL     OW13456   1.877   5.347   0.046
 4186SOL    HW113457   1.833   5.265   0.009
 4186SOL    HW213458   1.974   5.328   0.064
 4187SOL     OW13459   2.334   4.048   5.829
 4187SOL    HW113460   2.352   4.071   5.733
 4187SOL    HW213461   2.419   4.055   5.881
 4188SOL     OW13462   4.710   0.245   7.009
 4188SOL    HW113463   4.720   0.305   0.067
 4188SOL    HW213464   4.791   0.252   6.951
 4189SOL     OW13465   4.588   5.079   3.070
 4189SOL    HW113466   4.519   5.043   3.133
 4189SOL    HW213467   4.561   5.059   2.976
 4190SOL     OW13468   6.188   6.640   1.637
 4190SOL    HW113469   6.143   6.630   1.549
 4190SOL    HW213470   6.253   6.716   1.633
 4191SOL     OW13471   4.446   3.241   6.650
 4191SOL    HW113472   4.365   3.246   6.708
 4191SOL    HW213473   4.419   3.218   6.556
 4192SOL     OW13474   1.941   3.735   6.311
 4192SOL    HW113475   1.878   3.795   6.261
 4192SOL    HW213476   1.896   3.648   6.329
 4193SOL     OW13477   0.150   0.704   0.002
 4193SOL    HW113478   0.147   0.627   0.065
 4193SOL    HW213479   0.185   0.674   6.934
 4194SOL     OW13480   5.579   1.066   6.460
 4194SOL    HW113481   5.665   1.105   6.494
 4194SOL    HW213482   5.502   1.113   6.502
 4195SOL     OW13483   2.674   6.821   1.008
 4195SOL    HW113484   2.659   6.905   1.061
 4195SOL    HW213485   2.771   6.812   0.987
 4196SOL     OW13486   6.925   2.372   3.166
 4196SOL    HW113487   6.840   2.319   3.160
 4196SOL    HW213488   6.985   2.348   3.090
 4197SOL     OW13489   3.226   1.213   0.164
 4197SOL    HW113490   3.258   1.120   0.141
 4197SOL    HW213491   3.129   1.221   0.141
 4198SOL     OW13492   6.363   1.886   2.282
 4198SOL    HW113493   6.425   1.894   2.360
 4198SOL    HW213494   6.270   1.871   2.314
 4199SOL     OW13495   0.518   3.677   6.786
 4199SOL    HW113496   0.508   3.627   6.700
 4199SOL    HW213497   0.430   3.683   6.832
 4200SOL     OW13498   4.586   1.712   3.760
 4200SOL    HW113499   4.531   1.795   3.753
 4200SOL    HW213500   4.530   1.633   3.733
 4201SOL     OW13501   5.905   6.696   4.729
 4201SOL    HW113502   5.826   6.637   4.709
 4201SOL    HW213503   5.959   6.710   4.646
 4202SOL     OW13504   4.488   4.027   1.680
 4202SOL    HW113505   4.581   3.997   1.704
 4202SOL    HW213506   4.456   4.093   1.748
 4203SOL     OW13507   5.692   4.426   5.582
 4203SOL    HW113508   5.665   4.495   5.650
 4203SOL    HW213509   5.656   4.452   5.492
 4204SOL     OW13510   1.533   4.023   6.174
 4204SOL    HW113511   1.518   4.074   6.089
 4204SOL    HW213512   1.456   3.961   6.190
 4205SOL     OW13513   4.696   6.664   6.562
 4205SOL    HW113514   4.680   6.569   6.590
 4205SOL    HW213515   4.647   6.725   6.623
 4206SOL     OW13516   2.375   1.792   4.082
 4206SOL    HW113517   2.292   1.773   4.134
 4206SOL    HW213518   2.428   1.708   4.071
 4207SOL     OW13519   1.555   2.148   2.485
 4207SOL    HW113520   1.518   2.222   2.430
 4207SOL    HW213521   1.551   2.172   2.582
 4208SOL     OW13522   2.405   2.499   3.908
 4208SOL    HW113523   2.387   2.589   3.946
 4208SOL    HW213524   2.322   2.443   3.913
 4209SOL     OW13525   6.806   5.959   1.893
 4209SOL    HW113526   6.777   5.882   1.951
 4209SOL    HW213527   6.851   5.924   1.811
 4210SOL     OW13528   3.078   4.393   5.297
 4210SOL    HW113529   3.032   4.435   5.218
 4210SOL    HW213530   3.133   4.462   5.343
 4211SOL     OW13531   3.879   2.783   5.248
 4211SOL    HW113532   3.943   2.820   5.180
 4211SOL    HW213533   3.785   2.801   5.218
 4212SOL     OW13534   0.248   2.178   3.043
 4212SOL    HW113535   0.325   2.241   3.034
 4212SOL    HW213536   0.280   2.090   3.076
 4213SOL     OW13537   3.679   0.137   3.975
 4213SOL    HW113538   3.678   0.038   3.986
 4213SOL    HW213539   3.741   0.162   3.901
 4214SOL     OW13540   6.410   5.767   3.180
 4214SOL    HW113541   6.490   5.719   3.142
 4214SOL    HW213542   6.356   5.703   3.234
 4215SOL     OW13543   5.978   0.111   6.225
 4215SOL    HW113544   6.005   0.160   6.143
 4215SOL    HW213545   6.059   0.093   6.281
 4216SOL     OW13546   2.385   5.341   2.455
 4216SOL    HW113547   2.300   5.328   2.505
 4216SOL    HW213548   2.369   5.401   2.376
 4217SOL     OW13549   1.561   0.282   3.275
 4217SOL    HW113550   1.609   0.367   3.298
 4217SOL    HW213551   1.519   0.244   3.357
 4218SOL     OW13552   2.848   0.961   1.653
 4218SOL    HW113553   2.806   0.914   1.731
 4218SOL    HW213554   2.778   0.976   1.582
 4219SOL     OW13555   3.835   5.106   3.441
 4219SOL    HW113556   3.911   5.126   3.503
 4219SOL    HW213557   3.768   5.049   3.488
 4220SOL     OW13558   6.311   1.926   1.060
 4220SOL    HW113559   6.384   1.892   1.000
 4220SOL    HW213560   6.287   2.019   1.034
 4221SOL     OW13561   0.295   6.393   0.580
 4221SOL    HW113562   0.321   6.485   0.608
 4221SOL    HW213563   0.203   6.395   0.541
 4222SOL     OW13564   4.949   3.298   4.049
 4222SOL    HW113565   4.917   3.346   3.967
 4222SOL    HW213566   4.930   3.354   4.130
 4223SOL     OW13567   3.338   3.802   3.118
 4223SOL    HW113568   3.290   3.888   3.135
 4223SOL    HW213569   3.317   3.769   3.026
 4224SOL     OW13570   4.733   4.675   4.293
 4224SOL    HW113571   4.659   4.617   4.327
 4224SOL    HW213572   4.697   4.766   4.273
 4225SOL     OW13573   1.240   2.027   5.845
 4225SOL    HW113574   1.251   1.980   5.932
 4225SOL    HW213575   1.286   2.115   5.849
 4226SOL     OW13576   0.484   5.120   4.821
 4226SOL    HW113577   0.428   5.192   4.780
 4226SOL    HW213578   0.440   5.087   4.905
 4227SOL     OW13579   4.891   5.366   1.894
 4227SOL    HW113580   4.931   5.305   1.962
 4227SOL    HW213581   4.888   5.319   1.805
 4228SOL     OW13582   1.416   4.609   4.010
 4228SOL    HW113583   1.404   4.518   3.970
 4228SOL    HW213584   1.392   4.606   4.107
 4229SOL     OW13585   5.750   5.723   5.250
 4229SOL    HW113586   5.811   5.646   5.269
 4229SOL    HW213587   5.674   5.723   5.315
 4230SOL     OW13588   6.613   1.318   1.356
 4230SOL    HW113589   6.683   1.266   1.405
 4230SOL    HW213590   6.537   1.257   1.332
 4231SOL     OW13591   0.265   0.668   6.225
 4231SOL    HW113592   0.222   0.590   6.179
 4231SOL    HW213593   0.360   0.677   6.193
 4232SOL     OW13594   1.440   4.823   4.459
 4232SOL    HW113595   1.449   4.901   4.398
 4232SOL    HW213596   1.500   4.749   4.428
 4233SOL     OW13597   4.794   5.684   2.483
 4233SOL    HW113598   4.773   5.599   2.435
 4233SOL    HW213599   4.761   5.762   2.429
 4234SOL     OW13600   3.452   5.369   5.855
 4234SOL    HW113601   3.367   5.381   5.906
 4234SOL    HW213602   3.437   5.307   5.778
 4235SOL     OW13603   6.923   5.854   6.301
 4235SOL    HW113604   6.998   5.920   6.294
 4235SOL    HW213605   6.836   5.903   6.306
 4236SOL     OW13606   0.073   5.662   3.095
 4236SOL    HW113607   0.131   5.710   3.161
 4236SOL    HW213608   0.045   5.725   3.023
 4237SOL     OW13609   0.070   4.718   3.854
 4237SOL    HW113610   0.156   4.728   3.905
 4237SOL    HW213611   7.019   4.686   3.916
 4238SOL     OW13612   2.838   6.263   2.634
 4238SOL    HW113613   2.770   6.281   2.705
 4238SOL    HW213614   2.792   6.238   2.549
 4239SOL     OW13615   4.361   1.051   3.879
 4239SOL    HW113616   4.290   1.112   3.916
 4239SOL    HW213617   4.417   1.016   3.954
 4240SOL     OW13618   5.721   6.876   1.581
 4240SOL    HW113619   5.693   6.896   1.487
 4240SOL    HW213620   5.748   6.960   1.627
 4241SOL     OW13621   6.146   4.159   0.260
 4241SOL    HW113622   6.149   4.198   0.168
 4241SOL    HW213623   6.146   4.232   0.328
 4242SOL     OW13624   3.087   2.165   3.266
 4242SOL    HW113625   3.173   2.217   3.268
 4242SOL    HW213626   3.021   2.208   3.327
 4243SOL     OW13627   4.424   1.429   2.875
 4243SOL    HW113628   4.378   1.405   2.790
 4243SOL    HW213629   4.516   1.389   2.876
 4244SOL     OW13630   3.168   3.048   4.882
 4244SOL    HW113631   3.261   3.052   4.845
 4244SOL    HW213632   3.157   2.964   4.935
 4245SOL     OW13633   5.982   0.417   0.052
 4245SOL    HW113634   5.908   0.354   0.075
 4245SOL    HW213635   6.066   0.387   0.096
 4246SOL     OW13636   6.773   4.072   6.468
 4246SOL    HW113637   6.730   4.127   6.398
 4246SOL    HW213638   6.703   4.036   6.530
 4247SOL     OW13639   0.576   5.793   5.113
 4247SOL    HW113640   0.558   5.892   5.117
 4247SOL    HW213641   0.674   5.777   5.117
 4248SOL     OW13642   2.283   3.960   6.206
 4248SOL    HW113643   2.257   3.908   6.287
 4248SOL    HW213644   2.232   3.925   6.126
 4249SOL     OW13645   5.320   3.999   5.321
 4249SOL    HW113646   5.270   4.033   5.242
 4249SOL    HW213647   5.416   3.987   5.297
 4250SOL     OW13648   1.311   4.096   3.241
 4250SOL    HW113649   1.232   4.145   3.278
 4250SOL    HW213650   1.386   4.160   3.225
 4251SOL     OW13651   5.094   4.742   0.354
 4251SOL    HW113652   5.078   4.730   0.256
 4251SOL    HW213653   5.099   4.839   0.376
 4252SOL     OW13654   0.065   5.516   5.458
 4252SOL    HW113655   0.090   5.583   5.388
 4252SOL    HW213656   0.147   5.471   5.492
 4253SOL     OW13657   3.753   6.205   2.593
 4253SOL    HW113658   3.678   6.271   2.588
 4253SOL    HW213659   3.796   6.211   2.684
 4254SOL     OW13660   3.017   3.989   1.761
 4254SOL    HW113661   2.929   3.998   1.714
 4254SOL    HW213662   3.010   3.921   1.834
 4255SOL     OW13663   0.516   1.956   4.322
 4255SOL    HW113664   0.513   1.992   4.229
 4255SOL    HW213665   0.469   2.018   4.384
 4256SOL     OW13666   1.860   0.982   2.010
 4256SOL    HW113667   1.859   1.052   2.082
 4256SOL    HW213668   1.804   1.012   1.933
 4257SOL     OW13669   4.372   2.456   4.799
 4257SOL    HW113670   4.306   2.448   4.874
 4257SOL    HW213671   4.340   2.400   4.721
 4258SOL     OW13672   5.014   6.609   2.890
 4258SOL    HW113673   5.072   6.553   2.949
 4258SOL    HW213674   4.934   6.640   2.942
 4259SOL     OW13675   1.831   3.250   0.980
 4259SOL    HW113676   1.894   3.177   0.953
 4259SOL    HW213677   1.822   3.316   0.905
 4260SOL     OW13678   3.985   5.868   3.957
 4260SOL    HW113679   4.064   5.922   3.983
 4260SOL    HW213680   3.904   5.926   3.955
 4261SOL     OW13681   1.324   1.472   2.710
 4261SOL    HW113682   1.370   1.553   2.675
 4261SOL    HW213683   1.385   1.424   2.774
 4262SOL     OW13684   6.693   6.681   6.404
 4262SOL    HW113685   6.751   6.675   6.324
 4262SOL    HW213686   6.619   6.613   6.397
 4263SOL     OW13687   4.272   5.270   6.430
 4263SOL    HW113688   4.196   5.265   6.494
 4263SOL    HW213689   4.326   5.352   6.448
 4264SOL     OW13690   6.966   0.570   1.385
 4264SOL    HW113691   6.932   0.477   1.373
 4264SOL    HW213692   6.949   0.600   1.479
 4265SOL     OW13693   1.178   2.476   0.107
 4265SOL    HW113694   1.100   2.414   0.108
 4265SOL    HW213695   1.220   2.475   0.017
 4266SOL     OW13696   3.089   4.625   1.269
 4266SOL    HW113697   3.114   4.537   1.310
 4266SOL    HW213698   2.996   4.649   1.298
 4267SOL     OW13699   1.904   4.180   5.864
 4267SOL    HW113700   1.875   4.274   5.880
 4267SOL    HW213701   1.824   4.122   5.848
 4268SOL     OW13702   1.634   0.752   0.700
 4268SOL    HW113703   1.638   0.656   0.673
 4268SOL    HW213704   1.643   0.759   0.799
 4269SOL     OW13705   3.028   4.077   0.503
 4269SOL    HW113706   3.073   4.133   0.434
 4269SOL    HW213707   3.089   4.067   0.582
 4270SOL     OW13708   3.781   2.566   6.263
 4270SOL    HW113709   3.843   2.551   6.340
 4270SOL    HW213710   3.768   2.665   6.249
 4271SOL     OW13711   1.289   0.186   0.414
 4271SOL    HW113712   1.191   0.193   0.392
 4271SOL    HW213713   1.303   0.209   0.510
 4272SOL     OW13714   6.939   4.184   3.528
 4272SOL    HW113715   7.009   4.245   3.491
 4272SOL    HW213716   6.849   4.210   3.493
 4273SOL     OW13717   5.609   6.359   4.294
 4273SOL    HW113718   5.663   6.323   4.370
 4273SOL    HW213719   5.639   6.315   4.209
 4274SOL     OW13720   1.894   0.441   3.729
 4274SOL    HW113721   1.903   0.435   3.629
 4274SOL    HW213722   1.844   0.524   3.753
 4275SOL     OW13723   1.267   0.320   6.211
 4275SOL    HW113724   1.285   0.418   6.218
 4275SOL    HW213725   1.234   0.285   6.299
 4276SOL     OW13726   1.941   4.582   2.241
 4276SOL    HW113727   1.997   4.598   2.160
 4276SOL    HW213728   1.846   4.564   2.213
 4277SOL     OW13729   1.049   5.345   4.785
 4277SOL    HW113730   0.962   5.392   4.774
 4277SOL    HW213731   1.033   5.246   4.790
 4278SOL     OW13732   1.180   6.813   5.859
 4278SOL    HW113733   1.221   6.798   5.769
 4278SOL    HW213734   1.189   6.730   5.914
 4279SOL     OW13735   3.241   5.959   4.467
 4279SOL    HW113736   3.340   5.957   4.453
 4279SOL    HW213737   3.196   5.986   4.383
 4280SOL     OW13738   4.782   2.980   3.655
 4280SOL    HW113739   4.814   3.056   3.598
 4280SOL    HW213740   4.763   3.013   3.747
 4281SOL     OW13741   2.533   4.191   5.328
 4281SOL    HW113742   2.503   4.285   5.312
 4281SOL    HW213743   2.495   4.132   5.257
 4282SOL     OW13744   0.783   2.963   0.569
 4282SOL    HW113745   0.870   2.983   0.615
 4282SOL    HW213746   0.778   2.866   0.547
 4283SOL     OW13747   2.632   0.475   4.564
 4283SOL    HW113748   2.727   0.488   4.535
 4283SOL    HW213749   2.630   0.454   4.662
 4284SOL     OW13750   6.574   1.730   2.996
 4284SOL    HW113751   6.535   1.675   2.922
 4284SOL    HW213752   6.500   1.772   3.048
 4285SOL     OW13753   0.909   6.426   4.747
 4285SOL    HW113754   0.996   6.470   4.723
 4285SOL    HW213755   0.843   6.495   4.776
 4286SOL     OW13756   5.450   5.727   6.740
 4286SOL    HW113757   5.541   5.763   6.761
 4286SOL    HW213758   5.410   5.687   6.823
 4287SOL     OW13759   4.135   6.549   5.523
 4287SOL    HW113760   4.196   6.622   5.555
 4287SOL    HW213761   4.159   6.463   5.567
 4288SOL     OW13762   1.429   6.364   3.078
 4288SOL    HW113763   1.393   6.316   3.157
 4288SOL    HW213764   1.432   6.302   2.999
 4289SOL     OW13765   6.543   3.492   0.204
 4289SOL    HW113766   6.453   3.535   0.213
 4289SOL    HW213767   6.549   3.444   0.116
 4290SOL     OW13768   2.363   1.661   3.150
 4290SOL    HW113769   2.271   1.688   3.178
 4290SOL    HW213770   2.360   1.620   3.059
 4291SOL     OW13771   6.624   4.595   1.437
 4291SOL    HW113772   6.687   4.572   1.362
 4291SOL    HW213773   6.620   4.520   1.502
 4292SOL     OW13774   5.526   5.789   5.762
 4292SOL    HW113775   5.617   5.748   5.751
 4292SOL    HW213776   5.463   5.720   5.799
 4293SOL     OW13777   0.055   2.380   6.253
 4293SOL    HW113778   0.148   2.349   6.277
 4293SOL    HW213779   0.037   2.467   6.298
 4294SOL     OW13780   5.058   2.359   5.684
 4294SOL    HW113781   4.967   2.355   5.643
 4294SOL    HW213782   5.119   2.412   5.624
 4295SOL     OW13783   3.819   6.412   5.198
 4295SOL    HW113784   3.720   6.420   5.210
 4295SOL    HW213785   3.841   6.416   5.101
 4296SOL     OW13786   2.640   1.236   2.228
 4296SOL    HW113787   2.586   1.235   2.313
 4296SOL    HW213788   2.709   1.308   2.234
 4297SOL     OW13789   5.754   0.976   0.076
 4297SOL    HW113790   5.751   0.900   0.010
 4297SOL    HW213791   5.796   0.944   0.161
 4298SOL     OW13792   2.431   5.254   1.363
 4298SOL    HW113793   2.495   5.317   1.319
 4298SOL    HW213794   2.339   5.272   1.330
 4299SOL     OW13795   0.987   4.577   5.832
 4299SOL    HW113796   0.942   4.561   5.920
 4299SOL    HW213797   1.074   4.529   5.830
 4300SOL     OW13798   5.637   7.015   5.743
 4300SOL    HW113799   5.706   6.954   5.704
 4300SOL    HW213800   5.678   0.084   5.759
 4301SOL     OW13801   2.617   1.029   0.324
 4301SOL    HW113802   2.673   1.110   0.308
 4301SOL    HW213803   2.521   1.053   0.314
 4302SOL     OW13804   0.825   6.877   6.800
 4302SOL    HW113805   0.900   6.929   6.841
 4302SOL    HW213806   0.782   6.819   6.870
 4303SOL     OW13807   6.974   4.176   1.859
 4303SOL    HW113808   7.000   4.261   1.906
 4303SOL    HW213809   6.999   4.183   1.762
 4304SOL     OW13810   3.171   2.867   5.095
 4304SOL    HW113811   3.179   2.938   5.165
 4304SOL    HW213812   3.148   2.779   5.139
 4305SOL     OW13813   5.857   1.114   4.816
 4305SOL    HW113814   5.836   1.132   4.912
 4305SOL    HW213815   5.945   1.156   4.793
 4306SOL     OW13816   5.801   5.889   6.503
 4306SOL    HW113817   5.896   5.874   6.475
 4306SOL    HW213818   5.769   5.809   6.554
 4307SOL     OW13819   5.190   3.452   0.373
 4307SOL    HW113820   5.208   3.366   0.325
 4307SOL    HW213821   5.092   3.472   0.370
 4308SOL     OW13822   4.319   6.769   5.568
 4308SOL    HW113823   4.332   6.740   5.474
 4308SOL    HW213824   4.325   6.869   5.574
 4309SOL     OW13825   1.613   1.086   1.441
 4309SOL    HW113826   1.518   1.109   1.419
 4309SOL    HW213827   1.634   1.118   1.533
 4310SOL     OW13828   1.602   0.673   2.640
 4310SOL    HW113829   1.547   0.589   2.640
 4310SOL    HW213830   1.557   0.743   2.586
 4311SOL     OW13831   1.577   5.905   4.346
 4311SOL    HW113832   1.582   5.812   4.309
 4311SOL    HW213833   1.538   5.901   4.438
 4312SOL     OW13834   1.407   5.704   1.489
 4312SOL    HW113835   1.417   5.607   1.468
 4312SOL    HW213836   1.449   5.724   1.577
 4313SOL     OW13837   4.691   0.527   1.923
 4313SOL    HW113838   4.706   0.472   2.004
 4313SOL    HW213839   4.695   0.469   1.842
 4314SOL     OW13840   5.482   3.743   2.434
 4314SOL    HW113841   5.509   3.711   2.343
 4314SOL    HW213842   5.383   3.738   2.443
 4315SOL     OW13843   2.443   1.373   2.096
 4315SOL    HW113844   2.500   1.371   2.014
 4315SOL    HW213845   2.502   1.383   2.176
 4316SOL     OW13846   0.575   0.689   2.215
 4316SOL    HW113847   0.585   0.589   2.221
 4316SOL    HW213848   0.663   0.729   2.190
 4317SOL     OW13849   4.185   0.519   3.926
 4317SOL    HW113850   4.282   0.514   3.904
 4317SOL    HW213851   4.172   0.507   4.025
 4318SOL     OW13852   6.439   2.513   3.995
 4318SOL    HW113853   6.413   2.603   3.963
 4318SOL    HW213854   6.538   2.510   4.010
 4319SOL     OW13855   2.781   3.120   5.761
 4319SOL    HW113856   2.823   3.095   5.848
 4319SOL    HW213857   2.781   3.219   5.750
 4320SOL     OW13858   0.578   5.662   3.392
 4320SOL    HW113859   0.559   5.740   3.332
 4320SOL    HW213860   0.551   5.578   3.347
 4321SOL     OW13861   0.434   0.667   4.644
 4321SOL    HW113862   0.404   0.574   4.666
 4321SOL    HW213863   0.478   0.708   4.724
 4322SOL     OW13864   5.880   1.314   0.923
 4322SOL    HW113865   5.800   1.369   0.898
 4322SOL    HW213866   5.903   1.332   1.019
 4323SOL     OW13867   6.865   2.271   3.851
 4323SOL    HW113868   6.824   2.275   3.760
 4323SOL    HW213869   6.873   2.175   3.879
 4324SOL     OW13870   5.973   2.656   6.451
 4324SOL    HW113871   5.939   2.726   6.389
 4324SOL    HW213872   5.923   2.661   6.537
 4325SOL     OW13873   2.017   1.552   5.535
 4325SOL    HW113874   2.108   1.571   5.570
 4325SOL    HW213875   1.994   1.618   5.463
 4326SOL     OW13876   6.375   2.454   5.209
 4326SOL    HW113877   6.306   2.449   5.137
 4326SOL    HW213878   6.466   2.447   5.169
 4327SOL     OW13879   5.149   0.342   3.335
 4327SOL    HW113880   5.108   0.425   3.373
 4327SOL    HW213881   5.217   0.367   3.266
 4328SOL     OW13882   5.316   5.120   0.387
 4328SOL    HW113883   5.276   5.146   0.299
 4328SOL    HW213884   5.264   5.162   0.461
 4329SOL     OW13885   4.931   1.761   6.235
 4329SOL    HW113886   4.858   1.762   6.304
 4329SOL    HW213887   5.020   1.753   6.280
 4330SOL     OW13888   0.615   0.711   6.418
 4330SOL    HW113889   0.573   0.702   6.508
 4330SOL    HW213890   0.647   0.621   6.387
 4331SOL     OW13891   5.027   2.590   6.924
 4331SOL    HW113892   5.016   2.516   6.990
 4331SOL    HW213893   5.097   2.654   6.957
 4332SOL     OW13894   5.294   3.598   1.804
 4332SOL    HW113895   5.318   3.681   1.754
 4332SOL    HW213896   5.309   3.518   1.746
 4333SOL     OW13897   6.111   1.419   5.409
 4333SOL    HW113898   6.157   1.417   5.497
 4333SOL    HW213899   6.144   1.498   5.356
 4334SOL     OW13900   4.475   0.182   1.655
 4334SOL    HW113901   4.408   0.151   1.721
 4334SOL    HW213902   4.555   0.219   1.703
 4335SOL     OW13903   3.787   4.429   5.714
 4335SOL    HW113904   3.774   4.528   5.706
 4335SOL    HW213905   3.832   4.394   5.632
 4336SOL     OW13906   1.467   5.971   5.148
 4336SOL    HW113907   1.495   5.882   5.184
 4336SOL    HW213908   1.384   5.961   5.093
 4337SOL     OW13909   0.744   4.949   0.187
 4337SOL    HW113910   0.813   4.978   0.122
 4337SOL    HW213911   0.767   4.859   0.223
 4338SOL     OW13912   5.852   6.134   3.621
 4338SOL    HW113913   5.917   6.160   3.550
 4338SOL    HW213914   5.896   6.141   3.710
 4339SOL     OW13915   6.366   1.163   6.525
 4339SOL    HW113916   6.420   1.132   6.603
 4339SOL    HW213917   6.370   1.263   6.519
 4340SOL     OW13918   4.907   3.287   2.089
 4340SOL    HW113919   4.888   3.202   2.040
 4340SOL    HW213920   4.841   3.356   2.063
 4341SOL     OW13921   0.825   4.075   6.848
 4341SOL    HW113922   0.775   4.075   6.761
 4341SOL    HW213923   0.859   3.983   6.867
 4342SOL     OW13924   0.010   1.776   2.813
 4342SOL    HW113925   6.955   1.711   2.808
 4342SOL    HW213926   0.043   1.797   2.721
 4343SOL     OW13927   2.239   1.852   1.479
 4343SOL    HW113928   2.284   1.800   1.552
 4343SOL    HW213929   2.307   1.905   1.429
 4344SOL     OW13930   2.132   4.067   2.621
 4344SOL    HW113931   2.089   4.102   2.538
 4344SOL    HW213932   2.174   4.142   2.672
 4345SOL     OW13933   2.511   1.220   6.163
 4345SOL    HW113934   2.514   1.260   6.072
 4345SOL    HW213935   2.560   1.133   6.163
 4346SOL     OW13936   0.130   3.029   0.893
 4346SOL    HW113937   0.173   3.007   0.980
 4346SOL    HW213938   0.137   2.950   0.831
 4347SOL     OW13939   5.826   6.098   2.815
 4347SOL    HW113940   5.770   6.172   2.779
 4347SOL    HW213941   5.780   6.010   2.800
 4348SOL     OW13942   1.177   4.016   6.781
 4348SOL    HW113943   1.262   3.997   6.831
 4348SOL    HW213944   1.160   3.941   6.716
 4349SOL     OW13945   0.098   0.648   2.081
 4349SOL    HW113946   0.156   0.671   2.159
 4349SOL    HW213947   0.047   0.564   2.100
 4350SOL     OW13948   4.685   0.877   3.324
 4350SOL    HW113949   4.597   0.836   3.346
 4350SOL    HW213950   4.751   0.854   3.395
 4351SOL     OW13951   2.483   6.197   0.674
 4351SOL    HW113952   2.493   6.203   0.575
 4351SOL    HW213953   2.554   6.251   0.718
 4352SOL     OW13954   6.220   1.245   2.526
 4352SOL    HW113955   6.306   1.295   2.512
 4352SOL    HW213956   6.147   1.309   2.547
 4353SOL     OW13957   2.738   5.526   1.786
 4353SOL    HW113958   2.651   5.510   1.740
 4353SOL    HW213959   2.722   5.544   1.883
 4354SOL     OW13960   2.100   0.951   1.285
 4354SOL    HW113961   2.080   0.900   1.202
 4354SOL    HW213962   2.022   1.007   1.310
 4355SOL     OW13963   4.937   0.968   0.851
 4355SOL    HW113964   4.925   1.068   0.855
 4355SOL    HW213965   4.869   0.924   0.909
 4356SOL     OW13966   3.617   4.379   0.147
 4356SOL    HW113967   3.574   4.454   0.198
 4356SOL    HW213968   3.547   4.330   0.094
 4357SOL     OW13969   6.464   0.520   6.806
 4357SOL    HW113970   6.532   0.453   6.776
 4357SOL    HW213971   6.409   0.480   6.880
 4358SOL     OW13972   6.231   1.000   1.179
 4358SOL    HW113973   6.145   1.004   1.128
 4358SOL    HW213974   6.232   0.919   1.238
 4359SOL     OW13975   6.128   2.674   4.060
 4359SOL    HW113976   6.112   2.590   4.112
 4359SOL    HW213977   6.211   2.718   4.094
 4360SOL     OW13978   2.264   3.449   1.207
 4360SOL    HW113979   2.357   3.412   1.204
 4360SOL    HW213980   2.259   3.529   1.147
 4361SOL     OW13981   5.235   1.651   2.167
 4361SOL    HW113982   5.137   1.656   2.148
 4361SOL    HW213983   5.254   1.570   2.222
 4362SOL     OW13984   5.231   4.119   3.117
 4362SOL    HW113985   5.177   4.070   3.048
 4362SOL    HW213986   5.213   4.217   3.110
 4363SOL     OW13987   5.467   0.947   6.203
 4363SOL    HW113988   5.526   1.013   6.249
 4363SOL    HW213989   5.371   0.970   6.222
 4364SOL     OW13990   3.566   3.963   5.105
 4364SOL    HW113991   3.497   3.899   5.072
 4364SOL    HW213992   3.531   4.014   5.183
 4365SOL     OW13993   3.691   1.567   0.486
 4365SOL    HW113994   3.734   1.571   0.576
 4365SOL    HW213995   3.678   1.472   0.459
 4366SOL     OW13996   5.342   5.079   1.223
 4366SOL    HW113997   5.377   5.140   1.294
 4366SOL    HW213998   5.374   5.110   1.133
 4367SOL     OW13999   0.178   6.673   0.500
 4367SOL    HW114000   0.109   6.679   0.572
 4367SOL    HW214001   0.159   6.740   0.428
 4368SOL     OW14002   4.757   4.166   1.964
 4368SOL    HW114003   4.823   4.236   1.937
 4368SOL    HW214004   4.665   4.204   1.960
 4369SOL     OW14005   3.294   5.709   1.654
 4369SOL    HW114006   3.243   5.771   1.713
 4369SOL    HW214007   3.282   5.735   1.558
 4370SOL     OW14008   5.699   4.217   2.422
 4370SOL    HW114009   5.741   4.127   2.411
 4370SOL    HW214010   5.760   4.276   2.475
 4371SOL     OW14011   0.419   2.329   2.128
 4371SOL    HW114012   0.394   2.411   2.077
 4371SOL    HW214013   0.378   2.333   2.220
 4372SOL     OW14014   4.535   0.181   3.454
 4372SOL    HW114015   4.529   0.217   3.548
 4372SOL    HW214016   4.469   0.229   3.396
 4373SOL     OW14017   6.809   1.811   6.072
 4373SOL    HW114018   6.861   1.879   6.125
 4373SOL    HW214019   6.717   1.802   6.111
 4374SOL     OW14020   3.371   1.507   1.139
 4374SOL    HW114021   3.326   1.567   1.073
 4374SOL    HW214022   3.467   1.496   1.116
 4375SOL     OW14023   3.624   6.170   4.279
 4375SOL    HW114024   3.718   6.177   4.314
 4375SOL    HW214025   3.621   6.208   4.187
 4376SOL     OW14026   6.650   2.017   4.271
 4376SOL    HW114027   6.635   2.044   4.175
 4376SOL    HW214028   6.674   2.098   4.324
 4377SOL     OW14029   6.753   5.030   6.248
 4377SOL    HW114030   6.821   5.006   6.178
 4377SOL    HW214031   6.668   5.058   6.203
 4378SOL     OW14032   2.563   1.417   3.668
 4378SOL    HW114033   2.579   1.506   3.710
 4378SOL    HW214034   2.603   1.345   3.725
 4379SOL     OW14035   3.287   1.704   5.509
 4379SOL    HW114036   3.202   1.750   5.484
 4379SOL    HW214037   3.280   1.670   5.603
 4380SOL     OW14038   0.234   2.002   2.302
 4380SOL    HW114039   0.258   2.098   2.313
 4380SOL    HW214040   0.150   1.994   2.248
 4381SOL     OW14041   1.731   6.147   6.683
 4381SOL    HW114042   1.673   6.066   6.698
 4381SOL    HW214043   1.685   6.228   6.718
 4382SOL     OW14044   0.508   4.929   4.419
 4382SOL    HW114045   0.525   4.844   4.367
 4382SOL    HW214046   0.577   4.938   4.490
 4383SOL     OW14047   6.275   3.597   0.160
 4383SOL    HW114048   6.314   3.688   0.146
 4383SOL    HW214049   6.277   3.546   0.074
 4384SOL     OW14050   5.674   0.122   4.114
 4384SOL    HW114051   5.652   0.025   4.101
 4384SOL    HW214052   5.640   0.174   4.035
 4385SOL     OW14053   4.711   1.811   5.898
 4385SOL    HW114054   4.792   1.754   5.907
 4385SOL    HW214055   4.666   1.793   5.811
 4386SOL     OW14056   2.072   3.632   4.969
 4386SOL    HW114057   2.140   3.570   5.007
 4386SOL    HW214058   1.992   3.635   5.030
 4387SOL     OW14059   5.642   1.867   0.678
 4387SOL    HW114060   5.646   1.954   0.629
 4387SOL    HW214061   5.546   1.841   0.692
 4388SOL     OW14062   5.097   4.253   0.200
 4388SOL    HW114063   5.142   4.164   0.196
 4388SOL    HW214064   5.074   4.284   0.107
 4389SOL     OW14065   1.075   2.578   0.680
 4389SOL    HW114066   1.155   2.518   0.674
 4389SOL    HW214067   1.019   2.569   0.598
 4390SOL     OW14068   0.352   1.248   0.687
 4390SOL    HW114069   0.441   1.292   0.703
 4390SOL    HW214070   0.304   1.238   0.774
 4391SOL     OW14071   1.133   6.051   0.801
 4391SOL    HW114072   1.173   6.013   0.884
 4391SOL    HW214073   1.161   5.997   0.722
 4392SOL     OW14074   0.575   3.288   5.685
 4392SOL    HW114075   0.669   3.321   5.691
 4392SOL    HW214076   0.512   3.360   5.715
 4393SOL     OW14077   5.086   0.674   1.883
 4393SOL    HW114078   5.141   0.756   1.869
 4393SOL    HW214079   5.054   0.671   1.978
 4394SOL     OW14080   1.106   6.991   2.701
 4394SOL    HW114081   1.022   0.007   2.661
 4394SOL    HW214082   1.185   0.014   2.659
 4395SOL     OW14083   1.693   4.910   1.941
 4395SOL    HW114084   1.613   4.901   2.000
 4395SOL    HW214085   1.683   4.851   1.861
 4396SOL     OW14086   3.124   1.159   2.957
 4396SOL    HW114087   3.166   1.171   2.867
 4396SOL    HW214088   3.181   1.203   3.027
 4397SOL     OW14089   3.237   1.602   4.803
 4397SOL    HW114090   3.167   1.532   4.788
 4397SOL    HW214091   3.207   1.689   4.764
 4398SOL     OW14092   1.551   3.109   5.346
 4398SOL    HW114093   1.477   3.173   5.324
 4398SOL    HW214094   1.639   3.152   5.324
 4399SOL     OW14095   2.423   6.384   1.966
 4399SOL    HW114096   2.369   6.400   1.883
 4399SOL    HW214097   2.487   6.308   1.949
 4400SOL     OW14098   1.892   5.679   4.524
 4400SOL    HW114099   1.864   5.743   4.595
 4400SOL    HW214100   1.916   5.730   4.441
 4401SOL     OW14101   3.382   6.516   6.827
 4401SOL    HW114102   3.328   6.499   6.909
 4401SOL    HW214103   3.474   6.546   6.852
 4402SOL     OW14104   2.379   0.713   2.987
 4402SOL    HW114105   2.330   0.665   2.915
 4402SOL    HW214106   2.412   0.801   2.953
 4403SOL     OW14107   0.694   5.124   1.785
 4403SOL    HW114108   0.630   5.152   1.856
 4403SOL    HW214109   0.670   5.032   1.752
 4404SOL     OW14110   0.149   6.732   6.133
 4404SOL    HW114111   0.143   6.766   6.039
 4404SOL    HW214112   0.120   6.636   6.136
 4405SOL     OW14113   1.962   5.333   2.342
 4405SOL    HW114114   1.992   5.381   2.260
 4405SOL    HW214115   1.920   5.398   2.405
 4406SOL     OW14116   5.989   3.943   2.018
 4406SOL    HW114117   6.064   3.971   2.078
 4406SOL    HW214118   5.923   3.888   2.070
 4407SOL     OW14119   6.274   6.483   1.211
 4407SOL    HW114120   6.320   6.483   1.122
 4407SOL    HW214121   6.175   6.481   1.198
 4408SOL     OW14122   4.205   0.857   0.031
 4408SOL    HW114123   4.205   0.757   0.037
 4408SOL    HW214124   4.241   0.895   0.116
 4409SOL     OW14125   3.200   0.689   3.272
 4409SOL    HW114126   3.247   0.620   3.217
 4409SOL    HW214127   3.268   0.748   3.316
 4410SOL     OW14128   0.270   0.540   1.114
 4410SOL    HW114129   0.329   0.459   1.106
 4410SOL    HW214130   0.238   0.548   1.209
 4411SOL     OW14131   4.386   4.712   5.341
 4411SOL    HW114132   4.421   4.756   5.424
 4411SOL    HW214133   4.288   4.729   5.333
 4412SOL     OW14134   4.424   6.496   1.777
 4412SOL    HW114135   4.400   6.535   1.866
 4412SOL    HW214136   4.360   6.528   1.708
 4413SOL     OW14137   4.810   5.082   3.922
 4413SOL    HW114138   4.773   4.993   3.949
 4413SOL    HW214139   4.747   5.154   3.951
 4414SOL     OW14140   5.537   3.892   1.647
 4414SOL    HW114141   5.463   3.950   1.615
 4414SOL    HW214142   5.624   3.940   1.640
 4415SOL     OW14143   1.811   3.365   1.483
 4415SOL    HW114144   1.860   3.310   1.415
 4415SOL    HW214145   1.737   3.311   1.522
 4416SOL     OW14146   5.044   2.493   3.414
 4416SOL    HW114147   5.079   2.582   3.443
 4416SOL    HW214148   4.971   2.507   3.346
 4417SOL     OW14149   0.068   3.959   1.966
 4417SOL    HW114150   0.038   4.039   1.914
 4417SOL    HW214151   0.085   3.984   2.061
 4418SOL     OW14152   6.687   0.404   5.609
 4418SOL    HW114153   6.713   0.401   5.706
 4418SOL    HW214154   6.737   0.478   5.564
 4419SOL     OW14155   6.470   5.453   6.648
 4419SOL    HW114156   6.546   5.409   6.600
 4419SOL    HW214157   6.476   5.552   6.636
 4420SOL     OW14158   3.747   1.646   0.910
 4420SOL    HW114159   3.820   1.652   0.842
 4420SOL    HW214160   3.768   1.707   0.986
 4421SOL     OW14161   1.979   3.180   0.197
 4421SOL    HW114162   2.008   3.139   0.111
 4421SOL    HW214163   1.925   3.114   0.250
 4422SOL     OW14164   6.351   3.071   6.079
 4422SOL    HW114165   6.356   3.025   6.168
 4422SOL    HW214166   6.438   3.117   6.060
 4423SOL     OW14167   6.395   4.308   4.686
 4423SOL    HW114168   6.337   4.239   4.730
 4423SOL    HW214169   6.481   4.316   4.737
 4424SOL     OW14170   4.993   6.255   2.861
 4424SOL    HW114171   4.971   6.314   2.783
 4424SOL    HW214172   4.996   6.160   2.831
 4425SOL     OW14173   0.808   5.680   1.290
 4425SOL    HW114174   0.734   5.742   1.313
 4425SOL    HW214175   0.895   5.728   1.296
 4426SOL     OW14176   0.703   0.519   4.358
 4426SOL    HW114177   0.699   0.456   4.436
 4426SOL    HW214178   0.753   0.602   4.385
 4427SOL     OW14179   2.193   5.627   2.420
 4427SOL    HW114180   2.245   5.616   2.335
 4427SOL    HW214181   2.256   5.644   2.496
 4428SOL     OW14182   6.207   5.285   3.121
 4428SOL    HW114183   6.149   5.361   3.092
 4428SOL    HW214184   6.178   5.202   3.073
 4429SOL     OW14185   3.208   6.443   3.647
 4429SOL    HW114186   3.281   6.511   3.639
 4429SOL    HW214187   3.132   6.482   3.698
 4430SOL     OW14188   5.868   3.651   5.213
 4430SOL    HW114189   5.768   3.654   5.213
 4430SOL    HW214190   5.900   3.661   5.307
 4431SOL     OW14191   4.059   6.479   4.612
 4431SOL    HW114192   3.985   6.465   4.546
 4431SOL    HW214193   4.092   6.573   4.607
 4432SOL     OW14194   0.638   3.614   5.824
 4432SOL    HW114195   0.709   3.567   5.876
 4432SOL    HW214196   0.614   3.560   5.744
 4433SOL     OW14197   0.805   1.288   4.253
 4433SOL    HW114198   0.734   1.255   4.191
 4433SOL    HW214199   0.878   1.220   4.260
 4434SOL     OW14200   6.845   0.621   1.947
 4434SOL    HW114201   6.924   0.676   1.920
 4434SOL    HW214202   6.762   0.665   1.913
 4435SOL     OW14203   2.500   4.370   0.798
 4435SOL    HW114204   2.585   4.386   0.848
 4435SOL    HW214205   2.511   4.291   0.738
 4436SOL     OW14206   4.558   2.502   2.097
 4436SOL    HW114207   4.473   2.450   2.086
 4436SOL    HW214208   4.590   2.495   2.191
 4437SOL     OW14209   6.424   4.413   7.007
 4437SOL    HW114210   6.480   4.397   6.925
 4437SOL    HW214211   6.335   4.369   6.995
 4438SOL     OW14212   4.323   0.914   4.933
 4438SOL    HW114213   4.272   0.828   4.942
 4438SOL    HW214214   4.279   0.985   4.988
 4439SOL     OW14215   2.593   6.161   3.172
 4439SOL    HW114216   2.635   6.208   3.250
 4439SOL    HW214217   2.576   6.066   3.197
 4440SOL     OW14218   1.462   4.459   6.040
 4440SOL    HW114219   1.375   4.496   6.010
 4440SOL    HW214220   1.521   4.533   6.073
 4441SOL     OW14221   0.143   2.293   0.965
 4441SOL    HW114222   0.184   2.300   0.874
 4441SOL    HW214223   0.144   2.383   1.009
 4442SOL     OW14224   1.600   5.020   0.260
 4442SOL    HW114225   1.700   5.020   0.261
 4442SOL    HW214226   1.566   4.926   0.261
 4443SOL     OW14227   0.346   5.730   5.774
 4443SOL    HW114228   0.324   5.725   5.676
 4443SOL    HW214229   0.362   5.826   5.800
 4444SOL     OW14230   5.670   5.242   0.932
 4444SOL    HW114231   5.728   5.311   0.975
 4444SOL    HW214232   5.645   5.272   0.840
 4445SOL     OW14233   1.422   4.295   0.093
 4445SOL    HW114234   1.452   4.267   0.184
 4445SOL    HW214235   1.330   4.334   0.099
 4446SOL     OW14236   4.580   1.841   1.795
 4446SOL    HW114237   4.493   1.843   1.845
 4446SOL    HW214238   4.601   1.933   1.762
 4447SOL     OW14239   3.901   5.758   5.940
 4447SOL    HW114240   3.815   5.724   5.903
 4447SOL    HW214241   3.927   5.703   6.020
 4448SOL     OW14242   3.303   6.454   1.835
 4448SOL    HW114243   3.307   6.358   1.865
 4448SOL    HW214244   3.367   6.508   1.889
 4449SOL     OW14245   3.595   1.679   5.699
 4449SOL    HW114246   3.573   1.647   5.607
 4449SOL    HW214247   3.694   1.697   5.705
 4450SOL     OW14248   2.241   6.539   0.323
 4450SOL    HW114249   2.335   6.519   0.349
 4450SOL    HW214250   2.179   6.473   0.366
 4451SOL     OW14251   4.730   5.313   3.324
 4451SOL    HW114252   4.665   5.261   3.269
 4451SOL    HW214253   4.745   5.403   3.282
 4452SOL     OW14254   5.108   5.305   4.113
 4452SOL    HW114255   5.198   5.284   4.074
 4452SOL    HW214256   5.037   5.277   4.049
 4453SOL     OW14257   6.837   4.653   0.806
 4453SOL    HW114258   6.878   4.740   0.777
 4453SOL    HW214259   6.771   4.670   0.879
 4454SOL     OW14260   1.379   2.435   0.307
 4454SOL    HW114261   1.319   2.450   0.229
 4454SOL    HW214262   1.382   2.337   0.329
 4455SOL     OW14263   1.842   0.705   4.400
 4455SOL    HW114264   1.820   0.696   4.303
 4455SOL    HW214265   1.802   0.789   4.436
 4456SOL     OW14266   2.123   6.143   4.010
 4456SOL    HW114267   2.127   6.190   4.098
 4456SOL    HW214268   2.031   6.107   3.994
 4457SOL     OW14269   1.314   2.053   4.666
 4457SOL    HW114270   1.233   1.997   4.677
 4457SOL    HW214271   1.313   2.096   4.576
 4458SOL     OW14272   1.340   3.160   6.336
 4458SOL    HW114273   1.337   3.080   6.276
 4458SOL    HW214274   1.283   3.233   6.298
 4459SOL     OW14275   0.977   3.371   2.805
 4459SOL    HW114276   0.911   3.442   2.781
 4459SOL    HW214277   0.929   3.292   2.843
 4460SOL     OW14278   0.149   2.878   4.448
 4460SOL    HW114279   0.100   2.913   4.528
 4460SOL    HW214280   0.101   2.905   4.365
 4461SOL     OW14281   2.044   0.895   0.967
 4461SOL    HW114282   1.992   0.821   0.924
 4461SOL    HW214283   2.015   0.983   0.929
 4462SOL     OW14284   6.283   4.478   2.480
 4462SOL    HW114285   6.362   4.501   2.422
 4462SOL    HW214286   6.235   4.561   2.505
 4463SOL     OW14287   5.414   1.728   0.327
 4463SOL    HW114288   5.342   1.759   0.264
 4463SOL    HW214289   5.424   1.629   0.319
 4464SOL     OW14290   0.638   3.935   1.300
 4464SOL    HW114291   0.704   3.894   1.236
 4464SOL    HW214292   0.671   3.923   1.393
 4465SOL     OW14293   3.777   5.166   1.938
 4465SOL    HW114294   3.722   5.083   1.951
 4465SOL    HW214295   3.816   5.194   2.025
 4466SOL     OW14296   0.366   3.141   2.488
 4466SOL    HW114297   0.465   3.148   2.470
 4466SOL    HW214298   0.335   3.050   2.462
 4467SOL     OW14299   5.352   4.796   2.020
 4467SOL    HW114300   5.348   4.756   2.111
 4467SOL    HW214301   5.404   4.737   1.959
 4468SOL     OW14302   1.390   3.174   1.252
 4468SOL    HW114303   1.343   3.187   1.339
 4468SOL    HW214304   1.349   3.233   1.182
 4469SOL     OW14305   2.171   5.548   1.490
 4469SOL    HW114306   2.094   5.611   1.497
 4469SOL    HW214307   2.214   5.557   1.400
 4470SOL     OW14308   0.850   0.030   2.613
 4470SOL    HW114309   0.752   0.015   2.602
 4470SOL    HW214310   0.866   0.119   2.655
 4471SOL     OW14311   0.807   0.210   6.354
 4471SOL    HW114312   0.877   0.254   6.298
 4471SOL    HW214313   0.851   0.153   6.423
 4472SOL     OW14314   1.882   3.017   0.817
 4472SOL    HW114315   1.843   2.989   0.905
 4472SOL    HW214316   1.948   2.947   0.787
 4473SOL     OW14317   0.271   3.422   4.863
 4473SOL    HW114318   0.360   3.390   4.897
 4473SOL    HW214319   0.283   3.512   4.821
 4474SOL     OW14320   2.726   6.128   1.252
 4474SOL    HW114321   2.629   6.130   1.277
 4474SOL    HW214322   2.741   6.192   1.176
 4475SOL     OW14323   0.836   3.776   0.398
 4475SOL    HW114324   0.883   3.700   0.444
 4475SOL    HW214325   0.778   3.740   0.325
 4476SOL     OW14326   5.460   1.157   3.701
 4476SOL    HW114327   5.409   1.101   3.635
 4476SOL    HW214328   5.404   1.236   3.727
 4477SOL     OW14329   0.363   1.077   5.043
 4477SOL    HW114330   0.377   1.164   5.090
 4477SOL    HW214331   0.330   1.094   4.950
 4478SOL     OW14332   1.566   0.653   1.894
 4478SOL    HW114333   1.660   0.657   1.927
 4478SOL    HW214334   1.541   0.742   1.855
 4479SOL     OW14335   2.189   2.591   6.734
 4479SOL    HW114336   2.110   2.533   6.716
 4479SOL    HW214337   2.272   2.547   6.700
 4480SOL     OW14338   0.577   6.717   3.242
 4480SOL    HW114339   0.644   6.663   3.294
 4480SOL    HW214340   0.488   6.673   3.247
 4481SOL     OW14341   2.006   3.386   5.286
 4481SOL    HW114342   1.912   3.365   5.258
 4481SOL    HW214343   2.062   3.400   5.204
 4482SOL     OW14344   2.007   0.385   1.442
 4482SOL    HW114345   1.925   0.335   1.416
 4482SOL    HW214346   1.986   0.483   1.449
 4483SOL     OW14347   1.530   3.590   0.381
 4483SOL    HW114348   1.626   3.614   0.389
 4483SOL    HW214349   1.516   3.496   0.413
 4484SOL     OW14350   2.972   0.597   6.839
 4484SOL    HW114351   2.973   0.524   6.907
 4484SOL    HW214352   3.041   0.578   6.769
 4485SOL     OW14353   0.005   3.610   4.781
 4485SOL    HW114354   0.091   3.618   4.731
 4485SOL    HW214355   0.024   3.607   4.879
 4486SOL     OW14356   5.196   4.566   3.785
 4486SOL    HW114357   5.110   4.520   3.761
 4486SOL    HW214358   5.193   4.661   3.752
 4487SOL     OW14359   0.368   3.025   6.533
 4487SOL    HW114360   0.282   3.044   6.580
 4487SOL    HW214361   0.408   2.941   6.570
 4488SOL     OW14362   6.908   3.763   3.458
 4488SOL    HW114363   6.892   3.778   3.361
 4488SOL    HW214364   6.999   3.723   3.471
 4489SOL     OW14365   3.449   6.062   6.598
 4489SOL    HW114366   3.486   5.970   6.609
 4489SOL    HW214367   3.420   6.075   6.504
 4490SOL     OW14368   5.656   1.603   1.913
 4490SOL    HW114369   5.585   1.552   1.865
 4490SOL    HW214370   5.696   1.547   1.985
 4491SOL     OW14371   1.149   3.555   2.920
 4491SOL    HW114372   1.074   3.600   2.969
 4491SOL    HW214373   1.113   3.474   2.873
 4492SOL     OW14374   6.647   1.078   2.455
 4492SOL    HW114375   6.581   1.057   2.527
 4492SOL    HW214376   6.711   1.147   2.487
 4493SOL     OW14377   5.084   1.596   5.640
 4493SOL    HW114378   5.111   1.579   5.545
 4493SOL    HW214379   5.037   1.516   5.676
 4494SOL     OW14380   1.636   0.859   2.229
 4494SOL    HW114381   1.719   0.816   2.193
 4494SOL    HW214382   1.661   0.926   2.300
 4495SOL     OW14383   3.910   6.584   1.066
 4495SOL    HW114384   4.006   6.590   1.092
 4495SOL    HW214385   3.903   6.562   0.969
 4496SOL     OW14386   2.638   6.604   5.519
 4496SOL    HW114387   2.567   6.538   5.547
 4496SOL    HW214388   2.619   6.693   5.561
 4497SOL     OW14389   4.093   0.645   6.173
 4497SOL    HW114390   4.122   0.738   6.196
 4497SOL    HW214391   4.019   0.617   6.234
 4498SOL     OW14392   0.677   4.997   4.689
 4498SOL    HW114393   0.622   5.055   4.749
 4498SOL    HW214394   0.702   4.914   4.739
 4499SOL     OW14395   6.188   1.028   2.713
 4499SOL    HW114396   6.175   1.099   2.643
 4499SOL    HW214397   6.100   1.007   2.755
 4500SOL     OW14398   3.568   6.446   0.524
 4500SOL    HW114399   3.586   6.398   0.438
 4500SOL    HW214400   3.475   6.423   0.555
 4501SOL     OW14401   5.723   0.545   2.229
 4501SOL    HW114402   5.775   0.544   2.315
 4501SOL    HW214403   5.643   0.484   2.239
 4502SOL     OW14404   1.082   3.786   6.451
 4502SOL    HW114405   1.145   3.763   6.525
 4502SOL    HW214406   1.038   3.874   6.470
 4503SOL     OW14407   3.450   1.601   2.363
 4503SOL    HW114408   3.533   1.595   2.308
 4503SOL    HW214409   3.475   1.611   2.459
 4504SOL     OW14410   0.810   2.392   3.340
 4504SOL    HW114411   0.736   2.424   3.281
 4504SOL    HW214412   0.855   2.471   3.382
 4505SOL     OW14413   6.100   2.681   3.627
 4505SOL    HW114414   6.092   2.744   3.704
 4505SOL    HW214415   6.167   2.716   3.562
 4506SOL     OW14416   4.008   3.958   6.766
 4506SOL    HW114417   4.087   4.003   6.725
 4506SOL    HW214418   3.984   4.004   6.852
 4507SOL     OW14419   5.995   2.103   3.196
 4507SOL    HW114420   5.964   2.019   3.150
 4507SOL    HW214421   6.042   2.161   3.130
 4508SOL     OW14422   6.292   4.994   0.770
 4508SOL    HW114423   6.283   5.068   0.836
 4508SOL    HW214424   6.301   5.032   0.678
 4509SOL     OW14425   5.559   2.195   2.419
 4509SOL    HW114426   5.538   2.209   2.323
 4509SOL    HW214427   5.528   2.274   2.472
 4510SOL     OW14428   4.741   1.608   4.380
 4510SOL    HW114429   4.711   1.599   4.475
 4510SOL    HW214430   4.673   1.565   4.320
 4511SOL     OW14431   0.147   4.961   6.658
 4511SOL    HW114432   0.179   4.968   6.753
 4511SOL    HW214433   0.101   5.046   6.633
 4512SOL     OW14434   3.246   3.337   5.667
 4512SOL    HW114435   3.252   3.384   5.755
 4512SOL    HW214436   3.176   3.266   5.671
 4513SOL     OW14437   0.126   0.579   0.573
 4513SOL    HW114438   0.166   0.597   0.663
 4513SOL    HW214439   0.136   0.661   0.516
 4514SOL     OW14440   4.730   5.050   6.683
 4514SOL    HW114441   4.735   4.994   6.600
 4514SOL    HW214442   4.808   5.112   6.686
 4515SOL     OW14443   3.925   0.823   6.423
 4515SOL    HW114444   3.997   0.888   6.447
 4515SOL    HW214445   3.965   0.733   6.405
 4516SOL     OW14446   3.298   2.292   5.757
 4516SOL    HW114447   3.284   2.386   5.725
 4516SOL    HW214448   3.339   2.293   5.848
 4517SOL     OW14449   4.253   0.540   4.774
 4517SOL    HW114450   4.226   0.599   4.699
 4517SOL    HW214451   4.349   0.516   4.765
 4518SOL     OW14452   0.067   6.850   0.803
 4518SOL    HW114453   0.162   6.856   0.771
 4518SOL    HW214454   0.038   6.939   0.839
 4519SOL     OW14455   4.470   6.521   6.752
 4519SOL    HW114456   4.542   6.470   6.706
 4519SOL    HW214457   4.381   6.488   6.721
 4520SOL     OW14458   4.721   4.956   5.683
 4520SOL    HW114459   4.787   5.030   5.668
 4520SOL    HW214460   4.641   4.970   5.624
 4521SOL     OW14461   4.386   2.340   3.984
 4521SOL    HW114462   4.472   2.324   3.935
 4521SOL    HW214463   4.312   2.294   3.937
 4522SOL     OW14464   5.754   3.657   3.426
 4522SOL    HW114465   5.704   3.589   3.372
 4522SOL    HW214466   5.850   3.630   3.433
 4523SOL     OW14467   0.171   3.329   6.359
 4523SOL    HW114468   0.219   3.241   6.353
 4523SOL    HW214469   0.238   3.403   6.358
 4524SOL     OW14470   2.196   3.828   2.316
 4524SOL    HW114471   2.201   3.903   2.381
 4524SOL    HW214472   2.282   3.821   2.266
 4525SOL     OW14473   3.673   2.447   5.827
 4525SOL    HW114474   3.702   2.395   5.747
 4525SOL    HW214475   3.597   2.401   5.872
 4526SOL     OW14476   1.534   0.465   5.479
 4526SOL    HW114477   1.556   0.368   5.464
 4526SOL    HW214478   1.468   0.495   5.411
 4527SOL     OW14479   0.232   1.476   2.911
 4527SOL    HW114480   0.233   1.575   2.902
 4527SOL    HW214481   0.266   1.450   3.002
 4528SOL     OW14482   4.891   0.988   4.469
 4528SOL    HW114483   4.892   1.020   4.563
 4528SOL    HW214484   4.983   0.957   4.443
 4529SOL     OW14485   2.363   2.060   3.968
 4529SOL    HW114486   2.347   1.969   4.008
 4529SOL    HW214487   2.408   2.049   3.879
 4530SOL     OW14488   3.817   5.463   6.585
 4530SOL    HW114489   3.871   5.480   6.667
 4530SOL    HW214490   3.767   5.546   6.559
 4531SOL     OW14491   1.774   6.553   5.367
 4531SOL    HW114492   1.850   6.618   5.361
 4531SOL    HW214493   1.765   6.521   5.461
 4532SOL     OW14494   6.271   0.963   2.370
 4532SOL    HW114495   6.251   1.019   2.289
 4532SOL    HW214496   6.291   1.022   2.447
 4533SOL     OW14497   2.940   6.397   1.464
 4533SOL    HW114498   2.973   6.491   1.471
 4533SOL    HW214499   2.848   6.391   1.503
 4534SOL     OW14500   5.702   1.467   4.351
 4534SOL    HW114501   5.789   1.514   4.339
 4534SOL    HW214502   5.630   1.519   4.305
 4535SOL     OW14503   1.771   0.683   0.096
 4535SOL    HW114504   1.751   0.781   0.092
 4535SOL    HW214505   1.705   0.637   0.155
 4536SOL     OW14506   3.827   1.161   6.032
 4536SOL    HW114507   3.856   1.201   6.118
 4536SOL    HW214508   3.889   1.190   5.959
 4537SOL     OW14509   3.529   3.240   3.310
 4537SOL    HW114510   3.515   3.335   3.285
 4537SOL    HW214511   3.466   3.215   3.384
 4538SOL     OW14512   0.925   2.273   0.338
 4538SOL    HW114513   0.924   2.358   0.286
 4538SOL    HW214514   0.936   2.293   0.435
 4539SOL     OW14515   1.414   5.772   4.885
 4539SOL    HW114516   1.361   5.692   4.856
 4539SOL    HW214517   1.351   5.844   4.914
 4540SOL     OW14518   1.615   1.653   0.377
 4540SOL    HW114519   1.644   1.558   0.385
 4540SOL    HW214520   1.663   1.696   0.301
 4541SOL     OW14521   4.016   3.514   0.086
 4541SOL    HW114522   3.944   3.519   0.017
 4541SOL    HW214523   3.998   3.438   0.147
 4542SOL     OW14524   0.644   1.581   6.486
 4542SOL    HW114525   0.624   1.675   6.511
 4542SOL    HW214526   0.743   1.567   6.484
 4543SOL     OW14527   4.452   1.740   0.919
 4543SOL    HW114528   4.505   1.655   0.922
 4543SOL    HW214529   4.502   1.808   0.865
 4544SOL     OW14530   4.680   6.627   0.432
 4544SOL    HW114531   4.618   6.705   0.442
 4544SOL    HW214532   4.650   6.553   0.493
 4545SOL     OW14533   2.995   2.612   5.521
 4545SOL    HW114534   2.936   2.689   5.546
 4545SOL    HW214535   2.965   2.530   5.569
 4546SOL     OW14536   4.186   0.342   6.325
 4546SOL    HW114537   4.115   0.290   6.278
 4546SOL    HW214538   4.272   0.289   6.325
 4547SOL     OW14539   0.490   0.320   0.120
 4547SOL    HW114540   0.587   0.310   0.097
 4547SOL    HW214541   0.479   0.321   0.219
 4548SOL     OW14542   3.232   1.301   1.923
 4548SOL    HW114543   3.223   1.364   2.001
 4548SOL    HW214544   3.242   1.208   1.957
 4549SOL     OW14545   6.855   3.215   4.038
 4549SOL    HW114546   6.800   3.252   4.113
 4549SOL    HW214547   6.801   3.149   3.987
 4550SOL     OW14548   1.538   5.718   5.524
 4550SOL    HW114549   1.536   5.677   5.433
 4550SOL    HW214550   1.596   5.663   5.584
 4551SOL     OW14551   3.205   2.338   6.070
 4551SOL    HW114552   3.304   2.342   6.055
 4551SOL    HW214553   3.173   2.428   6.102
 4552SOL     OW14554   4.846   0.747   6.792
 4552SOL    HW114555   4.899   0.665   6.766
 4552SOL    HW214556   4.776   0.721   6.858
 4553SOL     OW14557   0.598   6.034   0.477
 4553SOL    HW114558   0.526   6.090   0.519
 4553SOL    HW214559   0.565   5.998   0.389
 4554SOL     OW14560   5.754   0.060   3.256
 4554SOL    HW114561   5.664   0.021   3.271
 4554SOL    HW214562   5.751   0.158   3.273
 4555SOL     OW14563   0.841   0.796   1.768
 4555SOL    HW114564   0.870   0.888   1.794
 4555SOL    HW214565   0.788   0.800   1.684
 4556SOL     OW14566   5.132   4.120   3.960
 4556SOL    HW114567   5.164   4.206   4.000
 4556SOL    HW214568   5.091   4.063   4.032
 4557SOL     OW14569   6.707   4.683   4.289
 4557SOL    HW114570   6.689   4.768   4.240
 4557SOL    HW214571   6.646   4.611   4.255
 4558SOL     OW14572   1.071   3.833   4.915
 4558SOL    HW114573   1.061   3.750   4.860
 4558SOL    HW214574   1.123   3.901   4.864
 4559SOL     OW14575   0.111   2.756   3.845
 4559SOL    HW114576   0.109   2.677   3.783
 4559SOL    HW214577   0.017   2.783   3.867
 4560SOL     OW14578   6.043   4.704   3.026
 4560SOL    HW114579   6.004   4.789   3.062
 4560SOL    HW214580   6.074   4.647   3.101
 4561SOL     OW14581   4.511   2.334   4.225
 4561SOL    HW114582   4.465   2.317   4.138
 4561SOL    HW214583   4.528   2.432   4.236
 4562SOL     OW14584   3.925   1.220   0.539
 4562SOL    HW114585   3.911   1.127   0.507
 4562SOL    HW214586   3.961   1.276   0.465
 4563SOL     OW14587   0.835   4.019   1.573
 4563SOL    HW114588   0.885   4.075   1.507
 4563SOL    HW214589   0.894   3.945   1.605
 4564SOL     OW14590   2.095   4.361   2.220
 4564SOL    HW114591   2.033   4.310   2.161
 4564SOL    HW214592   2.044   4.429   2.272
 4565SOL     OW14593   1.956   0.072   5.750
 4565SOL    HW114594   2.003   0.066   5.838
 4565SOL    HW214595   1.999   0.010   5.684
 4566SOL     OW14596   6.867   4.000   3.040
 4566SOL    HW114597   6.882   4.020   2.944
 4566SOL    HW214598   6.912   4.070   3.096
 4567SOL     OW14599   7.021   6.649   6.706
 4567SOL    HW114600   0.056   6.689   6.778
 4567SOL    HW214601   6.975   6.723   6.655
 4568SOL     OW14602   0.896   5.310   3.899
 4568SOL    HW114603   0.851   5.387   3.855
 4568SOL    HW214604   0.995   5.327   3.905
 4569SOL     OW14605   1.662   1.946   2.879
 4569SOL    HW114606   1.673   1.949   2.978
 4569SOL    HW214607   1.569   1.919   2.856
 4570SOL     OW14608   5.116   5.461   1.130
 4570SOL    HW114609   5.044   5.464   1.060
 4570SOL    HW214610   5.127   5.551   1.170
 4571SOL     OW14611   2.335   4.127   5.550
 4571SOL    HW114612   2.370   4.044   5.506
 4571SOL    HW214613   2.389   4.206   5.520
 4572SOL     OW14614   4.148   3.181   1.670
 4572SOL    HW114615   4.114   3.096   1.631
 4572SOL    HW214616   4.247   3.175   1.683
 4573SOL     OW14617   2.374   4.752   0.474
 4573SOL    HW114618   2.448   4.819   0.465
 4573SOL    HW214619   2.286   4.798   0.460
 4574SOL     OW14620   4.808   0.965   2.062
 4574SOL    HW114621   4.796   0.996   1.967
 4574SOL    HW214622   4.881   1.017   2.105
 4575SOL     OW14623   6.727   1.019   5.188
 4575SOL    HW114624   6.801   1.073   5.229
 4575SOL    HW214625   6.747   0.922   5.199
 4576SOL     OW14626   3.483   3.908   6.866
 4576SOL    HW114627   3.439   3.953   6.943
 4576SOL    HW214628   3.443   3.942   6.781
 4577SOL     OW14629   0.529   1.588   1.700
 4577SOL    HW114630   0.609   1.594   1.641
 4577SOL    HW214631   0.465   1.662   1.676
 4578SOL     OW14632   1.906   0.676   2.913
 4578SOL    HW114633   1.884   0.754   2.854
 4578SOL    HW214634   1.830   0.611   2.913
 4579SOL     OW14635   4.609   0.701   3.753
 4579SOL    HW114636   4.640   0.715   3.847
 4579SOL    HW214637   4.681   0.729   3.689
 4580SOL     OW14638   0.856   1.271   0.717
 4580SOL    HW114639   0.805   1.254   0.801
 4580SOL    HW214640   0.891   1.184   0.682
 4581SOL     OW14641   2.702   0.352   1.105
 4581SOL    HW114642   2.791   0.393   1.123
 4581SOL    HW214643   2.699   0.317   1.011
 4582SOL     OW14644   6.948   0.771   3.580
 4582SOL    HW114645   0.001   0.835   3.559
 4582SOL    HW214646   6.981   0.702   3.644
 4583SOL     OW14647   1.905   6.839   0.058
 4583SOL    HW114648   1.847   6.836   0.140
 4583SOL    HW214649   1.951   6.752   0.046
 4584SOL     OW14650   0.247   1.776   3.878
 4584SOL    HW114651   0.182   1.744   3.947
 4584SOL    HW214652   0.215   1.862   3.839
 4585SOL     OW14653   1.866   3.014   2.681
 4585SOL    HW114654   1.818   2.927   2.670
 4585SOL    HW214655   1.872   3.037   2.778
 4586SOL     OW14656   6.497   5.084   6.168
 4586SOL    HW114657   6.416   5.064   6.224
 4586SOL    HW214658   6.478   5.161   6.108
 4587SOL     OW14659   4.228   4.226   5.830
 4587SOL    HW114660   4.147   4.168   5.841
 4587SOL    HW214661   4.282   4.192   5.753
 4588SOL     OW14662   3.064   4.266   6.433
 4588SOL    HW114663   3.075   4.285   6.530
 4588SOL    HW214664   3.150   4.286   6.386
 4589SOL     OW14665   5.721   6.499   2.767
 4589SOL    HW114666   5.680   6.434   2.831
 4589SOL    HW214667   5.766   6.450   2.693
 4590SOL     OW14668   2.715   5.542   1.374
 4590SOL    HW114669   2.655   5.575   1.301
 4590SOL    HW214670   2.811   5.556   1.347
 4591SOL     OW14671   2.534   0.795   4.953
 4591SOL    HW114672   2.518   0.869   5.019
 4591SOL    HW214673   2.453   0.783   4.895
 4592SOL     OW14674   2.613   1.656   3.780
 4592SOL    HW114675   2.673   1.680   3.857
 4592SOL    HW214676   2.593   1.739   3.728
 4593SOL     OW14677   1.155   6.286   4.464
 4593SOL    HW114678   1.231   6.313   4.523
 4593SOL    HW214679   1.077   6.257   4.520
 4594SOL     OW14680   2.043   6.199   4.271
 4594SOL    HW114681   2.071   6.289   4.303
 4594SOL    HW214682   2.057   6.132   4.344
 4595SOL     OW14683   5.720   1.975   6.454
 4595SOL    HW114684   5.727   1.959   6.356
 4595SOL    HW214685   5.647   2.042   6.471
 4596SOL     OW14686   1.149   1.078   2.271
 4596SOL    HW114687   1.218   1.129   2.324
 4596SOL    HW214688   1.062   1.080   2.320
 4597SOL     OW14689   2.557   5.705   0.662
 4597SOL    HW114690   2.477   5.706   0.723
 4597SOL    HW214691   2.588   5.799   0.648
 4598SOL     OW14692   0.760   3.668   0.131
 4598SOL    HW114693   0.715   3.706   0.050
 4598SOL    HW214694   0.712   3.585   0.160
 4599SOL     OW14695   3.602   6.730   2.296
 4599SOL    HW114696   3.656   6.651   2.325
 4599SOL    HW214697   3.605   6.738   2.196
 4600SOL     OW14698   7.002   6.514   6.437
 4600SOL    HW114699   6.968   6.577   6.367
 4600SOL    HW214700   6.980   6.549   6.528
 4601SOL     OW14701   1.748   0.441   5.666
 4601SOL    HW114702   1.705   0.392   5.742
 4601SOL    HW214703   1.680   0.457   5.594
 4602SOL     OW14704   3.809   1.707   6.717
 4602SOL    HW114705   3.749   1.706   6.638
 4602SOL    HW214706   3.892   1.760   6.696
 4603SOL     OW14707   4.071   6.906   1.231
 4603SOL    HW114708   4.008   6.848   1.282
 4603SOL    HW214709   4.039   7.001   1.235
 4604SOL     OW14710   0.190   6.655   3.637
 4604SOL    HW114711   0.263   6.593   3.607
 4604SOL    HW214712   0.168   6.719   3.564
 4605SOL     OW14713   4.272   0.867   1.426
 4605SOL    HW114714   4.260   0.912   1.337
 4605SOL    HW214715   4.369   0.851   1.443
 4606SOL     OW14716   6.991   6.787   4.937
 4606SOL    HW114717   6.938   6.785   4.852
 4606SOL    HW214718   6.989   6.880   4.975
 4607SOL     OW14719   2.366   1.770   1.025
 4607SOL    HW114720   2.289   1.728   1.073
 4607SOL    HW214721   2.343   1.864   1.001
 4608SOL     OW14722   6.981   3.072   4.647
 4608SOL    HW114723   6.924   3.113   4.576
 4608SOL    HW214724   0.005   3.144   4.700
 4609SOL     OW14725   5.051   4.962   6.770
 4609SOL    HW114726   5.017   5.036   6.712
 4609SOL    HW214727   5.024   4.978   6.865
 4610SOL     OW14728   5.150   5.367   0.335
 4610SOL    HW114729   5.073   5.421   0.371
 4610SOL    HW214730   5.230   5.425   0.325
 4611SOL     OW14731   0.090   1.197   6.492
 4611SOL    HW114732   0.158   1.154   6.552
 4611SOL    HW214733   0.121   1.288   6.467
 4612SOL     OW14734   2.630   1.277   2.685
 4612SOL    HW114735   2.599   1.183   2.677
 4612SOL    HW214736   2.634   1.304   2.781
 4613SOL     OW14737   1.340   5.626   1.909
 4613SOL    HW114738   1.418   5.652   1.852
 4613SOL    HW214739   1.373   5.581   1.992
 4614SOL     OW14740   0.070   4.390   3.460
 4614SOL    HW114741   0.164   4.380   3.494
 4614SOL    HW214742   0.049   4.487   3.450
 4615SOL     OW14743   1.328   4.443   6.386
 4615SOL    HW114744   1.266   4.520   6.399
 4615SOL    HW214745   1.416   4.476   6.354
 4616SOL     OW14746   1.313   3.826   6.222
 4616SOL    HW114747   1.277   3.855   6.310
 4616SOL    HW214748   1.297   3.728   6.210
 4617SOL     OW14749   6.959   3.341   3.479
 4617SOL    HW114750   0.010   3.367   3.544
 4617SOL    HW214751   6.875   3.322   3.528
 4618SOL     OW14752   2.375   3.265   5.759
 4618SOL    HW114753   2.333   3.181   5.727
 4618SOL    HW214754   2.308   3.339   5.760
 4619SOL     OW14755   4.540   6.032   6.145
 4619SOL    HW114756   4.489   6.111   6.110
 4619SOL    HW214757   4.601   5.997   6.073
 4620SOL     OW14758   0.960   4.211   1.400
 4620SOL    HW114759   0.971   4.266   1.483
 4620SOL    HW214760   1.048   4.201   1.355
 4621SOL     OW14761   3.340   0.689   2.701
 4621SOL    HW114762   3.409   0.632   2.745
 4621SOL    HW214763   3.301   0.753   2.767
 4622SOL     OW14764   5.338   0.231   0.615
 4622SOL    HW114765   5.346   0.299   0.688
 4622SOL    HW214766   5.420   0.235   0.558
 4623SOL     OW14767   3.237   4.878   2.455
 4623SOL    HW114768   3.168   4.819   2.498
 4623SOL    HW214769   3.199   4.969   2.442
 4624SOL     OW14770   4.830   1.470   1.601
 4624SOL    HW114771   4.735   1.447   1.625
 4624SOL    HW214772   4.831   1.557   1.552
 4625SOL     OW14773   1.454   6.393   1.613
 4625SOL    HW114774   1.421   6.365   1.703
 4625SOL    HW214775   1.431   6.323   1.546
 4626SOL     OW14776   4.129   3.296   2.061
 4626SOL    HW114777   4.170   3.210   2.089
 4626SOL    HW214778   4.182   3.335   1.986
 4627SOL     OW14779   5.869   0.184   4.957
 4627SOL    HW114780   5.805   0.141   4.893
 4627SOL    HW214781   5.835   0.274   4.983
 4628SOL     OW14782   5.998   4.522   2.785
 4628SOL    HW114783   6.030   4.592   2.848
 4628SOL    HW214784   5.968   4.442   2.838
 4629SOL     OW14785   1.480   5.332   0.078
 4629SOL    HW114786   1.392   5.311   0.120
 4629SOL    HW214787   1.542   5.255   0.089
 4630SOL     OW14788   1.960   3.842   1.390
 4630SOL    HW114789   1.950   3.757   1.442
 4630SOL    HW214790   2.013   3.824   1.308
 4631SOL     OW14791   6.478   0.888   3.352
 4631SOL    HW114792   6.519   0.864   3.264
 4631SOL    HW214793   6.422   0.812   3.384
 4632SOL     OW14794   2.753   4.705   3.311
 4632SOL    HW114795   2.781   4.754   3.229
 4632SOL    HW214796   2.798   4.746   3.391
 4633SOL     OW14797   4.747   2.454   4.576
 4633SOL    HW114798   4.713   2.507   4.653
 4633SOL    HW214799   4.790   2.515   4.510
 4634SOL     OW14800   3.921   3.013   4.503
 4634SOL    HW114801   4.001   3.071   4.492
 4634SOL    HW214802   3.929   2.959   4.587
 4635SOL     OW14803   4.736   6.071   2.505
 4635SOL    HW114804   4.677   5.994   2.530
 4635SOL    HW214805   4.680   6.147   2.474
 4636SOL     OW14806   1.650   6.302   6.173
 4636SOL    HW114807   1.592   6.230   6.135
 4636SOL    HW214808   1.611   6.334   6.259
 4637SOL     OW14809   2.271   2.046   2.991
 4637SOL    HW114810   2.317   2.133   3.008
 4637SOL    HW214811   2.302   1.978   3.057
 4638SOL     OW14812   3.666   4.858   0.534
 4638SOL    HW114813   3.674   4.929   0.465
 4638SOL    HW214814   3.682   4.769   0.492
 4639SOL     OW14815   3.750   1.911   1.753
 4639SOL    HW114816   3.691   1.899   1.833
 4639SOL    HW214817   3.747   2.007   1.724
 4640SOL     OW14818   6.169   2.797   0.868
 4640SOL    HW114819   6.073   2.774   0.882
 4640SOL    HW214820   6.206   2.837   0.952
 4641SOL     OW14821   1.634   5.548   4.563
 4641SOL    HW114822   1.729   5.563   4.588
 4641SOL    HW214823   1.578   5.622   4.600
 4642SOL     OW14824   6.144   1.306   5.662
 4642SOL    HW114825   6.121   1.226   5.716
 4642SOL    HW214826   6.128   1.389   5.715
 4643SOL     OW14827   0.536   1.551   0.440
 4643SOL    HW114828   0.548   1.649   0.456
 4643SOL    HW214829   0.592   1.524   0.362
 4644SOL     OW14830   1.013   0.346   0.813
 4644SOL    HW114831   0.966   0.325   0.727
 4644SOL    HW214832   0.978   0.432   0.850
 4645SOL     OW14833   6.334   2.226   4.845
 4645SOL    HW114834   6.267   2.299   4.838
 4645SOL    HW214835   6.287   2.138   4.852
 4646SOL     OW14836   2.154   3.923   2.908
 4646SOL    HW114837   2.130   3.826   2.900
 4646SOL    HW214838   2.138   3.968   2.820
 4647SOL     OW14839   2.097   6.153   1.941
 4647SOL    HW114840   2.099   6.088   2.017
 4647SOL    HW214841   2.087   6.246   1.977
 4648SOL     OW14842   2.872   1.084   4.526
 4648SOL    HW114843   2.954   1.124   4.485
 4648SOL    HW214844   2.801   1.153   4.535
 4649SOL     OW14845   5.897   1.762   0.623
 4649SOL    HW114846   5.805   1.801   0.627
 4649SOL    HW214847   5.891   1.664   0.606
 4650SOL     OW14848   4.420   5.659   1.139
 4650SOL    HW114849   4.445   5.567   1.108
 4650SOL    HW214850   4.435   5.666   1.238
 4651SOL     OW14851   0.539   3.974   6.389
 4651SOL    HW114852   0.440   3.974   6.404
 4651SOL    HW214853   0.561   3.905   6.321
 4652SOL     OW14854   6.993   0.125   5.559
 4652SOL    HW114855   0.029   0.044   5.541
 4652SOL    HW214856   6.897   0.102   5.543
 4653SOL     OW14857   0.019   5.642   1.066
 4653SOL    HW114858   0.045   5.547   1.079
 4653SOL    HW214859   0.034   5.669   0.971
 4654SOL     OW14860   0.826   1.060   5.953
 4654SOL    HW114861   0.874   0.988   5.903
 4654SOL    HW214862   0.756   1.100   5.894
 4655SOL     OW14863   5.332   3.441   2.726
 4655SOL    HW114864   5.234   3.424   2.713
 4655SOL    HW214865   5.358   3.412   2.818
 4656SOL     OW14866   6.153   1.097   2.165
 4656SOL    HW114867   6.158   1.086   2.065
 4656SOL    HW214868   6.077   1.042   2.200
 4657SOL     OW14869   3.648   1.574   2.834
 4657SOL    HW114870   3.707   1.655   2.842
 4657SOL    HW214871   3.664   1.530   2.745
 4658SOL     OW14872   1.441   2.027   6.416
 4658SOL    HW114873   1.447   1.988   6.324
 4658SOL    HW214874   1.506   1.980   6.476
 4659SOL     OW14875   2.046   4.484   0.662
 4659SOL    HW114876   2.145   4.494   0.655
 4659SOL    HW214877   2.010   4.452   0.574
 4660SOL     OW14878   0.577   5.371   3.875
 4660SOL    HW114879   0.613   5.285   3.839
 4660SOL    HW214880   0.585   5.371   3.975
 4661SOL     OW14881   0.951   1.711   5.603
 4661SOL    HW114882   0.960   1.673   5.696
 4661SOL    HW214883   1.042   1.735   5.568
 4662SOL     OW14884   2.849   0.407   6.046
 4662SOL    HW114885   2.903   0.490   6.036
 4662SOL    HW214886   2.773   0.409   5.981
 4663SOL     OW14887   0.958   6.769   0.507
 4663SOL    HW114888   0.893   6.723   0.568
 4663SOL    HW214889   0.952   6.868   0.521
 4664SOL     OW14890   5.880   6.861   6.168
 4664SOL    HW114891   5.898   6.867   6.069
 4664SOL    HW214892   5.894   6.951   6.209
 4665SOL     OW14893   0.319   0.310   2.984
 4665SOL    HW114894   0.350   0.226   3.029
 4665SOL    HW214895   0.374   0.387   3.015
 4666SOL     OW14896   1.594   2.622   5.827
 4666SOL    HW114897   1.604   2.537   5.879
 4666SOL    HW214898   1.512   2.670   5.857
 4667SOL     OW14899   6.450   3.178   0.850
 4667SOL    HW114900   6.454   3.187   0.949
 4667SOL    HW214901   6.516   3.240   0.808
 4668SOL     OW14902   4.660   2.222   4.718
 4668SOL    HW114903   4.684   2.297   4.656
 4668SOL    HW214904   4.582   2.172   4.680
 4669SOL     OW14905   5.150   0.059   7.017
 4669SOL    HW114906   5.105   0.122   0.060
 4669SOL    HW214907   5.227   0.015   0.042
 4670SOL     OW14908   0.222   3.658   6.631
 4670SOL    HW114909   0.297   3.663   6.565
 4670SOL    HW214910   0.141   3.618   6.587
 4671SOL     OW14911   0.121   2.719   2.037
 4671SOL    HW114912   0.126   2.817   2.058
 4671SOL    HW214913   0.095   2.669   2.119
 4672SOL     OW14914   2.908   3.607   0.036
 4672SOL    HW114915   2.823   3.657   0.056
 4672SOL    HW214916   2.916   3.529   0.099
 4673SOL     OW14917   6.018   0.680   0.650
 4673SOL    HW114918   6.112   0.668   0.619
 4673SOL    HW214919   6.004   0.776   0.675
 4674SOL     OW14920   1.010   3.009   0.734
 4674SOL    HW114921   1.030   3.107   0.732
 4674SOL    HW214922   1.092   2.958   0.707
 4675SOL     OW14923   1.843   5.524   6.720
 4675SOL    HW114924   1.784   5.580   6.778
 4675SOL    HW214925   1.883   5.581   6.648
 4676SOL     OW14926   0.415   5.892   4.564
 4676SOL    HW114927   0.342   5.824   4.555
 4676SOL    HW214928   0.503   5.845   4.578
 4677SOL     OW14929   3.782   6.593   0.183
 4677SOL    HW114930   3.813   6.600   0.089
 4677SOL    HW214931   3.742   6.680   0.212
 4678SOL     OW14932   2.168   4.399   0.285
 4678SOL    HW114933   2.173   4.312   0.236
 4678SOL    HW214934   2.260   4.438   0.293
 4679SOL     OW14935   2.435   6.623   5.820
 4679SOL    HW114936   2.449   6.712   5.778
 4679SOL    HW214937   2.416   6.635   5.918
 4680SOL     OW14938   1.111   4.709   0.020
 4680SOL    HW114939   1.113   4.809   0.016
 4680SOL    HW214940   1.152   4.671   6.958
 4681SOL     OW14941   6.343   5.549   5.028
 4681SOL    HW114942   6.341   5.496   4.943
 4681SOL    HW214943   6.279   5.625   5.022
 4682SOL     OW14944   2.657   6.439   0.736
 4682SOL    HW114945   2.753   6.466   0.728
 4682SOL    HW214946   2.610   6.502   0.797
 4683SOL     OW14947   0.301   4.697   2.893
 4683SOL    HW114948   0.213   4.666   2.858
 4683SOL    HW214949   0.356   4.618   2.920
 4684SOL     OW14950   1.610   1.190   5.144
 4684SOL    HW114951   1.685   1.161   5.084
 4684SOL    HW214952   1.632   1.168   5.239
 4685SOL     OW14953   5.021   4.858   5.194
 4685SOL    HW114954   4.985   4.949   5.177
 4685SOL    HW214955   5.025   4.806   5.108
 4686SOL     OW14956   4.768   6.085   0.230
 4686SOL    HW114957   4.802   6.050   0.317
 4686SOL    HW214958   4.841   6.134   0.183
 4687SOL     OW14959   5.070   6.611   4.434
 4687SOL    HW114960   5.027   6.565   4.355
 4687SOL    HW214961   5.026   6.700   4.448
 4688SOL     OW14962   0.393   1.716   0.716
 4688SOL    HW114963   0.399   1.699   0.618
 4688SOL    HW214964   0.358   1.809   0.731
 4689SOL     OW14965   1.916   4.887   5.016
 4689SOL    HW114966   1.840   4.875   4.951
 4689SOL    HW214967   1.900   4.831   5.097
 4690SOL     OW14968   1.502   1.362   0.540
 4690SOL    HW114969   1.425   1.299   0.544
 4690SOL    HW214970   1.480   1.445   0.593
 4691SOL     OW14971   3.870   4.655   0.265
 4691SOL    HW114972   3.908   4.566   0.242
 4691SOL    HW214973   3.792   4.675   0.206
 4692SOL     OW14974   0.781   5.787   3.545
 4692SOL    HW114975   0.706   5.740   3.499
 4692SOL    HW214976   0.837   5.834   3.476
 4693SOL     OW14977   0.708   0.538   3.283
 4693SOL    HW114978   0.681   0.535   3.186
 4693SOL    HW214979   0.806   0.525   3.291
 4694SOL     OW14980   1.380   1.081   5.830
 4694SOL    HW114981   1.303   1.116   5.884
 4694SOL    HW214982   1.460   1.140   5.844
 4695SOL     OW14983   3.076   3.033   2.498
 4695SOL    HW114984   2.996   2.975   2.488
 4695SOL    HW214985   3.108   3.063   2.408
 4696SOL     OW14986   6.092   3.259   0.456
 4696SOL    HW114987   6.083   3.352   0.422
 4696SOL    HW214988   6.076   3.194   0.381
 4697SOL     OW14989   1.293   5.844   6.950
 4697SOL    HW114990   1.288   5.744   6.945
 4697SOL    HW214991   1.361   5.870   7.018
 4698SOL     OW14992   6.201   2.811   2.494
 4698SOL    HW114993   6.245   2.901   2.499
 4698SOL    HW214994   6.249   2.753   2.429
 4699SOL     OW14995   6.722   6.659   3.039
 4699SOL    HW114996   6.815   6.666   3.003
 4699SOL    HW214997   6.715   6.715   3.122
 4700SOL     OW14998   5.397   6.516   0.099
 4700SOL    HW114999   5.467   6.554   0.160
 4700SOL    HW215000   5.441   6.456   0.032
 4701SOL     OW15001   0.643   0.687   6.914
 4701SOL    HW115002   0.734   0.656   6.943
 4701SOL    HW215003   0.576   0.660   6.982
 4702SOL     OW15004   2.675   3.809   0.297
 4702SOL    HW115005   2.753   3.836   0.353
 4702SOL    HW215006   2.659   3.711   0.308
 4703SOL     OW15007   0.843   1.134   1.739
 4703SOL    HW115008   0.874   1.105   1.649
 4703SOL    HW215009   0.743   1.138   1.741
 4704SOL     OW15010   4.745   6.889   0.137
 4704SOL    HW115011   4.660   6.879   0.086
 4704SOL    HW215012   4.778   6.983   0.128
 4705SOL     OW15013   3.258   4.114   4.533
 4705SOL    HW115014   3.345   4.067   4.542
 4705SOL    HW215015   3.274   4.213   4.524
 4706SOL     OW15016   5.046   5.038   0.631
 4706SOL    HW115017   5.030   5.134   0.655
 4706SOL    HW215018   5.144   5.018   0.640
 4707SOL     OW15019   2.986   5.632   1.310
 4707SOL    HW115020   2.997   5.601   1.405
 4707SOL    HW215021   3.060   5.695   1.287
 4708SOL     OW15022   1.892   3.164   2.449
 4708SOL    HW115023   1.809   3.211   2.421
 4708SOL    HW215024   1.874   3.111   2.532
 4709SOL     OW15025   2.642   4.432   0.414
 4709SOL    HW115026   2.698   4.356   0.447
 4709SOL    HW215027   2.672   4.517   0.458
 4710SOL     OW15028   4.565   3.089   1.184
 4710SOL    HW115029   4.545   3.059   1.277
 4710SOL    HW215030   4.552   3.188   1.177
 4711SOL     OW15031   2.737   0.114   3.049
 4711SOL    HW115032   2.832   0.098   3.022
 4711SOL    HW215033   2.678   0.049   3.001
 4712SOL     OW15034   1.576   4.253   6.356
 4712SOL    HW115035   1.507   4.231   6.426
 4712SOL    HW215036   1.558   4.199   6.274
 4713SOL     OW15037   1.760   5.543   0.935
 4713SOL    HW115038   1.691   5.610   0.962
 4713SOL    HW215039   1.742   5.456   0.980
 4714SOL     OW15040   3.979   1.959   0.797
 4714SOL    HW115041   4.001   1.861   0.789
 4714SOL    HW215042   3.939   1.991   0.712
 4715SOL     OW15043   4.898   3.730   4.729
 4715SOL    HW115044   4.927   3.815   4.771
 4715SOL    HW215045   4.857   3.671   4.799
 4716SOL     OW15046   2.374   4.929   0.217
 4716SOL    HW115047   2.381   4.838   0.175
 4716SOL    HW215048   2.464   4.972   0.218
 4717SOL     OW15049   2.003   5.258   3.996
 4717SOL    HW115050   2.064   5.329   4.031
 4717SOL    HW215051   2.029   5.170   4.034
 4718SOL     OW15052   5.496   1.228   0.052
 4718SOL    HW115053   5.584   1.187   0.032
 4718SOL    HW215054   5.510   1.319   0.093
 4719SOL     OW15055   4.811   3.202   1.737
 4719SOL    HW115056   4.891   3.191   1.796
 4719SOL    HW215057   4.739   3.140   1.767
 4720SOL     OW15058   3.080   1.003   3.926
 4720SOL    HW115059   3.065   1.020   4.023
 4720SOL    HW215060   3.011   0.938   3.892
 4721SOL     OW15061   1.216   1.705   1.037
 4721SOL    HW115062   1.279   1.781   1.053
 4721SOL    HW215063   1.163   1.688   1.120
 4722SOL     OW15064   3.254   0.723   2.310
 4722SOL    HW115065   3.267   0.800   2.373
 4722SOL    HW215066   3.300   0.642   2.346
 4723SOL     OW15067   3.086   0.544   5.688
 4723SOL    HW115068   3.062   0.632   5.649
 4723SOL    HW215069   3.039   0.471   5.638
 4724SOL     OW15070   4.629   4.745   1.554
 4724SOL    HW115071   4.718   4.700   1.551
 4724SOL    HW215072   4.568   4.703   1.487
 4725SOL     OW15073   5.609   5.064   3.355
 4725SOL    HW115074   5.514   5.090   3.341
 4725SOL    HW215075   5.658   5.069   3.268
 4726SOL     OW15076   6.923   6.247   5.029
 4726SOL    HW115077   6.905   6.344   5.041
 4726SOL    HW215078   7.017   6.227   5.056
 4727SOL     OW15079   6.076   6.138   0.820
 4727SOL    HW115080   6.129   6.166   0.900
 4727SOL    HW215081   5.979   6.160   0.835
 4728SOL     OW15082   6.895   0.965   6.781
 4728SOL    HW115083   6.893   0.892   6.849
 4728SOL    HW215084   6.948   1.042   6.816
 4729SOL     OW15085   2.850   0.681   0.446
 4729SOL    HW115086   2.838   0.765   0.393
 4729SOL    HW215087   2.806   0.692   0.535
 4730SOL     OW15088   2.113   0.839   5.423
 4730SOL    HW115089   2.047   0.794   5.484
 4730SOL    HW215090   2.165   0.770   5.373
 4731SOL     OW15091   5.121   2.097   6.768
 4731SOL    HW115092   5.102   2.061   6.677
 4731SOL    HW215093   5.070   2.044   6.836
 4732SOL     OW15094   0.007   1.177   6.848
 4732SOL    HW115095   0.087   1.192   6.906
 4732SOL    HW215096   0.020   1.223   6.760
 4733SOL     OW15097   6.835   3.406   3.861
 4733SOL    HW115098   6.854   3.343   3.937
 4733SOL    HW215099   6.905   3.477   3.859
 4734SOL     OW15100   5.253   4.557   5.890
 4734SOL    HW115101   5.181   4.566   5.821
 4734SOL    HW215102   5.265   4.644   5.938
 4735SOL     OW15103   0.281   4.050   3.977
 4735SOL    HW115104   0.347   3.994   4.027
 4735SOL    HW215105   0.328   4.102   3.906
 4736SOL     OW15106   2.153   7.003   1.224
 4736SOL    HW115107   2.177   0.079   1.222
 4736SOL    HW215108   2.191   6.957   1.144
 4737SOL     OW15109   3.468   5.095   1.744
 4737SOL    HW115110   3.541   5.162   1.749
 4737SOL    HW215111   3.388   5.135   1.699
 4738SOL     OW15112   0.128   6.477   2.970
 4738SOL    HW115113   0.111   6.570   3.002
 4738SOL    HW215114   0.078   6.412   3.027
 4739SOL     OW15115   4.421   6.693   1.449
 4739SOL    HW115116   4.368   6.610   1.467
 4739SOL    HW215117   4.408   6.722   1.354
 4740SOL     OW15118   0.633   2.074   3.772
 4740SOL    HW115119   0.712   2.136   3.782
 4740SOL    HW215120   0.653   1.987   3.818
 4741SOL     OW15121   3.741   3.548   1.535
 4741SOL    HW115122   3.663   3.570   1.593
 4741SOL    HW215123   3.813   3.506   1.591
 4742SOL     OW15124   4.259   0.834   0.814
 4742SOL    HW115125   4.311   0.764   0.765
 4742SOL    HW215126   4.302   0.923   0.802
 4743SOL     OW15127   1.711   6.210   0.744
 4743SOL    HW115128   1.637   6.150   0.774
 4743SOL    HW215129   1.675   6.301   0.725
 4744SOL     OW15130   1.898   5.580   1.585
 4744SOL    HW115131   1.863   5.568   1.678
 4744SOL    HW215132   1.883   5.497   1.532
 4745SOL     OW15133   1.901   3.665   0.122
 4745SOL    HW115134   1.889   3.574   0.161
 4745SOL    HW215135   1.831   3.681   0.052
 4746SOL     OW15136   5.141   5.686   3.921
 4746SOL    HW115137   5.123   5.656   4.014
 4746SOL    HW215138   5.210   5.626   3.880
 4747SOL     OW15139   3.261   0.579   6.485
 4747SOL    HW115140   3.357   0.603   6.494
 4747SOL    HW215141   3.234   0.520   6.561
 4748SOL     OW15142   1.925   0.139   2.048
 4748SOL    HW115143   1.972   0.170   1.965
 4748SOL    HW215144   1.964   0.185   2.128
 4749SOL     OW15145   2.032   1.911   0.769
 4749SOL    HW115146   2.057   1.834   0.710
 4749SOL    HW215147   2.115   1.962   0.793
 4750SOL     OW15148   4.530   3.393   5.938
 4750SOL    HW115149   4.432   3.410   5.952
 4750SOL    HW215150   4.581   3.477   5.957
 4751SOL     OW15151   4.782   1.571   2.974
 4751SOL    HW115152   4.838   1.573   2.891
 4751SOL    HW215153   4.779   1.662   3.015
 4752SOL     OW15154   5.889   1.813   7.000
 4752SOL    HW115155   5.920   1.843   6.910
 4752SOL    HW215156   5.793   1.838   7.013
 4753SOL     OW15157   2.759   6.417   4.954
 4753SOL    HW115158   2.690   6.484   4.930
 4753SOL    HW215159   2.846   6.463   4.974
 4754SOL     OW15160   4.779   4.186   0.178
 4754SOL    HW115161   4.771   4.278   0.139
 4754SOL    HW215162   4.876   4.165   0.193
 4755SOL     OW15163   0.816   1.540   0.782
 4755SOL    HW115164   0.782   1.539   0.876
 4755SOL    HW215165   0.873   1.459   0.766
 4756SOL     OW15166   6.724   4.132   5.515
 4756SOL    HW115167   6.656   4.146   5.443
 4756SOL    HW215168   6.815   4.128   5.475
 4757SOL     OW15169   2.314   3.595   0.162
 4757SOL    HW115170   2.279   3.630   0.075
 4757SOL    HW215171   2.393   3.537   0.146
 4758SOL     OW15172   2.351   5.317   3.353
 4758SOL    HW115173   2.254   5.312   3.326
 4758SOL    HW215174   2.363   5.391   3.419
 4759SOL     OW15175   0.490   6.260   2.544
 4759SOL    HW115176   0.463   6.355   2.537
 4759SOL    HW215177   0.588   6.251   2.523
 4760SOL     OW15178   1.676   5.938   0.923
 4760SOL    HW115179   1.648   5.849   0.959
 4760SOL    HW215180   1.605   6.005   0.942
 4761SOL     OW15181   5.033   6.864   1.808
 4761SOL    HW115182   5.055   6.789   1.871
 4761SOL    HW215183   4.934   6.866   1.793
 4762SOL     OW15184   1.660   0.528   2.891
 4762SOL    HW115185   1.574   0.569   2.919
 4762SOL    HW215186   1.661   0.431   2.916
 4763SOL     OW15187   5.435   5.517   2.024
 4763SOL    HW115188   5.522   5.499   1.978
 4763SOL    HW215189   5.450   5.532   2.121
 4764SOL     OW15190   4.830   3.318   0.190
 4764SOL    HW115191   4.898   3.392   0.190
 4764SOL    HW215192   4.739   3.357   0.207
 4765SOL     OW15193   4.105   2.005   6.055
 4765SOL    HW115194   4.094   1.929   6.119
 4765SOL    HW215195   4.095   1.972   5.961
 4766SOL     OW15196   0.811   0.805   4.349
 4766SOL    HW115197   0.857   0.800   4.437
 4766SOL    HW215198   0.736   0.870   4.354
 4767SOL     OW15199   1.891   4.853   3.356
 4767SOL    HW115200   1.982   4.840   3.316
 4767SOL    HW215201   1.896   4.919   3.430
 4768SOL     OW15202   4.784   2.587   6.094
 4768SOL    HW115203   4.813   2.506   6.042
 4768SOL    HW215204   4.864   2.633   6.131
 4769SOL     OW15205   1.461   3.309   0.462
 4769SOL    HW115206   1.393   3.238   0.444
 4769SOL    HW215207   1.544   3.290   0.410
 4770SOL     OW15208   6.748   1.584   3.754
 4770SOL    HW115209   6.804   1.528   3.693
 4770SOL    HW215210   6.800   1.606   3.836
 4771SOL     OW15211   1.975   0.209   3.866
 4771SOL    HW115212   1.949   0.300   3.832
 4771SOL    HW215213   1.898   0.146   3.855
 4772SOL     OW15214   2.746   5.179   3.089
 4772SOL    HW115215   2.789   5.155   3.176
 4772SOL    HW215216   2.696   5.099   3.054
 4773SOL     OW15217   3.247   4.870   4.957
 4773SOL    HW115218   3.345   4.883   4.942
 4773SOL    HW215219   3.195   4.927   4.893
 4774SOL     OW15220   0.922   4.232   0.664
 4774SOL    HW115221   0.968   4.173   0.729
 4774SOL    HW215222   0.957   4.214   0.572
 4775SOL     OW15223   5.745   5.457   5.097
 4775SOL    HW115224   5.772   5.437   5.003
 4775SOL    HW215225   5.826   5.483   5.150
 4776SOL     OW15226   0.284   1.640   5.163
 4776SOL    HW115227   0.358   1.691   5.208
 4776SOL    HW215228   0.319   1.597   5.080
 4777SOL     OW15229   1.541   6.812   3.298
 4777SOL    HW115230   1.576   6.721   3.318
 4777SOL    HW215231   1.449   6.822   3.336
 4778SOL     OW15232   1.800   0.486   6.938
 4778SOL    HW115233   1.783   0.584   6.926
 4778SOL    HW215234   1.807   0.465   0.015
 4779SOL     OW15235   4.929   1.036   4.737
 4779SOL    HW115236   4.835   1.064   4.755
 4779SOL    HW215237   4.988   1.117   4.735
 4780SOL     OW15238   5.056   3.133   4.289
 4780SOL    HW115239   5.033   3.172   4.378
 4780SOL    HW215240   5.063   3.206   4.220
 4781SOL     OW15241   1.282   5.293   2.002
 4781SOL    HW115242   1.207   5.276   2.066
 4781SOL    HW215243   1.255   5.260   1.911
 4782SOL     OW15244   0.689   6.224   3.741
 4782SOL    HW115245   0.650   6.267   3.822
 4782SOL    HW215246   0.670   6.126   3.743
 4783SOL     OW15247   0.347   3.524   6.405
 4783SOL    HW115248   0.336   3.592   6.331
 4783SOL    HW215249   0.444   3.510   6.422
 4784SOL     OW15250   5.352   3.334   6.904
 4784SOL    HW115251   5.386   3.373   6.990
 4784SOL    HW215252   5.334   3.237   6.917
 4785SOL     OW15253   0.746   0.027   4.014
 4785SOL    HW115254   0.709   7.001   3.933
 4785SOL    HW215255   0.831   7.003   4.041
 4786SOL     OW15256   0.805   5.779   0.207
 4786SOL    HW115257   0.775   5.728   0.126
 4786SOL    HW215258   0.747   5.754   0.285
 4787SOL     OW15259   4.988   1.481   4.727
 4787SOL    HW115260   5.011   1.579   4.731
 4787SOL    HW215261   4.900   1.466   4.771
 4788SOL     OW15262   6.505   5.865   0.929
 4788SOL    HW115263   6.601   5.837   0.932
 4788SOL    HW215264   6.460   5.819   0.852
 4789SOL     OW15265   6.188   0.550   2.931
 4789SOL    HW115266   6.229   0.479   2.988
 4789SOL    HW215267   6.104   0.514   2.889
 4790SOL     OW15268   6.923   2.285   4.510
 4790SOL    HW115269   6.825   2.275   4.491
 4790SOL    HW215270   6.966   2.195   4.509
 4791SOL     OW15271   0.666   0.053   0.250
 4791SOL    HW115272   0.634   6.996   0.196
 4791SOL    HW215273   0.653   0.032   0.348
 4792SOL     OW15274   1.078   3.973   2.251
 4792SOL    HW115275   1.067   3.885   2.297
 4792SOL    HW215276   1.157   3.969   2.189
 4793SOL     OW15277   1.110   4.000   5.137
 4793SOL    HW115278   1.086   3.931   5.068
 4793SOL    HW215279   1.039   4.070   5.141
 4794SOL     OW15280   4.946   2.067   5.665
 4794SOL    HW115281   4.917   1.984   5.617
 4794SOL    HW215282   4.897   2.075   5.751
 4795SOL     OW15283   6.938   1.327   6.175
 4795SOL    HW115284   6.985   1.240   6.189
 4795SOL    HW215285   6.898   1.358   6.262
 4796SOL     OW15286   4.977   1.365   5.716
 4796SOL    HW115287   5.033   1.319   5.785
 4796SOL    HW215288   4.903   1.304   5.687
 4797SOL     OW15289   2.302   5.127   5.940
 4797SOL    HW115290   2.398   5.146   5.920
 4797SOL    HW215291   2.274   5.181   6.020
 4798SOL     OW15292   3.342   6.230   0.223
 4798SOL    HW115293   3.410   6.275   0.165
 4798SOL    HW215294   3.322   6.139   0.187
 4799SOL     OW15295   3.933   2.855   0.248
 4799SOL    HW115296   3.935   2.926   0.177
 4799SOL    HW215297   3.932   2.898   0.338
 4800SOL     OW15298   1.039   4.402   0.127
 4800SOL    HW115299   1.042   4.348   0.211
 4800SOL    HW215300   0.949   4.447   0.120
 4801SOL     OW15301   4.988   2.208   3.306
 4801SOL    HW115302   5.010   2.299   3.341
 4801SOL    HW215303   5.066   2.147   3.320
 4802SOL     OW15304   6.938   0.451   4.769
 4802SOL    HW115305   6.979   0.518   4.831
 4802SOL    HW215306   6.884   0.386   4.822
 4803SOL     OW15307   4.957   4.142   5.640
 4803SOL    HW115308   5.004   4.059   5.667
 4803SOL    HW215309   4.984   4.167   5.547
 4804SOL     OW15310   5.321   2.198   0.677
 4804SOL    HW115311   5.324   2.107   0.718
 4804SOL    HW215312   5.262   2.197   0.597
 4805SOL     OW15313   5.441   1.681   6.975
 4805SOL    HW115314   5.352   1.708   6.939
 4805SOL    HW215315   5.431   1.597   0.008
 4806SOL     OW15316   1.173   1.764   2.848
 4806SOL    HW115317   1.100   1.699   2.869
 4806SOL    HW215318   1.133   1.850   2.816
 4807SOL     OW15319   6.881   4.323   6.545
 4807SOL    HW115320   6.954   4.325   6.613
 4807SOL    HW215321   6.848   4.230   6.534
 4808SOL     OW15322   3.519   6.120   2.378
 4808SOL    HW115323   3.539   6.192   2.445
 4808SOL    HW215324   3.450   6.058   2.415
 4809SOL     OW15325   3.038   3.611   1.596
 4809SOL    HW115326   3.002   3.562   1.517
 4809SOL    HW215327   2.968   3.617   1.667
 4810SOL     OW15328   1.804   5.013   4.276
 4810SOL    HW115329   1.810   5.045   4.371
 4810SOL    HW215330   1.876   4.946   4.259
 4811SOL     OW15331   3.711   3.253   4.539
 4811SOL    HW115332   3.721   3.153   4.531
 4811SOL    HW215333   3.668   3.288   4.456
 4812SOL     OW15334   2.010   6.475   2.365
 4812SOL    HW115335   1.955   6.401   2.326
 4812SOL    HW215336   2.010   6.467   2.465
 4813SOL     OW15337   0.730   2.762   5.011
 4813SOL    HW115338   0.762   2.669   5.028
 4813SOL    HW215339   0.630   2.762   5.000
 4814SOL     OW15340   6.355   2.975   0.696
 4814SOL    HW115341   6.277   2.946   0.751
 4814SOL    HW215342   6.397   3.055   0.738
 4815SOL     OW15343   6.037   4.278   2.245
 4815SOL    HW115344   6.076   4.357   2.293
 4815SOL    HW215345   5.946   4.259   2.281
 4816SOL     OW15346   2.889   0.535   2.502
 4816SOL    HW115347   2.907   0.558   2.406
 4816SOL    HW215348   2.926   0.444   2.521
 4817SOL     OW15349   4.326   2.449   0.745
 4817SOL    HW115350   4.418   2.444   0.706
 4817SOL    HW215351   4.331   2.435   0.844
 4818SOL     OW15352   4.489   6.572   4.309
 4818SOL    HW115353   4.414   6.508   4.323
 4818SOL    HW215354   4.492   6.637   4.385
 4819SOL     OW15355   2.967   1.203   0.115
 4819SOL    HW115356   2.886   1.242   0.157
 4819SOL    HW215357   2.939   1.139   0.043
 4820SOL     OW15358   6.547   4.055   1.686
 4820SOL    HW115359   6.469   3.994   1.679
 4820SOL    HW215360   6.598   4.056   1.600
 4821SOL     OW15361   6.850   5.876   1.645
 4821SOL    HW115362   6.910   5.936   1.592
 4821SOL    HW215363   6.887   5.783   1.645
 4822SOL     OW15364   0.769   3.545   1.414
 4822SOL    HW115365   0.756   3.524   1.317
 4822SOL    HW215366   0.679   3.558   1.457
 4823SOL     OW15367   0.686   1.442   3.466
 4823SOL    HW115368   0.609   1.497   3.498
 4823SOL    HW215369   0.742   1.496   3.404
 4824SOL     OW15370   5.532   1.929   2.491
 4824SOL    HW115371   5.549   2.027   2.490
 4824SOL    HW215372   5.458   1.908   2.554
 4825SOL     OW15373   1.038   3.222   3.914
 4825SOL    HW115374   1.077   3.134   3.888
 4825SOL    HW215375   0.977   3.254   3.842
 4826SOL     OW15376   6.907   6.610   0.126
 4826SOL    HW115377   6.974   6.564   0.067
 4826SOL    HW215378   6.936   6.704   0.143
 4827SOL     OW15379   5.052   1.934   6.564
 4827SOL    HW115380   5.090   1.857   6.512
 4827SOL    HW215381   4.999   1.899   6.642
 4828SOL     OW15382   5.233   3.789   6.476
 4828SOL    HW115383   5.244   3.768   6.573
 4828SOL    HW215384   5.228   3.704   6.424
 4829SOL     OW15385   3.715   0.105   5.136
 4829SOL    HW115386   3.633   0.102   5.193
 4829SOL    HW215387   3.722   0.193   5.090
 4830SOL     OW15388   4.561   5.470   4.870
 4830SOL    HW115389   4.534   5.518   4.786
 4830SOL    HW215390   4.499   5.496   4.944
 4831SOL     OW15391   6.045   2.418   0.026
 4831SOL    HW115392   5.975   2.413   6.975
 4831SOL    HW215393   6.084   2.510   0.027
 4832SOL     OW15394   1.974   2.589   6.143
 4832SOL    HW115395   1.957   2.564   6.238
 4832SOL    HW215396   2.008   2.683   6.140
 4833SOL     OW15397   6.065   1.511   3.463
 4833SOL    HW115398   6.096   1.530   3.370
 4833SOL    HW215399   6.026   1.419   3.467
 4834SOL     OW15400   6.001   0.430   3.309
 4834SOL    HW115401   6.088   0.394   3.342
 4834SOL    HW215402   5.927   0.394   3.366
 4835SOL     OW15403   2.009   1.406   5.978
 4835SOL    HW115404   2.100   1.414   6.019
 4835SOL    HW215405   1.946   1.364   6.044
 4836SOL     OW15406   5.810   3.172   2.271
 4836SOL    HW115407   5.870   3.190   2.193
 4836SOL    HW215408   5.832   3.083   2.310
 4837SOL     OW15409   0.603   4.467   0.908
 4837SOL    HW115410   0.522   4.436   0.958
 4837SOL    HW215411   0.602   4.430   0.816
 4838SOL     OW15412   2.873   5.474   2.490
 4838SOL    HW115413   2.942   5.547   2.493
 4838SOL    HW215414   2.823   5.472   2.577
 4839SOL     OW15415   0.587   6.949   6.632
 4839SOL    HW115416   0.663   6.919   6.690
 4839SOL    HW215417   0.596   0.026   6.612
 4840SOL     OW15418   6.281   6.487   6.106
 4840SOL    HW115419   6.264   6.430   6.187
 4840SOL    HW215420   6.222   6.568   6.110
 4841SOL     OW15421   1.809   5.826   1.290
 4841SOL    HW115422   1.842   5.733   1.275
 4841SOL    HW215423   1.844   5.861   1.376
 4842SOL     OW15424   3.321   6.364   1.430
 4842SOL    HW115425   3.287   6.437   1.489
 4842SOL    HW215426   3.368   6.404   1.351
 4843SOL     OW15427   1.466   3.266   6.825
 4843SOL    HW115428   1.482   3.227   6.734
 4843SOL    HW215429   1.553   3.299   6.863
 4844SOL     OW15430   0.747   1.598   5.154
 4844SOL    HW115431   0.753   1.679   5.213
 4844SOL    HW215432   0.740   1.627   5.059
 4845SOL     OW15433   5.719   5.648   3.644
 4845SOL    HW115434   5.637   5.704   3.632
 4845SOL    HW215435   5.799   5.700   3.615
 4846SOL     OW15436   0.497   5.033   6.801
 4846SOL    HW115437   0.449   5.060   6.718
 4846SOL    HW215438   0.504   5.111   6.863
 4847SOL     OW15439   4.804   3.105   4.703
 4847SOL    HW115440   4.714   3.128   4.739
 4847SOL    HW215441   4.805   3.009   4.676
 4848SOL     OW15442   2.529   2.522   1.363
 4848SOL    HW115443   2.570   2.481   1.281
 4848SOL    HW215444   2.600   2.534   1.433
 4849SOL     OW15445   1.763   6.431   5.919
 4849SOL    HW115446   1.811   6.364   5.976
 4849SOL    HW215447   1.670   6.445   5.954
 4850SOL     OW15448   3.736   6.994   3.410
 4850SOL    HW115449   3.721   6.899   3.384
 4850SOL    HW215450   3.668   0.001   3.478
 4851SOL     OW15451   4.948   1.361   5.265
 4851SOL    HW115452   4.970   1.395   5.174
 4851SOL    HW215453   4.859   1.314   5.263
 4852SOL     OW15454   1.549   2.075   1.820
 4852SOL    HW115455   1.609   2.126   1.881
 4852SOL    HW215456   1.521   1.990   1.865
 4853SOL     OW15457   3.591   1.982   1.484
 4853SOL    HW115458   3.502   1.959   1.523
 4853SOL    HW215459   3.636   2.050   1.542
 4854SOL     OW15460   3.691   0.274   6.812
 4854SOL    HW115461   3.768   0.212   6.799
 4854SOL    HW215462   3.606   0.223   6.802
 4855SOL     OW15463   6.548   2.985   2.401
 4855SOL    HW115464   6.475   2.977   2.470
 4855SOL    HW215465   6.602   3.067   2.420
 4856SOL     OW15466   0.955   4.243   2.590
 4856SOL    HW115467   0.981   4.244   2.493
 4856SOL    HW215468   1.011   4.177   2.639
 4857SOL     OW15469   0.288   1.135   5.685
 4857SOL    HW115470   0.286   1.079   5.768
 4857SOL    HW215471   0.265   1.229   5.708
 4858SOL     OW15472   1.569   0.846   4.229
 4858SOL    HW115473   1.573   0.940   4.262
 4858SOL    HW215474   1.562   0.784   4.307
 4859SOL     OW15475   3.498   5.859   6.196
 4859SOL    HW115476   3.594   5.874   6.174
 4859SOL    HW215477   3.482   5.886   6.291
 4860SOL     OW15478   3.704   4.318   0.610
 4860SOL    HW115479   3.634   4.355   0.672
 4860SOL    HW215480   3.727   4.386   0.541
 4861SOL     OW15481   4.525   3.897   6.276
 4861SOL    HW115482   4.513   3.935   6.368
 4861SOL    HW215483   4.461   3.822   6.262
 4862SOL     OW15484   0.493   0.043   0.756
 4862SOL    HW115485   0.405   0.044   0.805
 4862SOL    HW215486   0.562   0.000   0.813
 4863SOL     OW15487   4.966   4.630   6.464
 4863SOL    HW115488   5.002   4.571   6.392
 4863SOL    HW215489   5.041   4.678   6.508
 4864SOL     OW15490   3.400   1.293   4.157
 4864SOL    HW115491   3.300   1.290   4.161
 4864SOL    HW215492   3.429   1.364   4.093
 4865SOL     OW15493   1.663   0.211   5.401
 4865SOL    HW115494   1.653   0.126   5.452
 4865SOL    HW215495   1.694   0.190   5.308
 4866SOL     OW15496   6.685   4.228   6.260
 4866SOL    HW115497   6.686   4.193   6.166
 4866SOL    HW215498   6.595   4.267   6.279
 4867SOL     OW15499   4.503   1.143   3.014
 4867SOL    HW115500   4.421   1.097   2.979
 4867SOL    HW215501   4.553   1.080   3.074
 4868SOL     OW15502   6.823   4.508   0.548
 4868SOL    HW115503   6.828   4.592   0.493
 4868SOL    HW215504   6.827   4.532   0.645
 4869SOL     OW15505   0.917   1.762   0.653
 4869SOL    HW115506   0.861   1.688   0.690
 4869SOL    HW215507   1.001   1.724   0.615
 4870SOL     OW15508   0.124   0.120   1.212
 4870SOL    HW115509   0.215   0.099   1.176
 4870SOL    HW215510   0.133   0.159   1.304
 4871SOL     OW15511   1.305   1.509   3.162
 4871SOL    HW115512   1.402   1.532   3.163
 4871SOL    HW215513   1.282   1.461   3.247
 4872SOL     OW15514   5.638   6.750   2.788
 4872SOL    HW115515   5.715   6.807   2.819
 4872SOL    HW215516   5.669   6.656   2.778
 4873SOL     OW15517   6.706   5.560   4.929
 4873SOL    HW115518   6.622   5.577   4.877
 4873SOL    HW215519   6.785   5.562   4.868
 4874SOL     OW15520   4.828   2.997   3.266
 4874SOL    HW115521   4.809   2.941   3.347
 4874SOL    HW215522   4.795   2.949   3.184
 4875SOL     OW15523   5.953   6.417   5.250
 4875SOL    HW115524   5.910   6.382   5.334
 4875SOL    HW215525   6.029   6.478   5.275
 4876SOL     OW15526   0.212   1.334   2.069
 4876SOL    HW115527   0.300   1.349   2.024
 4876SOL    HW215528   0.227   1.311   2.165
 4877SOL     OW15529   6.441   1.447   6.417
 4877SOL    HW115530   6.468   1.543   6.425
 4877SOL    HW215531   6.517   1.389   6.445
 4878SOL     OW15532   6.426   3.531   2.353
 4878SOL    HW115533   6.352   3.585   2.312
 4878SOL    HW215534   6.474   3.481   2.281
 4879SOL     OW15535   5.092   0.695   3.244
 4879SOL    HW115536   5.097   0.795   3.246
 4879SOL    HW215537   5.121   0.662   3.154
 4880SOL     OW15538   0.139   3.067   6.674
 4880SOL    HW115539   0.100   2.995   6.731
 4880SOL    HW215540   0.066   3.109   6.619
 4881SOL     OW15541   1.598   2.962   1.606
 4881SOL    HW115542   1.695   2.964   1.627
 4881SOL    HW215543   1.562   2.870   1.622
 4882SOL     OW15544   4.839   2.452   4.085
 4882SOL    HW115545   4.915   2.495   4.037
 4882SOL    HW215546   4.874   2.383   4.148
 4883SOL     OW15547   6.276   4.367   0.413
 4883SOL    HW115548   6.204   4.389   0.479
 4883SOL    HW215549   6.365   4.366   0.458
 4884SOL     OW15550   1.631   1.263   1.652
 4884SOL    HW115551   1.730   1.273   1.646
 4884SOL    HW215552   1.587   1.331   1.593
 4885SOL     OW15553   1.470   4.608   6.868
 4885SOL    HW115554   1.480   4.516   6.830
 4885SOL    HW215555   1.394   4.654   6.823
 4886SOL     OW15556   3.004   0.616   2.262
 4886SOL    HW115557   3.096   0.653   2.277
 4886SOL    HW215558   2.937   0.690   2.264
 4887SOL     OW15559   4.542   6.137   0.333
 4887SOL    HW115560   4.462   6.159   0.277
 4887SOL    HW215561   4.616   6.104   0.274
 4888SOL     OW15562   4.434   0.555   3.121
 4888SOL    HW115563   4.406   0.495   3.196
 4888SOL    HW215564   4.414   0.650   3.146
 4889SOL     OW15565   6.489   3.227   3.549
 4889SOL    HW115566   6.444   3.157   3.605
 4889SOL    HW215567   6.584   3.237   3.579
 4890SOL     OW15568   6.715   1.766   4.850
 4890SOL    HW115569   6.809   1.734   4.863
 4890SOL    HW215570   6.660   1.741   4.930
 4891SOL     OW15571   2.682   5.623   0.315
 4891SOL    HW115572   2.677   5.542   0.373
 4891SOL    HW215573   2.600   5.627   0.257
 4892SOL     OW15574   5.166   4.774   2.991
 4892SOL    HW115575   5.204   4.708   2.926
 4892SOL    HW215576   5.239   4.831   3.028
 4893SOL     OW15577   1.320   3.184   0.846
 4893SOL    HW115578   1.383   3.242   0.795
 4893SOL    HW215579   1.277   3.236   0.919
 4894SOL     OW15580   4.780   6.046   1.331
 4894SOL    HW115581   4.702   5.990   1.359
 4894SOL    HW215582   4.824   6.005   1.251
 4895SOL     OW15583   0.262   4.119   5.325
 4895SOL    HW115584   0.341   4.180   5.333
 4895SOL    HW215585   0.232   4.090   5.416
 4896SOL     OW15586   2.877   5.169   4.987
 4896SOL    HW115587   2.877   5.073   5.015
 4896SOL    HW215588   2.972   5.202   4.984
 4897SOL     OW15589   1.807   0.996   5.016
 4897SOL    HW115590   1.876   1.048   5.066
 4897SOL    HW215591   1.852   0.930   4.955
 4898SOL     OW15592   4.909   2.014   3.956
 4898SOL    HW115593   4.925   2.060   3.869
 4898SOL    HW215594   4.926   1.916   3.946
 4899SOL     OW15595   6.196   6.494   2.061
 4899SOL    HW115596   6.097   6.496   2.048
 4899SOL    HW215597   6.225   6.575   2.111
 4900SOL     OW15598   3.754   5.946   6.160
 4900SOL    HW115599   3.752   5.935   6.060
 4900SOL    HW215600   3.821   6.017   6.184
 4901SOL     OW15601   1.528   0.701   6.677
 4901SOL    HW115602   1.624   0.683   6.696
 4901SOL    HW215603   1.507   0.797   6.695
 4902SOL     OW15604   3.003   0.282   5.594
 4902SOL    HW115605   2.961   0.229   5.520
 4902SOL    HW215606   3.070   0.225   5.642
 4903SOL     OW15607   5.133   3.394   3.039
 4903SOL    HW115608   5.101   3.300   3.030
 4903SOL    HW215609   5.190   3.402   3.121
 4904SOL     OW15610   1.618   0.726   1.507
 4904SOL    HW115611   1.642   0.811   1.460
 4904SOL    HW215612   1.556   0.672   1.450
 4905SOL     OW15613   2.365   0.231   2.862
 4905SOL    HW115614   2.414   0.236   2.775
 4905SOL    HW215615   2.412   0.287   2.931
 4906SOL     OW15616   5.341   3.710   5.044
 4906SOL    HW115617   5.277   3.702   4.968
 4906SOL    HW215618   5.338   3.626   5.099
 4907SOL     OW15619   4.038   2.578   0.111
 4907SOL    HW115620   3.990   2.652   0.063
 4907SOL    HW215621   4.127   2.612   0.141
 4908SOL     OW15622   3.518   6.774   6.449
 4908SOL    HW115623   3.561   6.818   6.527
 4908SOL    HW215624   3.564   6.687   6.430
 4909SOL     OW15625   4.972   5.016   4.156
 4909SOL    HW115626   5.063   5.017   4.115
 4909SOL    HW215627   4.903   5.034   4.085
 4910SOL     OW15628   4.160   2.236   6.728
 4910SOL    HW115629   4.066   2.220   6.697
 4910SOL    HW215630   4.159   2.283   6.817
 4911SOL     OW15631   6.415   4.130   2.462
 4911SOL    HW115632   6.349   4.056   2.452
 4911SOL    HW215633   6.407   4.172   2.552
 4912SOL     OW15634   5.749   2.527   4.658
 4912SOL    HW115635   5.691   2.601   4.692
 4912SOL    HW215636   5.769   2.541   4.562
 4913SOL     OW15637   0.494   3.983   4.515
 4913SOL    HW115638   0.433   4.049   4.470
 4913SOL    HW215639   0.532   3.920   4.447
 4914SOL     OW15640   3.831   0.079   4.279
 4914SOL    HW115641   3.777   0.152   4.236
 4914SOL    HW215642   3.881   0.029   4.209
 4915SOL     OW15643   4.059   5.580   5.754
 4915SOL    HW115644   4.031   5.661   5.806
 4915SOL    HW215645   3.981   5.518   5.745
 4916SOL     OW15646   5.249   2.040   3.812
 4916SOL    HW115647   5.283   2.117   3.866
 4916SOL    HW215648   5.218   2.073   3.723
 4917SOL     OW15649   3.974   6.608   6.477
 4917SOL    HW115650   3.951   6.579   6.569
 4917SOL    HW215651   4.074   6.604   6.465
 4918SOL     OW15652   5.606   5.097   3.668
 4918SOL    HW115653   5.701   5.121   3.652
 4918SOL    HW215654   5.585   5.011   3.622
 4919SOL     OW15655   3.394   3.561   2.144
 4919SOL    HW115656   3.481   3.517   2.122
 4919SOL    HW215657   3.409   3.658   2.163
 4920SOL     OW15658   5.973   1.635   6.322
 4920SOL    HW115659   6.053   1.576   6.317
 4920SOL    HW215660   5.991   1.711   6.385
 4921SOL     OW15661   6.856   6.486   1.657
 4921SOL    HW115662   6.767   6.441   1.660
 4921SOL    HW215663   6.892   6.496   1.750
 4922SOL     OW15664   3.844   1.781   6.045
 4922SOL    HW115665   3.762   1.775   6.102
 4922SOL    HW215666   3.923   1.801   6.102
 4923SOL     OW15667   3.562   1.711   1.602
 4923SOL    HW115668   3.656   1.689   1.627
 4923SOL    HW215669   3.561   1.793   1.545
 4924SOL     OW15670   2.256   0.649   5.300
 4924SOL    HW115671   2.343   0.599   5.302
 4924SOL    HW215672   2.241   0.685   5.208
 4925SOL     OW15673   4.835   5.585   3.361
 4925SOL    HW115674   4.890   5.513   3.319
 4925SOL    HW215675   4.895   5.651   3.405
 4926SOL     OW15676   5.628   2.852   1.700
 4926SOL    HW115677   5.605   2.822   1.607
 4926SOL    HW215678   5.563   2.921   1.730
 4927SOL     OW15679   2.654   1.668   7.009
 4927SOL    HW115680   2.753   1.683   7.001
 4927SOL    HW215681   2.636   1.596   0.056
 4928SOL     OW15682   6.947   1.706   0.286
 4928SOL    HW115683   6.883   1.685   0.360
 4928SOL    HW215684   6.976   1.621   0.243
 4929SOL     OW15685   0.094   0.269   4.670
 4929SOL    HW115686   0.060   0.198   4.732
 4929SOL    HW215687   0.038   0.351   4.680
 4930SOL     OW15688   4.988   5.647   2.725
 4930SOL    HW115689   4.927   5.684   2.654
 4930SOL    HW215690   5.040   5.722   2.766
 4931SOL     OW15691   6.453   0.194   1.185
 4931SOL    HW115692   6.540   0.188   1.233
 4931SOL    HW215693   6.379   0.162   1.245
 4932SOL     OW15694   3.318   3.245   2.664
 4932SOL    HW115695   3.237   3.196   2.695
 4932SOL    HW215696   3.369   3.280   2.743
 4933SOL     OW15697   0.960   0.548   5.556
 4933SOL    HW115698   0.944   0.512   5.464
 4933SOL    HW215699   0.934   0.645   5.559
 4934SOL     OW15700   3.388   6.926   2.631
 4934SOL    HW115701   3.453   6.990   2.589
 4934SOL    HW215702   3.295   6.951   2.606
 4935SOL     OW15703   0.588   0.891   5.224
 4935SOL    HW115704   0.667   0.840   5.259
 4935SOL    HW215705   0.510   0.829   5.216
 4936SOL     OW15706   4.860   2.359   0.888
 4936SOL    HW115707   4.770   2.355   0.930
 4936SOL    HW215708   4.914   2.280   0.916
 4937SOL     OW15709   4.254   2.861   5.463
 4937SOL    HW115710   4.178   2.796   5.468
 4937SOL    HW215711   4.225   2.943   5.414
 4938SOL     OW15712   3.668   4.295   6.622
 4938SOL    HW115713   3.667   4.242   6.707
 4938SOL    HW215714   3.761   4.296   6.584
 4939SOL     OW15715   4.541   4.254   6.484
 4939SOL    HW115716   4.533   4.244   6.385
 4939SOL    HW215717   4.536   4.351   6.508
 4940SOL     OW15718   2.527   5.708   3.943
 4940SOL    HW115719   2.509   5.652   4.024
 4940SOL    HW215720   2.557   5.649   3.868
 4941SOL     OW15721   6.008   0.510   0.901
 4941SOL    HW115722   5.938   0.514   0.972
 4941SOL    HW215723   5.992   0.583   0.835
 4942SOL     OW15724   4.637   2.930   6.028
 4942SOL    HW115725   4.733   2.956   6.041
 4942SOL    HW215726   4.587   2.946   6.113
 4943SOL     OW15727   5.641   2.859   1.189
 4943SOL    HW115728   5.718   2.812   1.146
 4943SOL    HW215729   5.560   2.850   1.132
 4944SOL     OW15730   2.231   4.015   1.950
 4944SOL    HW115731   2.309   4.013   1.887
 4944SOL    HW215732   2.261   4.046   2.040
 4945SOL     OW15733   6.902   6.102   4.295
 4945SOL    HW115734   6.943   6.181   4.251
 4945SOL    HW215735   6.966   6.025   4.293
 4946SOL     OW15736   0.087   3.905   2.255
 4946SOL    HW115737   7.010   3.917   2.237
 4946SOL    HW215738   0.103   3.812   2.287
 4947SOL     OW15739   6.460   0.369   0.958
 4947SOL    HW115740   6.435   0.307   1.032
 4947SOL    HW215741   6.513   0.446   0.995
 4948SOL     OW15742   2.359   1.100   2.408
 4948SOL    HW115743   2.316   1.178   2.454
 4948SOL    HW215744   2.291   1.051   2.355
 4949SOL     OW15745   5.311   2.557   4.905
 4949SOL    HW115746   5.281   2.508   4.987
 4949SOL    HW215747   5.360   2.495   4.845
 4950SOL     OW15748   3.515   4.950   4.913
 4950SOL    HW115749   3.556   4.955   4.823
 4950SOL    HW215750   3.559   5.016   4.974
 4951SOL     OW15751   4.207   1.783   3.980
 4951SOL    HW115752   4.270   1.856   3.954
 4951SOL    HW215753   4.113   1.819   3.981
 4952SOL     OW15754   6.990   4.627   4.228
 4952SOL    HW115755   6.912   4.688   4.236
 4952SOL    HW215756   6.985   4.557   4.299
 4953SOL     OW15757   1.311   4.681   2.047
 4953SOL    HW115758   1.368   4.761   2.062
 4953SOL    HW215759   1.342   4.606   2.105
 4954SOL     OW15760   6.118   6.080   0.539
 4954SOL    HW115761   6.107   6.058   0.636
 4954SOL    HW215762   6.193   6.146   0.528
 4955SOL     OW15763   1.764   0.904   1.331
 4955SOL    HW115764   1.720   0.984   1.372
 4955SOL    HW215765   1.756   0.908   1.232
 4956SOL     OW15766   6.167   6.783   3.438
 4956SOL    HW115767   6.114   6.743   3.363
 4956SOL    HW215768   6.258   6.741   3.440
 4957SOL     OW15769   2.005   5.738   3.721
 4957SOL    HW115770   2.087   5.765   3.771
 4957SOL    HW215771   2.001   5.788   3.634
 4958SOL     OW15772   0.091   6.487   6.997
 4958SOL    HW115773   0.131   6.412   0.028
 4958SOL    HW215774   0.047   6.452   6.914
 4959SOL     OW15775   0.463   1.748   6.968
 4959SOL    HW115776   0.537   1.739   6.901
 4959SOL    HW215777   0.432   1.657   6.997
 4960SOL     OW15778   4.212   0.053   5.954
 4960SOL    HW115779   4.190   6.996   5.895
 4960SOL    HW215780   4.311   0.061   5.963
 4961SOL     OW15781   4.993   0.710   5.686
 4961SOL    HW115782   5.062   0.779   5.710
 4961SOL    HW215783   4.903   0.740   5.719
 4962SOL     OW15784   6.825   2.400   2.275
 4962SOL    HW115785   6.831   2.449   2.362
 4962SOL    HW215786   6.734   2.361   2.265
 4963SOL     OW15787   6.960   4.762   1.222
 4963SOL    HW115788   6.966   4.662   1.216
 4963SOL    HW215789   6.989   4.792   1.313
 4964SOL     OW15790   3.796   6.499   3.417
 4964SOL    HW115791   3.817   6.581   3.364
 4964SOL    HW215792   3.750   6.432   3.359
 4965SOL     OW15793   6.889   6.240   4.534
 4965SOL    HW115794   6.936   6.195   4.610
 4965SOL    HW215795   6.919   6.199   4.448
 4966SOL     OW15796   4.217   5.153   4.564
 4966SOL    HW115797   4.231   5.227   4.631
 4966SOL    HW215798   4.135   5.172   4.511
 4967SOL     OW15799   5.990   2.123   6.790
 4967SOL    HW115800   6.042   2.042   6.764
 4967SOL    HW215801   5.957   2.113   6.884
 4968SOL     OW15802   5.441   4.329   6.923
 4968SOL    HW115803   5.377   4.349   6.849
 4968SOL    HW215804   5.532   4.361   6.899
 4969SOL     OW15805   1.378   1.875   1.133
 4969SOL    HW115806   1.445   1.851   1.204
 4969SOL    HW215807   1.323   1.952   1.164
 4970SOL     OW15808   1.860   2.565   5.744
 4970SOL    HW115809   1.910   2.649   5.763
 4970SOL    HW215810   1.763   2.580   5.764
 4971SOL     OW15811   6.748   5.330   3.850
 4971SOL    HW115812   6.699   5.263   3.795
 4971SOL    HW215813   6.792   5.285   3.928
 4972SOL     OW15814   1.690   2.077   5.379
 4972SOL    HW115815   1.722   2.115   5.293
 4972SOL    HW215816   1.634   2.146   5.426
 4973SOL     OW15817   5.547   5.392   2.972
 4973SOL    HW115818   5.586   5.317   2.919
 4973SOL    HW215819   5.468   5.359   3.024
 4974SOL     OW15820   3.947   6.484   6.725
 4974SOL    HW115821   3.977   6.533   6.807
 4974SOL    HW215822   3.907   6.396   6.751
 4975SOL     OW15823   3.949   6.411   0.293
 4975SOL    HW115824   3.954   6.358   0.208
 4975SOL    HW215825   3.891   6.491   0.279
 4976SOL     OW15826   2.935   0.705   4.217
 4976SOL    HW115827   2.878   0.702   4.135
 4976SOL    HW215828   3.028   0.676   4.193
 4977SOL     OW15829   3.216   2.435   0.702
 4977SOL    HW115830   3.299   2.388   0.673
 4977SOL    HW215831   3.140   2.407   0.645
 4978SOL     OW15832   6.001   4.262   6.471
 4978SOL    HW115833   6.058   4.180   6.473
 4978SOL    HW215834   6.058   4.343   6.486
 4979SOL     OW15835   1.635   2.003   4.388
 4979SOL    HW115836   1.567   2.074   4.369
 4979SOL    HW215837   1.591   1.913   4.388
 4980SOL     OW15838   2.278   4.623   2.965
 4980SOL    HW115839   2.180   4.611   2.949
 4980SOL    HW215840   2.323   4.534   2.967
 4981SOL     OW15841   4.988   6.322   5.237
 4981SOL    HW115842   4.993   6.250   5.168
 4981SOL    HW215843   5.069   6.381   5.229
 4982SOL     OW15844   2.627   2.430   6.883
 4982SOL    HW115845   2.670   2.429   6.792
 4982SOL    HW215846   2.675   2.368   6.944
 4983SOL     OW15847   6.303   3.066   4.977
 4983SOL    HW115848   6.249   3.075   5.060
 4983SOL    HW215849   6.397   3.040   5.001
 4984SOL     OW15850   5.113   4.024   3.345
 4984SOL    HW115851   5.169   4.079   3.282
 4984SOL    HW215852   5.017   4.047   3.332
 4985SOL     OW15853   5.718   4.049   2.010
 4985SOL    HW115854   5.657   3.980   1.973
 4985SOL    HW215855   5.813   4.026   1.985
 4986SOL     OW15856   4.411   4.561   3.038
 4986SOL    HW115857   4.491   4.621   3.046
 4986SOL    HW215858   4.418   4.509   2.953
 4987SOL     OW15859   0.830   3.364   0.555
 4987SOL    HW115860   0.791   3.334   0.642
 4987SOL    HW215861   0.877   3.287   0.511
 4988SOL     OW15862   1.819   2.189   5.129
 4988SOL    HW115863   1.892   2.218   5.191
 4988SOL    HW215864   1.846   2.103   5.085
 4989SOL     OW15865   6.868   1.249   0.755
 4989SOL    HW115866   6.797   1.310   0.788
 4989SOL    HW215867   6.931   1.299   0.696
 4990SOL     OW15868   1.642   2.449   6.054
 4990SOL    HW115869   1.734   2.419   6.029
 4990SOL    HW215870   1.627   2.436   6.152
 4991SOL     OW15871   2.834   1.769   5.321
 4991SOL    HW115872   2.814   1.671   5.322
 4991SOL    HW215873   2.821   1.805   5.229
 4992SOL     OW15874   4.767   6.728   4.554
 4992SOL    HW115875   4.670   6.752   4.551
 4992SOL    HW215876   4.822   6.808   4.527
 4993SOL     OW15877   1.826   6.210   4.133
 4993SOL    HW115878   1.753   6.208   4.201
 4993SOL    HW215879   1.914   6.208   4.179
 4994SOL     OW15880   0.546   6.558   2.841
 4994SOL    HW115881   0.623   6.596   2.789
 4994SOL    HW215882   0.475   6.627   2.850
 4995SOL     OW15883   5.706   2.841   5.304
 4995SOL    HW115884   5.608   2.848   5.289
 4995SOL    HW215885   5.740   2.925   5.345
 4996SOL     OW15886   0.562   1.688   3.528
 4996SOL    HW115887   0.572   1.654   3.622
 4996SOL    HW215888   0.617   1.771   3.517
 4997SOL     OW15889   0.339   2.354   3.949
 4997SOL    HW115890   0.240   2.371   3.945
 4997SOL    HW215891   0.357   2.257   3.935
 4998SOL     OW15892   0.830   5.711   5.646
 4998SOL    HW115893   0.878   5.626   5.666
 4998SOL    HW215894   0.733   5.693   5.633
 4999SOL     OW15895   6.084   4.352   0.719
 4999SOL    HW115896   5.987   4.374   0.716
 4999SOL    HW215897   6.126   4.393   0.800
 5000SOL     OW15898   0.116   5.096   4.361
 5000SOL    HW115899   0.151   5.012   4.320
 5000SOL    HW215900   0.030   5.121   4.317
 5001SOL     OW15901   5.213   4.166   5.771
 5001SOL    HW115902   5.244   4.073   5.748
 5001SOL    HW215903   5.131   4.188   5.718
 5002SOL     OW15904   1.787   2.712   1.422
 5002SOL    HW115905   1.698   2.696   1.465
 5002SOL    HW215906   1.829   2.794   1.461
 5003SOL     OW15907   6.625   4.945   4.198
 5003SOL    HW115908   6.566   5.004   4.254
 5003SOL    HW215909   6.630   4.981   4.105
 5004SOL     OW15910   2.265   4.731   5.937
 5004SOL    HW115911   2.194   4.797   5.912
 5004SOL    HW215912   2.348   4.780   5.961
 5005SOL     OW15913   4.717   1.795   0.581
 5005SOL    HW115914   4.745   1.881   0.538
 5005SOL    HW215915   4.618   1.794   0.592
 5006SOL     OW15916   5.467   4.456   2.342
 5006SOL    HW115917   5.411   4.397   2.283
 5006SOL    HW215918   5.563   4.430   2.334
 5007SOL     OW15919   4.642   1.238   5.232
 5007SOL    HW115920   4.637   1.335   5.206
 5007SOL    HW215921   4.647   1.182   5.149
 5008SOL     OW15922   6.318   0.712   3.503
 5008SOL    HW115923   6.366   0.693   3.589
 5008SOL    HW215924   6.234   0.763   3.522
 5009SOL     OW15925   1.857   5.756   2.010
 5009SOL    HW115926   1.908   5.721   2.088
 5009SOL    HW215927   1.831   5.851   2.027
 5010SOL     OW15928   3.623   3.337   5.851
 5010SOL    HW115929   3.602   3.283   5.769
 5010SOL    HW215930   3.553   3.321   5.920
 5011SOL     OW15931   1.541   1.951   3.513
 5011SOL    HW115932   1.568   2.047   3.510
 5011SOL    HW215933   1.557   1.915   3.605
 5012SOL     OW15934   5.843   3.143   6.835
 5012SOL    HW115935   5.878   3.128   6.743
 5012SOL    HW215936   5.891   3.219   6.877
 5013SOL     OW15937   4.605   2.267   5.792
 5013SOL    HW115938   4.539   2.300   5.859
 5013SOL    HW215939   4.624   2.339   5.725
 5014SOL     OW15940   6.918   5.642   6.952
 5014SOL    HW115941   6.830   5.602   6.928
 5014SOL    HW215942   6.913   5.681   0.023
 5015SOL     OW15943   5.511   1.820   3.260
 5015SOL    HW115944   5.557   1.796   3.346
 5015SOL    HW215945   5.432   1.878   3.279
 5016SOL     OW15946   2.494   6.230   2.252
 5016SOL    HW115947   2.414   6.289   2.242
 5016SOL    HW215948   2.540   6.251   2.339
 5017SOL     OW15949   1.127   1.861   2.093
 5017SOL    HW115950   1.066   1.882   2.017
 5017SOL    HW215951   1.197   1.931   2.100
 5018SOL     OW15952   6.780   4.701   3.575
 5018SOL    HW115953   6.788   4.754   3.660
 5018SOL    HW215954   6.708   4.633   3.585
 5019SOL     OW15955   2.320   5.129   5.561
 5019SOL    HW115956   2.287   5.151   5.469
 5019SOL    HW215957   2.420   5.134   5.561
 5020SOL     OW15958   4.254   5.514   6.763
 5020SOL    HW115959   4.211   5.427   6.787
 5020SOL    HW215960   4.325   5.498   6.695
 5021SOL     OW15961   2.069   4.458   5.832
 5021SOL    HW115962   1.970   4.466   5.830
 5021SOL    HW215963   2.095   4.371   5.874
 5022SOL     OW15964   2.452   3.731   0.558
 5022SOL    HW115965   2.411   3.784   0.483
 5022SOL    HW215966   2.514   3.663   0.521
 5023SOL     OW15967   0.393   2.980   4.500
 5023SOL    HW115968   0.368   3.076   4.516
 5023SOL    HW215969   0.311   2.926   4.483
 5024SOL     OW15970   4.783   3.558   5.587
 5024SOL    HW115971   4.701   3.554   5.531
 5024SOL    HW215972   4.760   3.591   5.679
 5025SOL     OW15973   6.324   0.815   4.191
 5025SOL    HW115974   6.300   0.912   4.186
 5025SOL    HW215975   6.309   0.781   4.284
 5026SOL     OW15976   1.015   5.692   3.169
 5026SOL    HW115977   1.006   5.618   3.236
 5026SOL    HW215978   1.067   5.660   3.091
 5027SOL     OW15979   1.105   5.972   3.837
 5027SOL    HW115980   1.014   5.980   3.877
 5027SOL    HW215981   1.097   5.949   3.740
 5028SOL     OW15982   0.959   6.688   2.932
 5028SOL    HW115983   1.027   6.719   2.865
 5028SOL    HW215984   1.000   6.689   3.024
 5029SOL     OW15985   6.716   0.906   3.627
 5029SOL    HW115986   6.714   1.000   3.593
 5029SOL    HW215987   6.804   0.865   3.605
 5030SOL     OW15988   1.501   5.931   0.085
 5030SOL    HW115989   1.551   6.017   0.071
 5030SOL    HW215990   1.468   5.926   0.179
 5031SOL     OW15991   5.445   0.787   6.951
 5031SOL    HW115992   5.482   0.694   6.943
 5031SOL    HW215993   5.450   0.833   6.863
 5032SOL     OW15994   1.898   5.498   2.537
 5032SOL    HW115995   1.847   5.569   2.490
 5032SOL    HW215996   1.865   5.488   2.630
 5033SOL     OW15997   0.722   4.312   4.590
 5033SOL    HW115998   0.684   4.263   4.668
 5033SOL    HW215999   0.699   4.264   4.505
 5034SOL     OW16000   6.621   3.566   6.066
 5034SOL    HW116001   6.610   3.486   6.125
 5034SOL    HW216002   6.676   3.542   5.986
 5035SOL     OW16003   6.909   4.198   1.323
 5035SOL    HW116004   6.885   4.262   1.251
 5035SOL    HW216005   6.951   4.116   1.283
 5036SOL     OW16006   1.456   0.828   2.445
 5036SOL    HW116007   1.434   0.790   2.355
 5036SOL    HW216008   1.391   0.901   2.467
 5037SOL     OW16009   4.837   3.038   2.679
 5037SOL    HW116010   4.900   3.055   2.603
 5037SOL    HW216011   4.828   3.121   2.734
 5038SOL     OW16012   3.029   5.562   5.425
 5038SOL    HW116013   3.067   5.580   5.515
 5038SOL    HW216014   3.082   5.491   5.379
 5039SOL     OW16015   1.770   2.439   2.576
 5039SOL    HW116016   1.793   2.536   2.580
 5039SOL    HW216017   1.822   2.396   2.502
 5040SOL     OW16018   3.084   3.391   5.957
 5040SOL    HW116019   3.015   3.408   5.887
 5040SOL    HW216020   3.057   3.435   6.043
 5041SOL     OW16021   0.136   5.393   1.099
 5041SOL    HW116022   0.064   5.347   1.151
 5041SOL    HW216023   0.201   5.325   1.064
 5042SOL     OW16024   6.174   1.606   5.861
 5042SOL    HW116025   6.088   1.624   5.813
 5042SOL    HW216026   6.159   1.531   5.926
 5043SOL     OW16027   5.296   6.418   4.123
 5043SOL    HW116028   5.295   6.454   4.216
 5043SOL    HW216029   5.203   6.416   4.086
 5044SOL     OW16030   5.834   4.946   2.017
 5044SOL    HW116031   5.835   4.854   1.978
 5044SOL    HW216032   5.875   5.010   1.952
 5045SOL     OW16033   6.155   3.349   5.020
 5045SOL    HW116034   6.181   3.298   5.102
 5045SOL    HW216035   6.168   3.291   4.940
 5046SOL     OW16036   3.905   3.362   5.753
 5046SOL    HW116037   3.808   3.341   5.765
 5046SOL    HW216038   3.959   3.287   5.792
 5047SOL     OW16039   0.596   1.830   1.975
 5047SOL    HW116040   0.652   1.751   1.951
 5047SOL    HW216041   0.639   1.881   2.049
 5048SOL     OW16042   5.756   3.683   1.031
 5048SOL    HW116043   5.705   3.704   1.115
 5048SOL    HW216044   5.728   3.746   0.958
 5049SOL     OW16045   0.996   1.867   1.336
 5049SOL    HW116046   1.029   1.948   1.287
 5049SOL    HW216047   0.909   1.887   1.380
 5050SOL     OW16048   1.890   4.241   0.120
 5050SOL    HW116049   1.976   4.220   0.073
 5050SOL    HW216050   1.879   4.179   0.198
 5051SOL     OW16051   2.707   3.691   6.423
 5051SOL    HW116052   2.668   3.600   6.440
 5051SOL    HW216053   2.640   3.748   6.376
 5052SOL     OW16054   5.795   2.798   0.487
 5052SOL    HW116055   5.866   2.763   0.548
 5052SOL    HW216056   5.806   2.757   0.396
 5053SOL     OW16057   1.760   3.984   0.977
 5053SOL    HW116058   1.783   4.012   0.883
 5053SOL    HW216059   1.844   3.980   1.031
 5054SOL     OW16060   4.160   5.908   5.631
 5054SOL    HW116061   4.111   5.910   5.544
 5054SOL    HW216062   4.100   5.941   5.704
 5055SOL     OW16063   1.276   1.130   4.196
 5055SOL    HW116064   1.334   1.073   4.138
 5055SOL    HW216065   1.194   1.157   4.146
 5056SOL     OW16066   3.223   2.025   5.784
 5056SOL    HW116067   3.271   2.111   5.765
 5056SOL    HW216068   3.203   2.020   5.882
 5057SOL     OW16069   0.220   3.997   3.254
 5057SOL    HW116070   0.259   3.907   3.237
 5057SOL    HW216071   0.138   3.987   3.310
 5058SOL     OW16072   3.547   1.937   0.456
 5058SOL    HW116073   3.476   2.000   0.426
 5058SOL    HW216074   3.622   1.937   0.390
 5059SOL     OW16075   5.073   2.225   2.555
 5059SOL    HW116076   5.083   2.323   2.567
 5059SOL    HW216077   5.079   2.202   2.458
 5060SOL     OW16078   0.017   3.842   5.052
 5060SOL    HW116079   0.015   3.743   5.044
 5060SOL    HW216080   0.106   3.871   5.086
 5061SOL     OW16081   4.125   2.923   6.125
 5061SOL    HW116082   4.123   2.867   6.207
 5061SOL    HW216083   4.160   2.868   6.048
 5062SOL     OW16084   5.314   1.237   3.061
 5062SOL    HW116085   5.363   1.312   3.106
 5062SOL    HW216086   5.345   1.150   3.098
 5063SOL     OW16087   0.577   1.543   1.355
 5063SOL    HW116088   0.643   1.597   1.406
 5063SOL    HW216089   0.486   1.583   1.366
 5064SOL     OW16090   5.567   4.642   1.479
 5064SOL    HW116091   5.548   4.556   1.527
 5064SOL    HW216092   5.569   4.626   1.380
 5065SOL     OW16093   2.221   1.653   2.199
 5065SOL    HW116094   2.247   1.631   2.294
 5065SOL    HW216095   2.204   1.752   2.192
 5066SOL     OW16096   1.424   5.193   2.564
 5066SOL    HW116097   1.379   5.220   2.649
 5066SOL    HW216098   1.494   5.260   2.540
 5067SOL     OW16099   5.589   2.804   1.446
 5067SOL    HW116100   5.616   2.848   1.360
 5067SOL    HW216101   5.507   2.750   1.431
 5068SOL     OW16102   1.480   6.355   1.175
 5068SOL    HW116103   1.550   6.303   1.224
 5068SOL    HW216104   1.473   6.321   1.081
 5069SOL     OW16105   4.638   5.296   5.926
 5069SOL    HW116106   4.608   5.269   5.835
 5069SOL    HW216107   4.573   5.361   5.964
 5070SOL     OW16108   5.947   3.392   5.801
 5070SOL    HW116109   6.023   3.418   5.860
 5070SOL    HW216110   5.955   3.296   5.776
 5071SOL     OW16111   2.453   6.157   2.925
 5071SOL    HW116112   2.479   6.069   2.885
 5071SOL    HW216113   2.511   6.176   3.005
 5072SOL     OW16114   0.913   1.399   1.950
 5072SOL    HW116115   0.900   1.325   1.883
 5072SOL    HW216116   0.899   1.363   2.042
 5073SOL     OW16117   1.657   1.134   3.392
 5073SOL    HW116118   1.561   1.106   3.382
 5073SOL    HW216119   1.663   1.233   3.380
 5074SOL     OW16120   3.415   2.069   1.288
 5074SOL    HW116121   3.355   2.132   1.338
 5074SOL    HW216122   3.478   2.025   1.352
 5075SOL     OW16123   6.404   2.516   0.456
 5075SOL    HW116124   6.443   2.469   0.535
 5075SOL    HW216125   6.394   2.451   0.380
 5076SOL     OW16126   7.010   0.954   5.814
 5076SOL    HW116127   6.944   0.994   5.876
 5076SOL    HW216128   0.080   0.955   5.856
 5077SOL     OW16129   1.147   4.160   3.848
 5077SOL    HW116130   1.088   4.079   3.855
 5077SOL    HW216131   1.155   4.187   3.753
 5078SOL     OW16132   6.324   2.308   3.336
 5078SOL    HW116133   6.238   2.350   3.365
 5078SOL    HW216134   6.332   2.217   3.377
 5079SOL     OW16135   1.536   3.888   4.705
 5079SOL    HW116136   1.452   3.834   4.709
 5079SOL    HW216137   1.595   3.851   4.633
 5080SOL     OW16138   6.586   5.691   0.080
 5080SOL    HW116139   6.592   5.652   7.008
 5080SOL    HW216140   6.633   5.779   0.082
 5081SOL     OW16141   2.309   4.913   5.288
 5081SOL    HW116142   2.305   4.813   5.283
 5081SOL    HW216143   2.223   4.948   5.326
 5082SOL     OW16144   5.557   6.391   1.776
 5082SOL    HW116145   5.498   6.472   1.782
 5082SOL    HW216146   5.641   6.408   1.827
 5083SOL     OW16147   1.850   6.987   3.853
 5083SOL    HW116148   1.761   7.018   3.885
 5083SOL    HW216149   1.838   6.908   3.792
 5084SOL     OW16150   3.761   4.728   5.690
 5084SOL    HW116151   3.734   4.810   5.639
 5084SOL    HW216152   3.741   4.741   5.787
 5085SOL     OW16153   0.344   4.435   5.609
 5085SOL    HW116154   0.264   4.486   5.579
 5085SOL    HW216155   0.426   4.492   5.599
 5086SOL     OW16156   0.942   4.699   2.634
 5086SOL    HW116157   0.940   4.697   2.534
 5086SOL    HW216158   1.037   4.699   2.665
 5087SOL     OW16159   0.313   4.918   1.761
 5087SOL    HW116160   0.342   4.979   1.687
 5087SOL    HW216161   0.383   4.918   1.833
 5088SOL     OW16162   5.069   5.145   2.540
 5088SOL    HW116163   5.145   5.185   2.592
 5088SOL    HW216164   5.045   5.207   2.465
 5089SOL     OW16165   5.254   6.496   6.237
 5089SOL    HW116166   5.323   6.536   6.176
 5089SOL    HW216167   5.166   6.539   6.221
 5090SOL     OW16168   2.458   6.736   4.580
 5090SOL    HW116169   2.402   6.801   4.631
 5090SOL    HW216170   2.448   6.645   4.620
 5091SOL     OW16171   6.629   6.622   6.070
 5091SOL    HW116172   6.556   6.670   6.118
 5091SOL    HW216173   6.634   6.652   5.975
 5092SOL     OW16174   4.020   3.854   4.000
 5092SOL    HW116175   4.065   3.768   4.021
 5092SOL    HW216176   4.009   3.908   4.083
 5093SOL     OW16177   2.835   2.206   3.133
 5093SOL    HW116178   2.781   2.272   3.185
 5093SOL    HW216179   2.922   2.190   3.181
 5094SOL     OW16180   2.291   6.060   5.177
 5094SOL    HW116181   2.243   6.136   5.134
 5094SOL    HW216182   2.360   6.024   5.113
 5095SOL     OW16183   0.249   1.384   3.490
 5095SOL    HW116184   0.280   1.358   3.582
 5095SOL    HW216185   0.203   1.473   3.494
 5096SOL     OW16186   6.559   3.250   6.042
 5096SOL    HW116187   6.602   3.270   5.954
 5096SOL    HW216188   6.619   3.279   6.116
 5097SOL     OW16189   0.668   1.197   5.780
 5097SOL    HW116190   0.591   1.257   5.799
 5097SOL    HW216191   0.659   1.159   5.688
 5098SOL     OW16192   2.917   2.466   0.248
 5098SOL    HW116193   2.954   2.422   0.329
 5098SOL    HW216194   2.881   2.556   0.272
 5099SOL     OW16195   2.176   5.992   2.375
 5099SOL    HW116196   2.255   5.952   2.423
 5099SOL    HW216197   2.181   6.091   2.380
 5100SOL     OW16198   5.559   3.586   2.204
 5100SOL    HW116199   5.559   3.487   2.218
 5100SOL    HW216200   5.650   3.615   2.173
 5101SOL     OW16201   3.220   0.898   4.875
 5101SOL    HW116202   3.129   0.928   4.845
 5101SOL    HW216203   3.217   0.801   4.900
 5102SOL     OW16204   5.718   4.969   5.088
 5102SOL    HW116205   5.637   4.997   5.038
 5102SOL    HW216206   5.794   4.954   5.024
 5103SOL     OW16207   0.516   0.565   6.128
 5103SOL    HW116208   0.559   0.476   6.141
 5103SOL    HW216209   0.573   0.636   6.169
 5104SOL     OW16210   4.169   3.550   3.426
 5104SOL    HW116211   4.144   3.625   3.487
 5104SOL    HW216212   4.256   3.512   3.455
 5105SOL     OW16213   4.269   3.306   6.852
 5105SOL    HW116214   4.320   3.377   6.901
 5105SOL    HW216215   4.229   3.242   6.918
 5106SOL     OW16216   3.374   1.557   1.482
 5106SOL    HW116217   3.441   1.614   1.529
 5106SOL    HW216218   3.421   1.505   1.410
 5107SOL     OW16219   6.177   5.650   0.424
 5107SOL    HW116220   6.098   5.645   0.486
 5107SOL    HW216221   6.145   5.667   0.331
 5108SOL     OW16222   3.935   4.484   1.171
 5108SOL    HW116223   3.909   4.568   1.124
 5108SOL    HW216224   4.001   4.433   1.116
 5109SOL     OW16225   1.509   2.877   2.663
 5109SOL    HW116226   1.598   2.836   2.678
 5109SOL    HW216227   1.438   2.822   2.707
 5110SOL     OW16228   4.319   6.675   5.305
 5110SOL    HW116229   4.236   6.631   5.340
 5110SOL    HW216230   4.395   6.610   5.308
 5111SOL     OW16231   1.951   5.674   5.806
 5111SOL    HW116232   1.973   5.719   5.719
 5111SOL    HW216233   1.961   5.575   5.796
 5112SOL     OW16234   1.304   5.785   3.056
 5112SOL    HW116235   1.278   5.723   2.982
 5112SOL    HW216236   1.403   5.790   3.063
 5113SOL     OW16237   2.018   4.036   0.616
 5113SOL    HW116238   2.049   4.052   0.523
 5113SOL    HW216239   2.046   4.111   0.675
 5114SOL     OW16240   4.446   4.653   1.376
 5114SOL    HW116241   4.372   4.700   1.425
 5114SOL    HW216242   4.422   4.644   1.280
 5115SOL     OW16243   1.544   3.965   0.385
 5115SOL    HW116244   1.454   4.004   0.409
 5115SOL    HW216245   1.601   3.963   0.467
 5116SOL     OW16246   0.224   6.803   5.046
 5116SOL    HW116247   0.295   6.761   4.989
 5116SOL    HW216248   0.134   6.780   5.009
 5117SOL     OW16249   0.110   3.119   3.271
 5117SOL    HW116250   0.055   3.086   3.347
 5117SOL    HW216251   0.083   3.073   3.187
 5118SOL     OW16252   3.971   5.647   0.282
 5118SOL    HW116253   4.013   5.723   0.332
 5118SOL    HW216254   4.022   5.563   0.301
 5119SOL     OW16255   5.818   1.548   0.297
 5119SOL    HW116256   5.815   1.542   0.197
 5119SOL    HW216257   5.900   1.500   0.330
 5120SOL     OW16258   5.037   6.185   6.685
 5120SOL    HW116259   5.112   6.135   6.641
 5120SOL    HW216260   5.074   6.264   6.735
 5121SOL     OW16261   1.481   3.139   6.567
 5121SOL    HW116262   1.460   3.158   6.472
 5121SOL    HW216263   1.573   3.101   6.574
 5122SOL     OW16264   4.607   4.742   3.044
 5122SOL    HW116265   4.702   4.715   3.062
 5122SOL    HW216266   4.580   4.815   3.107
 5123SOL     OW16267   4.876   2.570   1.844
 5123SOL    HW116268   4.801   2.618   1.798
 5123SOL    HW216269   4.856   2.472   1.847
 5124SOL     OW16270   0.936   6.200   4.599
 5124SOL    HW116271   0.917   6.286   4.647
 5124SOL    HW216272   0.885   6.126   4.643
 5125SOL     OW16273   6.334   2.080   3.700
 5125SOL    HW116274   6.425   2.044   3.719
 5125SOL    HW216275   6.339   2.180   3.689
 5126SOL     OW16276   2.157   0.998   2.223
 5126SOL    HW116277   2.101   0.962   2.298
 5126SOL    HW216278   2.193   0.922   2.169
 5127SOL     OW16279   1.987   6.190   6.914
 5127SOL    HW116280   1.969   6.255   6.840
 5127SOL    HW216281   2.076   6.212   6.956
 5128SOL     OW16282   4.984   0.107   1.473
 5128SOL    HW116283   4.968   0.144   1.565
 5128SOL    HW216284   5.007   0.010   1.480
 5129SOL     OW16285   6.348   6.191   0.516
 5129SOL    HW116286   6.390   6.281   0.514
 5129SOL    HW216287   6.382   6.139   0.594
 5130SOL     OW16288   5.648   5.022   2.484
 5130SOL    HW116289   5.746   5.023   2.465
 5130SOL    HW216290   5.606   4.940   2.446
 5131SOL     OW16291   2.276   2.623   2.399
 5131SOL    HW116292   2.333   2.600   2.478
 5131SOL    HW216293   2.332   2.624   2.316
 5132SOL     OW16294   2.593   6.175   5.227
 5132SOL    HW116295   2.544   6.142   5.308
 5132SOL    HW216296   2.587   6.106   5.155
 5133SOL     OW16297   3.739   6.412   5.490
 5133SOL    HW116298   3.644   6.405   5.457
 5133SOL    HW216299   3.799   6.360   5.429
 5134SOL     OW16300   6.437   3.969   6.264
 5134SOL    HW116301   6.493   3.930   6.192
 5134SOL    HW216302   6.385   4.046   6.228
 5135SOL     OW16303   6.334   1.738   4.492
 5135SOL    HW116304   6.411   1.689   4.451
 5135SOL    HW216305   6.362   1.832   4.513
 5136SOL     OW16306   3.733   2.326   6.523
 5136SOL    HW116307   3.646   2.373   6.534
 5136SOL    HW216308   3.720   2.241   6.472
 5137SOL     OW16309   3.599   3.360   0.181
 5137SOL    HW116310   3.669   3.368   0.253
 5137SOL    HW216311   3.642   3.367   0.091
 5138SOL     OW16312   2.028   3.104   5.571
 5138SOL    HW116313   1.988   3.059   5.491
 5138SOL    HW216314   2.003   3.201   5.570
 5139SOL     OW16315   0.951   6.985   3.342
 5139SOL    HW116316   1.027   6.930   3.375
 5139SOL    HW216317   0.879   6.989   3.411
 5140SOL     OW16318   2.834   2.883   1.690
 5140SOL    HW116319   2.867   2.976   1.702
 5140SOL    HW216320   2.737   2.884   1.666
 5141SOL     OW16321   0.798   4.181   5.732
 5141SOL    HW116322   0.760   4.122   5.803
 5141SOL    HW216323   0.724   4.220   5.678
 5142SOL     OW16324   5.881   3.055   3.136
 5142SOL    HW116325   5.902   3.025   3.230
 5142SOL    HW216326   5.794   3.016   3.107
 5143SOL     OW16327   0.245   5.234   5.239
 5143SOL    HW116328   0.166   5.172   5.238
 5143SOL    HW216329   0.282   5.243   5.147
 5144SOL     OW16330   2.138   1.722   4.747
 5144SOL    HW116331   2.068   1.791   4.733
 5144SOL    HW216332   2.146   1.666   4.664
 5145SOL     OW16333   3.201   5.226   6.017
 5145SOL    HW116334   3.244   5.209   6.106
 5145SOL    HW216335   3.196   5.325   6.001
 5146SOL     OW16336   2.721   4.726   0.231
 5146SOL    HW116337   2.705   4.723   0.330
 5146SOL    HW216338   2.637   4.704   0.183
 5147SOL     OW16339   0.220   5.318   6.752
 5147SOL    HW116340   0.159   5.316   6.831
 5147SOL    HW216341   0.167   5.340   6.670
 5148SOL     OW16342   0.455   0.867   0.510
 5148SOL    HW116343   0.368   0.916   0.506
 5148SOL    HW216344   0.462   0.804   0.433
 5149SOL     OW16345   0.470   0.559   5.852
 5149SOL    HW116346   0.449   0.574   5.949
 5149SOL    HW216347   0.436   0.469   5.824
 5150SOL     OW16348   2.029   5.624   4.849
 5150SOL    HW116349   1.987   5.535   4.865
 5150SOL    HW216350   2.077   5.623   4.762
 5151SOL     OW16351   4.054   1.183   5.803
 5151SOL    HW116352   4.006   1.257   5.756
 5151SOL    HW216353   4.120   1.141   5.741
 5152SOL     OW16354   0.259   4.886   0.214
 5152SOL    HW116355   0.262   4.817   0.142
 5152SOL    HW216356   0.343   4.940   0.212
 5153SOL     OW16357   1.897   2.197   1.164
 5153SOL    HW116358   1.874   2.118   1.108
 5153SOL    HW216359   1.873   2.178   1.260
 5154SOL     OW16360   1.800   4.472   5.397
 5154SOL    HW116361   1.821   4.566   5.373
 5154SOL    HW216362   1.880   4.414   5.382
 5155SOL     OW16363   3.541   0.599   2.881
 5155SOL    HW116364   3.563   0.546   2.963
 5155SOL    HW216365   3.620   0.600   2.819
 5156SOL     OW16366   5.308   2.864   6.006
 5156SOL    HW116367   5.392   2.822   5.971
 5156SOL    HW216368   5.275   2.814   6.085
 5157SOL     OW16369   6.370   2.282   4.338
 5157SOL    HW116370   6.284   2.234   4.320
 5157SOL    HW216371   6.352   2.379   4.354
 5158SOL     OW16372   3.364   0.466   1.142
 5158SOL    HW116373   3.449   0.510   1.171
 5158SOL    HW216374   3.304   0.454   1.220
 5159SOL     OW16375   2.160   3.346   4.694
 5159SOL    HW116376   2.248   3.393   4.683
 5159SOL    HW216377   2.112   3.344   4.607
 5160SOL     OW16378   2.659   2.229   3.788
 5160SOL    HW116379   2.581   2.186   3.743
 5160SOL    HW216380   2.627   2.306   3.844
 5161SOL     OW16381   2.438   2.964   6.427
 5161SOL    HW116382   2.382   3.028   6.480
 5161SOL    HW216383   2.415   2.972   6.330
 5162SOL     OW16384   6.564   5.332   4.578
 5162SOL    HW116385   6.529   5.239   4.588
 5162SOL    HW216386   6.648   5.331   4.524
 5163SOL     OW16387   5.564   4.530   0.877
 5163SOL    HW116388   5.503   4.458   0.909
 5163SOL    HW216389   5.510   4.609   0.848
 5164SOL     OW16390   6.254   5.801   5.717
 5164SOL    HW116391   6.301   5.886   5.738
 5164SOL    HW216392   6.236   5.751   5.802
 5165SOL     OW16393   5.625   3.784   4.489
 5165SOL    HW116394   5.708   3.749   4.446
 5165SOL    HW216395   5.545   3.739   4.449
 5166SOL     OW16396   1.672   0.264   1.982
 5166SOL    HW116397   1.648   0.350   2.028
 5166SOL    HW216398   1.768   0.242   1.998
 5167SOL     OW16399   1.813   6.990   6.272
 5167SOL    HW116400   1.827   6.916   6.206
 5167SOL    HW216401   1.879   0.043   6.255
 5168SOL     OW16402   3.850   2.123   2.685
 5168SOL    HW116403   3.758   2.084   2.677
 5168SOL    HW216404   3.893   2.125   2.595
 5169SOL     OW16405   3.960   4.354   6.623
 5169SOL    HW116406   4.044   4.324   6.577
 5169SOL    HW216407   3.964   4.453   6.637
 5170SOL     OW16408   4.335   5.044   4.343
 5170SOL    HW116409   4.298   5.105   4.412
 5170SOL    HW216410   4.305   5.073   4.252
 5171SOL     OW16411   2.422   4.552   4.667
 5171SOL    HW116412   2.510   4.553   4.715
 5171SOL    HW216413   2.348   4.545   4.734
 5172SOL     OW16414   1.682   4.710   7.019
 5172SOL    HW116415   1.605   4.709   6.954
 5172SOL    HW216416   1.690   4.620   0.042
 5173SOL     OW16417   0.260   2.377   5.633
 5173SOL    HW116418   0.346   2.341   5.670
 5173SOL    HW216419   0.202   2.410   5.708
 5174SOL     OW16420   2.053   4.983   6.131
 5174SOL    HW116421   2.142   5.028   6.126
 5174SOL    HW216422   1.994   5.031   6.196
 5175SOL     OW16423   0.029   5.614   6.355
 5175SOL    HW116424   7.005   5.703   6.370
 5175SOL    HW216425   0.027   5.592   6.257
 5176SOL     OW16426   5.245   4.166   6.146
 5176SOL    HW116427   5.332   4.184   6.191
 5176SOL    HW216428   5.254   4.089   6.084
 5177SOL     OW16429   5.125   5.492   6.260
 5177SOL    HW116430   5.219   5.522   6.277
 5177SOL    HW216431   5.091   5.533   6.176
 5178SOL     OW16432   2.892   3.384   1.141
 5178SOL    HW116433   2.845   3.428   1.064
 5178SOL    HW216434   2.856   3.291   1.153
 5179SOL     OW16435   3.358   6.751   5.670
 5179SOL    HW116436   3.284   6.732   5.735
 5179SOL    HW216437   3.321   6.754   5.577
 5180SOL     OW16438   3.771   1.969   0.304
 5180SOL    HW116439   3.756   1.973   0.206
 5180SOL    HW216440   3.834   2.041   0.332
 5181SOL     OW16441   2.829   5.719   2.801
 5181SOL    HW116442   2.776   5.752   2.880
 5181SOL    HW216443   2.795   5.629   2.774
 5182SOL     OW16444   4.399   3.931   1.443
 5182SOL    HW116445   4.424   3.981   1.526
 5182SOL    HW216446   4.477   3.930   1.380
 5183SOL     OW16447   4.012   0.954   3.824
 5183SOL    HW116448   4.059   1.015   3.760
 5183SOL    HW216449   3.962   0.884   3.774
 5184SOL     OW16450   1.310   2.061   3.121
 5184SOL    HW116451   1.279   2.074   3.027
 5184SOL    HW216452   1.285   1.970   3.152
 5185SOL     OW16453   3.678   6.995   1.077
 5185SOL    HW116454   3.635   0.051   1.030
 5185SOL    HW216455   3.686   7.016   1.175
 5186SOL     OW16456   4.966   4.367   0.439
 5186SOL    HW116457   5.022   4.432   0.490
 5186SOL    HW216458   5.009   4.349   0.350
 5187SOL     OW16459   4.891   2.181   4.201
 5187SOL    HW116460   4.974   2.170   4.255
 5187SOL    HW216461   4.892   2.114   4.126
 5188SOL     OW16462   1.274   1.953   3.600
 5188SOL    HW116463   1.363   1.972   3.557
 5188SOL    HW216464   1.243   2.035   3.649
 5189SOL     OW16465   4.201   6.396   6.704
 5189SOL    HW116466   4.110   6.436   6.717
 5189SOL    HW216467   4.194   6.296   6.706
 5190SOL     OW16468   2.003   2.752   2.006
 5190SOL    HW116469   2.037   2.673   2.057
 5190SOL    HW216470   2.063   2.830   2.021
 5191SOL     OW16471   5.073   0.012   2.320
 5191SOL    HW116472   5.068   6.984   2.232
 5191SOL    HW216473   5.169   0.029   2.343
 5192SOL     OW16474   6.009   3.968   1.333
 5192SOL    HW116475   5.925   3.987   1.383
 5192SOL    HW216476   5.993   3.977   1.235
 5193SOL     OW16477   4.411   4.601   2.230
 5193SOL    HW116478   4.461   4.568   2.150
 5193SOL    HW216479   4.317   4.622   2.203
 5194SOL     OW16480   5.149   1.374   0.146
 5194SOL    HW116481   5.222   1.423   0.193
 5194SOL    HW216482   5.111   1.304   0.206
 5195SOL     OW16483   6.175   6.713   5.605
 5195SOL    HW116484   6.122   6.651   5.548
 5195SOL    HW216485   6.131   6.803   5.605
 5196SOL     OW16486   6.559   3.558   2.588
 5196SOL    HW116487   6.524   3.544   2.496
 5196SOL    HW216488   6.502   3.624   2.637
 5197SOL     OW16489   3.650   5.639   5.864
 5197SOL    HW116490   3.560   5.669   5.893
 5197SOL    HW216491   3.642   5.588   5.778
 5198SOL     OW16492   4.093   1.363   4.698
 5198SOL    HW116493   4.042   1.446   4.720
 5198SOL    HW216494   4.035   1.283   4.715
 5199SOL     OW16495   0.083   5.605   1.340
 5199SOL    HW116496   0.161   5.659   1.371
 5199SOL    HW216497   0.072   5.617   1.241
 5200SOL     OW16498   6.834   0.218   4.916
 5200SOL    HW116499   6.885   0.147   4.867
 5200SOL    HW216500   6.741   0.223   4.880
 5201SOL     OW16501   5.961   4.635   5.454
 5201SOL    HW116502   5.970   4.548   5.405
 5201SOL    HW216503   5.917   4.702   5.394
 5202SOL     OW16504   3.872   2.415   6.031
 5202SOL    HW116505   3.853   2.468   6.115
 5202SOL    HW216506   3.805   2.440   5.961
 5203SOL     OW16507   1.715   0.448   6.227
 5203SOL    HW116508   1.661   0.506   6.166
 5203SOL    HW216509   1.662   0.367   6.251
 5204SOL     OW16510   2.307   0.700   1.489
 5204SOL    HW116511   2.214   0.699   1.527
 5204SOL    HW216512   2.335   0.794   1.472
 5205SOL     OW16513   6.470   7.006   1.825
 5205SOL    HW116514   6.487   0.026   1.735
 5205SOL    HW216515   6.399   0.037   1.872
 5206SOL     OW16516   0.848   5.106   4.057
 5206SOL    HW116517   0.883   5.188   4.013
 5206SOL    HW216518   0.755   5.087   4.024
 5207SOL     OW16519   5.662   0.082   4.805
 5207SOL    HW116520   5.596   0.034   4.862
 5207SOL    HW216521   5.702   0.019   4.739
 5208SOL     OW16522   0.077   2.009   6.927
 5208SOL    HW116523   0.090   2.083   6.993
 5208SOL    HW216524   0.052   2.046   6.838
 5209SOL     OW16525   5.825   6.895   3.756
 5209SOL    HW116526   5.814   6.855   3.666
 5209SOL    HW216527   5.760   6.853   3.820
 5210SOL     OW16528   5.603   4.543   1.215
 5210SOL    HW116529   5.532   4.475   1.198
 5210SOL    HW216530   5.685   4.519   1.163
 5211SOL     OW16531   5.177   3.045   4.983
 5211SOL    HW116532   5.150   2.955   5.017
 5211SOL    HW216533   5.252   3.080   5.039
 5212SOL     OW16534   6.992   4.290   0.088
 5212SOL    HW116535   6.944   4.328   0.166
 5212SOL    HW216536   0.064   4.328   0.083
 5213SOL     OW16537   3.669   2.936   3.189
 5213SOL    HW116538   3.730   2.932   3.110
 5213SOL    HW216539   3.575   2.943   3.158
 5214SOL     OW16540   5.709   3.510   5.936
 5214SOL    HW116541   5.612   3.493   5.918
 5214SOL    HW216542   5.763   3.475   5.860
 5215SOL     OW16543   0.311   5.498   5.284
 5215SOL    HW116544   0.327   5.564   5.210
 5215SOL    HW216545   0.290   5.408   5.246
 5216SOL     OW16546   6.386   4.047   1.384
 5216SOL    HW116547   6.463   4.103   1.353
 5216SOL    HW216548   6.333   4.098   1.452
 5217SOL     OW16549   4.521   6.967   3.004
 5217SOL    HW116550   4.538   0.043   3.026
 5217SOL    HW216551   4.441   6.959   2.945
 5218SOL     OW16552   6.045   6.610   0.561
 5218SOL    HW116553   6.093   6.697   0.557
 5218SOL    HW216554   6.101   6.544   0.611
 5219SOL     OW16555   3.548   1.972   5.236
 5219SOL    HW116556   3.550   1.874   5.216
 5219SOL    HW216557   3.509   2.021   5.157
 5220SOL     OW16558   2.100   4.852   4.719
 5220SOL    HW116559   2.149   4.864   4.805
 5220SOL    HW216560   2.031   4.781   4.730
 5221SOL     OW16561   5.210   6.175   1.267
 5221SOL    HW116562   5.131   6.216   1.315
 5221SOL    HW216563   5.220   6.219   1.178
 5222SOL     OW16564   6.822   3.299   2.301
 5222SOL    HW116565   6.736   3.338   2.268
 5222SOL    HW216566   6.888   3.372   2.316
 5223SOL     OW16567   6.843   2.823   0.823
 5223SOL    HW116568   6.913   2.824   0.752
 5223SOL    HW216569   6.776   2.752   0.803
 5224SOL     OW16570   1.478   1.560   4.653
 5224SOL    HW116571   1.379   1.549   4.650
 5224SOL    HW216572   1.520   1.471   4.674
 5225SOL     OW16573   0.028   2.594   5.601
 5225SOL    HW116574   7.018   2.509   5.558
 5225SOL    HW216575   0.080   2.571   5.684
 5226SOL     OW16576   0.226   6.541   4.203
 5226SOL    HW116577   0.177   6.495   4.129
 5226SOL    HW216578   0.319   6.505   4.210
 5227SOL     OW16579   1.011   3.167   5.977
 5227SOL    HW116580   0.931   3.162   5.919
 5227SOL    HW216581   0.989   3.217   6.061
 5228SOL     OW16582   1.496   1.842   5.213
 5228SOL    HW116583   1.579   1.847   5.268
 5228SOL    HW216584   1.497   1.759   5.158
 5229SOL     OW16585   3.783   2.099   6.378
 5229SOL    HW116586   3.727   2.016   6.380
 5229SOL    HW216587   3.824   2.109   6.287
 5230SOL     OW16588   6.597   0.068   2.365
 5230SOL    HW116589   6.586   0.052   2.267
 5230SOL    HW216590   6.519   0.027   2.414
 5231SOL     OW16591   6.557   3.849   2.056
 5231SOL    HW116592   6.533   3.767   2.004
 5231SOL    HW216593   6.607   3.913   1.997
 5232SOL     OW16594   1.611   2.105   5.815
 5232SOL    HW116595   1.709   2.107   5.832
 5232SOL    HW216596   1.586   2.017   5.775
 5233SOL     OW16597   3.596   0.012   3.654
 5233SOL    HW116598   3.652   0.081   3.699
 5233SOL    HW216599   3.500   0.024   3.678
 5234SOL     OW16600   3.053   2.594   6.143
 5234SOL    HW116601   2.974   2.548   6.184
 5234SOL    HW216602   3.036   2.611   6.046
 5235SOL     OW16603   2.718   2.149   1.612
 5235SOL    HW116604   2.779   2.083   1.656
 5235SOL    HW216605   2.645   2.175   1.676
 5236SOL     OW16606   3.043   4.777   1.987
 5236SOL    HW116607   3.025   4.793   2.084
 5236SOL    HW216608   2.989   4.698   1.956
 5237SOL     OW16609   1.804   1.420   2.428
 5237SOL    HW116610   1.718   1.451   2.467
 5237SOL    HW216611   1.852   1.498   2.388
 5238SOL     OW16612   7.010   0.464   2.321
 5238SOL    HW116613   0.083   0.457   2.356
 5238SOL    HW216614   7.001   0.408   2.238
 5239SOL     OW16615   2.536   4.045   1.011
 5239SOL    HW116616   2.476   4.024   0.934
 5239SOL    HW216617   2.609   4.106   0.982
 5240SOL     OW16618   2.126   3.931   5.977
 5240SOL    HW116619   2.188   3.988   5.923
 5240SOL    HW216620   2.089   3.858   5.919
 5241SOL     OW16621   2.153   6.536   3.308
 5241SOL    HW116622   2.054   6.547   3.316
 5241SOL    HW216623   2.183   6.463   3.369
 5242SOL     OW16624   4.167   6.750   5.931
 5242SOL    HW116625   4.126   6.664   5.961
 5242SOL    HW216626   4.266   6.739   5.921
 5243SOL     OW16627   3.179   5.503   3.593
 5243SOL    HW116628   3.126   5.551   3.662
 5243SOL    HW216629   3.261   5.556   3.571
 5244SOL     OW16630   4.151   1.154   6.741
 5244SOL    HW116631   4.221   1.150   6.812
 5244SOL    HW216632   4.063   1.125   6.779
 5245SOL     OW16633   3.133   4.055   2.183
 5245SOL    HW116634   3.165   3.986   2.248
 5245SOL    HW216635   3.086   4.128   2.233
 5246SOL     OW16636   6.037   3.694   6.268
 5246SOL    HW116637   6.136   3.700   6.275
 5246SOL    HW216638   5.997   3.786   6.269
 5247SOL     OW16639   4.819   1.265   6.250
 5247SOL    HW116640   4.772   1.190   6.203
 5247SOL    HW216641   4.835   1.340   6.186
 5248SOL     OW16642   4.926   1.015   3.998
 5248SOL    HW116643   5.005   1.023   4.059
 5248SOL    HW216644   4.957   0.999   3.905
 5249SOL     OW16645   6.917   5.296   1.230
 5249SOL    HW116646   6.838   5.340   1.186
 5249SOL    HW216647   6.902   5.293   1.329
 5250SOL     OW16648   2.152   5.031   0.961
 5250SOL    HW116649   2.084   4.993   0.898
 5250SOL    HW216650   2.215   5.090   0.911
 5251SOL     OW16651   0.411   4.423   6.401
 5251SOL    HW116652   0.456   4.428   6.312
 5251SOL    HW216653   0.474   4.456   6.472
 5252SOL     OW16654   4.056   5.641   2.883
 5252SOL    HW116655   4.050   5.551   2.841
 5252SOL    HW216656   4.153   5.665   2.895
 5253SOL     OW16657   0.448   6.207   4.918
 5253SOL    HW116658   0.402   6.254   4.843
 5253SOL    HW216659   0.531   6.162   4.883
 5254SOL     OW16660   4.485   6.068   3.008
 5254SOL    HW116661   4.457   6.161   2.984
 5254SOL    HW216662   4.585   6.061   3.000
 5255SOL     OW16663   6.748   1.782   5.624
 5255SOL    HW116664   6.800   1.745   5.547
 5255SOL    HW216665   6.651   1.760   5.612
 5256SOL     OW16666   4.745   1.288   2.742
 5256SOL    HW116667   4.665   1.249   2.696
 5256SOL    HW216668   4.805   1.330   2.674
 5257SOL     OW16669   4.872   2.310   6.667
 5257SOL    HW116670   4.859   2.282   6.762
 5257SOL    HW216671   4.795   2.365   6.636
 5258SOL     OW16672   4.862   1.761   5.305
 5258SOL    HW116673   4.883   1.690   5.238
 5258SOL    HW216674   4.925   1.838   5.294
 5259SOL     OW16675   5.468   5.627   4.019
 5259SOL    HW116676   5.464   5.592   3.925
 5259SOL    HW216677   5.458   5.551   4.083
 5260SOL     OW16678   1.871   5.852   1.564
 5260SOL    HW116679   1.907   5.902   1.642
 5260SOL    HW216680   1.904   5.757   1.568
 5261SOL     OW16681   6.184   4.893   0.063
 5261SOL    HW116682   6.253   4.907   7.013
 5261SOL    HW216683   6.212   4.816   0.121
 5262SOL     OW16684   1.661   1.597   1.772
 5262SOL    HW116685   1.743   1.543   1.788
 5262SOL    HW216686   1.586   1.560   1.827
 5263SOL     OW16687   1.998   5.998   3.167
 5263SOL    HW116688   1.924   5.957   3.113
 5263SOL    HW216689   2.010   6.093   3.138
 5264SOL     OW16690   0.117   2.968   2.092
 5264SOL    HW116691   0.086   3.019   2.012
 5264SOL    HW216692   0.048   2.975   2.165
 5265SOL     OW16693   6.843   6.287   5.355
 5265SOL    HW116694   6.763   6.310   5.411
 5265SOL    HW216695   6.837   6.335   5.267
 5266SOL     OW16696   1.338   0.027   5.914
 5266SOL    HW116697   1.259   6.992   5.888
 5266SOL    HW216698   1.422   6.997   5.895
 5267SOL     OW16699   5.446   1.560   4.225
 5267SOL    HW116700   5.428   1.523   4.133
 5267SOL    HW216701   5.433   1.487   4.293
 5268SOL     OW16702   5.088   0.133   5.986
 5268SOL    HW116703   5.072   0.051   5.932
 5268SOL    HW216704   5.035   0.209   5.947
 5269SOL     OW16705   1.268   7.004   4.436
 5269SOL    HW116706   1.225   6.988   4.525
 5269SOL    HW216707   1.202   0.025   4.374
 5270SOL     OW16708   0.871   2.163   6.143
 5270SOL    HW116709   0.905   2.112   6.064
 5270SOL    HW216710   0.949   2.200   6.194
 5271SOL     OW16711   1.500   5.810   4.605
 5271SOL    HW116712   1.429   5.872   4.573
 5271SOL    HW216713   1.512   5.820   4.703
 5272SOL     OW16714   4.408   0.603   6.294
 5272SOL    HW116715   4.408   0.698   6.326
 5272SOL    HW216716   4.317   0.578   6.261
 5273SOL     OW16717   3.118   1.507   2.939
 5273SOL    HW116718   3.162   1.525   2.851
 5273SOL    HW216719   3.180   1.454   2.997
 5274SOL     OW16720   5.850   4.702   1.386
 5274SOL    HW116721   5.768   4.728   1.438
 5274SOL    HW216722   5.823   4.643   1.310
 5275SOL     OW16723   5.467   1.733   5.989
 5275SOL    HW116724   5.373   1.740   5.955
 5275SOL    HW216725   5.509   1.824   5.990
 5276SOL     OW16726   3.667   6.162   1.749
 5276SOL    HW116727   3.646   6.147   1.652
 5276SOL    HW216728   3.661   6.076   1.799
 5277SOL     OW16729   2.137   3.204   1.915
 5277SOL    HW116730   2.163   3.300   1.924
 5277SOL    HW216731   2.048   3.190   1.960
 5278SOL     OW16732   3.665   3.205   2.588
 5278SOL    HW116733   3.628   3.246   2.505
 5278SOL    HW216734   3.715   3.122   2.565
 5279SOL     OW16735   1.760   6.014   2.655
 5279SOL    HW116736   1.718   5.924   2.644
 5279SOL    HW216737   1.856   6.010   2.629
 5280SOL     OW16738   3.913   1.047   4.293
 5280SOL    HW116739   3.818   1.077   4.304
 5280SOL    HW216740   3.950   1.085   4.208
 5281SOL     OW16741   6.698   2.323   3.607
 5281SOL    HW116742   6.699   2.257   3.532
 5281SOL    HW216743   6.619   2.383   3.597
 5282SOL     OW16744   4.791   2.394   1.227
 5282SOL    HW116745   4.774   2.489   1.254
 5282SOL    HW216746   4.738   2.372   1.146
 5283SOL     OW16747   4.626   4.597   6.239
 5283SOL    HW116748   4.691   4.560   6.306
 5283SOL    HW216749   4.675   4.657   6.176
 5284SOL     OW16750   4.729   2.597   3.769
 5284SOL    HW116751   4.810   2.649   3.794
 5284SOL    HW216752   4.665   2.595   3.846
 5285SOL     OW16753   4.290   6.455   2.526
 5285SOL    HW116754   4.217   6.489   2.466
 5285SOL    HW216755   4.312   6.525   2.594
 5286SOL     OW16756   1.996   4.963   1.636
 5286SOL    HW116757   1.913   4.928   1.594
 5286SOL    HW216758   1.973   5.024   1.711
 5287SOL     OW16759   0.904   1.058   2.422
 5287SOL    HW116760   0.908   1.006   2.508
 5287SOL    HW216761   0.850   1.007   2.355
 5288SOL     OW16762   4.303   0.200   1.281
 5288SOL    HW116763   4.339   0.129   1.340
 5288SOL    HW216764   4.204   0.189   1.271
 5289SOL     OW16765   1.207   6.313   1.134
 5289SOL    HW116766   1.190   6.327   1.037
 5289SOL    HW216767   1.300   6.341   1.156
 5290SOL     OW16768   5.726   6.074   0.221
 5290SOL    HW116769   5.812   6.065   0.272
 5290SOL    HW216770   5.679   5.986   0.220
 5291SOL     OW16771   0.807   5.916   6.949
 5291SOL    HW116772   0.884   5.962   6.906
 5291SOL    HW216773   0.834   5.882   0.019
 5292SOL     OW16774   5.493   1.597   0.693
 5292SOL    HW116775   5.462   1.615   0.787
 5292SOL    HW216776   5.447   1.660   0.630
 5293SOL     OW16777   1.932   1.441   4.074
 5293SOL    HW116778   1.938   1.410   4.168
 5293SOL    HW216779   1.842   1.416   4.036
 5294SOL     OW16780   3.905   2.546   6.531
 5294SOL    HW116781   3.866   2.459   6.559
 5294SOL    HW216782   3.862   2.620   6.582
 5295SOL     OW16783   6.782   1.285   2.538
 5295SOL    HW116784   6.741   1.277   2.628
 5295SOL    HW216785   6.742   1.362   2.489
 5296SOL     OW16786   0.383   2.755   6.382
 5296SOL    HW116787   0.447   2.710   6.320
 5296SOL    HW216788   0.415   2.747   6.476
 5297SOL     OW16789   0.992   2.384   1.850
 5297SOL    HW116790   1.013   2.458   1.786
 5297SOL    HW216791   0.970   2.423   1.940
 5298SOL     OW16792   1.288   4.439   1.665
 5298SOL    HW116793   1.294   4.499   1.745
 5298SOL    HW216794   1.193   4.420   1.645
 5299SOL     OW16795   3.248   0.091   0.197
 5299SOL    HW116796   3.313   0.153   0.151
 5299SOL    HW216797   3.289   0.058   0.282
 5300SOL     OW16798   0.107   5.083   3.500
 5300SOL    HW116799   0.007   5.076   3.507
 5300SOL    HW216800   0.145   5.097   3.591
 5301SOL     OW16801   5.187   0.394   6.619
 5301SOL    HW116802   5.196   0.315   6.680
 5301SOL    HW216803   5.277   0.417   6.581
 5302SOL     OW16804   6.579   4.137   4.029
 5302SOL    HW116805   6.637   4.173   3.956
 5302SOL    HW216806   6.549   4.212   4.088
 5303SOL     OW16807   1.633   4.797   3.270
 5303SOL    HW116808   1.575   4.803   3.351
 5303SOL    HW216809   1.727   4.824   3.293
 5304SOL     OW16810   4.314   2.945   5.722
 5304SOL    HW116811   4.271   2.920   5.635
 5304SOL    HW216812   4.326   3.044   5.726
 5305SOL     OW16813   3.479   1.504   4.656
 5305SOL    HW116814   3.411   1.505   4.729
 5305SOL    HW216815   3.467   1.584   4.597
 5306SOL     OW16816   2.414   6.710   4.185
 5306SOL    HW116817   2.394   6.796   4.232
 5306SOL    HW216818   2.329   6.669   4.152
 5307SOL     OW16819   5.071   0.183   0.243
 5307SOL    HW116820   5.120   0.235   0.313
 5307SOL    HW216821   5.087   0.085   0.256
 5308SOL     OW16822   6.139   1.767   2.090
 5308SOL    HW116823   6.221   1.751   2.145
 5308SOL    HW216824   6.124   1.688   2.030
 5309SOL     OW16825   3.885   3.588   5.206
 5309SOL    HW116826   3.845   3.522   5.270
 5309SOL    HW216827   3.863   3.560   5.112
 5310SOL     OW16828   5.310   2.563   0.983
 5310SOL    HW116829   5.357   2.639   1.028
 5310SOL    HW216830   5.357   2.477   1.005
 5311SOL     OW16831   0.228   6.293   0.119
 5311SOL    HW116832   0.162   6.218   0.119
 5311SOL    HW216833   0.219   6.345   0.203
 5312SOL     OW16834   0.424   3.035   1.518
 5312SOL    HW116835   0.341   3.086   1.540
 5312SOL    HW216836   0.503   3.096   1.519
 5313SOL     OW16837   0.309   6.127   0.536
 5313SOL    HW116838   0.258   6.098   0.454
 5313SOL    HW216839   0.302   6.226   0.545
 5314SOL     OW16840   3.634   5.164   1.494
 5314SOL    HW116841   3.541   5.201   1.490
 5314SOL    HW216842   3.681   5.182   1.408
 5315SOL     OW16843   5.782   1.446   2.086
 5315SOL    HW116844   5.857   1.414   2.029
 5315SOL    HW216845   5.809   1.531   2.131
 5316SOL     OW16846   5.433   5.491   4.268
 5316SOL    HW116847   5.414   5.393   4.276
 5316SOL    HW216848   5.517   5.513   4.318
 5317SOL     OW16849   6.527   4.995   2.001
 5317SOL    HW116850   6.477   5.077   2.025
 5317SOL    HW216851   6.533   4.986   1.902
 5318SOL     OW16852   0.515   2.475   3.742
 5318SOL    HW116853   0.429   2.456   3.789
 5318SOL    HW216854   0.503   2.460   3.644
 5319SOL     OW16855   3.090   6.515   2.971
 5319SOL    HW116856   3.122   6.457   3.046
 5319SOL    HW216857   2.997   6.547   2.991
 5320SOL     OW16858   6.991   3.154   6.491
 5320SOL    HW116859   6.934   3.095   6.433
 5320SOL    HW216860   0.020   3.219   6.434
 5321SOL     OW16861   2.685   4.364   6.222
 5321SOL    HW116862   2.677   4.384   6.320
 5321SOL    HW216863   2.727   4.274   6.209
 5322SOL     OW16864   2.023   5.783   1.018
 5322SOL    HW116865   2.066   5.870   0.995
 5322SOL    HW216866   1.936   5.801   1.063
 5323SOL     OW16867   5.504   2.926   0.279
 5323SOL    HW116868   5.581   2.898   0.337
 5323SOL    HW216869   5.510   3.023   0.258
 5324SOL     OW16870   4.196   3.328   1.217
 5324SOL    HW116871   4.186   3.346   1.315
 5324SOL    HW216872   4.159   3.237   1.196
 5325SOL     OW16873   3.206   6.237   5.723
 5325SOL    HW116874   3.285   6.298   5.727
 5325SOL    HW216875   3.142   6.271   5.654
 5326SOL     OW16876   0.351   0.411   2.169
 5326SOL    HW116877   0.414   0.342   2.205
 5326SOL    HW216878   0.374   0.430   2.073
 5327SOL     OW16879   6.373   0.530   4.074
 5327SOL    HW116880   6.378   0.626   4.097
 5327SOL    HW216881   6.434   0.477   4.132
 5328SOL     OW16882   3.738   5.011   6.968
 5328SOL    HW116883   3.743   4.957   6.885
 5328SOL    HW216884   3.670   5.084   6.957
 5329SOL     OW16885   0.428   5.901   6.515
 5329SOL    HW116886   0.397   5.815   6.475
 5329SOL    HW216887   0.518   5.924   6.478
 5330SOL     OW16888   3.948   5.002   0.564
 5330SOL    HW116889   3.992   4.918   0.597
 5330SOL    HW216890   3.924   4.990   0.468
 5331SOL     OW16891   5.670   1.477   6.581
 5331SOL    HW116892   5.667   1.564   6.631
 5331SOL    HW216893   5.718   1.490   6.494
 5332SOL     OW16894   6.411   2.889   6.867
 5332SOL    HW116895   6.452   2.818   6.924
 5332SOL    HW216896   6.480   2.959   6.846
 5333SOL     OW16897   1.169   0.115   4.058
 5333SOL    HW116898   1.172   0.195   4.117
 5333SOL    HW216899   1.233   0.127   3.982
 5334SOL     OW16900   3.068   6.189   1.670
 5334SOL    HW116901   3.148   6.143   1.630
 5334SOL    HW216902   3.035   6.260   1.608
 5335SOL     OW16903   0.086   5.313   1.958
 5335SOL    HW116904   7.015   5.348   1.938
 5335SOL    HW216905   0.131   5.286   1.872
 5336SOL     OW16906   1.835   3.592   5.183
 5336SOL    HW116907   1.776   3.547   5.116
 5336SOL    HW216908   1.789   3.592   5.272
 5337SOL     OW16909   6.696   3.344   0.793
 5337SOL    HW116910   6.791   3.312   0.799
 5337SOL    HW216911   6.694   3.444   0.796
 5338SOL     OW16912   0.075   3.681   0.688
 5338SOL    HW116913   0.170   3.681   0.657
 5338SOL    HW216914   0.063   3.611   0.758
 5339SOL     OW16915   5.692   2.819   2.881
 5339SOL    HW116916   5.750   2.868   2.815
 5339SOL    HW216917   5.598   2.817   2.848
 5340SOL     OW16918   4.770   3.342   1.238
 5340SOL    HW116919   4.793   3.434   1.269
 5340SOL    HW216920   4.679   3.342   1.198
 5341SOL     OW16921   4.919   4.679   3.401
 5341SOL    HW116922   4.918   4.778   3.418
 5341SOL    HW216923   4.881   4.661   3.310
 5342SOL     OW16924   6.144   5.851   4.553
 5342SOL    HW116925   6.203   5.777   4.588
 5342SOL    HW216926   6.145   5.927   4.618
 5343SOL     OW16927   3.668   3.471   6.690
 5343SOL    HW116928   3.629   3.383   6.718
 5343SOL    HW216929   3.723   3.458   6.607
 5344SOL     OW16930   6.622   2.187   6.758
 5344SOL    HW116931   6.527   2.197   6.786
 5344SOL    HW216932   6.668   2.124   6.820
 5345SOL     OW16933   3.244   1.764   0.255
 5345SOL    HW116934   3.183   1.774   0.334
 5345SOL    HW216935   3.315   1.696   0.276
 5346SOL     OW16936   2.763   6.509   3.466
 5346SOL    HW116937   2.714   6.553   3.542
 5346SOL    HW216938   2.842   6.460   3.502
 5347SOL     OW16939   5.856   1.478   5.338
 5347SOL    HW116940   5.847   1.564   5.388
 5347SOL    HW216941   5.949   1.443   5.346
 5348SOL     OW16942   4.758   2.784   5.522
 5348SOL    HW116943   4.679   2.839   5.494
 5348SOL    HW216944   4.765   2.785   5.622
 5349SOL     OW16945   0.615   4.005   0.831
 5349SOL    HW116946   0.713   3.984   0.831
 5349SOL    HW216947   0.593   4.065   0.909
 5350SOL     OW16948   0.797   6.540   6.096
 5350SOL    HW116949   0.813   6.628   6.140
 5350SOL    HW216950   0.777   6.554   5.999
 5351SOL     OW16951   0.233   5.847   3.518
 5351SOL    HW116952   0.269   5.940   3.506
 5351SOL    HW216953   0.299   5.792   3.569
 5352SOL     OW16954   1.120   2.522   6.142
 5352SOL    HW116955   1.045   2.570   6.096
 5352SOL    HW216956   1.105   2.523   6.240
 5353SOL     OW16957   3.089   6.844   4.023
 5353SOL    HW116958   3.139   6.918   3.980
 5353SOL    HW216959   2.997   6.875   4.048
 5354SOL     OW16960   3.984   5.871   1.969
 5354SOL    HW116961   4.008   5.820   2.052
 5354SOL    HW216962   3.922   5.945   1.993
 5355SOL     OW16963   5.189   5.388   5.383
 5355SOL    HW116964   5.207   5.437   5.468
 5355SOL    HW216965   5.252   5.310   5.376
 5356SOL     OW16966   0.815   0.058   1.361
 5356SOL    HW116967   0.780   0.000   1.434
 5356SOL    HW216968   0.869   0.133   1.401
 5357SOL     OW16969   6.330   3.069   2.570
 5357SOL    HW116970   6.351   3.080   2.667
 5357SOL    HW216971   6.288   3.153   2.536
 5358SOL     OW16972   6.039   0.872   6.776
 5358SOL    HW116973   6.105   0.855   6.849
 5358SOL    HW216974   6.073   0.947   6.718
 5359SOL     OW16975   2.431   2.476   6.627
 5359SOL    HW116976   2.423   2.547   6.557
 5359SOL    HW216977   2.522   2.479   6.667
 5360SOL     OW16978   5.938   5.809   3.551
 5360SOL    HW116979   5.956   5.900   3.587
 5360SOL    HW216980   5.908   5.817   3.456
 5361SOL     OW16981   1.845   3.622   3.006
 5361SOL    HW116982   1.863   3.605   3.103
 5361SOL    HW216983   1.930   3.652   2.962
 5362SOL     OW16984   6.245   1.105   4.190
 5362SOL    HW116985   6.233   1.138   4.096
 5362SOL    HW216986   6.157   1.110   4.238
 5363SOL     OW16987   6.295   5.461   4.367
 5363SOL    HW116988   6.367   5.509   4.418
 5363SOL    HW216989   6.233   5.527   4.326
 5364SOL     OW16990   4.416   2.504   1.787
 5364SOL    HW116991   4.394   2.447   1.866
 5364SOL    HW216992   4.469   2.583   1.817
 5365SOL     OW16993   3.281   3.825   5.271
 5365SOL    HW116994   3.187   3.850   5.292
 5365SOL    HW216995   3.343   3.876   5.332
 5366SOL     OW16996   0.298   4.521   3.258
 5366SOL    HW116997   0.363   4.507   3.333
 5366SOL    HW216998   0.217   4.466   3.274
 5367SOL     OW16999   6.047   6.159   1.289
 5367SOL    HW117000   6.000   6.158   1.378
 5367SOL    HW217001   6.145   6.144   1.303
 5368SOL     OW17002   0.535   5.511   4.813
 5368SOL    HW117003   0.486   5.462   4.742
 5368SOL    HW217004   0.488   5.498   4.901
 5369SOL     OW17005   4.457   6.692   2.816
 5369SOL    HW117006   4.538   6.710   2.873
 5369SOL    HW217007   4.418   6.778   2.785
 5370SOL     OW17008   2.554   2.716   0.848
 5370SOL    HW117009   2.566   2.623   0.815
 5370SOL    HW217010   2.605   2.728   0.934
 5371SOL     OW17011   6.207   5.037   3.346
 5371SOL    HW117012   6.272   5.109   3.370
 5371SOL    HW217013   6.133   5.035   3.413
 5372SOL     OW17014   1.583   0.044   3.846
 5372SOL    HW117015   1.575   0.130   3.795
 5372SOL    HW217016   1.560   0.060   3.942
 5373SOL     OW17017   3.662   0.395   0.059
 5373SOL    HW117018   3.731   0.466   0.077
 5373SOL    HW217019   3.680   0.353   6.991
 5374SOL     OW17020   1.280   4.038   1.467
 5374SOL    HW117021   1.353   3.976   1.438
 5374SOL    HW217022   1.261   4.103   1.394
 5375SOL     OW17023   2.630   4.662   4.808
 5375SOL    HW117024   2.581   4.714   4.878
 5375SOL    HW217025   2.721   4.638   4.842
 5376SOL     OW17026   1.011   0.962   1.472
 5376SOL    HW117027   0.986   1.057   1.452
 5376SOL    HW217028   1.061   0.923   1.395
 5377SOL     OW17029   0.876   2.256   2.303
 5377SOL    HW117030   0.808   2.289   2.237
 5377SOL    HW217031   0.898   2.161   2.283
 5378SOL     OW17032   5.587   6.599   3.228
 5378SOL    HW117033   5.492   6.592   3.199
 5378SOL    HW217034   5.643   6.536   3.174
 5379SOL     OW17035   2.424   2.191   4.261
 5379SOL    HW117036   2.447   2.140   4.178
 5379SOL    HW217037   2.491   2.171   4.332
 5380SOL     OW17038   5.116   6.465   1.733
 5380SOL    HW117039   5.018   6.463   1.713
 5380SOL    HW217040   5.131   6.447   1.830
 5381SOL     OW17041   3.613   1.930   2.651
 5381SOL    HW117042   3.582   1.853   2.595
 5381SOL    HW217043   3.573   1.924   2.742
 5382SOL     OW17044   4.425   0.482   2.855
 5382SOL    HW117045   4.502   0.526   2.809
 5382SOL    HW217046   4.423   0.510   2.951
 5383SOL     OW17047   2.663   3.820   5.262
 5383SOL    HW117048   2.581   3.852   5.214
 5383SOL    HW217049   2.714   3.899   5.295
 5384SOL     OW17050   4.961   6.589   6.215
 5384SOL    HW117051   4.938   6.520   6.283
 5384SOL    HW217052   4.892   6.661   6.216
 5385SOL     OW17053   3.364   3.432   0.443
 5385SOL    HW117054   3.406   3.449   0.354
 5385SOL    HW217055   3.427   3.460   0.515
 5386SOL     OW17056   4.255   4.655   3.241
 5386SOL    HW117057   4.163   4.631   3.272
 5386SOL    HW217058   4.290   4.583   3.181
 5387SOL     OW17059   1.208   2.377   4.144
 5387SOL    HW117060   1.211   2.283   4.109
 5387SOL    HW217061   1.154   2.434   4.083
 5388SOL     OW17062   6.940   6.114   3.508
 5388SOL    HW117063   6.865   6.064   3.465
 5388SOL    HW217064   6.982   6.175   3.441
 5389SOL     OW17065   5.232   1.747   4.265
 5389SOL    HW117066   5.166   1.672   4.262
 5389SOL    HW217067   5.321   1.714   4.233
 5390SOL     OW17068   5.674   3.078   3.460
 5390SOL    HW117069   5.635   3.091   3.551
 5390SOL    HW217070   5.769   3.047   3.467
 5391SOL     OW17071   4.618   2.746   1.376
 5391SOL    HW117072   4.651   2.667   1.427
 5391SOL    HW217073   4.574   2.810   1.438
 5392SOL     OW17074   5.295   0.664   4.417
 5392SOL    HW117075   5.291   0.635   4.321
 5392SOL    HW217076   5.256   0.593   4.475
 5393SOL     OW17077   3.994   1.877   3.067
 5393SOL    HW117078   3.991   1.977   3.074
 5393SOL    HW217079   4.023   1.838   3.154
 5394SOL     OW17080   6.993   2.445   2.826
 5394SOL    HW117081   6.937   2.507   2.880
 5394SOL    HW217082   7.011   2.362   2.877
 5395SOL     OW17083   0.190   1.228   0.910
 5395SOL    HW117084   0.151   1.307   0.861
 5395SOL    HW217085   0.165   1.232   1.006
 5396SOL     OW17086   4.640   2.625   0.399
 5396SOL    HW117087   4.621   2.602   0.495
 5396SOL    HW217088   4.557   2.660   0.356
 5397SOL     OW17089   0.017   0.225   1.764
 5397SOL    HW117090   6.991   0.262   1.846
 5397SOL    HW217091   0.093   0.167   1.793
 5398SOL     OW17092   5.942   1.977   3.455
 5398SOL    HW117093   5.859   1.922   3.464
 5398SOL    HW217094   5.964   1.989   3.359
 5399SOL     OW17095   2.843   3.194   0.052
 5399SOL    HW117096   2.768   3.147   0.006
 5399SOL    HW217097   2.900   3.126   0.100
 5400SOL     OW17098   5.689   2.537   1.052
 5400SOL    HW117099   5.638   2.605   1.000
 5400SOL    HW217100   5.627   2.465   1.083
 5401SOL     OW17101   5.058   3.419   1.408
 5401SOL    HW117102   4.984   3.451   1.349
 5401SOL    HW217103   5.031   3.429   1.504
 5402SOL     OW17104   1.378   6.307   1.864
 5402SOL    HW117105   1.306   6.240   1.880
 5402SOL    HW217106   1.347   6.398   1.893
 5403SOL     OW17107   5.974   2.306   5.780
 5403SOL    HW117108   5.965   2.299   5.681
 5403SOL    HW217109   6.063   2.344   5.803
 5404SOL     OW17110   4.552   6.849   0.509
 5404SOL    HW117111   4.634   6.893   0.545
 5404SOL    HW217112   4.488   6.832   0.584
 5405SOL     OW17113   0.115   5.375   6.493
 5405SOL    HW117114   0.073   5.288   6.467
 5405SOL    HW217115   0.072   5.450   6.442
 5406SOL     OW17116   2.277   1.047   5.521
 5406SOL    HW117117   2.273   1.014   5.616
 5406SOL    HW217118   2.220   0.989   5.463
 5407SOL     OW17119   2.511   0.694   2.696
 5407SOL    HW117120   2.492   0.605   2.736
 5407SOL    HW217121   2.425   0.745   2.685
 5408SOL     OW17122   1.280   2.369   4.533
 5408SOL    HW117123   1.342   2.430   4.584
 5408SOL    HW217124   1.200   2.349   4.589
 5409SOL     OW17125   0.469   3.792   2.624
 5409SOL    HW117126   0.534   3.717   2.609
 5409SOL    HW217127   0.411   3.803   2.543
 5410SOL     OW17128   6.457   1.897   0.193
 5410SOL    HW117129   6.399   1.821   0.165
 5410SOL    HW217130   6.408   1.983   0.183
 5411SOL     OW17131   3.342   5.276   1.559
 5411SOL    HW117132   3.317   5.317   1.471
 5411SOL    HW217133   3.273   5.210   1.586
 5412SOL     OW17134   1.372   2.287   5.806
 5412SOL    HW117135   1.470   2.272   5.820
 5412SOL    HW217136   1.339   2.355   5.871
 5413SOL     OW17137   6.834   5.585   5.624
 5413SOL    HW117138   6.866   5.547   5.711
 5413SOL    HW217139   6.897   5.559   5.551
 5414SOL     OW17140   5.633   5.509   6.191
 5414SOL    HW117141   5.544   5.551   6.206
 5414SOL    HW217142   5.705   5.577   6.206
 5415SOL     OW17143   1.751   1.447   6.327
 5415SOL    HW117144   1.691   1.429   6.250
 5415SOL    HW217145   1.839   1.403   6.312
 5416SOL     OW17146   3.568   5.821   6.588
 5416SOL    HW117147   3.668   5.819   6.583
 5416SOL    HW217148   3.535   5.735   6.625
 5417SOL     OW17149   5.521   0.136   2.174
 5417SOL    HW117150   5.470   0.116   2.091
 5417SOL    HW217151   5.618   0.117   2.159
 5418SOL     OW17152   0.522   3.975   5.228
 5418SOL    HW117153   0.531   3.906   5.300
 5418SOL    HW217154   0.516   4.066   5.268
 5419SOL     OW17155   3.938   1.528   5.896
 5419SOL    HW117156   4.033   1.531   5.865
 5419SOL    HW217157   3.904   1.621   5.909
 5420SOL     OW17158   2.230   2.048   0.917
 5420SOL    HW117159   2.193   2.099   0.995
 5420SOL    HW217160   2.323   2.080   0.897
 5421SOL     OW17161   4.371   5.039   1.656
 5421SOL    HW117162   4.350   5.137   1.652
 5421SOL    HW217163   4.322   4.992   1.583
 5422SOL     OW17164   3.000   6.103   3.335
 5422SOL    HW117165   2.915   6.153   3.350
 5422SOL    HW217166   3.077   6.158   3.368
 5423SOL     OW17167   4.060   6.880   1.893
 5423SOL    HW117168   3.979   6.921   1.933
 5423SOL    HW217169   4.087   6.931   1.811
 5424SOL     OW17170   3.573   3.667   5.295
 5424SOL    HW117171   3.476   3.655   5.316
 5424SOL    HW217172   3.615   3.577   5.279
 5425SOL     OW17173   1.225   5.188   5.366
 5425SOL    HW117174   1.250   5.091   5.359
 5425SOL    HW217175   1.299   5.238   5.412
 5426SOL     OW17176   1.034   4.255   6.803
 5426SOL    HW117177   0.962   4.207   6.853
 5426SOL    HW217178   1.110   4.193   6.786
 5427SOL     OW17179   4.223   1.979   6.828
 5427SOL    HW117180   4.198   2.073   6.808
 5427SOL    HW217181   4.145   1.930   6.866
 5428SOL     OW17182   4.259   6.012   2.825
 5428SOL    HW117183   4.339   6.044   2.875
 5428SOL    HW217184   4.176   6.031   2.878
 5429SOL     OW17185   2.630   6.189   4.030
 5429SOL    HW117186   2.604   6.109   3.976
 5429SOL    HW217187   2.557   6.258   4.025
 5430SOL     OW17188   1.558   4.425   5.291
 5430SOL    HW117189   1.643   4.453   5.336
 5430SOL    HW217190   1.501   4.374   5.355
 5431SOL     OW17191   4.954   4.886   1.506
 5431SOL    HW117192   4.999   4.940   1.434
 5431SOL    HW217193   5.010   4.886   1.588
 5432SOL     OW17194   0.358   5.235   6.296
 5432SOL    HW117195   0.391   5.219   6.203
 5432SOL    HW217196   0.258   5.247   6.294
 5433SOL     OW17197   2.530   0.421   1.313
 5433SOL    HW117198   2.561   0.462   1.399
 5433SOL    HW217199   2.610   0.397   1.258
 5434SOL     OW17200   5.328   5.957   4.425
 5434SOL    HW117201   5.245   5.902   4.429
 5434SOL    HW217202   5.407   5.898   4.408
 5435SOL     OW17203   6.545   3.896   6.523
 5435SOL    HW117204   6.489   3.931   6.448
 5435SOL    HW217205   6.516   3.804   6.546
 5436SOL     OW17206   1.465   4.243   1.921
 5436SOL    HW117207   1.392   4.222   1.857
 5436SOL    HW217208   1.513   4.325   1.892
 5437SOL     OW17209   3.478   6.271   7.006
 5437SOL    HW117210   3.426   6.230   6.931
 5437SOL    HW217211   3.505   6.364   6.980
 5438SOL     OW17212   5.831   6.947   2.814
 5438SOL    HW117213   5.913   6.986   2.856
 5438SOL    HW217214   5.842   6.946   2.714
 5439SOL     OW17215   1.521   3.794   1.629
 5439SOL    HW117216   1.490   3.700   1.643
 5439SOL    HW217217   1.553   3.832   1.716
 5440SOL     OW17218   6.232   0.097   4.189
 5440SOL    HW117219   6.328   0.110   4.166
 5440SOL    HW217220   6.179   0.175   4.155
 5441SOL     OW17221   5.622   1.472   4.968
 5441SOL    HW117222   5.539   1.498   4.918
 5441SOL    HW217223   5.597   1.415   5.046
 5442SOL     OW17224   2.337   0.210   6.680
 5442SOL    HW117225   2.279   0.177   6.755
 5442SOL    HW217226   2.409   0.144   6.662
 5443SOL     OW17227   5.624   0.668   3.883
 5443SOL    HW117228   5.621   0.746   3.820
 5443SOL    HW217229   5.606   0.584   3.832
 5444SOL     OW17230   1.168   1.010   6.085
 5444SOL    HW117231   1.092   1.048   6.137
 5444SOL    HW217232   1.141   0.921   6.048
 5445SOL     OW17233   6.082   6.674   5.213
 5445SOL    HW117234   6.102   6.764   5.252
 5445SOL    HW217235   6.047   6.685   5.120
 5446SOL     OW17236   1.511   5.351   5.684
 5446SOL    HW117237   1.516   5.367   5.783
 5446SOL    HW217238   1.547   5.260   5.662
 5447SOL     OW17239   6.445   2.115   1.370
 5447SOL    HW117240   6.473   2.025   1.402
 5447SOL    HW217241   6.375   2.152   1.431
 5448SOL     OW17242   6.681   4.823   1.576
 5448SOL    HW117243   6.644   4.746   1.523
 5448SOL    HW217244   6.711   4.790   1.666
 5449SOL     OW17245   1.948   6.994   2.318
 5449SOL    HW117246   2.043   0.000   2.302
 5449SOL    HW217247   1.928   6.911   2.264
 5450SOL     OW17248   4.529   5.619   1.739
 5450SOL    HW117249   4.452   5.658   1.789
 5450SOL    HW217250   4.563   5.686   1.673
 5451SOL     OW17251   0.531   6.286   3.960
 5451SOL    HW117252   0.578   6.306   4.045
 5451SOL    HW217253   0.459   6.218   3.977
 5452SOL     OW17254   1.863   4.056   2.909
 5452SOL    HW117255   1.772   4.021   2.932
 5452SOL    HW217256   1.930   3.982   2.919
 5453SOL     OW17257   6.145   4.827   4.459
 5453SOL    HW117258   6.125   4.866   4.549
 5453SOL    HW217259   6.151   4.901   4.392
 5454SOL     OW17260   5.734   3.932   2.338
 5454SOL    HW117261   5.775   3.898   2.422
 5454SOL    HW217262   5.764   3.876   2.261
 5455SOL     OW17263   2.381   2.201   3.343
 5455SOL    HW117264   2.459   2.152   3.381
 5455SOL    HW217265   2.406   2.242   3.256
 5456SOL     OW17266   5.512   2.373   0.764
 5456SOL    HW117267   5.598   2.355   0.716
 5456SOL    HW217268   5.435   2.337   0.712
 5457SOL     OW17269   6.656   1.679   0.297
 5457SOL    HW117270   6.612   1.725   0.220
 5457SOL    HW217271   6.660   1.741   0.375
 5458SOL     OW17272   6.143   5.058   5.723
 5458SOL    HW117273   6.135   5.133   5.788
 5458SOL    HW217274   6.136   5.093   5.629
 5459SOL     OW17275   2.426   3.405   5.326
 5459SOL    HW117276   2.493   3.458   5.379
 5459SOL    HW217277   2.411   3.317   5.371
 5460SOL     OW17278   0.561   0.730   1.350
 5460SOL    HW117279   0.481   0.770   1.305
 5460SOL    HW217280   0.533   0.652   1.405
 5461SOL     OW17281   6.083   1.856   6.751
 5461SOL    HW117282   6.032   1.859   6.666
 5461SOL    HW217283   6.154   1.786   6.746
 5462SOL     OW17284   5.432   5.232   6.019
 5462SOL    HW117285   5.387   5.171   6.085
 5462SOL    HW217286   5.390   5.322   6.024
 5463SOL     OW17287   1.689   5.342   6.314
 5463SOL    HW117288   1.769   5.368   6.367
 5463SOL    HW217289   1.615   5.408   6.329
 5464SOL     OW17290   2.043   5.616   4.212
 5464SOL    HW117291   1.982   5.540   4.234
 5464SOL    HW217292   1.992   5.702   4.219
 5465SOL     OW17293   0.782   0.657   4.864
 5465SOL    HW117294   0.692   0.694   4.884
 5465SOL    HW217295   0.848   0.691   4.931
 5466SOL     OW17296   4.845   2.489   5.267
 5466SOL    HW117297   4.850   2.506   5.169
 5466SOL    HW217298   4.914   2.544   5.314
 5467SOL     OW17299   6.418   3.142   3.819
 5467SOL    HW117300   6.415   3.079   3.896
 5467SOL    HW217301   6.422   3.236   3.853
 5468SOL     OW17302   0.154   2.423   1.512
 5468SOL    HW117303   0.175   2.336   1.557
 5468SOL    HW217304   0.224   2.490   1.533
 5469SOL     OW17305   3.831   2.132   4.045
 5469SOL    HW117306   3.736   2.133   4.074
 5469SOL    HW217307   3.891   2.135   4.125
 5470SOL     OW17308   2.846   4.858   3.506
 5470SOL    HW117309   2.942   4.848   3.530
 5470SOL    HW217310   2.792   4.869   3.589
 5471SOL     OW17311   5.574   0.465   3.425
 5471SOL    HW117312   5.626   0.550   3.433
 5471SOL    HW217313   5.495   0.469   3.486
 5472SOL     OW17314   2.334   4.154   6.691
 5472SOL    HW117315   2.408   4.133   6.627
 5472SOL    HW217316   2.270   4.078   6.695
 5473SOL     OW17317   2.757   4.738   2.138
 5473SOL    HW117318   2.790   4.667   2.074
 5473SOL    HW217319   2.835   4.790   2.173
 5474SOL     OW17320   1.026   4.924   1.926
 5474SOL    HW117321   1.084   4.866   1.869
 5474SOL    HW217322   1.055   5.020   1.917
 5475SOL     OW17323   1.179   0.892   5.149
 5475SOL    HW117324   1.264   0.902   5.200
 5475SOL    HW217325   1.108   0.856   5.208
 5476SOL     OW17326   2.256   0.869   4.772
 5476SOL    HW117327   2.225   0.892   4.865
 5476SOL    HW217328   2.189   0.902   4.706
 5477SOL     OW17329   2.186   3.046   2.672
 5477SOL    HW117330   2.128   2.977   2.628
 5477SOL    HW217331   2.195   3.125   2.611
 5478SOL     OW17332   6.189   3.609   5.849
 5478SOL    HW117333   6.228   3.529   5.896
 5478SOL    HW217334   6.262   3.674   5.828
 5479SOL     OW17335   5.476   3.155   4.268
 5479SOL    HW117336   5.455   3.146   4.171
 5479SOL    HW217337   5.549   3.090   4.292
 5480SOL     OW17338   1.373   3.525   4.472
 5480SOL    HW117339   1.428   3.456   4.520
 5480SOL    HW217340   1.377   3.507   4.374
 5481SOL     OW17341   4.525   1.387   6.743
 5481SOL    HW117342   4.436   1.425   6.771
 5481SOL    HW217343   4.556   1.434   6.660
 5482SOL     OW17344   5.374   4.070   2.771
 5482SOL    HW117345   5.374   4.139   2.699
 5482SOL    HW217346   5.438   3.997   2.747
 5483SOL     OW17347   6.553   2.695   0.027
 5483SOL    HW117348   6.523   2.600   0.017
 5483SOL    HW217349   6.504   2.738   0.102
 5484SOL     OW17350   6.207   0.619   5.505
 5484SOL    HW117351   6.215   0.684   5.429
 5484SOL    HW217352   6.173   0.532   5.471
 5485SOL     OW17353   3.060   1.018   4.197
 5485SOL    HW117354   3.101   0.958   4.266
 5485SOL    HW217355   2.960   1.013   4.204
 5486SOL     OW17356   0.921   0.230   3.657
 5486SOL    HW117357   0.950   0.281   3.737
 5486SOL    HW217358   0.854   0.284   3.606
 5487SOL     OW17359   4.347   5.536   1.459
 5487SOL    HW117360   4.281   5.556   1.386
 5487SOL    HW217361   4.418   5.606   1.458
 5488SOL     OW17362   5.422   1.363   5.813
 5488SOL    HW117363   5.404   1.456   5.779
 5488SOL    HW217364   5.429   1.365   5.913
 5489SOL     OW17365   6.834   3.898   2.187
 5489SOL    HW117366   6.802   3.909   2.093
 5489SOL    HW217367   6.773   3.947   2.249
 5490SOL     OW17368   3.292   2.134   6.296
 5490SOL    HW117369   3.281   2.113   6.199
 5490SOL    HW217370   3.299   2.049   6.348
 5491SOL     OW17371   0.096   5.454   2.743
 5491SOL    HW117372   0.166   5.479   2.810
 5491SOL    HW217373   0.022   5.405   2.790
 5492SOL     OW17374   0.888   1.326   4.732
 5492SOL    HW117375   0.948   1.405   4.739
 5492SOL    HW217376   0.910   1.274   4.649
 5493SOL     OW17377   3.620   1.840   0.698
 5493SOL    HW117378   3.573   1.877   0.618
 5493SOL    HW217379   3.688   1.773   0.669
 5494SOL     OW17380   5.902   3.258   2.726
 5494SOL    HW117381   5.886   3.170   2.770
 5494SOL    HW217382   5.844   3.328   2.769
 5495SOL     OW17383   3.946   3.026   3.920
 5495SOL    HW117384   3.994   3.048   4.005
 5495SOL    HW217385   3.854   2.994   3.940
 5496SOL     OW17386   5.051   5.479   2.115
 5496SOL    HW117387   4.989   5.546   2.074
 5496SOL    HW217388   5.134   5.471   2.060
 5497SOL     OW17389   5.565   0.516   1.051
 5497SOL    HW117390   5.593   0.435   1.000
 5497SOL    HW217391   5.551   0.592   0.987
 5498SOL     OW17392   4.676   1.134   4.743
 5498SOL    HW117393   4.635   1.143   4.653
 5498SOL    HW217394   4.649   1.046   4.783
 5499SOL     OW17395   0.479   1.120   5.332
 5499SOL    HW117396   0.517   1.034   5.297
 5499SOL    HW217397   0.550   1.191   5.330
 5500SOL     OW17398   1.528   6.710   1.057
 5500SOL    HW117399   1.589   6.684   1.133
 5500SOL    HW217400   1.476   6.630   1.028
 5501SOL     OW17401   2.987   0.848   2.541
 5501SOL    HW117402   2.957   0.943   2.548
 5501SOL    HW217403   3.033   0.834   2.453
 5502SOL     OW17404   4.328   3.423   0.263
 5502SOL    HW117405   4.307   3.412   0.165
 5502SOL    HW217406   4.244   3.449   0.311
 5503SOL     OW17407   0.012   6.717   4.232
 5503SOL    HW117408   6.961   6.705   4.301
 5503SOL    HW217409   0.088   6.656   4.252
 5504SOL     OW17410   2.802   2.277   4.387
 5504SOL    HW117411   2.819   2.298   4.291
 5504SOL    HW217412   2.887   2.290   4.439
 5505SOL     OW17413   3.523   4.645   0.280
 5505SOL    HW117414   3.436   4.692   0.297
 5505SOL    HW217415   3.565   4.681   0.197
 5506SOL     OW17416   0.156   6.567   5.712
 5506SOL    HW117417   0.116   6.483   5.750
 5506SOL    HW217418   0.249   6.549   5.680
 5507SOL     OW17419   3.249   5.380   5.252
 5507SOL    HW117420   3.344   5.367   5.224
 5507SOL    HW217421   3.196   5.298   5.232
 5508SOL     OW17422   1.306   0.933   5.581
 5508SOL    HW117423   1.322   0.986   5.664
 5508SOL    HW217424   1.389   0.882   5.557
 5509SOL     OW17425   6.292   0.415   6.531
 5509SOL    HW117426   6.247   0.409   6.620
 5509SOL    HW217427   6.376   0.361   6.533
 5510SOL     OW17428   6.427   0.996   6.209
 5510SOL    HW117429   6.368   0.919   6.234
 5510SOL    HW217430   6.512   0.962   6.168
 5511SOL     OW17431   6.811   2.996   1.545
 5511SOL    HW117432   6.878   3.058   1.506
 5511SOL    HW217433   6.754   3.045   1.611
 5512SOL     OW17434   0.046   0.336   0.420
 5512SOL    HW117435   0.067   0.416   0.477
 5512SOL    HW217436   0.072   0.253   0.468
 5513SOL     OW17437   2.907   6.310   5.280
 5513SOL    HW117438   2.969   6.260   5.221
 5513SOL    HW217439   2.815   6.309   5.241
 5514SOL     OW17440   5.957   5.666   3.930
 5514SOL    HW117441   5.917   5.585   3.888
 5514SOL    HW217442   5.898   5.699   4.004
 5515SOL     OW17443   6.863   3.555   3.073
 5515SOL    HW117444   6.874   3.468   3.122
 5515SOL    HW217445   6.924   3.556   2.993
 5516SOL     OW17446   1.055   2.215   6.967
 5516SOL    HW117447   1.017   2.252   6.882
 5516SOL    HW217448   0.982   2.207   0.015
 5517SOL     OW17449   2.683   1.071   2.012
 5517SOL    HW117450   2.781   1.057   1.999
 5517SOL    HW217451   2.668   1.136   2.087
 5518SOL     OW17452   5.519   4.272   5.255
 5518SOL    HW117453   5.508   4.206   5.330
 5518SOL    HW217454   5.442   4.265   5.192
 5519SOL     OW17455   5.327   3.714   2.881
 5519SOL    HW117456   5.366   3.624   2.903
 5519SOL    HW217457   5.279   3.749   2.961
 5520SOL     OW17458   2.056   2.814   0.696
 5520SOL    HW117459   2.130   2.794   0.759
 5520SOL    HW217460   2.039   2.735   0.636
 5521SOL     OW17461   5.220   5.251   0.094
 5521SOL    HW117462   5.188   5.293   0.179
 5521SOL    HW217463   5.161   5.279   0.019
 5522SOL     OW17464   1.992   2.705   1.717
 5522SOL    HW117465   1.986   2.740   1.811
 5522SOL    HW217466   1.963   2.609   1.716
 5523SOL     OW17467   3.643   0.530   1.655
 5523SOL    HW117468   3.670   0.436   1.677
 5523SOL    HW217469   3.558   0.552   1.703
 5524SOL     OW17470   5.981   5.956   5.768
 5524SOL    HW117471   5.926   6.039   5.765
 5524SOL    HW217472   6.077   5.979   5.752
 5525SOL     OW17473   6.620   5.587   3.837
 5525SOL    HW117474   6.672   5.503   3.822
 5525SOL    HW217475   6.681   5.659   3.869
 5526SOL     OW17476   5.223   3.037   4.560
 5526SOL    HW117477   5.181   3.076   4.641
 5526SOL    HW217478   5.260   3.111   4.503
 5527SOL     OW17479   2.121   3.667   6.942
 5527SOL    HW117480   2.129   3.757   6.900
 5527SOL    HW217481   2.045   3.667   7.007
 5528SOL     OW17482   6.587   3.312   2.742
 5528SOL    HW117483   6.583   3.386   2.810
 5528SOL    HW217484   6.551   3.345   2.655
 5529SOL     OW17485   1.155   0.767   4.047
 5529SOL    HW117486   1.139   0.863   4.024
 5529SOL    HW217487   1.162   0.757   4.147
 5530SOL     OW17488   6.778   3.100   0.198
 5530SOL    HW117489   6.746   3.028   0.260
 5530SOL    HW217490   6.817   3.175   0.251
 5531SOL     OW17491   2.245   3.255   6.813
 5531SOL    HW117492   2.196   3.295   6.890
 5531SOL    HW217493   2.284   3.167   6.841
 5532SOL     OW17494   2.167   2.198   1.126
 5532SOL    HW117495   2.072   2.206   1.159
 5532SOL    HW217496   2.227   2.180   1.203
 5533SOL     OW17497   3.437   0.197   0.476
 5533SOL    HW117498   3.383   0.281   0.486
 5533SOL    HW217499   3.512   0.213   0.412
 5534SOL     OW17500   0.200   4.453   5.188
 5534SOL    HW117501   0.122   4.391   5.180
 5534SOL    HW217502   0.173   4.545   5.161
 5535SOL     OW17503   6.406   3.531   3.480
 5535SOL    HW117504   6.504   3.510   3.479
 5535SOL    HW217505   6.358   3.465   3.539
 5536SOL     OW17506   3.182   0.646   4.155
 5536SOL    HW117507   3.231   0.560   4.171
 5536SOL    HW217508   3.200   0.677   4.062
 5537SOL     OW17509   4.233   1.223   5.089
 5537SOL    HW117510   4.157   1.159   5.088
 5537SOL    HW217511   4.239   1.266   5.179
 5538SOL     OW17512   5.324   2.217   2.682
 5538SOL    HW117513   5.247   2.229   2.620
 5538SOL    HW217514   5.395   2.284   2.660
 5539SOL     OW17515   2.629   0.153   6.946
 5539SOL    HW117516   2.632   0.120   0.020
 5539SOL    HW217517   2.610   0.251   6.945
 5540SOL     OW17518   5.697   0.251   5.789
 5540SOL    HW117519   5.644   0.275   5.707
 5540SOL    HW217520   5.739   0.333   5.826
 5541SOL     OW17521   4.527   3.179   0.018
 5541SOL    HW117522   4.473   3.103   7.004
 5541SOL    HW217523   4.611   3.188   6.984
 5542SOL     OW17524   4.492   4.629   0.265
 5542SOL    HW117525   4.564   4.581   0.315
 5542SOL    HW217526   4.512   4.626   0.167
 5543SOL     OW17527   1.336   0.575   6.300
 5543SOL    HW117528   1.299   0.666   6.281
 5543SOL    HW217529   1.319   0.552   6.396
 5544SOL     OW17530   3.872   5.081   1.001
 5544SOL    HW117531   3.915   5.171   1.001
 5544SOL    HW217532   3.813   5.072   0.921
 5545SOL     OW17533   5.128   0.939   3.735
 5545SOL    HW117534   5.160   1.032   3.717
 5545SOL    HW217535   5.152   0.913   3.828
 5546SOL     OW17536   0.382   5.037   4.205
 5546SOL    HW117537   0.431   5.003   4.286
 5546SOL    HW217538   0.446   5.048   4.129
 5547SOL     OW17539   4.828   2.493   4.979
 5547SOL    HW117540   4.842   2.555   4.902
 5547SOL    HW217541   4.737   2.452   4.974
 5548SOL     OW17542   0.528   4.646   5.162
 5548SOL    HW117543   0.516   4.588   5.082
 5548SOL    HW217544   0.578   4.596   5.232
 5549SOL     OW17545   3.871   3.070   0.667
 5549SOL    HW117546   3.858   2.985   0.718
 5549SOL    HW217547   3.789   3.125   0.673
 5550SOL     OW17548   2.565   4.197   1.716
 5550SOL    HW117549   2.515   4.283   1.721
 5550SOL    HW217550   2.506   4.125   1.678
 5551SOL     OW17551   2.165   4.958   2.590
 5551SOL    HW117552   2.226   4.903   2.647
 5551SOL    HW217553   2.218   5.003   2.518
 5552SOL     OW17554   1.020   0.213   0.335
 5552SOL    HW117555   1.013   0.306   0.299
 5552SOL    HW217556   0.959   0.153   0.283
 5553SOL     OW17557   5.388   0.461   0.233
 5553SOL    HW117558   5.363   0.556   0.247
 5553SOL    HW217559   5.383   0.439   0.135
 5554SOL     OW17560   6.765   2.123   1.453
 5554SOL    HW117561   6.708   2.205   1.453
 5554SOL    HW217562   6.829   2.127   1.376
 5555SOL     OW17563   1.171   4.923   2.263
 5555SOL    HW117564   1.247   4.901   2.202
 5555SOL    HW217565   1.158   4.848   2.327
 5556SOL     OW17566   6.995   1.010   4.637
 5556SOL    HW117567   6.957   0.978   4.551
 5556SOL    HW217568   0.012   0.932   4.688
 5557SOL     OW17569   3.768   6.078   3.336
 5557SOL    HW117570   3.832   6.151   3.313
 5557SOL    HW217571   3.725   6.044   3.252
 5558SOL     OW17572   4.330   4.139   0.297
 5558SOL    HW117573   4.350   4.215   0.235
 5558SOL    HW217574   4.416   4.106   0.337
 5559SOL     OW17575   3.540   0.943   2.496
 5559SOL    HW117576   3.594   0.984   2.569
 5559SOL    HW217577   3.570   0.848   2.482
 5560SOL     OW17578   0.507   5.279   3.535
 5560SOL    HW117579   0.555   5.205   3.583
 5560SOL    HW217580   0.458   5.336   3.602
 5561SOL     OW17581   3.673   6.661   3.031
 5561SOL    HW117582   3.769   6.656   3.005
 5561SOL    HW217583   3.652   6.754   3.064
 5562SOL     OW17584   3.584   3.844   1.000
 5562SOL    HW117585   3.589   3.844   0.900
 5562SOL    HW217586   3.563   3.752   1.032
 5563SOL     OW17587   2.568   4.685   2.312
 5563SOL    HW117588   2.642   4.690   2.245
 5563SOL    HW217589   2.480   4.691   2.266
 5564SOL     OW17590   4.785   0.056   6.530
 5564SOL    HW117591   4.871   0.047   6.480
 5564SOL    HW217592   4.770   0.152   6.553
 5565SOL     OW17593   3.479   1.440   6.517
 5565SOL    HW117594   3.525   1.355   6.544
 5565SOL    HW217595   3.438   1.428   6.426
 5566SOL     OW17596   1.504   4.198   5.974
 5566SOL    HW117597   1.578   4.174   5.911
 5566SOL    HW217598   1.507   4.296   5.992
 5567SOL     OW17599   0.424   4.527   0.406
 5567SOL    HW117600   0.342   4.556   0.357
 5567SOL    HW217601   0.405   4.527   0.505
 5568SOL     OW17602   4.896   4.627   1.447
 5568SOL    HW117603   4.881   4.618   1.349
 5568SOL    HW217604   4.914   4.723   1.469
 5569SOL     OW17605   2.403   2.539   2.595
 5569SOL    HW117606   2.381   2.563   2.690
 5569SOL    HW217607   2.493   2.496   2.592
 5570SOL     OW17608   6.810   3.690   1.919
 5570SOL    HW117609   6.803   3.669   2.016
 5570SOL    HW217610   6.788   3.786   1.903
 5571SOL     OW17611   6.715   4.844   1.084
 5571SOL    HW117612   6.671   4.755   1.093
 5571SOL    HW217613   6.806   4.841   1.124
 5572SOL     OW17614   1.863   4.038   4.930
 5572SOL    HW117615   1.938   3.972   4.923
 5572SOL    HW217616   1.898   4.131   4.914
 5573SOL     OW17617   3.133   4.887   3.630
 5573SOL    HW117618   3.176   4.812   3.681
 5573SOL    HW217619   3.203   4.945   3.591
 5574SOL     OW17620   0.486   2.369   5.000
 5574SOL    HW117621   0.441   2.284   4.975
 5574SOL    HW217622   0.505   2.423   4.918
 5575SOL     OW17623   6.964   0.068   1.548
 5575SOL    HW117624   6.974   0.144   1.611
 5575SOL    HW217625   6.953   7.003   1.599
 5576SOL     OW17626   1.312   5.256   2.789
 5576SOL    HW117627   1.227   5.208   2.810
 5576SOL    HW217628   1.387   5.216   2.841
 5577SOL     OW17629   1.910   2.401   5.949
 5577SOL    HW117630   1.945   2.455   6.025
 5577SOL    HW217631   1.897   2.459   5.869
 5578SOL     OW17632   3.101   3.953   3.449
 5578SOL    HW117633   3.084   3.963   3.547
 5578SOL    HW217634   3.056   3.871   3.415
 5579SOL     OW17635   6.618   2.640   2.156
 5579SOL    HW117636   6.654   2.733   2.155
 5579SOL    HW217637   6.691   2.576   2.129
 5580SOL     OW17638   5.764   2.128   5.587
 5580SOL    HW117639   5.691   2.178   5.634
 5580SOL    HW217640   5.827   2.193   5.544
 5581SOL     OW17641   1.457   2.568   6.593
 5581SOL    HW117642   1.410   2.486   6.622
 5581SOL    HW217643   1.546   2.544   6.554
 5582SOL     OW17644   2.843   2.726   5.896
 5582SOL    HW117645   2.897   2.657   5.849
 5582SOL    HW217646   2.751   2.690   5.913
 5583SOL     OW17647   5.547   0.062   1.053
 5583SOL    HW117648   5.464   0.104   1.016
 5583SOL    HW217649   5.524   6.994   1.093
 5584SOL     OW17650   1.881   3.206   4.172
 5584SOL    HW117651   1.809   3.161   4.224
 5584SOL    HW217652   1.841   3.261   4.099
 5585SOL     OW17653   5.303   5.389   1.781
 5585SOL    HW117654   5.334   5.455   1.849
 5585SOL    HW217655   5.285   5.301   1.825
 5586SOL     OW17656   0.548   4.536   0.161
 5586SOL    HW117657   0.515   4.539   0.256
 5586SOL    HW217658   0.607   4.456   0.149
 5587SOL     OW17659   6.412   0.785   5.976
 5587SOL    HW117660   6.359   0.768   6.059
 5587SOL    HW217661   6.509   0.781   5.997
 5588SOL     OW17662   3.739   6.755   0.955
 5588SOL    HW117663   3.704   6.842   0.988
 5588SOL    HW217664   3.798   6.714   1.024
 5589SOL     OW17665   5.828   4.872   6.010
 5589SOL    HW117666   5.733   4.867   5.979
 5589SOL    HW217667   5.852   4.787   6.058
 5590SOL     OW17668   6.337   5.519   3.299
 5590SOL    HW117669   6.281   5.441   3.271
 5590SOL    HW217670   6.433   5.492   3.305
 5591SOL     OW17671   5.394   0.980   1.731
 5591SOL    HW117672   5.322   0.954   1.796
 5591SOL    HW217673   5.483   0.969   1.775
 5592SOL     OW17674   0.676   3.974   3.053
 5592SOL    HW117675   0.725   3.978   3.140
 5592SOL    HW217676   0.606   4.045   3.050
 5593SOL     OW17677   0.331   3.876   0.311
 5593SOL    HW117678   0.339   3.799   0.374
 5593SOL    HW217679   0.368   3.851   0.222
 5594SOL     OW17680   6.398   2.228   6.123
 5594SOL    HW117681   6.447   2.230   6.036
 5594SOL    HW217682   6.358   2.318   6.140
 5595SOL     OW17683   1.228   2.369   6.727
 5595SOL    HW117684   1.272   2.412   6.805
 5595SOL    HW217685   1.159   2.431   6.690
 5596SOL     OW17686   3.235   5.965   3.244
 5596SOL    HW117687   3.148   6.015   3.244
 5596SOL    HW217688   3.268   5.955   3.338
 5597SOL     OW17689   5.107   3.236   2.690
 5597SOL    HW117690   5.019   3.247   2.735
 5597SOL    HW217691   5.152   3.153   2.725
 5598SOL     OW17692   5.114   1.542   5.391
 5598SOL    HW117693   5.180   1.583   5.328
 5598SOL    HW217694   5.067   1.466   5.345
 5599SOL     OW17695   1.124   0.413   3.415
 5599SOL    HW117696   1.100   0.330   3.364
 5599SOL    HW217697   1.220   0.436   3.398
 5600SOL     OW17698   1.769   2.552   5.184
 5600SOL    HW117699   1.673   2.549   5.213
 5600SOL    HW217700   1.774   2.539   5.085
 5601SOL     OW17701   2.464   0.657   6.253
 5601SOL    HW117702   2.525   0.634   6.329
 5601SOL    HW217703   2.517   0.703   6.181
 5602SOL     OW17704   1.717   0.925   0.203
 5602SOL    HW117705   1.712   1.022   0.177
 5602SOL    HW217706   1.698   0.916   0.301
 5603SOL     OW17707   5.870   5.176   5.867
 5603SOL    HW117708   5.835   5.211   5.780
 5603SOL    HW217709   5.814   5.211   5.942
 5604SOL     OW17710   6.139   1.411   6.051
 5604SOL    HW117711   6.224   1.359   6.049
 5604SOL    HW217712   6.063   1.350   6.028
 5605SOL     OW17713   1.589   2.425   6.313
 5605SOL    HW117714   1.549   2.369   6.385
 5605SOL    HW217715   1.560   2.520   6.325
 5606SOL     OW17716   5.663   0.279   3.065
 5606SOL    HW117717   5.630   0.230   2.984
 5606SOL    HW217718   5.760   0.298   3.055
 5607SOL     OW17719   5.882   0.448   1.167
 5607SOL    HW117720   5.899   0.516   1.239
 5607SOL    HW217721   5.785   0.425   1.165
 5608SOL     OW17722   4.079   6.450   5.267
 5608SOL    HW117723   3.983   6.424   5.268
 5608SOL    HW217724   4.109   6.473   5.359
 5609SOL     OW17725   1.417   5.406   5.346
 5609SOL    HW117726   1.441   5.449   5.433
 5609SOL    HW217727   1.390   5.477   5.280
 5610SOL     OW17728   4.731   0.302   6.437
 5610SOL    HW117729   4.727   0.402   6.442
 5610SOL    HW217730   4.815   0.275   6.389
 5611SOL     OW17731   1.895   4.485   3.754
 5611SOL    HW117732   1.840   4.512   3.675
 5611SOL    HW217733   1.860   4.531   3.836
 5612SOL     OW17734   2.903   0.111   5.415
 5612SOL    HW117735   2.887   0.018   5.448
 5612SOL    HW217736   2.861   0.123   5.325
 5613SOL     OW17737   4.099   5.248   1.853
 5613SOL    HW117738   4.096   5.148   1.853
 5613SOL    HW217739   4.009   5.284   1.829
 5614SOL     OW17740   4.699   2.215   3.450
 5614SOL    HW117741   4.744   2.125   3.455
 5614SOL    HW217742   4.696   2.255   3.542
 5615SOL     OW17743   1.477   1.410   1.429
 5615SOL    HW117744   1.436   1.387   1.341
 5615SOL    HW217745   1.447   1.502   1.456
 5616SOL     OW17746   2.311   0.261   4.453
 5616SOL    HW117747   2.345   0.199   4.524
 5616SOL    HW217748   2.244   0.324   4.493
 5617SOL     OW17749   0.785   0.649   5.173
 5617SOL    HW117750   0.810   0.571   5.230
 5617SOL    HW217751   0.846   0.726   5.193
 5618SOL     OW17752   6.816   4.368   2.801
 5618SOL    HW117753   6.723   4.344   2.829
 5618SOL    HW217754   6.817   4.461   2.763
 5619SOL     OW17755   2.109   3.889   4.873
 5619SOL    HW117756   2.191   3.917   4.923
 5619SOL    HW217757   2.081   3.798   4.904
 5620SOL     OW17758   3.600   1.879   6.809
 5620SOL    HW117759   3.684   1.848   6.764
 5620SOL    HW217760   3.616   1.889   6.907
 5621SOL     OW17761   2.591   1.979   6.177
 5621SOL    HW117762   2.583   2.068   6.133
 5621SOL    HW217763   2.638   1.988   6.264
 5622SOL     OW17764   5.457   0.917   5.323
 5622SOL    HW117765   5.525   0.863   5.373
 5622SOL    HW217766   5.410   0.858   5.257
 5623SOL     OW17767   0.320   5.968   0.039
 5623SOL    HW117768   0.235   5.985   0.088
 5623SOL    HW217769   0.302   5.957   6.962
 5624SOL     OW17770   0.617   4.221   2.183
 5624SOL    HW117771   0.687   4.198   2.116
 5624SOL    HW217772   0.526   4.213   2.141
 5625SOL     OW17773   6.247   2.385   5.770
 5625SOL    HW117774   6.200   2.438   5.700
 5625SOL    HW217775   6.280   2.299   5.730
 5626SOL     OW17776   4.949   6.411   4.267
 5626SOL    HW117777   4.878   6.438   4.333
 5626SOL    HW217778   4.956   6.311   4.265
 5627SOL     OW17779   1.055   6.598   0.949
 5627SOL    HW117780   0.980   6.664   0.946
 5627SOL    HW217781   1.018   6.505   0.935
 5628SOL     OW17782   1.480   1.788   4.484
 5628SOL    HW117783   1.485   1.714   4.551
 5628SOL    HW217784   1.453   1.872   4.530
 5629SOL     OW17785   3.923   3.224   2.982
 5629SOL    HW117786   3.982   3.210   2.902
 5629SOL    HW217787   3.965   3.182   3.062
 5630SOL     OW17788   7.017   4.214   1.592
 5630SOL    HW117789   6.959   4.230   1.512
 5630SOL    HW217790   0.055   4.135   1.576
 5631SOL     OW17791   4.970   0.518   6.693
 5631SOL    HW117792   4.946   0.554   6.603
 5631SOL    HW217793   5.062   0.479   6.690
 5632SOL     OW17794   3.217   3.128   0.032
 5632SOL    HW117795   3.197   3.226   0.027
 5632SOL    HW217796   3.132   3.077   0.039
 5633SOL     OW17797   6.572   3.117   5.055
 5633SOL    HW117798   6.666   3.086   5.042
 5633SOL    HW217799   6.545   3.174   4.978
 5634SOL     OW17800   5.140   5.550   4.730
 5634SOL    HW117801   5.088   5.577   4.812
 5634SOL    HW217802   5.198   5.626   4.702
 5635SOL     OW17803   3.370   1.977   5.438
 5635SOL    HW117804   3.417   1.999   5.353
 5635SOL    HW217805   3.375   1.879   5.454
 5636SOL     OW17806   4.132   5.650   4.559
 5636SOL    HW117807   4.156   5.666   4.654
 5636SOL    HW217808   4.173   5.720   4.501
 5637SOL     OW17809   6.293   0.005   2.772
 5637SOL    HW117810   6.276   0.041   2.863
 5637SOL    HW217811   6.390   7.002   2.762
 5638SOL     OW17812   5.604   3.887   6.825
 5638SOL    HW117813   5.539   3.935   6.766
 5638SOL    HW217814   5.696   3.924   6.810
 5639SOL     OW17815   3.492   0.726   0.133
 5639SOL    HW117816   3.528   0.819   0.122
 5639SOL    HW217817   3.485   0.704   0.231
 5640SOL     OW17818   1.821   0.013   2.791
 5640SOL    HW117819   1.799   0.058   2.878
 5640SOL    HW217820   1.808   6.935   2.800
 5641SOL     OW17821   6.188   5.613   4.728
 5641SOL    HW117822   6.150   5.522   4.715
 5641SOL    HW217823   6.127   5.667   4.787
 5642SOL     OW17824   2.030   1.722   0.333
 5642SOL    HW117825   2.104   1.655   0.337
 5642SOL    HW217826   2.069   1.814   0.324
 5643SOL     OW17827   5.583   1.981   5.878
 5643SOL    HW117828   5.678   2.008   5.894
 5643SOL    HW217829   5.533   2.059   5.839
 5644SOL     OW17830   2.973   0.019   6.447
 5644SOL    HW117831   2.896   0.073   6.483
 5644SOL    HW217832   3.052   0.079   6.434
 5645SOL     OW17833   5.654   3.990   4.646
 5645SOL    HW117834   5.640   3.905   4.595
 5645SOL    HW217835   5.736   3.983   4.702
 5646SOL     OW17836   1.367   4.439   2.829
 5646SOL    HW117837   1.375   4.512   2.897
 5646SOL    HW217838   1.322   4.360   2.870
 5647SOL     OW17839   6.085   6.589   2.717
 5647SOL    HW117840   6.002   6.579   2.772
 5647SOL    HW217841   6.161   6.618   2.775
 5648SOL     OW17842   4.720   5.965   3.683
 5648SOL    HW117843   4.796   6.024   3.655
 5648SOL    HW217844   4.651   6.020   3.730
 5649SOL     OW17845   1.250   6.603   3.922
 5649SOL    HW117846   1.218   6.509   3.935
 5649SOL    HW217847   1.350   6.603   3.915
 5650SOL     OW17848   6.275   4.169   6.153
 5650SOL    HW117849   6.301   4.144   6.060
 5650SOL    HW217850   6.298   4.265   6.170
 5651SOL     OW17851   2.955   1.077   0.587
 5651SOL    HW117852   2.985   1.152   0.646
 5651SOL    HW217853   3.035   1.026   0.555
 5652SOL     OW17854   0.233   6.162   2.624
 5652SOL    HW117855   0.201   6.250   2.659
 5652SOL    HW217856   0.323   6.174   2.582
 5653SOL     OW17857   6.684   0.359   1.885
 5653SOL    HW117858   6.768   0.407   1.859
 5653SOL    HW217859   6.700   0.260   1.880
 5654SOL     OW17860   3.417   6.047   4.905
 5654SOL    HW117861   3.327   6.090   4.916
 5654SOL    HW217862   3.453   6.069   4.814
 5655SOL     OW17863   5.415   2.833   5.290
 5655SOL    HW117864   5.429   2.812   5.193
 5655SOL    HW217865   5.373   2.923   5.299
 5656SOL     OW17866   6.816   3.338   0.332
 5656SOL    HW117867   6.835   3.374   0.424
 5656SOL    HW217868   6.748   3.395   0.287
 5657SOL     OW17869   5.265   5.301   4.766
 5657SOL    HW117870   5.227   5.393   4.756
 5657SOL    HW217871   5.309   5.293   4.855
 5658SOL     OW17872   2.519   2.715   5.623
 5658SOL    HW117873   2.446   2.685   5.562
 5658SOL    HW217874   2.556   2.802   5.590
 5659SOL     OW17875   2.474   4.088   6.426
 5659SOL    HW117876   2.527   4.015   6.468
 5659SOL    HW217877   2.431   4.055   6.342
 5660SOL     OW17878   4.672   0.477   5.641
 5660SOL    HW117879   4.599   0.416   5.673
 5660SOL    HW217880   4.667   0.486   5.541
 5661SOL     OW17881   0.971   5.799   6.105
 5661SOL    HW117882   1.067   5.805   6.077
 5661SOL    HW217883   0.941   5.704   6.101
 5662SOL     OW17884   3.129   6.475   0.949
 5662SOL    HW117885   3.108   6.422   1.031
 5662SOL    HW217886   3.211   6.530   0.965
 5663SOL     OW17887   1.570   3.176   5.971
 5663SOL    HW117888   1.619   3.089   5.974
 5663SOL    HW217889   1.480   3.163   5.930
 5664SOL     OW17890   4.915   4.583   4.663
 5664SOL    HW117891   4.828   4.586   4.713
 5664SOL    HW217892   4.909   4.518   4.588
 5665SOL     OW17893   1.406   1.571   0.693
 5665SOL    HW117894   1.485   1.597   0.747
 5665SOL    HW217895   1.355   1.652   0.666
 5666SOL     OW17896   6.200   2.513   4.808
 5666SOL    HW117897   6.102   2.519   4.786
 5666SOL    HW217898   6.220   2.569   4.888
 5667SOL     OW17899   2.536   4.784   4.029
 5667SOL    HW117900   2.584   4.838   4.098
 5667SOL    HW217901   2.559   4.687   4.041
 5668SOL     OW17902   4.845   3.971   3.562
 5668SOL    HW117903   4.936   3.935   3.582
 5668SOL    HW217904   4.809   4.016   3.643
 5669SOL     OW17905   5.052   4.457   6.250
 5669SOL    HW117906   5.120   4.385   6.264
 5669SOL    HW217907   5.026   4.460   6.154
 5670SOL     OW17908   1.501   2.448   3.557
 5670SOL    HW117909   1.554   2.493   3.629
 5670SOL    HW217910   1.404   2.448   3.582
 5671SOL     OW17911   7.000   5.006   3.976
 5671SOL    HW117912   6.987   4.954   4.060
 5671SOL    HW217913   6.928   4.984   3.911
 5672SOL     OW17914   5.480   3.535   4.518
 5672SOL    HW117915   5.563   3.532   4.574
 5672SOL    HW217916   5.505   3.529   4.421
 5673SOL     OW17917   0.600   1.828   0.506
 5673SOL    HW117918   0.692   1.833   0.545
 5673SOL    HW217919   0.549   1.911   0.529
 5674SOL     OW17920   2.643   4.957   4.684
 5674SOL    HW117921   2.560   4.928   4.731
 5674SOL    HW217922   2.697   4.877   4.660
 5675SOL     OW17923   2.799   2.090   0.938
 5675SOL    HW117924   2.797   2.044   0.850
 5675SOL    HW217925   2.774   2.186   0.926
 5676SOL     OW17926   3.361   1.333   1.686
 5676SOL    HW117927   3.309   1.341   1.771
 5676SOL    HW217928   3.310   1.376   1.611
 5677SOL     OW17929   0.412   1.451   6.369
 5677SOL    HW117930   0.455   1.510   6.437
 5677SOL    HW217931   0.317   1.479   6.356
 5678SOL     OW17932   3.559   1.975   1.975
 5678SOL    HW117933   3.480   1.976   2.037
 5678SOL    HW217934   3.611   2.060   1.987
 5679SOL     OW17935   6.610   4.395   5.283
 5679SOL    HW117936   6.698   4.408   5.329
 5679SOL    HW217937   6.625   4.391   5.184
 5680SOL     OW17938   0.833   5.742   5.166
 5680SOL    HW117939   0.867   5.776   5.254
 5680SOL    HW217940   0.834   5.642   5.167
 5681SOL     OW17941   1.052   3.771   3.578
 5681SOL    HW117942   1.050   3.672   3.584
 5681SOL    HW217943   1.136   3.800   3.531
 5682SOL     OW17944   1.903   4.428   1.016
 5682SOL    HW117945   1.815   4.387   1.043
 5682SOL    HW217946   1.929   4.391   0.927
 5683SOL     OW17947   6.452   0.325   6.242
 5683SOL    HW117948   6.361   0.364   6.256
 5683SOL    HW217949   6.485   0.349   6.150
 5684SOL     OW17950   2.213   3.080   4.709
 5684SOL    HW117951   2.269   3.063   4.789
 5684SOL    HW217952   2.186   3.177   4.707
 5685SOL     OW17953   2.449   2.103   1.823
 5685SOL    HW117954   2.437   2.006   1.802
 5685SOL    HW217955   2.542   2.119   1.857
 5686SOL     OW17956   4.652   5.456   5.452
 5686SOL    HW117957   4.602   5.420   5.373
 5686SOL    HW217958   4.748   5.470   5.427
 5687SOL     OW17959   1.896   6.614   6.388
 5687SOL    HW117960   1.867   6.669   6.466
 5687SOL    HW217961   1.880   6.517   6.407
 5688SOL     OW17962   2.005   1.886   2.952
 5688SOL    HW117963   2.084   1.946   2.962
 5688SOL    HW217964   1.959   1.907   2.865
 5689SOL     OW17965   0.388   2.456   1.182
 5689SOL    HW117966   0.408   2.418   1.272
 5689SOL    HW217967   0.290   2.447   1.163
 5690SOL     OW17968   2.624   4.977   6.788
 5690SOL    HW117969   2.541   4.960   6.841
 5690SOL    HW217970   2.704   4.948   6.841
 5691SOL     OW17971   4.525   1.990   2.915
 5691SOL    HW117972   4.573   1.925   2.973
 5691SOL    HW217973   4.426   1.979   2.926
 5692SOL     OW17974   6.397   4.412   1.735
 5692SOL    HW117975   6.440   4.471   1.802
 5692SOL    HW217976   6.338   4.346   1.781
 5693SOL     OW17977   4.167   0.392   1.946
 5693SOL    HW117978   4.201   0.474   1.898
 5693SOL    HW217979   4.216   0.312   1.913
 5694SOL     OW17980   0.965   0.270   1.484
 5694SOL    HW117981   0.976   0.369   1.493
 5694SOL    HW217982   1.034   0.224   1.539
 5695SOL     OW17983   2.760   1.381   1.679
 5695SOL    HW117984   2.834   1.314   1.690
 5695SOL    HW217985   2.676   1.344   1.717
 5696SOL     OW17986   0.539   0.247   3.981
 5696SOL    HW117987   0.460   0.264   4.040
 5696SOL    HW217988   0.588   0.166   4.013
 5697SOL     OW17989   6.718   1.958   6.854
 5697SOL    HW117990   6.743   1.991   6.945
 5697SOL    HW217991   6.760   1.868   6.839
 5698SOL     OW17992   3.228   2.105   4.556
 5698SOL    HW117993   3.201   2.010   4.572
 5698SOL    HW217994   3.146   2.162   4.549
 5699SOL     OW17995   2.195   2.957   2.065
 5699SOL    HW117996   2.222   3.041   2.020
 5699SOL    HW217997   2.183   2.974   2.163
 5700SOL     OW17998   6.471   0.283   2.667
 5700SOL    HW117999   6.452   0.334   2.751
 5700SOL    HW218000   6.398   0.215   2.653
 5701SOL     OW18001   1.142   0.516   0.502
 5701SOL    HW118002   1.228   0.557   0.533
 5701SOL    HW218003   1.113   0.448   0.569
 5702SOL     OW18004   2.205   0.194   4.785
 5702SOL    HW118005   2.132   0.219   4.721
 5702SOL    HW218006   2.177   0.114   4.838
 5703SOL     OW18007   7.012   3.315   5.899
 5703SOL    HW118008   6.936   3.251   5.887
 5703SOL    HW218009   0.064   3.270   5.952
 5704SOL     OW18010   3.916   5.181   4.054
 5704SOL    HW118011   3.858   5.221   4.125
 5704SOL    HW218012   3.873   5.097   4.019
 5705SOL     OW18013   6.414   0.564   5.737
 5705SOL    HW118014   6.373   0.637   5.793
 5705SOL    HW218015   6.356   0.546   5.658
 5706SOL     OW18016   4.909   2.029   1.201
 5706SOL    HW118017   4.873   2.079   1.280
 5706SOL    HW218018   5.006   2.052   1.188
 5707SOL     OW18019   6.144   5.160   1.237
 5707SOL    HW118020   6.166   5.255   1.260
 5707SOL    HW218021   6.161   5.102   1.317
 5708SOL     OW18022   5.129   6.009   2.277
 5708SOL    HW118023   5.222   6.021   2.241
 5708SOL    HW218024   5.085   5.932   2.230
 5709SOL     OW18025   6.898   2.477   2.549
 5709SOL    HW118026   6.818   2.421   2.568
 5709SOL    HW218027   6.951   2.489   2.633
 5710SOL     OW18028   4.593   1.503   0.230
 5710SOL    HW118029   4.660   1.436   0.199
 5710SOL    HW218030   4.590   1.504   0.330
 5711SOL     OW18031   4.931   1.722   2.768
 5711SOL    HW118032   4.917   1.809   2.815
 5711SOL    HW218033   4.938   1.737   2.669
 5712SOL     OW18034   6.077   6.132   0.193
 5712SOL    HW118035   6.032   6.079   0.265
 5712SOL    HW218036   6.096   6.224   0.227
 5713SOL     OW18037   1.437   0.983   0.325
 5713SOL    HW118038   1.390   0.929   0.395
 5713SOL    HW218039   1.428   0.938   0.237
 5714SOL     OW18040   6.504   0.198   0.481
 5714SOL    HW118041   6.481   0.292   0.454
 5714SOL    HW218042   6.510   0.193   0.581
 5715SOL     OW18043   0.177   7.002   1.859
 5715SOL    HW118044   0.178   0.020   1.951
 5715SOL    HW218045   0.253   6.937   1.849
 5716SOL     OW18046   6.859   4.394   5.465
 5716SOL    HW118047   6.827   4.371   5.557
 5716SOL    HW218048   6.899   4.312   5.423
 5717SOL     OW18049   0.768   5.414   3.625
 5717SOL    HW118050   0.792   5.329   3.578
 5717SOL    HW218051   0.691   5.458   3.578
 5718SOL     OW18052   1.228   3.700   6.667
 5718SOL    HW118053   1.287   3.621   6.648
 5718SOL    HW218054   1.224   3.715   6.765
 5719SOL     OW18055   2.858   3.634   0.641
 5719SOL    HW118056   2.937   3.572   0.642
 5719SOL    HW218057   2.880   3.714   0.585
 5720SOL     OW18058   2.919   4.717   5.853
 5720SOL    HW118059   2.868   4.800   5.833
 5720SOL    HW218060   2.880   4.672   5.933
 5721SOL     OW18061   1.981   3.014   7.007
 5721SOL    HW118062   2.001   2.924   0.025
 5721SOL    HW218063   1.890   3.014   6.966
 5722SOL     OW18064   1.030   0.251   6.771
 5722SOL    HW118065   1.011   0.178   6.837
 5722SOL    HW218066   1.108   0.306   6.802
 5723SOL     OW18067   4.028   3.282   0.762
 5723SOL    HW118068   3.987   3.371   0.784
 5723SOL    HW218069   3.955   3.215   0.745
 5724SOL     OW18070   5.606   2.226   6.092
 5724SOL    HW118071   5.554   2.147   6.126
 5724SOL    HW218072   5.698   2.197   6.067
 5725SOL     OW18073   0.406   4.822   4.816
 5725SOL    HW118074   0.319   4.836   4.769
 5725SOL    HW218075   0.454   4.909   4.825
 5726SOL     OW18076   5.353   4.266   2.201
 5726SOL    HW118077   5.418   4.194   2.224
 5726SOL    HW218078   5.300   4.238   2.120
 5727SOL     OW18079   1.238   2.877   4.940
 5727SOL    HW118080   1.224   2.847   5.035
 5727SOL    HW218081   1.250   2.976   4.938
 5728SOL     OW18082   3.724   6.704   5.324
 5728SOL    HW118083   3.710   6.615   5.367
 5728SOL    HW218084   3.741   6.773   5.394
 5729SOL     OW18085   2.852   1.887   5.090
 5729SOL    HW118086   2.862   1.888   4.990
 5729SOL    HW218087   2.883   1.974   5.127
 5730SOL     OW18088   6.644   4.143   4.815
 5730SOL    HW118089   6.592   4.091   4.747
 5730SOL    HW218090   6.739   4.152   4.784
 5731SOL     OW18091   0.737   6.754   2.798
 5731SOL    HW118092   0.695   6.841   2.825
 5731SOL    HW218093   0.819   6.738   2.853
 5732SOL     OW18094   0.543   0.848   3.298
 5732SOL    HW118095   0.626   0.852   3.242
 5732SOL    HW218096   0.530   0.754   3.331
 5733SOL     OW18097   2.954   0.569   4.898
 5733SOL    HW118098   2.890   0.619   4.840
 5733SOL    HW218099   2.955   0.609   4.989
 5734SOL     OW18100   1.793   6.847   3.548
 5734SOL    HW118101   1.783   6.791   3.631
 5734SOL    HW218102   1.702   6.864   3.510
 5735SOL     OW18103   3.110   0.629   1.353
 5735SOL    HW118104   3.070   0.675   1.432
 5735SOL    HW218105   3.179   0.689   1.311
 5736SOL     OW18106   1.572   5.427   0.517
 5736SOL    HW118107   1.530   5.362   0.454
 5736SOL    HW218108   1.588   5.383   0.605
 5737SOL     OW18109   5.617   3.857   0.095
 5737SOL    HW118110   5.598   3.948   0.130
 5737SOL    HW218111   5.607   3.856   7.017
 5738SOL     OW18112   0.989   4.644   4.927
 5738SOL    HW118113   1.030   4.628   5.016
 5738SOL    HW218114   0.943   4.561   4.895
 5739SOL     OW18115   0.659   2.651   1.406
 5739SOL    HW118116   0.701   2.560   1.401
 5739SOL    HW218117   0.560   2.642   1.417
 5740SOL     OW18118   3.969   5.157   6.976
 5740SOL    HW118119   3.891   5.094   6.983
 5740SOL    HW218120   3.977   5.208   0.041
 5741SOL     OW18121   0.215   3.764   1.817
 5741SOL    HW118122   0.186   3.821   1.894
 5741SOL    HW218123   0.230   3.821   1.737
 5742SOL     OW18124   0.301   5.513   4.346
 5742SOL    HW118125   0.383   5.565   4.320
 5742SOL    HW218126   0.328   5.421   4.374
 5743SOL     OW18127   2.008   6.094   4.731
 5743SOL    HW118128   1.957   6.126   4.811
 5743SOL    HW218129   2.079   6.030   4.761
 5744SOL     OW18130   6.025   0.195   1.489
 5744SOL    HW118131   5.992   0.267   1.551
 5744SOL    HW218132   6.031   0.108   1.540
 5745SOL     OW18133   1.497   2.818   2.975
 5745SOL    HW118134   1.440   2.806   3.056
 5745SOL    HW218135   1.539   2.730   2.950
 5746SOL     OW18136   6.247   3.912   6.772
 5746SOL    HW118137   6.231   3.814   6.767
 5746SOL    HW218138   6.344   3.929   6.791
 5747SOL     OW18139   1.089   6.477   3.506
 5747SOL    HW118140   1.030   6.554   3.527
 5747SOL    HW218141   1.067   6.400   3.567
 5748SOL     OW18142   2.206   6.589   4.071
 5748SOL    HW118143   2.161   6.534   4.142
 5748SOL    HW218144   2.138   6.622   4.006
 5749SOL     OW18145   1.302   0.887   2.904
 5749SOL    HW118146   1.358   0.956   2.856
 5749SOL    HW218147   1.211   0.884   2.863
 5750SOL     OW18148   5.745   6.263   2.592
 5750SOL    HW118149   5.826   6.270   2.534
 5750SOL    HW218150   5.686   6.190   2.559
 5751SOL     OW18151   0.764   3.197   6.134
 5751SOL    HW118152   0.718   3.108   6.141
 5751SOL    HW218153   0.830   3.206   6.209
 5752SOL     OW18154   1.021   1.343   6.697
 5752SOL    HW118155   0.971   1.328   6.782
 5752SOL    HW218156   0.985   1.281   6.626
 5753SOL     OW18157   4.529   1.893   0.300
 5753SOL    HW118158   4.525   1.972   0.361
 5753SOL    HW218159   4.623   1.882   0.266
 5754SOL     OW18160   5.802   5.394   0.440
 5754SOL    HW118161   5.851   5.314   0.406
 5754SOL    HW218162   5.728   5.365   0.500
 5755SOL     OW18163   3.345   3.854   1.349
 5755SOL    HW118164   3.248   3.846   1.371
 5755SOL    HW218165   3.388   3.920   1.410
 5756SOL     OW18166   6.855   6.418   4.231
 5756SOL    HW118167   6.778   6.427   4.168
 5756SOL    HW218168   6.869   6.504   4.280
 5757SOL     OW18169   6.707   6.217   1.935
 5757SOL    HW118170   6.721   6.261   1.846
 5757SOL    HW218171   6.753   6.128   1.936
 5758SOL     OW18172   2.737   1.246   5.409
 5758SOL    HW118173   2.759   1.338   5.440
 5758SOL    HW218174   2.650   1.247   5.360
 5759SOL     OW18175   0.726   1.762   5.424
 5759SOL    HW118176   0.691   1.668   5.425
 5759SOL    HW218177   0.809   1.767   5.479
 5760SOL     OW18178   0.414   5.607   1.330
 5760SOL    HW118179   0.470   5.684   1.362
 5760SOL    HW218180   0.433   5.527   1.386
 5761SOL     OW18181   4.951   0.324   4.833
 5761SOL    HW118182   5.044   0.297   4.857
 5761SOL    HW218183   4.918   0.391   4.899
 5762SOL     OW18184   5.991   6.429   1.181
 5762SOL    HW118185   6.009   6.332   1.197
 5762SOL    HW218186   5.978   6.445   1.083
 5763SOL     OW18187   2.216   1.319   0.480
 5763SOL    HW118188   2.295   1.258   0.473
 5763SOL    HW218189   2.213   1.359   0.571
 5764SOL     OW18190   4.558   3.450   6.236
 5764SOL    HW118191   4.605   3.499   6.162
 5764SOL    HW218192   4.600   3.474   6.323
 5765SOL     OW18193   6.434   4.971   0.330
 5765SOL    HW118194   6.506   4.906   0.308
 5765SOL    HW218195   6.408   5.021   0.248
 5766SOL     OW18196   2.847   1.289   3.238
 5766SOL    HW118197   2.779   1.312   3.308
 5766SOL    HW218198   2.856   1.365   3.173
 5767SOL     OW18199   5.590   0.366   0.553
 5767SOL    HW118200   5.681   0.360   0.594
 5767SOL    HW218201   5.567   0.462   0.538
 5768SOL     OW18202   6.269   0.519   2.397
 5768SOL    HW118203   6.325   0.542   2.476
 5768SOL    HW218204   6.309   0.558   2.314
 5769SOL     OW18205   1.949   4.904   3.049
 5769SOL    HW118206   1.924   4.808   3.032
 5769SOL    HW218207   2.025   4.908   3.113
 5770SOL     OW18208   5.271   2.163   1.495
 5770SOL    HW118209   5.245   2.244   1.442
 5770SOL    HW218210   5.369   2.165   1.512
 5771SOL     OW18211   1.080   0.973   0.897
 5771SOL    HW118212   1.063   0.895   0.957
 5771SOL    HW218213   1.004   0.982   0.832
 5772SOL     OW18214   6.599   4.857   5.876
 5772SOL    HW118215   6.505   4.824   5.869
 5772SOL    HW218216   6.599   4.951   5.911
 5773SOL     OW18217   5.132   5.817   4.936
 5773SOL    HW118218   5.042   5.858   4.922
 5773SOL    HW218219   5.121   5.721   4.962
 5774SOL     OW18220   2.350   5.063   2.422
 5774SOL    HW118221   2.384   5.138   2.478
 5774SOL    HW218222   2.411   5.048   2.345
 5775SOL     OW18223   0.674   1.055   0.483
 5775SOL    HW118224   0.583   1.014   0.475
 5775SOL    HW218225   0.703   1.088   0.394
 5776SOL     OW18226   4.498   1.112   5.973
 5776SOL    HW118227   4.403   1.142   5.978
 5776SOL    HW218228   4.532   1.125   5.879
 5777SOL     OW18229   5.487   0.119   5.317
 5777SOL    HW118230   5.400   0.108   5.269
 5777SOL    HW218231   5.511   0.034   5.364
 5778SOL     OW18232   2.851   6.964   4.083
 5778SOL    HW118233   2.795   6.883   4.068
 5778SOL    HW218234   2.810   0.000   4.155
 5779SOL     OW18235   4.032   0.167   1.248
 5779SOL    HW118236   3.976   0.186   1.329
 5779SOL    HW218237   3.986   0.202   1.167
 5780SOL     OW18238   6.238   3.747   0.480
 5780SOL    HW118239   6.162   3.806   0.508
 5780SOL    HW218240   6.202   3.657   0.455
 5781SOL     OW18241   3.186   4.163   5.209
 5781SOL    HW118242   3.219   4.168   5.115
 5781SOL    HW218243   3.137   4.248   5.232
 5782SOL     OW18244   4.149   1.332   3.124
 5782SOL    HW118245   4.240   1.363   3.095
 5782SOL    HW218246   4.082   1.403   3.101
 5783SOL     OW18247   2.602   6.438   2.472
 5783SOL    HW118248   2.691   6.403   2.444
 5783SOL    HW218249   2.555   6.369   2.527
 5784SOL     OW18250   1.509   6.332   0.325
 5784SOL    HW118251   1.449   6.278   0.384
 5784SOL    HW218252   1.554   6.403   0.379
 5785SOL     OW18253   2.356   2.121   6.323
 5785SOL    HW118254   2.293   2.191   6.288
 5785SOL    HW218255   2.378   2.056   6.251
 5786SOL     OW18256   0.482   2.119   5.697
 5786SOL    HW118257   0.539   2.046   5.735
 5786SOL    HW218258   0.486   2.199   5.757
 5787SOL     OW18259   0.539   2.475   4.761
 5787SOL    HW118260   0.508   2.548   4.700
 5787SOL    HW218261   0.639   2.475   4.765
 5788SOL     OW18262   0.302   1.747   1.643
 5788SOL    HW118263   0.316   1.709   1.552
 5788SOL    HW218264   0.208   1.779   1.652
 5789SOL     OW18265   2.689   5.950   6.652
 5789SOL    HW118266   2.734   5.868   6.686
 5789SOL    HW218267   2.740   5.988   6.575
 5790SOL     OW18268   6.854   6.600   2.566
 5790SOL    HW118269   6.895   6.678   2.518
 5790SOL    HW218270   6.811   6.539   2.499
 5791SOL     OW18271   3.731   0.706   0.705
 5791SOL    HW118272   3.685   0.729   0.791
 5791SOL    HW218273   3.810   0.647   0.725
 5792SOL     OW18274   4.977   2.630   2.194
 5792SOL    HW118275   4.881   2.646   2.170
 5792SOL    HW218276   5.025   2.718   2.201
 5793SOL     OW18277   4.202   1.498   0.273
 5793SOL    HW118278   4.279   1.435   0.262
 5793SOL    HW218279   4.231   1.591   0.251
 5794SOL     OW18280   2.993   5.619   0.177
 5794SOL    HW118281   2.919   5.556   0.152
 5794SOL    HW218282   2.960   5.713   0.173
 5795SOL     OW18283   0.769   0.286   0.967
 5795SOL    HW118284   0.849   0.280   1.027
 5795SOL    HW218285   0.795   0.333   0.882
 5796SOL     OW18286   4.964   0.431   5.837
 5796SOL    HW118287   4.988   0.487   5.758
 5796SOL    HW218288   4.892   0.366   5.813
 5797SOL     OW18289   0.023   2.580   0.145
 5797SOL    HW118290   0.096   2.647   0.157
 5797SOL    HW218291   6.985   2.607   0.069
 5798SOL     OW18292   2.149   2.596   4.157
 5798SOL    HW118293   2.088   2.607   4.079
 5798SOL    HW218294   2.148   2.501   4.188
 5799SOL     OW18295   2.732   0.600   3.519
 5799SOL    HW118296   2.680   0.683   3.500
 5799SOL    HW218297   2.673   0.534   3.565
 5800SOL     OW18298   1.126   6.436   2.006
 5800SOL    HW118299   1.121   6.517   2.065
 5800SOL    HW218300   1.176   6.364   2.053
 5801SOL     OW18301   1.857   1.956   2.701
 5801SOL    HW118302   1.881   2.053   2.689
 5801SOL    HW218303   1.776   1.949   2.759
 5802SOL     OW18304   0.210   0.007   2.874
 5802SOL    HW118305   0.111   0.015   2.861
 5802SOL    HW218306   0.258   0.042   2.793
 5803SOL     OW18307   0.526   6.671   3.950
 5803SOL    HW118308   0.601   6.607   3.933
 5803SOL    HW218309   0.516   6.685   4.049
 5804SOL     OW18310   6.231   1.854   3.806
 5804SOL    HW118311   6.307   1.792   3.784
 5804SOL    HW218312   6.250   1.945   3.770
 5805SOL     OW18313   0.793   2.424   1.326
 5805SOL    HW118314   0.697   2.396   1.328
 5805SOL    HW218315   0.850   2.350   1.361
 5806SOL     OW18316   6.751   3.972   1.900
 5806SOL    HW118317   6.691   3.986   1.821
 5806SOL    HW218318   6.828   4.035   1.896
 5807SOL     OW18319   1.114   1.586   1.932
 5807SOL    HW118320   1.088   1.664   1.989
 5807SOL    HW218321   1.034   1.527   1.918
 5808SOL     OW18322   6.724   0.166   5.439
 5808SOL    HW118323   6.685   0.172   5.347
 5808SOL    HW218324   6.693   0.243   5.493
 5809SOL     OW18325   0.244   3.197   4.054
 5809SOL    HW118326   0.171   3.262   4.036
 5809SOL    HW218327   0.224   3.111   4.006
 5810SOL     OW18328   1.601   7.004   5.534
 5810SOL    HW118329   1.536   6.955   5.477
 5810SOL    HW218330   1.596   6.970   5.628
 5811SOL     OW18331   3.269   5.295   0.092
 5811SOL    HW118332   3.260   5.329   0.185
 5811SOL    HW218333   3.340   5.347   0.044
 5812SOL     OW18334   6.304   3.363   5.923
 5812SOL    HW118335   6.222   3.317   5.958
 5812SOL    HW218336   6.385   3.328   5.972
 5813SOL     OW18337   6.091   4.814   0.828
 5813SOL    HW118338   6.184   4.834   0.799
 5813SOL    HW218339   6.030   4.886   0.795
 5814SOL     OW18340   5.257   1.111   2.443
 5814SOL    HW118341   5.221   1.039   2.383
 5814SOL    HW218342   5.232   1.090   2.538
 5815SOL     OW18343   6.096   3.791   4.542
 5815SOL    HW118344   6.005   3.806   4.503
 5815SOL    HW218345   6.087   3.744   4.630
 5816SOL     OW18346   6.790   4.309   1.108
 5816SOL    HW118347   6.876   4.331   1.063
 5816SOL    HW218348   6.742   4.238   1.057
 5817SOL     OW18349   6.899   3.017   3.700
 5817SOL    HW118350   6.939   2.994   3.611
 5817SOL    HW218351   6.943   2.963   3.772
 5818SOL     OW18352   2.518   6.935   3.844
 5818SOL    HW118353   2.532   6.995   3.922
 5818SOL    HW218354   2.430   6.889   3.853
 5819SOL     OW18355   4.153   4.357   1.007
 5819SOL    HW118356   4.139   4.302   0.926
 5819SOL    HW218357   4.234   4.415   0.995
 5820SOL     OW18358   0.173   6.722   2.381
 5820SOL    HW118359   0.224   6.712   2.466
 5820SOL    HW218360   0.081   6.755   2.401
 5821SOL     OW18361   6.288   6.762   2.077
 5821SOL    HW118362   6.215   6.731   2.137
 5821SOL    HW218363   6.354   6.816   2.130
 5822SOL     OW18364   0.792   3.870   2.824
 5822SOL    HW118365   0.764   3.915   2.909
 5822SOL    HW218366   0.841   3.786   2.846
 5823SOL     OW18367   2.495   6.748   5.197
 5823SOL    HW118368   2.523   6.701   5.112
 5823SOL    HW218369   2.564   6.815   5.221
 5824SOL     OW18370   2.173   5.945   2.106
 5824SOL    HW118371   2.137   5.852   2.105
 5824SOL    HW218372   2.190   5.973   2.200
 5825SOL     OW18373   4.323   1.690   5.502
 5825SOL    HW118374   4.250   1.623   5.514
 5825SOL    HW218375   4.372   1.671   5.417
 5826SOL     OW18376   1.578   6.186   4.596
 5826SOL    HW118377   1.571   6.219   4.501
 5826SOL    HW218378   1.654   6.232   4.642
 5827SOL     OW18379   1.956   3.613   3.264
 5827SOL    HW118380   2.012   3.696   3.260
 5827SOL    HW218381   1.930   3.595   3.359
 5828SOL     OW18382   4.365   6.813   4.885
 5828SOL    HW118383   4.374   6.859   4.973
 5828SOL    HW218384   4.400   6.719   4.893
 5829SOL     OW18385   2.278   0.804   2.656
 5829SOL    HW118386   2.230   0.732   2.706
 5829SOL    HW218387   2.213   0.878   2.635
 5830SOL     OW18388   4.467   5.362   4.492
 5830SOL    HW118389   4.422   5.283   4.534
 5830SOL    HW218390   4.450   5.443   4.548
 5831SOL     OW18391   1.898   1.795   4.433
 5831SOL    HW118392   1.841   1.714   4.419
 5831SOL    HW218393   1.909   1.812   4.531
 5832SOL     OW18394   2.192   4.975   3.730
 5832SOL    HW118395   2.174   5.071   3.711
 5832SOL    HW218396   2.249   4.968   3.813
 5833SOL     OW18397   3.210   4.758   1.068
 5833SOL    HW118398   3.306   4.765   1.096
 5833SOL    HW218399   3.154   4.729   1.146
 5834SOL     OW18400   6.030   2.363   6.669
 5834SOL    HW118401   5.999   2.276   6.706
 5834SOL    HW218402   5.958   2.432   6.680
 5835SOL     OW18403   4.055   1.556   3.755
 5835SOL    HW118404   3.982   1.613   3.793
 5835SOL    HW218405   4.103   1.509   3.830
 5836SOL     OW18406   5.011   5.530   1.487
 5836SOL    HW118407   4.913   5.524   1.472
 5836SOL    HW218408   5.048   5.439   1.507
 5837SOL     OW18409   2.716   4.121   0.140
 5837SOL    HW118410   2.646   4.188   0.116
 5837SOL    HW218411   2.725   4.116   0.239
 5838SOL     OW18412   3.424   3.142   0.209
 5838SOL    HW118413   3.482   3.217   0.177
 5838SOL    HW218414   3.343   3.135   0.151
 5839SOL     OW18415   1.996   1.367   0.847
 5839SOL    HW118416   2.063   1.427   0.804
 5839SOL    HW218417   1.984   1.394   0.943
 5840SOL     OW18418   6.959   3.312   2.737
 5840SOL    HW118419   7.009   3.292   2.652
 5840SOL    HW218420   6.907   3.396   2.726
 5841SOL     OW18421   5.019   1.767   0.362
 5841SOL    HW118422   5.067   1.758   0.449
 5841SOL    HW218423   4.979   1.680   0.336
 5842SOL     OW18424   3.471   2.072   2.425
 5842SOL    HW118425   3.524   2.018   2.491
 5842SOL    HW218426   3.518   2.159   2.409
 5843SOL     OW18427   3.141   3.186   1.161
 5843SOL    HW118428   3.203   3.174   1.083
 5843SOL    HW218429   3.087   3.269   1.148
 5844SOL     OW18430   0.183   6.059   5.007
 5844SOL    HW118431   0.233   6.056   4.921
 5844SOL    HW218432   0.165   5.966   5.039
 5845SOL     OW18433   2.157   6.451   3.038
 5845SOL    HW118434   2.217   6.473   3.115
 5845SOL    HW218435   2.201   6.477   2.953
 5846SOL     OW18436   0.294   4.728   5.780
 5846SOL    HW118437   0.393   4.732   5.767
 5846SOL    HW218438   0.248   4.726   5.691
 5847SOL     OW18439   1.979   4.117   6.115
 5847SOL    HW118440   1.944   4.150   6.027
 5847SOL    HW218441   2.050   4.049   6.099
 5848SOL     OW18442   2.592   6.225   1.573
 5848SOL    HW118443   2.513   6.173   1.541
 5848SOL    HW218444   2.675   6.170   1.564
 5849SOL     OW18445   2.744   5.981   6.336
 5849SOL    HW118446   2.823   5.940   6.291
 5849SOL    HW218447   2.669   5.914   6.339
 5850SOL     OW18448   5.531   2.281   1.493
 5850SOL    HW118449   5.564   2.208   1.552
 5850SOL    HW218450   5.601   2.304   1.426
 5851SOL     OW18451   0.748   3.532   4.570
 5851SOL    HW118452   0.813   3.488   4.509
 5851SOL    HW218453   0.674   3.469   4.592
 5852SOL     OW18454   5.006   4.253   2.739
 5852SOL    HW118455   5.095   4.274   2.697
 5852SOL    HW218456   4.977   4.162   2.711
 5853SOL     OW18457   4.227   5.301   0.083
 5853SOL    HW118458   4.164   5.229   0.111
 5853SOL    HW218459   4.299   5.263   0.026
 5854SOL     OW18460   2.923   4.700   5.408
 5854SOL    HW118461   3.007   4.691   5.462
 5854SOL    HW218462   2.943   4.682   5.312
 5855SOL     OW18463   1.681   2.237   4.773
 5855SOL    HW118464   1.620   2.257   4.849
 5855SOL    HW218465   1.775   2.262   4.797
 5856SOL     OW18466   0.508   0.198   2.165
 5856SOL    HW118467   0.552   0.149   2.241
 5856SOL    HW218468   0.577   0.253   2.117
 5857SOL     OW18469   5.627   5.002   6.804
 5857SOL    HW118470   5.691   5.070   6.771
 5857SOL    HW218471   5.552   5.047   6.852
 5858SOL     OW18472   2.857   1.637   2.415
 5858SOL    HW118473   2.848   1.564   2.347
 5858SOL    HW218474   2.792   1.710   2.394
 5859SOL     OW18475   5.702   5.480   1.963
 5859SOL    HW118476   5.672   5.417   2.034
 5859SOL    HW218477   5.729   5.567   2.005
 5860SOL     OW18478   2.118   3.312   2.557
 5860SOL    HW118479   2.123   3.398   2.506
 5860SOL    HW218480   2.040   3.259   2.526
 5861SOL     OW18481   5.561   0.619   5.203
 5861SOL    HW118482   5.470   0.649   5.175
 5861SOL    HW218483   5.585   0.662   5.290
 5862SOL     OW18484   6.643   5.061   2.966
 5862SOL    HW118485   6.578   5.044   3.041
 5862SOL    HW218486   6.600   5.121   2.898
 5863SOL     OW18487   4.125   0.307   5.852
 5863SOL    HW118488   4.177   0.305   5.767
 5863SOL    HW218489   4.145   0.224   5.905
 5864SOL     OW18490   3.775   3.125   3.368
 5864SOL    HW118491   3.684   3.168   3.365
 5864SOL    HW218492   3.778   3.048   3.305
 5865SOL     OW18493   6.077   6.913   1.348
 5865SOL    HW118494   6.034   6.906   1.438
 5865SOL    HW218495   6.029   6.854   1.283
 5866SOL     OW18496   3.374   3.222   3.534
 5866SOL    HW118497   3.289   3.275   3.529
 5866SOL    HW218498   3.358   3.137   3.585
 5867SOL     OW18499   4.160   1.416   0.605
 5867SOL    HW118500   4.205   1.471   0.675
 5867SOL    HW218501   4.102   1.475   0.549
 5868SOL     OW18502   1.315   0.846   0.547
 5868SOL    HW118503   1.312   0.878   0.642
 5868SOL    HW218504   1.375   0.766   0.542
 5869SOL     OW18505   2.094   5.588   3.070
 5869SOL    HW118506   2.027   5.636   3.012
 5869SOL    HW218507   2.133   5.511   3.020
 5870SOL     OW18508   4.394   6.957   4.370
 5870SOL    HW118509   4.345   6.944   4.284
 5870SOL    HW218510   4.441   0.024   4.370
 5871SOL     OW18511   3.612   3.514   3.497
 5871SOL    HW118512   3.587   3.465   3.581
 5871SOL    HW218513   3.712   3.517   3.489
 5872SOL     OW18514   3.307   5.931   1.214
 5872SOL    HW118515   3.382   5.865   1.220
 5872SOL    HW218516   3.311   5.979   1.126
 5873SOL     OW18517   3.982   6.324   2.004
 5873SOL    HW118518   3.917   6.370   1.944
 5873SOL    HW218519   3.972   6.225   1.994
 5874SOL     OW18520   0.513   4.574   4.897
 5874SOL    HW118521   0.504   4.522   4.812
 5874SOL    HW218522   0.486   4.669   4.881
 5875SOL     OW18523   4.070   2.623   1.043
 5875SOL    HW118524   4.043   2.669   1.127
 5875SOL    HW218525   4.137   2.551   1.063
 5876SOL     OW18526   3.624   2.876   2.544
 5876SOL    HW118527   3.642   2.874   2.446
 5876SOL    HW218528   3.528   2.900   2.559
 5877SOL     OW18529   5.296   4.752   1.514
 5877SOL    HW118530   5.395   4.738   1.503
 5877SOL    HW218531   5.280   4.825   1.581
 5878SOL     OW18532   1.395   3.776   2.534
 5878SOL    HW118533   1.444   3.739   2.455
 5878SOL    HW218534   1.335   3.850   2.504
 5879SOL     OW18535   2.205   3.835   4.394
 5879SOL    HW118536   2.142   3.801   4.464
 5879SOL    HW218537   2.242   3.923   4.423
 5880SOL     OW18538   2.803   5.650   6.655
 5880SOL    HW118539   2.811   5.665   6.754
 5880SOL    HW218540   2.883   5.600   6.622
 5881SOL     OW18541   1.840   6.599   4.584
 5881SOL    HW118542   1.842   6.502   4.610
 5881SOL    HW218543   1.915   6.647   4.630
 5882SOL     OW18544   4.722   0.233   3.032
 5882SOL    HW118545   4.738   0.324   3.071
 5882SOL    HW218546   4.806   0.180   3.037
 5883SOL     OW18547   1.325   2.894   4.682
 5883SOL    HW118548   1.288   2.900   4.775
 5883SOL    HW218549   1.273   2.826   4.630
 5884SOL     OW18550   0.047   0.681   2.784
 5884SOL    HW118551   0.084   0.719   2.868
 5884SOL    HW218552   6.970   0.660   2.796
 5885SOL     OW18553   5.447   6.858   0.614
 5885SOL    HW118554   5.440   6.805   0.698
 5885SOL    HW218555   5.543   6.882   0.596
 5886SOL     OW18556   5.979   1.849   6.517
 5886SOL    HW118557   6.047   1.886   6.453
 5886SOL    HW218558   5.889   1.882   6.491
 5887SOL     OW18559   3.840   5.747   3.041
 5887SOL    HW118560   3.840   5.673   3.108
 5887SOL    HW218561   3.932   5.760   3.006
 5888SOL     OW18562   6.653   6.218   2.242
 5888SOL    HW118563   6.602   6.222   2.157
 5888SOL    HW218564   6.716   6.140   2.239
 5889SOL     OW18565   3.103   6.959   6.768
 5889SOL    HW118566   3.018   6.909   6.784
 5889SOL    HW218567   3.168   6.899   6.720
 5890SOL     OW18568   3.890   5.079   6.321
 5890SOL    HW118569   3.965   5.026   6.280
 5890SOL    HW218570   3.924   5.130   6.399
 5891SOL     OW18571   1.690   3.440   5.892
 5891SOL    HW118572   1.648   3.349   5.894
 5891SOL    HW218573   1.665   3.489   5.976
 5892SOL     OW18574   2.189   6.222   2.855
 5892SOL    HW118575   2.279   6.180   2.863
 5892SOL    HW218576   2.197   6.321   2.867
 5893SOL     OW18577   1.502   2.215   2.761
 5893SOL    HW118578   1.571   2.198   2.832
 5893SOL    HW218579   1.486   2.314   2.754
 5894SOL     OW18580   1.500   3.858   4.249
 5894SOL    HW118581   1.402   3.867   4.233
 5894SOL    HW218582   1.540   3.948   4.265
 5895SOL     OW18583   5.955   4.296   3.375
 5895SOL    HW118584   5.893   4.217   3.381
 5895SOL    HW218585   6.016   4.295   3.455
 5896SOL     OW18586   4.989   2.945   6.024
 5896SOL    HW118587   4.987   2.884   5.945
 5896SOL    HW218588   4.988   2.891   6.108
 5897SOL     OW18589   4.441   5.385   0.859
 5897SOL    HW118590   4.342   5.376   0.854
 5897SOL    HW218591   4.472   5.454   0.793
 5898SOL     OW18592   2.711   6.946   3.264
 5898SOL    HW118593   2.741   0.006   3.214
 5898SOL    HW218594   2.615   6.955   3.289
 5899SOL     OW18595   5.324   0.618   4.148
 5899SOL    HW118596   5.263   0.680   4.098
 5899SOL    HW218597   5.416   0.657   4.151
 5900SOL     OW18598   3.882   4.855   2.022
 5900SOL    HW118599   3.792   4.849   2.065
 5900SOL    HW218600   3.897   4.774   1.965
 5901SOL     OW18601   2.735   6.266   4.734
 5901SOL    HW118602   2.749   6.340   4.668
 5901SOL    HW218603   2.768   6.295   4.824
 5902SOL     OW18604   6.029   2.436   0.306
 5902SOL    HW118605   6.041   2.431   0.207
 5902SOL    HW218606   6.051   2.348   0.347
 5903SOL     OW18607   0.062   2.924   6.165
 5903SOL    HW118608   6.996   2.941   6.213
 5903SOL    HW218609   0.136   2.973   6.212
 5904SOL     OW18610   1.605   3.091   2.245
 5904SOL    HW118611   1.585   3.001   2.285
 5904SOL    HW218612   1.599   3.086   2.145
 5905SOL     OW18613   0.458   4.600   2.658
 5905SOL    HW118614   0.368   4.568   2.628
 5905SOL    HW218615   0.448   4.678   2.719
 5906SOL     OW18616   0.681   0.206   2.952
 5906SOL    HW118617   0.763   0.203   2.895
 5906SOL    HW218618   0.695   0.150   3.034
 5907SOL     OW18619   2.307   6.951   2.699
 5907SOL    HW118620   2.222   6.897   2.693
 5907SOL    HW218621   2.358   6.924   2.780
 5908SOL     OW18622   0.959   2.669   5.988
 5908SOL    HW118623   0.861   2.691   5.989
 5908SOL    HW218624   0.992   2.667   5.894
 5909SOL     OW18625   6.242   4.745   0.279
 5909SOL    HW118626   6.323   4.802   0.294
 5909SOL    HW218627   6.227   4.686   0.359
 5910SOL     OW18628   1.152   1.828   3.180
 5910SOL    HW118629   1.115   1.804   3.091
 5910SOL    HW218630   1.079   1.828   3.248
 5911SOL     OW18631   6.513   6.035   6.957
 5911SOL    HW118632   6.488   6.057   0.031
 5911SOL    HW218633   6.460   5.956   6.926
 5912SOL     OW18634   0.372   0.120   3.760
 5912SOL    HW118635   0.420   0.153   3.842
 5912SOL    HW218636   0.317   0.195   3.723
 5913SOL     OW18637   6.850   2.525   1.017
 5913SOL    HW118638   6.838   2.593   1.089
 5913SOL    HW218639   6.775   2.533   0.951
 5914SOL     OW18640   0.638   6.637   0.880
 5914SOL    HW118641   0.652   6.726   0.923
 5914SOL    HW218642   0.697   6.569   0.925
 5915SOL     OW18643   3.986   0.859   5.772
 5915SOL    HW118644   4.068   0.808   5.796
 5915SOL    HW218645   3.933   0.878   5.855
 5916SOL     OW18646   0.955   0.243   2.399
 5916SOL    HW118647   1.055   0.244   2.397
 5916SOL    HW218648   0.923   0.163   2.449
 5917SOL     OW18649   3.596   2.516   0.188
 5917SOL    HW118650   3.648   2.438   0.222
 5917SOL    HW218651   3.508   2.520   0.236
 5918SOL     OW18652   3.436   6.786   4.192
 5918SOL    HW118653   3.459   6.793   4.290
 5918SOL    HW218654   3.348   6.739   4.182
 5919SOL     OW18655   3.023   3.154   4.704
 5919SOL    HW118656   2.937   3.105   4.719
 5919SOL    HW218657   3.089   3.129   4.774
 5920SOL     OW18658   0.774   0.638   5.827
 5920SOL    HW118659   0.676   0.619   5.829
 5920SOL    HW218660   0.804   0.655   5.733
 5921SOL     OW18661   2.909   4.586   0.106
 5921SOL    HW118662   2.860   4.541   0.031
 5921SOL    HW218663   2.843   4.629   0.167
 5922SOL     OW18664   5.446   2.425   2.520
 5922SOL    HW118665   5.359   2.471   2.502
 5922SOL    HW218666   5.512   2.491   2.557
 5923SOL     OW18667   5.940   0.713   3.207
 5923SOL    HW118668   5.978   0.623   3.232
 5923SOL    HW218669   5.852   0.726   3.252
 5924SOL     OW18670   6.434   6.728   3.425
 5924SOL    HW118671   6.504   6.787   3.384
 5924SOL    HW218672   6.478   6.647   3.464
 5925SOL     OW18673   4.822   1.210   0.802
 5925SOL    HW118674   4.731   1.208   0.761
 5925SOL    HW218675   4.821   1.270   0.882
 5926SOL     OW18676   5.525   3.720   3.145
 5926SOL    HW118677   5.540   3.803   3.092
 5926SOL    HW218678   5.612   3.674   3.161
 5927SOL     OW18679   0.524   5.855   1.673
 5927SOL    HW118680   0.428   5.856   1.642
 5927SOL    HW218681   0.535   5.920   1.747
 5928SOL     OW18682   2.915   0.131   6.863
 5928SOL    HW118683   2.820   0.102   6.876
 5928SOL    HW218684   2.968   0.055   6.824
 5929SOL     OW18685   1.305   0.611   0.933
 5929SOL    HW118686   1.238   0.641   0.865
 5929SOL    HW218687   1.368   0.546   0.891
 5930SOL     OW18688   1.276   4.016   2.079
 5930SOL    HW118689   1.284   4.116   2.087
 5930SOL    HW218690   1.349   3.981   2.021
 5931SOL     OW18691   4.895   6.156   3.593
 5931SOL    HW118692   4.941   6.164   3.504
 5931SOL    HW218693   4.863   6.247   3.622
 5932SOL     OW18694   3.128   6.327   0.373
 5932SOL    HW118695   3.057   6.257   0.369
 5932SOL    HW218696   3.211   6.293   0.329
 5933SOL     OW18697   6.483   5.674   4.492
 5933SOL    HW118698   6.466   5.641   4.585
 5933SOL    HW218699   6.571   5.638   4.460
 5934SOL     OW18700   3.014   3.421   0.373
 5934SOL    HW118701   3.082   3.468   0.428
 5934SOL    HW218702   2.993   3.332   0.413
 5935SOL     OW18703   0.895   0.436   5.309
 5935SOL    HW118704   0.987   0.398   5.300
 5935SOL    HW218705   0.829   0.362   5.323
 5936SOL     OW18706   3.645   2.871   2.256
 5936SOL    HW118707   3.670   2.776   2.240
 5936SOL    HW218708   3.583   2.902   2.184
 5937SOL     OW18709   0.441   2.935   0.493
 5937SOL    HW118710   0.380   2.862   0.522
 5937SOL    HW218711   0.440   3.009   0.561
 5938SOL     OW18712   0.718   3.223   3.985
 5938SOL    HW118713   0.625   3.235   3.949
 5938SOL    HW218714   0.785   3.240   3.913
 5939SOL     OW18715   4.513   1.503   5.683
 5939SOL    HW118716   4.534   1.592   5.642
 5939SOL    HW218717   4.508   1.433   5.612
 5940SOL     OW18718   4.972   5.109   2.005
 5940SOL    HW118719   4.919   5.077   1.926
 5940SOL    HW218720   4.988   5.033   2.068
 5941SOL     OW18721   0.316   1.921   3.161
 5941SOL    HW118722   0.267   1.874   3.234
 5941SOL    HW218723   0.389   1.977   3.201
 5942SOL     OW18724   5.437   2.473   6.627
 5942SOL    HW118725   5.338   2.466   6.641
 5942SOL    HW218726   5.460   2.437   6.537
 5943SOL     OW18727   1.621   4.332   1.040
 5943SOL    HW118728   1.601   4.278   1.122
 5943SOL    HW218729   1.566   4.416   1.042
 5944SOL     OW18730   6.363   3.803   5.744
 5944SOL    HW118731   6.358   3.870   5.669
 5944SOL    HW218732   6.459   3.783   5.763
 5945SOL     OW18733   6.542   6.430   4.417
 5945SOL    HW118734   6.582   6.360   4.358
 5945SOL    HW218735   6.443   6.436   4.399
 5946SOL     OW18736   2.068   3.509   6.731
 5946SOL    HW118737   2.073   3.421   6.779
 5946SOL    HW218738   2.082   3.583   6.797
 5947SOL     OW18739   3.811   3.520   4.574
 5947SOL    HW118740   3.798   3.565   4.485
 5947SOL    HW218741   3.800   3.421   4.563
 5948SOL     OW18742   4.893   4.030   1.608
 5948SOL    HW118743   4.879   3.991   1.517
 5948SOL    HW218744   4.848   4.119   1.614
 5949SOL     OW18745   0.465   3.718   3.040
 5949SOL    HW118746   0.465   3.629   3.085
 5949SOL    HW218747   0.558   3.756   3.039
 5950SOL     OW18748   2.849   6.956   4.656
 5950SOL    HW118749   2.855   0.034   4.642
 5950SOL    HW218750   2.907   6.930   4.733
 5951SOL     OW18751   6.927   3.623   6.499
 5951SOL    HW118752   6.886   3.709   6.530
 5951SOL    HW218753   6.929   3.620   6.399
 5952SOL     OW18754   3.694   4.022   1.921
 5952SOL    HW118755   3.627   4.059   1.985
 5952SOL    HW218756   3.666   3.931   1.892
 5953SOL     OW18757   6.613   3.300   5.780
 5953SOL    HW118758   6.615   3.246   5.696
 5953SOL    HW218759   6.676   3.378   5.772
 5954SOL     OW18760   2.278   5.435   3.782
 5954SOL    HW118761   2.236   5.467   3.867
 5954SOL    HW218762   2.216   5.452   3.706
 5955SOL     OW18763   4.197   3.213   0.401
 5955SOL    HW118764   4.257   3.195   0.323
 5955SOL    HW218765   4.184   3.128   0.453
 5956SOL     OW18766   4.451   3.114   5.956
 5956SOL    HW118767   4.524   3.047   5.961
 5956SOL    HW218768   4.488   3.205   5.974
 5957SOL     OW18769   6.476   1.682   3.731
 5957SOL    HW118770   6.565   1.640   3.747
 5957SOL    HW218771   6.452   1.672   3.634
 5958SOL     OW18772   2.717   6.244   3.398
 5958SOL    HW118773   2.726   6.159   3.451
 5958SOL    HW218774   2.694   6.319   3.460
 5959SOL     OW18775   5.473   3.490   2.984
 5959SOL    HW118776   5.501   3.572   3.033
 5959SOL    HW218777   5.463   3.414   3.048
 5960SOL     OW18778   5.377   0.360   6.289
 5960SOL    HW118779   5.294   0.311   6.315
 5960SOL    HW218780   5.358   0.419   6.211
 5961SOL     OW18781   3.093   2.028   3.573
 5961SOL    HW118782   3.091   1.985   3.482
 5961SOL    HW218783   3.032   2.107   3.573
 5962SOL     OW18784   4.487   4.932   0.696
 5962SOL    HW118785   4.512   4.850   0.748
 5962SOL    HW218786   4.569   4.981   0.669
 5963SOL     OW18787   1.815   3.608   0.426
 5963SOL    HW118788   1.864   3.638   0.508
 5963SOL    HW218789   1.877   3.558   0.366
 5964SOL     OW18790   1.952   0.361   2.922
 5964SOL    HW118791   1.853   0.375   2.927
 5964SOL    HW218792   1.980   0.355   2.826
 5965SOL     OW18793   2.353   0.759   0.980
 5965SOL    HW118794   2.342   0.694   0.906
 5965SOL    HW218795   2.339   0.713   1.068
 5966SOL     OW18796   3.098   1.847   5.400
 5966SOL    HW118797   3.165   1.911   5.363
 5966SOL    HW218798   3.015   1.849   5.345
 5967SOL     OW18799   4.828   2.193   5.240
 5967SOL    HW118800   4.795   2.217   5.148
 5967SOL    HW218801   4.880   2.269   5.278
 5968SOL     OW18802   5.796   1.974   2.903
 5968SOL    HW118803   5.835   2.014   2.820
 5968SOL    HW218804   5.733   1.901   2.879
 5969SOL     OW18805   4.764   6.992   0.897
 5969SOL    HW118806   4.732   6.955   0.809
 5969SOL    HW218807   4.857   0.008   0.885
 5970SOL     OW18808   6.617   2.929   0.614
 5970SOL    HW118809   6.672   2.948   0.696
 5970SOL    HW218810   6.520   2.944   0.635
 5971SOL     OW18811   6.851   5.040   3.532
 5971SOL    HW118812   6.802   4.995   3.458
 5971SOL    HW218813   6.789   5.058   3.608
 5972SOL     OW18814   5.887   5.265   1.120
 5972SOL    HW118815   5.848   5.174   1.102
 5972SOL    HW218816   5.986   5.260   1.112
 5973SOL     OW18817   2.807   0.828   2.259
 5973SOL    HW118818   2.758   0.812   2.344
 5973SOL    HW218819   2.846   0.920   2.259
 5974SOL     OW18820   5.544   1.148   4.725
 5974SOL    HW118821   5.632   1.103   4.738
 5974SOL    HW218822   5.555   1.227   4.664
 5975SOL     OW18823   4.598   5.330   1.642
 5975SOL    HW118824   4.527   5.261   1.630
 5975SOL    HW218825   4.566   5.400   1.706
 5976SOL     OW18826   1.763   4.101   5.535
 5976SOL    HW118827   1.855   4.061   5.540
 5976SOL    HW218828   1.710   4.054   5.466
 5977SOL     OW18829   6.520   5.286   1.024
 5977SOL    HW118830   6.610   5.246   1.010
 5977SOL    HW218831   6.523   5.346   1.104
 5978SOL     OW18832   2.888   3.918   6.456
 5978SOL    HW118833   2.972   3.914   6.403
 5978SOL    HW218834   2.836   3.834   6.442
 5979SOL     OW18835   6.382   6.530   0.955
 5979SOL    HW118836   6.371   6.557   0.859
 5979SOL    HW218837   6.460   6.579   0.994
 5980SOL     OW18838   3.188   2.447   0.969
 5980SOL    HW118839   3.195   2.458   0.870
 5980SOL    HW218840   3.225   2.357   0.996
 5981SOL     OW18841   2.974   2.550   1.107
 5981SOL    HW118842   3.052   2.528   1.050
 5981SOL    HW218843   2.982   2.503   1.195
 5982SOL     OW18844   5.284   2.835   1.645
 5982SOL    HW118845   5.302   2.790   1.732
 5982SOL    HW218846   5.323   2.779   1.571
 5983SOL     OW18847   7.013   1.208   3.644
 5983SOL    HW118848   7.009   1.233   3.741
 5983SOL    HW218849   0.012   1.110   3.636
 5984SOL     OW18850   6.267   6.140   3.493
 5984SOL    HW118851   6.287   6.109   3.586
 5984SOL    HW218852   6.343   6.116   3.433
 5985SOL     OW18853   0.090   3.727   2.925
 5985SOL    HW118854   0.180   3.764   2.902
 5985SOL    HW218855   0.079   3.637   2.883
 5986SOL     OW18856   3.451   3.409   3.702
 5986SOL    HW118857   3.452   3.332   3.638
 5986SOL    HW218858   3.356   3.432   3.724
 5987SOL     OW18859   6.917   5.751   4.787
 5987SOL    HW118860   7.010   5.721   4.809
 5987SOL    HW218861   6.884   5.811   4.859
 5988SOL     OW18862   1.038   3.113   6.716
 5988SOL    HW118863   1.033   3.118   6.816
 5988SOL    HW218864   0.952   3.077   6.680
 5989SOL     OW18865   1.860   6.860   5.365
 5989SOL    HW118866   1.764   6.886   5.370
 5989SOL    HW218867   1.896   6.881   5.273
 5990SOL     OW18868   1.672   4.652   1.489
 5990SOL    HW118869   1.666   4.577   1.423
 5990SOL    HW218870   1.758   4.702   1.475
 5991SOL     OW18871   5.621   1.196   1.099
 5991SOL    HW118872   5.689   1.131   1.065
 5991SOL    HW218873   5.657   1.241   1.181
 5992SOL     OW18874   3.092   5.162   3.168
 5992SOL    HW118875   3.115   5.065   3.167
 5992SOL    HW218876   3.016   5.179   3.230
 5993SOL     OW18877   5.675   2.090   0.488
 5993SOL    HW118878   5.687   2.183   0.523
 5993SOL    HW218879   5.761   2.058   0.449
 5994SOL     OW18880   6.777   3.824   0.008
 5994SOL    HW118881   6.825   3.796   0.092
 5994SOL    HW218882   6.761   3.923   0.010
 5995SOL     OW18883   5.231   3.470   1.150
 5995SOL    HW118884   5.157   3.460   1.215
 5995SOL    HW218885   5.313   3.424   1.184
 5996SOL     OW18886   2.206   0.274   1.616
 5996SOL    HW118887   2.145   0.309   1.544
 5996SOL    HW218888   2.297   0.315   1.605
 5997SOL     OW18889   6.244   0.317   3.954
 5997SOL    HW118890   6.156   0.323   4.001
 5997SOL    HW218891   6.302   0.394   3.982
 5998SOL     OW18892   6.379   6.235   6.809
 5998SOL    HW118893   6.322   6.290   6.869
 5998SOL    HW218894   6.416   6.157   6.861
 5999SOL     OW18895   5.489   3.664   1.468
 5999SOL    HW118896   5.533   3.739   1.517
 5999SOL    HW218897   5.390   3.677   1.469
 6000SOL     OW18898   1.289   4.356   0.805
 6000SOL    HW118899   1.308   4.272   0.753
 6000SOL    HW218900   1.375   4.402   0.828
 6001SOL     OW18901   6.275   5.343   5.610
 6001SOL    HW118902   6.290   5.395   5.526
 6001SOL    HW218903   6.353   5.283   5.627
 6002SOL     OW18904   5.317   4.719   5.161
 6002SOL    HW118905   5.224   4.741   5.130
 6002SOL    HW218906   5.312   4.669   5.247
 6003SOL     OW18907   2.538   2.052   5.086
 6003SOL    HW118908   2.539   2.027   5.183
 6003SOL    HW218909   2.614   2.114   5.067
 6004SOL     OW18910   5.352   3.454   5.176
 6004SOL    HW118911   5.338   3.447   5.275
 6004SOL    HW218912   5.405   3.375   5.145
 6005SOL     OW18913   3.955   4.120   0.317
 6005SOL    HW118914   4.023   4.094   0.248
 6005SOL    HW218915   3.945   4.046   0.384
 6006SOL     OW18916   3.123   6.209   7.002
 6006SOL    HW118917   3.158   6.164   6.920
 6006SOL    HW218918   3.184   6.285   0.007
 6007SOL     OW18919   2.257   6.630   5.279
 6007SOL    HW118920   2.208   6.708   5.317
 6007SOL    HW218921   2.355   6.652   5.274
 6008SOL     OW18922   2.044   4.033   6.532
 6008SOL    HW118923   2.033   3.956   6.469
 6008SOL    HW218924   2.086   4.110   6.484
 6009SOL     OW18925   3.833   5.205   2.546
 6009SOL    HW118926   3.778   5.163   2.619
 6009SOL    HW218927   3.928   5.176   2.556
 6010SOL     OW18928   0.355   5.025   5.023
 6010SOL    HW118929   0.391   4.980   5.105
 6010SOL    HW218930   0.266   4.985   4.999
 6011SOL     OW18931   5.152   1.667   3.222
 6011SOL    HW118932   5.130   1.671   3.125
 6011SOL    HW218933   5.207   1.585   3.240
 6012SOL     OW18934   6.653   0.738   5.746
 6012SOL    HW118935   6.558   0.722   5.773
 6012SOL    HW218936   6.671   0.836   5.744
 6013SOL     OW18937   5.396   1.354   2.373
 6013SOL    HW118938   5.336   1.278   2.400
 6013SOL    HW218939   5.382   1.431   2.435
 6014SOL     OW18940   3.364   3.391   4.308
 6014SOL    HW118941   3.319   3.414   4.395
 6014SOL    HW218942   3.315   3.435   4.233
 6015SOL     OW18943   5.981   6.457   4.404
 6015SOL    HW118944   5.946   6.379   4.351
 6015SOL    HW218945   5.921   6.536   4.391
 6016SOL     OW18946   4.239   2.323   4.610
 6016SOL    HW118947   4.211   2.244   4.665
 6016SOL    HW218948   4.241   2.298   4.514
 6017SOL     OW18949   1.728   1.542   5.405
 6017SOL    HW118950   1.773   1.612   5.460
 6017SOL    HW218951   1.630   1.545   5.421
 6018SOL     OW18952   2.580   1.013   3.815
 6018SOL    HW118953   2.626   1.102   3.817
 6018SOL    HW218954   2.563   0.982   3.908
 6019SOL     OW18955   6.598   4.524   6.561
 6019SOL    HW118956   6.696   4.546   6.558
 6019SOL    HW218957   6.583   4.448   6.624
 6020SOL     OW18958   0.602   5.096   5.528
 6020SOL    HW118959   0.596   5.034   5.450
 6020SOL    HW218960   0.617   5.189   5.494
 6021SOL     OW18961   5.464   0.313   3.237
 6021SOL    HW118962   5.507   0.359   3.314
 6021SOL    HW218963   5.533   0.289   3.169
 6022SOL     OW18964   6.095   2.860   1.606
 6022SOL    HW118965   6.018   2.917   1.634
 6022SOL    HW218966   6.066   2.799   1.533
 6023SOL     OW18967   4.648   6.639   2.100
 6023SOL    HW118968   4.727   6.701   2.099
 6023SOL    HW218969   4.676   6.550   2.136
 6024SOL     OW18970   0.579   6.447   6.240
 6024SOL    HW118971   0.583   6.349   6.257
 6024SOL    HW218972   0.664   6.476   6.195
 6025SOL     OW18973   2.795   0.717   5.807
 6025SOL    HW118974   2.821   0.812   5.793
 6025SOL    HW218975   2.764   0.678   5.721
 6026SOL     OW18976   6.132   5.603   3.645
 6026SOL    HW118977   6.165   5.588   3.738
 6026SOL    HW218978   6.062   5.674   3.646
 6027SOL     OW18979   6.107   5.203   5.998
 6027SOL    HW118980   6.022   5.184   5.949
 6027SOL    HW218981   6.095   5.180   6.094
 6028SOL     OW18982   6.000   6.272   5.897
 6028SOL    HW118983   6.056   6.345   5.857
 6028SOL    HW218984   6.061   6.201   5.934
 6029SOL     OW18985   3.644   1.416   2.592
 6029SOL    HW118986   3.722   1.437   2.532
 6029SOL    HW218987   3.588   1.345   2.549
 6030SOL     OW18988   6.175   3.196   4.464
 6030SOL    HW118989   6.259   3.248   4.446
 6030SOL    HW218990   6.184   3.147   4.550
 6031SOL     OW18991   0.335   6.296   4.703
 6031SOL    HW118992   0.390   6.373   4.670
 6031SOL    HW218993   0.239   6.326   4.711
 6032SOL     OW18994   3.440   6.478   3.357
 6032SOL    HW118995   3.422   6.576   3.345
 6032SOL    HW218996   3.499   6.446   3.284
 6033SOL     OW18997   0.631   1.397   2.298
 6033SOL    HW118998   0.623   1.490   2.265
 6033SOL    HW218999   0.551   1.375   2.355
 6034SOL     OW19000   0.365   0.427   0.837
 6034SOL    HW119001   0.350   0.525   0.823
 6034SOL    HW219002   0.437   0.415   0.905
 6035SOL     OW19003   2.645   0.322   2.737
 6035SOL    HW119004   2.687   0.235   2.709
 6035SOL    HW219005   2.717   0.389   2.756
 6036SOL     OW19006   6.112   3.602   0.761
 6036SOL    HW119007   6.164   3.521   0.733
 6036SOL    HW219008   6.020   3.598   0.721
 6037SOL     OW19009   4.753   1.050   6.094
 6037SOL    HW119010   4.814   1.016   6.023
 6037SOL    HW219011   4.662   1.065   6.056
 6038SOL     OW19012   1.852   1.237   6.133
 6038SOL    HW119013   1.937   1.239   6.186
 6038SOL    HW219014   1.791   1.167   6.170
 6039SOL     OW19015   4.156   3.645   4.050
 6039SOL    HW119016   4.152   3.575   4.121
 6039SOL    HW219017   4.252   3.670   4.033
 6040SOL     OW19018   0.843   2.133   0.097
 6040SOL    HW119019   0.784   2.213   0.113
 6040SOL    HW219020   0.819   2.061   0.162
 6041SOL     OW19021   0.409   3.653   5.010
 6041SOL    HW119022   0.452   3.662   4.920
 6041SOL    HW219023   0.478   3.622   5.076
 6042SOL     OW19024   3.136   5.939   3.737
 6042SOL    HW119025   3.118   5.842   3.719
 6042SOL    HW219026   3.192   5.976   3.663
 6043SOL     OW19027   2.512   6.959   2.522
 6043SOL    HW119028   2.443   6.952   2.594
 6043SOL    HW219029   2.512   0.031   2.484
 6044SOL     OW19030   0.339   3.424   0.337
 6044SOL    HW119031   0.246   3.454   0.318
 6044SOL    HW219032   0.336   3.349   0.404
 6045SOL     OW19033   5.392   0.977   3.922
 6045SOL    HW119034   5.443   1.019   3.997
 6045SOL    HW219035   5.411   1.026   3.837
 6046SOL     OW19036   3.603   3.232   2.871
 6046SOL    HW119037   3.634   3.209   2.779
 6046SOL    HW219038   3.675   3.212   2.937
 6047SOL     OW19039   0.074   1.751   0.068
 6047SOL    HW119040   0.032   1.754   0.159
 6047SOL    HW219041   0.082   1.843   0.032
 6048SOL     OW19042   5.784   5.748   3.319
 6048SOL    HW119043   5.706   5.696   3.285
 6048SOL    HW219044   5.866   5.690   3.318
 6049SOL     OW19045   4.773   4.860   6.501
 6049SOL    HW119046   4.747   4.783   6.559
 6049SOL    HW219047   4.820   4.826   6.419
 6050SOL     OW19048   2.619   5.239   2.555
 6050SOL    HW119049   2.693   5.293   2.595
 6050SOL    HW219050   2.540   5.297   2.538
 6051SOL     OW19051   0.653   1.022   2.662
 6051SOL    HW119052   0.654   1.121   2.680
 6051SOL    HW219053   0.577   0.980   2.712
 6052SOL     OW19054   5.238   5.221   0.807
 6052SOL    HW119055   5.290   5.227   0.892
 6052SOL    HW219056   5.244   5.129   0.770
 6053SOL     OW19057   4.291   2.544   6.760
 6053SOL    HW119058   4.327   2.468   6.705
 6053SOL    HW219059   4.329   2.539   6.852
 6054SOL     OW19060   4.294   4.033   0.901
 6054SOL    HW119061   4.348   4.016   0.819
 6054SOL    HW219062   4.319   3.967   0.972
 6055SOL     OW19063   3.279   3.624   1.184
 6055SOL    HW119064   3.294   3.703   1.245
 6055SOL    HW219065   3.190   3.633   1.140
 6056SOL     OW19066   5.507   5.817   3.562
 6056SOL    HW119067   5.535   5.909   3.591
 6056SOL    HW219068   5.493   5.817   3.463
 6057SOL     OW19069   5.353   0.938   3.553
 6057SOL    HW119070   5.258   0.933   3.582
 6057SOL    HW219071   5.369   0.872   3.479
 6058SOL     OW19072   0.291   2.619   6.002
 6058SOL    HW119073   0.238   2.655   6.079
 6058SOL    HW219074   0.385   2.601   6.031
 6059SOL     OW19075   4.086   2.771   6.901
 6059SOL    HW119076   4.046   2.681   6.912
 6059SOL    HW219077   4.050   2.814   6.818
 6060SOL     OW19078   2.297   2.610   0.435
 6060SOL    HW119079   2.290   2.547   0.512
 6060SOL    HW219080   2.206   2.639   0.407
 6061SOL     OW19081   3.406   4.280   0.014
 6061SOL    HW119082   3.363   4.284   6.944
 6061SOL    HW219083   3.381   4.195   0.059
 6062SOL     OW19084   2.351   1.831   6.138
 6062SOL    HW119085   2.449   1.844   6.153
 6062SOL    HW219086   2.329   1.854   6.043
 6063SOL     OW19087   4.703   4.050   6.795
 6063SOL    HW119088   4.672   4.133   6.842
 6063SOL    HW219089   4.653   3.971   6.832
 6064SOL     OW19090   5.496   5.990   0.956
 6064SOL    HW119091   5.461   5.930   1.028
 6064SOL    HW219092   5.444   5.976   0.872
 6065SOL     OW19093   2.058   6.140   1.437
 6065SOL    HW119094   2.051   6.082   1.518
 6065SOL    HW219095   2.119   6.097   1.370
 6066SOL     OW19096   5.903   5.507   2.684
 6066SOL    HW119097   5.955   5.543   2.606
 6066SOL    HW219098   5.807   5.530   2.673
 6067SOL     OW19099   0.201   6.115   6.049
 6067SOL    HW119100   0.200   6.085   6.145
 6067SOL    HW219101   0.282   6.171   6.033
 6068SOL     OW19102   4.660   2.141   4.339
 6068SOL    HW119103   4.747   2.133   4.289
 6068SOL    HW219104   4.612   2.222   4.307
 6069SOL     OW19105   0.211   4.823   6.001
 6069SOL    HW119106   0.216   4.784   5.910
 6069SOL    HW219107   0.302   4.850   6.032
 6070SOL     OW19108   2.406   1.570   0.849
 6070SOL    HW119109   2.461   1.492   0.882
 6070SOL    HW219110   2.397   1.637   0.922
 6071SOL     OW19111   5.609   0.723   6.143
 6071SOL    HW119112   5.559   0.809   6.156
 6071SOL    HW219113   5.545   0.647   6.142
 6072SOL     OW19114   0.085   3.136   0.294
 6072SOL    HW119115   0.081   3.235   0.282
 6072SOL    HW219116   0.110   3.114   0.388
 6073SOL     OW19117   4.793   3.799   0.737
 6073SOL    HW119118   4.754   3.830   0.650
 6073SOL    HW219119   4.767   3.704   0.753
 6074SOL     OW19120   0.563   6.564   2.487
 6074SOL    HW119121   0.632   6.636   2.496
 6074SOL    HW219122   0.535   6.557   2.391
 6075SOL     OW19123   5.883   0.601   0.235
 6075SOL    HW119124   5.909   0.546   0.156
 6075SOL    HW219125   5.941   0.683   0.239
 6076SOL     OW19126   0.637   6.353   3.522
 6076SOL    HW119127   0.666   6.294   3.597
 6076SOL    HW219128   0.638   6.302   3.436
 6077SOL     OW19129   5.387   5.815   2.768
 6077SOL    HW119130   5.467   5.802   2.709
 6077SOL    HW219131   5.313   5.755   2.736
 6078SOL     OW19132   4.893   4.418   0.895
 6078SOL    HW119133   4.912   4.344   0.830
 6078SOL    HW219134   4.840   4.490   0.849
 6079SOL     OW19135   3.420   1.999   0.194
 6079SOL    HW119136   3.359   1.919   0.195
 6079SOL    HW219137   3.387   2.065   0.127
 6080SOL     OW19138   6.829   3.894   5.594
 6080SOL    HW119139   6.781   3.980   5.578
 6080SOL    HW219140   6.857   3.855   5.506
 6081SOL     OW19141   1.627   3.620   3.591
 6081SOL    HW119142   1.567   3.540   3.593
 6081SOL    HW219143   1.660   3.638   3.684
 6082SOL     OW19144   5.317   1.405   1.575
 6082SOL    HW119145   5.398   1.460   1.592
 6082SOL    HW219146   5.236   1.454   1.606
 6083SOL     OW19147   5.316   6.874   6.749
 6083SOL    HW119148   5.282   6.812   6.820
 6083SOL    HW219149   5.239   6.905   6.692
 6084SOL     OW19150   5.951   5.307   2.906
 6084SOL    HW119151   5.908   5.345   2.988
 6084SOL    HW219152   5.904   5.339   2.824
 6085SOL     OW19153   0.800   6.549   0.602
 6085SOL    HW119154   0.737   6.581   0.673
 6085SOL    HW219155   0.748   6.496   0.534
 6086SOL     OW19156   3.435   3.611   6.917
 6086SOL    HW119157   3.342   3.591   6.887
 6086SOL    HW219158   3.460   3.704   6.889
 6087SOL     OW19159   4.161   0.063   0.668
 6087SOL    HW119160   4.148   0.100   0.760
 6087SOL    HW219161   4.097   7.008   0.654
 6088SOL     OW19162   4.708   5.878   2.831
 6088SOL    HW119163   4.681   5.850   2.923
 6088SOL    HW219164   4.627   5.900   2.778
 6089SOL     OW19165   6.290   3.968   2.827
 6089SOL    HW119166   6.244   4.051   2.798
 6089SOL    HW219167   6.274   3.953   2.925
 6090SOL     OW19168   3.499   5.794   4.796
 6090SOL    HW119169   3.569   5.833   4.736
 6090SOL    HW219170   3.429   5.863   4.815
 6091SOL     OW19171   0.052   1.861   1.644
 6091SOL    HW119172   6.998   1.920   1.612
 6091SOL    HW219173   0.061   1.870   1.743
 6092SOL     OW19174   2.534   6.681   1.441
 6092SOL    HW119175   2.529   6.699   1.343
 6092SOL    HW219176   2.557   6.765   1.490
 6093SOL     OW19177   2.455   2.634   1.917
 6093SOL    HW119178   2.397   2.572   1.864
 6093SOL    HW219179   2.551   2.617   1.896
 6094SOL     OW19180   0.605   6.498   5.280
 6094SOL    HW119181   0.550   6.457   5.208
 6094SOL    HW219182   0.701   6.501   5.252
 6095SOL     OW19183   5.420   5.060   2.056
 6095SOL    HW119184   5.407   4.962   2.037
 6095SOL    HW219185   5.516   5.076   2.081
 6096SOL     OW19186   5.289   5.984   3.065
 6096SOL    HW119187   5.202   5.981   3.115
 6096SOL    HW219188   5.287   5.917   2.990
 6097SOL     OW19189   2.906   5.151   2.288
 6097SOL    HW119190   2.907   5.209   2.207
 6097SOL    HW219191   2.816   5.155   2.331
 6098SOL     OW19192   6.460   1.020   5.162
 6098SOL    HW119193   6.554   1.014   5.195
 6098SOL    HW219194   6.438   1.116   5.143
 6099SOL     OW19195   4.492   0.350   5.781
 6099SOL    HW119196   4.409   0.362   5.726
 6099SOL    HW219197   4.466   0.332   5.876
 6100SOL     OW19198   0.979   5.809   5.417
 6100SOL    HW119199   0.942   5.740   5.479
 6100SOL    HW219200   0.969   5.900   5.458
 6101SOL     OW19201   0.199   2.831   1.764
 6101SOL    HW119202   0.172   2.746   1.811
 6101SOL    HW219203   0.256   2.886   1.825
 6102SOL     OW19204   3.564   0.038   2.814
 6102SOL    HW119205   3.489   7.007   2.772
 6102SOL    HW219206   3.542   0.136   2.815
 6103SOL     OW19207   5.810   1.137   3.180
 6103SOL    HW119208   5.887   1.103   3.233
 6103SOL    HW219209   5.840   1.212   3.121
 6104SOL     OW19210   6.504   1.515   4.751
 6104SOL    HW119211   6.454   1.591   4.708
 6104SOL    HW219212   6.542   1.544   4.838
 6105SOL     OW19213   3.909   4.545   5.974
 6105SOL    HW119214   3.974   4.493   6.030
 6105SOL    HW219215   3.889   4.495   5.890
 6106SOL     OW19216   6.406   4.610   4.895
 6106SOL    HW119217   6.338   4.538   4.904
 6106SOL    HW219218   6.485   4.575   4.843
 6107SOL     OW19219   5.345   4.995   5.765
 6107SOL    HW119220   5.287   4.983   5.685
 6107SOL    HW219221   5.441   4.984   5.739
 6108SOL     OW19222   2.447   0.983   6.420
 6108SOL    HW119223   2.492   0.988   6.509
 6108SOL    HW219224   2.516   0.969   6.349
 6109SOL     OW19225   0.496   6.428   4.293
 6109SOL    HW119226   0.438   6.347   4.298
 6109SOL    HW219227   0.588   6.402   4.265
 6110SOL     OW19228   1.430   1.253   4.402
 6110SOL    HW119229   1.391   1.233   4.312
 6110SOL    HW219230   1.492   1.331   4.395
 6111SOL     OW19231   2.226   3.430   0.354
 6111SOL    HW119232   2.286   3.353   0.333
 6111SOL    HW219233   2.231   3.497   0.281
 6112SOL     OW19234   4.637   6.399   3.461
 6112SOL    HW119235   4.582   6.325   3.501
 6112SOL    HW219236   4.579   6.479   3.446
 6113SOL     OW19237   3.053   5.652   1.044
 6113SOL    HW119238   3.004   5.650   1.131
 6113SOL    HW219239   2.992   5.620   0.971
 6114SOL     OW19240   4.882   2.748   0.877
 6114SOL    HW119241   4.936   2.677   0.831
 6114SOL    HW219242   4.786   2.735   0.855
 6115SOL     OW19243   0.968   1.088   5.245
 6115SOL    HW119244   0.953   1.180   5.209
 6115SOL    HW219245   0.979   1.092   5.344
 6116SOL     OW19246   5.674   3.576   0.048
 6116SOL    HW119247   5.699   3.665   0.085
 6116SOL    HW219248   5.703   3.504   0.111
 6117SOL     OW19249   1.824   2.147   1.439
 6117SOL    HW119250   1.817   2.225   1.502
 6117SOL    HW219251   1.867   2.070   1.486
 6118SOL     OW19252   5.589   0.947   2.281
 6118SOL    HW119253   5.609   1.044   2.262
 6118SOL    HW219254   5.644   0.890   2.219
 6119SOL     OW19255   6.851   1.406   6.430
 6119SOL    HW119256   6.780   1.342   6.458
 6119SOL    HW219257   6.817   1.500   6.439
 6120SOL     OW19258   3.448   0.500   4.245
 6120SOL    HW119259   3.503   0.583   4.234
 6120SOL    HW219260   3.438   0.480   4.343
 6121SOL     OW19261   2.256   1.930   5.201
 6121SOL    HW119262   2.261   1.915   5.102
 6121SOL    HW219263   2.323   1.871   5.246
 6122SOL     OW19264   5.142   4.736   4.699
 6122SOL    HW119265   5.046   4.711   4.684
 6122SOL    HW219266   5.153   4.834   4.684
 6123SOL     OW19267   6.251   1.138   5.454
 6123SOL    HW119268   6.337   1.111   5.498
 6123SOL    HW219269   6.195   1.189   5.519
 6124SOL     OW19270   2.867   5.503   3.851
 6124SOL    HW119271   2.843   5.427   3.791
 6124SOL    HW219272   2.875   5.469   3.945
 6125SOL     OW19273   3.192   1.535   5.711
 6125SOL    HW119274   3.255   1.498   5.779
 6125SOL    HW219275   3.152   1.460   5.658
 6126SOL     OW19276   6.088   3.273   6.054
 6126SOL    HW119277   6.024   3.217   6.002
 6126SOL    HW219278   6.051   3.291   6.145
 6127SOL     OW19279   5.224   1.922   3.006
 6127SOL    HW119280   5.211   1.947   3.102
 6127SOL    HW219281   5.167   1.843   2.984
 6128SOL     OW19282   5.832   5.867   6.837
 6128SOL    HW119283   5.744   5.888   6.880
 6128SOL    HW219284   5.895   5.943   6.850
 6129SOL     OW19285   3.077   5.789   2.664
 6129SOL    HW119286   3.012   5.788   2.740
 6129SOL    HW219287   3.080   5.881   2.625
 6130SOL     OW19288   5.740   3.087   0.218
 6130SOL    HW119289   5.656   3.128   0.253
 6130SOL    HW219290   5.718   3.026   0.142
 6131SOL     OW19291   6.483   2.114   3.094
 6131SOL    HW119292   6.417   2.188   3.080
 6131SOL    HW219293   6.437   2.038   3.141
 6132SOL     OW19294   4.517   6.928   6.490
 6132SOL    HW119295   4.506   6.918   6.391
 6132SOL    HW219296   4.609   6.962   6.510
 6133SOL     OW19297   0.476   2.099   2.774
 6133SOL    HW119298   0.408   2.027   2.788
 6133SOL    HW219299   0.459   2.174   2.837
 6134SOL     OW19300   0.500   6.781   5.437
 6134SOL    HW119301   0.464   6.688   5.429
 6134SOL    HW219302   0.510   6.804   5.534
 6135SOL     OW19303   6.858   0.114   0.610
 6135SOL    HW119304   6.812   0.110   0.521
 6135SOL    HW219305   6.836   0.200   0.656
 6136SOL     OW19306   1.167   2.192   3.755
 6136SOL    HW119307   1.099   2.179   3.683
 6136SOL    HW219308   1.258   2.199   3.714
 6137SOL     OW19309   0.003   4.481   1.210
 6137SOL    HW119310   7.006   4.492   1.112
 6137SOL    HW219311   0.069   4.408   1.225
 6138SOL     OW19312   4.796   0.620   2.309
 6138SOL    HW119313   4.854   0.630   2.228
 6138SOL    HW219314   4.740   0.701   2.320
 6139SOL     OW19315   1.643   1.057   4.796
 6139SOL    HW119316   1.660   1.018   4.887
 6139SOL    HW219317   1.546   1.048   4.774
 6140SOL     OW19318   1.579   6.895   2.818
 6140SOL    HW119319   1.583   6.850   2.907
 6140SOL    HW219320   1.536   6.985   2.829
 6141SOL     OW19321   1.067   1.139   6.478
 6141SOL    HW119322   1.085   1.041   6.472
 6141SOL    HW219323   1.020   1.170   6.395
 6142SOL     OW19324   5.979   0.547   1.422
 6142SOL    HW119325   6.068   0.508   1.397
 6142SOL    HW219326   5.959   0.524   1.517
 6143SOL     OW19327   0.215   3.463   5.361
 6143SOL    HW119328   0.275   3.425   5.291
 6143SOL    HW219329   0.263   3.536   5.410
 6144SOL     OW19330   4.096   5.467   2.173
 6144SOL    HW119331   4.073   5.482   2.270
 6144SOL    HW219332   4.183   5.419   2.167
 6145SOL     OW19333   4.855   3.359   3.785
 6145SOL    HW119334   4.864   3.321   3.693
 6145SOL    HW219335   4.843   3.458   3.779
 6146SOL     OW19336   6.098   0.397   5.387
 6146SOL    HW119337   6.105   0.351   5.299
 6146SOL    HW219338   6.094   0.329   5.460
 6147SOL     OW19339   0.993   2.590   5.210
 6147SOL    HW119340   0.908   2.560   5.254
 6147SOL    HW219341   0.987   2.688   5.191
 6148SOL     OW19342   3.639   5.083   0.353
 6148SOL    HW119343   3.566   5.089   0.285
 6148SOL    HW219344   3.654   5.174   0.393
 6149SOL     OW19345   3.644   1.406   1.732
 6149SOL    HW119346   3.628   1.377   1.827
 6149SOL    HW219347   3.557   1.407   1.683
 6150SOL     OW19348   0.392   4.327   4.614
 6150SOL    HW119349   0.314   4.264   4.614
 6150SOL    HW219350   0.458   4.298   4.683
 6151SOL     OW19351   4.232   4.970   2.924
 6151SOL    HW119352   4.217   4.873   2.943
 6151SOL    HW219353   4.325   4.984   2.892
 6152SOL     OW19354   1.581   4.379   3.439
 6152SOL    HW119355   1.536   4.303   3.486
 6152SOL    HW219356   1.647   4.343   3.373
 6153SOL     OW19357   4.893   5.958   1.105
 6153SOL    HW119358   4.985   5.950   1.067
 6153SOL    HW219359   4.827   5.912   1.046
 6154SOL     OW19360   5.225   3.816   2.285
 6154SOL    HW119361   5.131   3.784   2.287
 6154SOL    HW219362   5.268   3.790   2.199
 6155SOL     OW19363   1.985   1.324   3.668
 6155SOL    HW119364   1.889   1.298   3.678
 6155SOL    HW219365   2.035   1.301   3.752
 6156SOL     OW19366   5.527   4.378   1.926
 6156SOL    HW119367   5.449   4.321   1.901
 6156SOL    HW219368   5.563   4.349   2.015
 6157SOL     OW19369   0.484   2.876   1.253
 6157SOL    HW119370   0.581   2.852   1.241
 6157SOL    HW219371   0.472   2.925   1.339
 6158SOL     OW19372   3.026   2.116   4.846
 6158SOL    HW119373   2.927   2.128   4.859
 6158SOL    HW219374   3.075   2.190   4.891
 6159SOL     OW19375   6.198   2.865   0.274
 6159SOL    HW119376   6.156   2.953   0.253
 6159SOL    HW219377   6.155   2.826   0.356
 6160SOL     OW19378   1.078   0.667   1.327
 6160SOL    HW119379   1.152   0.667   1.394
 6160SOL    HW219380   0.996   0.627   1.368
 6161SOL     OW19381   4.848   3.984   7.016
 6161SOL    HW119382   4.831   4.005   6.919
 6161SOL    HW219383   4.810   4.057   0.052
 6162SOL     OW19384   6.525   5.462   2.441
 6162SOL    HW119385   6.548   5.466   2.344
 6162SOL    HW219386   6.506   5.555   2.474
 6163SOL     OW19387   6.177   5.993   2.881
 6163SOL    HW119388   6.200   5.915   2.824
 6163SOL    HW219389   6.260   6.046   2.900
 6164SOL     OW19390   2.878   3.553   4.746
 6164SOL    HW119391   2.835   3.526   4.832
 6164SOL    HW219392   2.884   3.474   4.685
 6165SOL     OW19393   3.300   1.704   7.017
 6165SOL    HW119394   3.362   1.626   7.014
 6165SOL    HW219395   3.255   1.708   0.086
 6166SOL     OW19396   2.918   2.149   6.643
 6166SOL    HW119397   2.876   2.108   6.562
 6166SOL    HW219398   2.919   2.249   6.634
 6167SOL     OW19399   1.669   3.429   2.888
 6167SOL    HW119400   1.627   3.462   2.803
 6167SOL    HW219401   1.746   3.488   2.912
 6168SOL     OW19402   0.486   3.552   3.558
 6168SOL    HW119403   0.547   3.631   3.556
 6168SOL    HW219404   0.536   3.470   3.529
 6169SOL     OW19405   2.197   0.599   6.798
 6169SOL    HW119406   2.264   0.537   6.756
 6169SOL    HW219407   2.197   0.686   6.749
 6170SOL     OW19408   2.832   3.713   0.892
 6170SOL    HW119409   2.924   3.719   0.931
 6170SOL    HW219410   2.839   3.677   0.798
 6171SOL     OW19411   2.111   3.591   1.769
 6171SOL    HW119412   2.163   3.546   1.841
 6171SOL    HW219413   2.077   3.679   1.801
 6172SOL     OW19414   2.641   5.625   2.394
 6172SOL    HW119415   2.712   5.556   2.394
 6172SOL    HW219416   2.671   5.704   2.448
 6173SOL     OW19417   1.145   5.737   2.331
 6173SOL    HW119418   1.088   5.754   2.412
 6173SOL    HW219419   1.227   5.687   2.358
 6174SOL     OW19420   6.020   4.925   2.233
 6174SOL    HW119421   5.959   4.947   2.156
 6174SOL    HW219422   6.111   4.962   2.215
 6175SOL     OW19423   5.080   0.086   3.412
 6175SOL    HW119424   5.120   0.166   3.369
 6175SOL    HW219425   4.980   0.094   3.412
 6176SOL     OW19426   5.346   3.203   6.628
 6176SOL    HW119427   5.418   3.266   6.598
 6176SOL    HW219428   5.259   3.231   6.588
 6177SOL     OW19429   6.937   3.355   1.667
 6177SOL    HW119430   6.858   3.407   1.634
 6177SOL    HW219431   7.001   3.417   1.713
 6178SOL     OW19432   5.667   3.568   1.716
 6178SOL    HW119433   5.584   3.516   1.733
 6178SOL    HW219434   5.733   3.511   1.666
 6179SOL     OW19435   0.222   2.403   5.198
 6179SOL    HW119436   0.294   2.459   5.157
 6179SOL    HW219437   0.259   2.351   5.275
 6180SOL     OW19438   3.156   7.010   6.172
 6180SOL    HW119439   3.233   7.005   6.236
 6180SOL    HW219440   3.083   0.044   6.213
 6181SOL     OW19441   4.526   5.843   0.082
 6181SOL    HW119442   4.535   5.744   0.070
 6181SOL    HW219443   4.497   5.862   0.176
 6182SOL     OW19444   4.941   6.347   6.366
 6182SOL    HW119445   4.941   6.269   6.302
 6182SOL    HW219446   5.036   6.374   6.385
 6183SOL     OW19447   3.170   0.893   2.920
 6183SOL    HW119448   3.142   0.985   2.947
 6183SOL    HW219449   3.088   0.840   2.896
 6184SOL     OW19450   6.015   0.685   6.591
 6184SOL    HW119451   5.973   0.775   6.605
 6184SOL    HW219452   5.995   0.627   6.670
 6185SOL     OW19453   0.824   3.379   5.714
 6185SOL    HW119454   0.887   3.351   5.642
 6185SOL    HW219455   0.864   3.455   5.766
 6186SOL     OW19456   5.508   6.867   4.961
 6186SOL    HW119457   5.478   6.877   5.056
 6186SOL    HW219458   5.607   6.858   4.957
 6187SOL     OW19459   2.831   4.764   4.504
 6187SOL    HW119460   2.859   4.753   4.599
 6187SOL    HW219461   2.899   4.820   4.455
 6188SOL     OW19462   2.915   0.165   1.767
 6188SOL    HW119463   2.917   0.198   1.672
 6188SOL    HW219464   3.009   0.154   1.800
 6189SOL     OW19465   5.384   4.564   3.185
 6189SOL    HW119466   5.428   4.504   3.252
 6189SOL    HW219467   5.307   4.517   3.142
 6190SOL     OW19468   5.140   2.688   5.638
 6190SOL    HW119469   5.126   2.771   5.692
 6190SOL    HW219470   5.234   2.687   5.603
 6191SOL     OW19471   6.862   2.897   6.718
 6191SOL    HW119472   6.822   2.975   6.767
 6191SOL    HW219473   6.906   2.836   6.784
 6192SOL     OW19474   2.970   2.386   0.582
 6192SOL    HW119475   2.920   2.341   0.509
 6192SOL    HW219476   3.015   2.318   0.640
 6193SOL     OW19477   5.898   0.003   1.025
 6193SOL    HW119478   5.935   0.069   1.090
 6193SOL    HW219479   5.889   6.935   1.069
 6194SOL     OW19480   1.925   0.873   0.595
 6194SOL    HW119481   1.909   0.807   0.522
 6194SOL    HW219482   1.838   0.902   0.635
 6195SOL     OW19483   2.403   6.501   6.429
 6195SOL    HW119484   2.309   6.490   6.398
 6195SOL    HW219485   2.426   6.429   6.494
 6196SOL     OW19486   0.295   1.347   6.039
 6196SOL    HW119487   0.253   1.430   6.077
 6196SOL    HW219488   0.358   1.308   6.105
 6197SOL     OW19489   2.587   2.923   0.257
 6197SOL    HW119490   2.528   2.902   0.334
 6197SOL    HW219491   2.532   2.954   0.179
 6198SOL     OW19492   4.290   5.067   2.262
 6198SOL    HW119493   4.190   5.057   2.261
 6198SOL    HW219494   4.316   5.150   2.213
 6199SOL     OW19495   0.971   0.758   6.204
 6199SOL    HW119496   0.925   0.843   6.231
 6199SOL    HW219497   0.977   0.696   6.282
 6200SOL     OW19498   3.433   0.499   5.955
 6200SOL    HW119499   3.410   0.595   5.970
 6200SOL    HW219500   3.474   0.488   5.865
 6201SOL     OW19501   2.270   4.342   3.676
 6201SOL    HW119502   2.333   4.273   3.640
 6201SOL    HW219503   2.243   4.318   3.769
 6202SOL     OW19504   3.154   2.679   1.432
 6202SOL    HW119505   3.115   2.586   1.427
 6202SOL    HW219506   3.135   2.718   1.522
 6203SOL     OW19507   5.120   2.126   5.464
 6203SOL    HW119508   5.218   2.109   5.474
 6203SOL    HW219509   5.077   2.132   5.554
 6204SOL     OW19510   1.500   6.504   5.943
 6204SOL    HW119511   1.467   6.526   5.851
 6204SOL    HW219512   1.522   6.588   5.992
 6205SOL     OW19513   5.408   6.137   0.085
 6205SOL    HW119514   5.472   6.083   0.141
 6205SOL    HW219515   5.455   6.216   0.048
 6206SOL     OW19516   5.260   0.184   3.109
 6206SOL    HW119517   5.267   0.090   3.141
 6206SOL    HW219518   5.339   0.236   3.140
 6207SOL     OW19519   1.816   4.143   4.275
 6207SOL    HW119520   1.728   4.120   4.234
 6207SOL    HW219521   1.826   4.096   4.363
 6208SOL     OW19522   5.375   6.240   6.234
 6208SOL    HW119523   5.464   6.284   6.218
 6208SOL    HW219524   5.302   6.304   6.210
 6209SOL     OW19525   3.031   5.323   1.353
 6209SOL    HW119526   3.049   5.414   1.391
 6209SOL    HW219527   2.970   5.273   1.414
 6210SOL     OW19528   6.505   5.010   3.185
 6210SOL    HW119529   6.592   4.987   3.228
 6210SOL    HW219530   6.431   4.959   3.228
 6211SOL     OW19531   2.501   0.335   5.027
 6211SOL    HW119532   2.499   0.346   4.928
 6211SOL    HW219533   2.469   0.244   5.052
 6212SOL     OW19534   6.878   6.636   3.705
 6212SOL    HW119535   6.847   6.628   3.800
 6212SOL    HW219536   6.978   6.631   3.702
 6213SOL     OW19537   6.588   0.106   6.980
 6213SOL    HW119538   6.503   0.084   6.931
 6213SOL    HW219539   6.648   0.026   6.979
 6214SOL     OW19540   5.910   5.003   2.457
 6214SOL    HW119541   5.957   4.961   2.379
 6214SOL    HW219542   5.924   5.102   2.456
 6215SOL     OW19543   2.370   4.969   1.275
 6215SOL    HW119544   2.411   4.919   1.199
 6215SOL    HW219545   2.425   5.050   1.296
 6216SOL     OW19546   6.214   1.730   2.489
 6216SOL    HW119547   6.143   1.684   2.542
 6216SOL    HW219548   6.299   1.679   2.496
 6217SOL     OW19549   5.431   3.196   2.052
 6217SOL    HW119550   5.332   3.204   2.064
 6217SOL    HW219551   5.478   3.256   2.117
 6218SOL     OW19552   3.986   5.161   4.414
 6218SOL    HW119553   3.888   5.163   4.435
 6218SOL    HW219554   4.019   5.254   4.403
 6219SOL     OW19555   1.197   1.468   3.981
 6219SOL    HW119556   1.199   1.551   3.925
 6219SOL    HW219557   1.208   1.492   4.077
 6220SOL     OW19558   1.599   3.953   5.377
 6220SOL    HW119559   1.675   3.916   5.324
 6220SOL    HW219560   1.525   3.978   5.315
 6221SOL     OW19561   4.612   4.962   4.301
 6221SOL    HW119562   4.672   5.031   4.340
 6221SOL    HW219563   4.522   4.968   4.345
 6222SOL     OW19564   0.195   1.697   1.073
 6222SOL    HW119565   0.176   1.644   1.156
 6222SOL    HW219566   0.139   1.780   1.073
 6223SOL     OW19567   5.246   3.885   4.722
 6223SOL    HW119568   5.225   3.866   4.626
 6223SOL    HW219569   5.243   3.799   4.774
 6224SOL     OW19570   2.955   0.257   4.945
 6224SOL    HW119571   3.039   0.213   4.978
 6224SOL    HW219572   2.961   0.355   4.961
 6225SOL     OW19573   4.350   2.757   6.612
 6225SOL    HW119574   4.431   2.800   6.652
 6225SOL    HW219575   4.321   2.680   6.669
 6226SOL     OW19576   6.424   6.687   4.470
 6226SOL    HW119577   6.414   6.786   4.475
 6226SOL    HW219578   6.459   6.662   4.380
 6227SOL     OW19579   2.693   4.528   6.899
 6227SOL    HW119580   2.691   4.433   6.867
 6227SOL    HW219581   2.673   4.590   6.823
 6228SOL     OW19582   0.307   1.081   2.593
 6228SOL    HW119583   0.253   1.133   2.659
 6228SOL    HW219584   0.258   0.997   2.569
 6229SOL     OW19585   1.611   2.527   1.743
 6229SOL    HW119586   1.665   2.595   1.792
 6229SOL    HW219587   1.527   2.508   1.794
 6230SOL     OW19588   1.791   2.026   3.203
 6230SOL    HW119589   1.695   2.001   3.186
 6230SOL    HW219590   1.822   1.982   3.288
 6231SOL     OW19591   6.631   5.395   1.527
 6231SOL    HW119592   6.562   5.350   1.584
 6231SOL    HW219593   6.653   5.484   1.566
 6232SOL     OW19594   0.741   1.780   6.829
 6232SOL    HW119595   0.814   1.843   6.856
 6232SOL    HW219596   0.717   1.794   6.733
 6233SOL     OW19597   4.433   1.853   6.669
 6233SOL    HW119598   4.422   1.760   6.704
 6233SOL    HW219599   4.386   1.918   6.729
 6234SOL     OW19600   1.884   2.552   3.046
 6234SOL    HW119601   1.852   2.647   3.052
 6234SOL    HW219602   1.892   2.515   3.139
 6235SOL     OW19603   1.982   6.283   3.185
 6235SOL    HW119604   2.061   6.325   3.139
 6235SOL    HW219605   1.900   6.301   3.131
 6236SOL     OW19606   6.680   4.140   6.919
 6236SOL    HW119607   6.661   4.119   7.015
 6236SOL    HW219608   6.779   4.150   6.906
 6237SOL     OW19609   4.055   6.605   6.981
 6237SOL    HW119610   4.034   6.648   0.048
 6237SOL    HW219611   4.151   6.622   6.957
 6238SOL     OW19612   4.600   3.966   1.244
 6238SOL    HW119613   4.598   3.921   1.155
 6238SOL    HW219614   4.630   4.061   1.233
 6239SOL     OW19615   2.310   1.158   3.557
 6239SOL    HW119616   2.337   1.137   3.463
 6239SOL    HW219617   2.221   1.116   3.576
 6240SOL     OW19618   2.413   3.835   0.294
 6240SOL    HW119619   2.513   3.837   0.300
 6240SOL    HW219620   2.385   3.763   0.231
 6241SOL     OW19621   4.651   0.129   1.965
 6241SOL    HW119622   4.625   0.034   1.980
 6241SOL    HW219623   4.621   0.185   2.042
 6242SOL     OW19624   3.605   2.105   3.696
 6242SOL    HW119625   3.523   2.086   3.642
 6242SOL    HW219626   3.581   2.155   3.778
 6243SOL     OW19627   5.394   5.343   3.306
 6243SOL    HW119628   5.383   5.377   3.399
 6243SOL    HW219629   5.379   5.244   3.305
 6244SOL     OW19630   1.993   2.308   1.987
 6244SOL    HW119631   2.070   2.246   1.974
 6244SOL    HW219632   2.026   2.398   2.017
 6245SOL     OW19633   2.157   3.992   0.386
 6245SOL    HW119634   2.247   3.953   0.368
 6245SOL    HW219635   2.092   3.958   0.318
 6246SOL     OW19636   3.835   1.180   6.781
 6246SOL    HW119637   3.817   1.089   6.819
 6246SOL    HW219638   3.763   1.243   6.811
 6247SOL     OW19639   6.725   6.101   2.879
 6247SOL    HW119640   6.701   6.089   2.975
 6247SOL    HW219641   6.652   6.151   2.832
 6248SOL     OW19642   1.016   4.905   1.129
 6248SOL    HW119643   0.927   4.879   1.168
 6248SOL    HW219644   1.045   4.993   1.167
 6249SOL     OW19645   5.241   4.399   6.449
 6249SOL    HW119646   5.196   4.475   6.402
 6249SOL    HW219647   5.330   4.383   6.408
 6250SOL     OW19648   5.990   5.457   6.023
 6250SOL    HW119649   6.025   5.364   6.034
 6250SOL    HW219650   6.020   5.493   5.934
 6251SOL     OW19651   4.632   1.842   1.266
 6251SOL    HW119652   4.532   1.846   1.264
 6251SOL    HW219653   4.669   1.890   1.186
 6252SOL     OW19654   1.631   6.201   5.068
 6252SOL    HW119655   1.581   6.115   5.078
 6252SOL    HW219656   1.623   6.254   5.153
 6253SOL     OW19657   1.861   4.124   1.485
 6253SOL    HW119658   1.877   4.053   1.416
 6253SOL    HW219659   1.947   4.149   1.528
 6254SOL     OW19660   5.255   0.673   0.571
 6254SOL    HW119661   5.234   0.700   0.477
 6254SOL    HW219662   5.200   0.593   0.596
 6255SOL     OW19663   6.676   1.837   2.740
 6255SOL    HW119664   6.732   1.794   2.670
 6255SOL    HW219665   6.702   1.802   2.830
 6256SOL     OW19666   3.591   4.935   3.598
 6256SOL    HW119667   3.521   4.885   3.547
 6256SOL    HW219668   3.552   5.019   3.636
 6257SOL     OW19669   4.447   2.721   0.180
 6257SOL    HW119670   4.501   2.786   0.233
 6257SOL    HW219671   4.351   2.749   0.180
 6258SOL     OW19672   5.327   2.500   2.821
 6258SOL    HW119673   5.331   2.430   2.892
 6258SOL    HW219674   5.274   2.466   2.743
 6259SOL     OW19675   3.042   2.325   1.655
 6259SOL    HW119676   3.027   2.386   1.732
 6259SOL    HW219677   2.954   2.302   1.613
 6260SOL     OW19678   3.461   3.581   0.681
 6260SOL    HW119679   3.403   3.516   0.730
 6260SOL    HW219680   3.409   3.665   0.665
 6261SOL     OW19681   4.625   0.558   6.689
 6261SOL    HW119682   4.586   0.636   6.640
 6261SOL    HW219683   4.657   0.587   6.779
 6262SOL     OW19684   0.296   5.921   5.332
 6262SOL    HW119685   0.360   5.970   5.272
 6262SOL    HW219686   0.237   5.986   5.378
 6263SOL     OW19687   6.537   1.008   0.689
 6263SOL    HW119688   6.504   1.099   0.663
 6263SOL    HW219689   6.618   0.985   0.635
 6264SOL     OW19690   1.995   1.236   6.625
 6264SOL    HW119691   1.949   1.302   6.684
 6264SOL    HW219692   2.010   1.277   6.535
 6265SOL     OW19693   4.880   3.574   1.262
 6265SOL    HW119694   4.838   3.661   1.289
 6265SOL    HW219695   4.909   3.580   1.167
 6266SOL     OW19696   2.402   6.797   2.152
 6266SOL    HW119697   2.426   6.809   2.248
 6266SOL    HW219698   2.481   6.817   2.095
 6267SOL     OW19699   2.639   6.895   6.874
 6267SOL    HW119700   2.610   6.845   6.955
 6267SOL    HW219701   2.645   6.993   6.896
 6268SOL     OW19702   3.105   5.127   2.478
 6268SOL    HW119703   3.051   5.103   2.398
 6268SOL    HW219704   3.063   5.206   2.524
 6269SOL     OW19705   5.964   4.900   0.273
 6269SOL    HW119706   6.029   4.900   0.198
 6269SOL    HW219707   6.014   4.901   0.360
 6270SOL     OW19708   0.507   1.249   4.442
 6270SOL    HW119709   0.529   1.287   4.532
 6270SOL    HW219710   0.555   1.300   4.371
 6271SOL     OW19711   6.070   1.801   0.967
 6271SOL    HW119712   6.168   1.821   0.962
 6271SOL    HW219713   6.057   1.703   0.979
 6272SOL     OW19714   1.386   2.207   3.333
 6272SOL    HW119715   1.415   2.295   3.296
 6272SOL    HW219716   1.362   2.146   3.257
 6273SOL     OW19717   4.151   0.394   2.222
 6273SOL    HW119718   4.145   0.489   2.254
 6273SOL    HW219719   4.189   0.392   2.130
 6274SOL     OW19720   2.928   6.251   6.739
 6274SOL    HW119721   2.865   6.289   6.671
 6274SOL    HW219722   2.946   6.319   6.810
 6275SOL     OW19723   2.907   0.470   4.388
 6275SOL    HW119724   2.820   0.459   4.340
 6275SOL    HW219725   2.953   0.552   4.355
 6276SOL     OW19726   1.370   5.021   3.879
 6276SOL    HW119727   1.351   4.961   3.801
 6276SOL    HW219728   1.400   5.110   3.845
 6277SOL     OW19729   5.718   3.151   3.925
 6277SOL    HW119730   5.804   3.108   3.954
 6277SOL    HW219731   5.728   3.250   3.925
 6278SOL     OW19732   4.670   0.865   4.419
 6278SOL    HW119733   4.751   0.914   4.450
 6278SOL    HW219734   4.696   0.794   4.354
 6279SOL     OW19735   4.891   1.820   6.757
 6279SOL    HW119736   4.808   1.875   6.765
 6279SOL    HW219737   4.896   1.755   6.833
 6280SOL     OW19738   0.596   5.388   5.999
 6280SOL    HW119739   0.610   5.333   5.917
 6280SOL    HW219740   0.503   5.423   6.000
 6281SOL     OW19741   2.768   6.840   5.099
 6281SOL    HW119742   2.819   6.791   5.169
 6281SOL    HW219743   2.730   6.775   5.034
 6282SOL     OW19744   1.541   0.133   3.515
 6282SOL    HW119745   1.513   0.037   3.520
 6282SOL    HW219746   1.577   0.162   3.603
 6283SOL     OW19747   0.493   3.006   5.131
 6283SOL    HW119748   0.464   2.935   5.066
 6283SOL    HW219749   0.534   2.963   5.211
 6284SOL     OW19750   1.606   4.727   6.467
 6284SOL    HW119751   1.674   4.717   6.540
 6284SOL    HW219752   1.649   4.703   6.379
 6285SOL     OW19753   1.983   4.536   2.496
 6285SOL    HW119754   1.957   4.578   2.409
 6285SOL    HW219755   1.989   4.607   2.566
 6286SOL     OW19756   6.137   0.180   4.949
 6286SOL    HW119757   6.183   0.256   4.995
 6286SOL    HW219758   6.040   0.182   4.971
 6287SOL     OW19759   4.154   4.747   2.238
 6287SOL    HW119760   4.113   4.720   2.325
 6287SOL    HW219761   4.130   4.843   2.218
 6288SOL     OW19762   5.180   3.923   1.316
 6288SOL    HW119763   5.086   3.944   1.290
 6288SOL    HW219764   5.239   3.932   1.236
 6289SOL     OW19765   1.308   0.072   2.532
 6289SOL    HW119766   1.389   0.101   2.583
 6289SOL    HW219767   1.279   0.146   2.471
 6290SOL     OW19768   6.202   2.873   3.455
 6290SOL    HW119769   6.258   2.954   3.439
 6290SOL    HW219770   6.211   2.810   3.377
 6291SOL     OW19771   3.901   3.841   3.204
 6291SOL    HW119772   3.894   3.875   3.298
 6291SOL    HW219773   3.812   3.806   3.174
 6292SOL     OW19774   6.781   1.666   2.082
 6292SOL    HW119775   6.858   1.628   2.030
 6292SOL    HW219776   6.734   1.593   2.130
 6293SOL     OW19777   4.951   5.288   0.679
 6293SOL    HW119778   4.973   5.382   0.704
 6293SOL    HW219779   4.918   5.239   0.760
 6294SOL     OW19780   3.808   5.485   2.584
 6294SOL    HW119781   3.715   5.518   2.598
 6294SOL    HW219782   3.805   5.395   2.539
 6295SOL     OW19783   6.615   6.175   5.935
 6295SOL    HW119784   6.582   6.086   5.904
 6295SOL    HW219785   6.552   6.247   5.905
 6296SOL     OW19786   6.875   0.892   2.436
 6296SOL    HW119787   6.863   0.802   2.393
 6296SOL    HW219788   6.932   0.949   2.377
 6297SOL     OW19789   5.809   0.907   5.957
 6297SOL    HW119790   5.804   0.821   6.008
 6297SOL    HW219791   5.836   0.888   5.862
 6298SOL     OW19792   0.064   1.713   4.100
 6298SOL    HW119793   0.121   1.667   4.169
 6298SOL    HW219794   6.992   1.725   4.136
 6299SOL     OW19795   5.988   3.081   0.653
 6299SOL    HW119796   6.000   2.988   0.620
 6299SOL    HW219797   6.035   3.145   0.591
 6300SOL     OW19798   5.105   1.545   3.735
 6300SOL    HW119799   5.015   1.567   3.696
 6300SOL    HW219800   5.141   1.624   3.783
 6301SOL     OW19801   3.208   0.652   0.982
 6301SOL    HW119802   3.273   0.651   1.058
 6301SOL    HW219803   3.154   0.568   0.984
 6302SOL     OW19804   0.010   1.058   2.878
 6302SOL    HW119805   7.016   1.030   2.783
 6302SOL    HW219806   0.018   0.977   2.936
 6303SOL     OW19807   2.015   5.825   5.253
 6303SOL    HW119808   2.097   5.850   5.305
 6303SOL    HW219809   1.934   5.847   5.307
 6304SOL     OW19810   4.192   1.200   5.413
 6304SOL    HW119811   4.112   1.261   5.409
 6304SOL    HW219812   4.168   1.119   5.465
 6305SOL     OW19813   5.607   1.237   2.251
 6305SOL    HW119814   5.659   1.306   2.202
 6305SOL    HW219815   5.545   1.281   2.316
 6306SOL     OW19816   5.882   2.822   4.450
 6306SOL    HW119817   5.847   2.892   4.513
 6306SOL    HW219818   5.813   2.752   4.437
 6307SOL     OW19819   2.402   4.544   0.317
 6307SOL    HW119820   2.487   4.511   0.357
 6307SOL    HW219821   2.378   4.632   0.358
 6308SOL     OW19822   3.567   2.014   5.653
 6308SOL    HW119823   3.476   1.999   5.613
 6308SOL    HW219824   3.590   1.936   5.712
 6309SOL     OW19825   5.676   1.835   4.977
 6309SOL    HW119826   5.744   1.773   5.017
 6309SOL    HW219827   5.641   1.897   5.047
 6310SOL     OW19828   0.966   5.280   4.470
 6310SOL    HW119829   0.903   5.201   4.468
 6310SOL    HW219830   0.922   5.356   4.518
 6311SOL     OW19831   6.252   6.108   4.090
 6311SOL    HW119832   6.180   6.040   4.104
 6311SOL    HW219833   6.333   6.081   4.142
 6312SOL     OW19834   5.036   4.720   5.818
 6312SOL    HW119835   5.036   4.757   5.725
 6312SOL    HW219836   4.968   4.769   5.873
 6313SOL     OW19837   2.740   5.312   3.686
 6313SOL    HW119838   2.715   5.340   3.593
 6313SOL    HW219839   2.692   5.228   3.709
 6314SOL     OW19840   2.588   6.590   3.677
 6314SOL    HW119841   2.509   6.625   3.728
 6314SOL    HW219842   2.660   6.567   3.742
 6315SOL     OW19843   2.440   4.192   0.605
 6315SOL    HW119844   2.413   4.200   0.509
 6315SOL    HW219845   2.504   4.117   0.616
 6316SOL     OW19846   4.966   1.699   5.883
 6316SOL    HW119847   5.007   1.665   5.798
 6316SOL    HW219848   5.037   1.743   5.938
 6317SOL     OW19849   6.125   5.624   4.194
 6317SOL    HW119850   6.180   5.685   4.137
 6317SOL    HW219851   6.064   5.571   4.135
 6318SOL     OW19852   2.061   2.114   4.790
 6318SOL    HW119853   2.147   2.133   4.838
 6318SOL    HW219854   1.988   2.170   4.829
 6319SOL     OW19855   0.433   1.786   2.575
 6319SOL    HW119856   0.510   1.766   2.636
 6319SOL    HW219857   0.388   1.701   2.548
 6320SOL     OW19858   6.989   1.809   3.252
 6320SOL    HW119859   6.972   1.748   3.175
 6320SOL    HW219860   0.057   1.787   3.293
 6321SOL     OW19861   2.486   3.674   5.991
 6321SOL    HW119862   2.489   3.747   5.922
 6321SOL    HW219863   2.507   3.713   6.081
 6322SOL     OW19864   1.277   0.587   6.632
 6322SOL    HW119865   1.372   0.609   6.653
 6322SOL    HW219866   1.216   0.648   6.683
 6323SOL     OW19867   4.527   1.534   1.315
 6323SOL    HW119868   4.566   1.506   1.403
 6323SOL    HW219869   4.545   1.631   1.300
 6324SOL     OW19870   4.171   2.485   6.414
 6324SOL    HW119871   4.081   2.484   6.459
 6324SOL    HW219872   4.239   2.445   6.475
 6325SOL     OW19873   1.400   2.605   2.460
 6325SOL    HW119874   1.432   2.692   2.424
 6325SOL    HW219875   1.302   2.594   2.439
 6326SOL     OW19876   4.267   6.317   1.214
 6326SOL    HW119877   4.360   6.306   1.248
 6326SOL    HW219878   4.202   6.300   1.289
 6327SOL     OW19879   3.642   5.368   6.061
 6327SOL    HW119880   3.575   5.379   5.988
 6327SOL    HW219881   3.729   5.337   6.022
 6328SOL     OW19882   3.030   4.348   6.693
 6328SOL    HW119883   3.032   4.443   6.727
 6328SOL    HW219884   2.982   4.290   6.759
 6329SOL     OW19885   1.500   1.489   2.461
 6329SOL    HW119886   1.506   1.513   2.364
 6329SOL    HW219887   1.540   1.563   2.516
 6330SOL     OW19888   3.813   0.950   0.290
 6330SOL    HW119889   3.738   0.956   0.223
 6330SOL    HW219890   3.775   0.944   0.382
 6331SOL     OW19891   5.516   2.856   2.440
 6331SOL    HW119892   5.543   2.940   2.486
 6331SOL    HW219893   5.520   2.869   2.341
 6332SOL     OW19894   4.842   6.638   2.379
 6332SOL    HW119895   4.749   6.667   2.400
 6332SOL    HW219896   4.899   6.648   2.461
 6333SOL     OW19897   2.412   5.254   2.951
 6333SOL    HW119898   2.437   5.199   2.871
 6333SOL    HW219899   2.493   5.298   2.988
 6334SOL     OW19900   2.640   1.794   2.340
 6334SOL    HW119901   2.586   1.809   2.257
 6334SOL    HW219902   2.623   1.867   2.405
 6335SOL     OW19903   0.323   1.530   0.090
 6335SOL    HW119904   0.302   1.474   0.010
 6335SOL    HW219905   0.241   1.542   0.146
 6336SOL     OW19906   0.686   3.078   4.825
 6336SOL    HW119907   0.771   3.080   4.773
 6336SOL    HW219908   0.704   3.105   4.920
 6337SOL     OW19909   6.808   4.908   4.928
 6337SOL    HW119910   6.768   4.985   4.978
 6337SOL    HW219911   6.788   4.822   4.975
 6338SOL     OW19912   3.626   1.236   4.306
 6338SOL    HW119913   3.612   1.139   4.325
 6338SOL    HW219914   3.548   1.272   4.254
 6339SOL     OW19915   0.324   3.061   4.843
 6339SOL    HW119916   0.367   2.986   4.792
 6339SOL    HW219917   0.266   3.114   4.781
 6340SOL     OW19918   2.637   5.290   4.095
 6340SOL    HW119919   2.606   5.294   4.000
 6340SOL    HW219920   2.675   5.200   4.113
 6341SOL     OW19921   6.434   5.178   2.443
 6341SOL    HW119922   6.533   5.162   2.438
 6341SOL    HW219923   6.392   5.150   2.356
 6342SOL     OW19924   1.344   3.543   0.893
 6342SOL    HW119925   1.377   3.473   0.829
 6342SOL    HW219926   1.416   3.563   0.960
 6343SOL     OW19927   4.322   0.894   0.266
 6343SOL    HW119928   4.419   0.919   0.268
 6343SOL    HW219929   4.276   0.937   0.344
 6344SOL     OW19930   6.954   4.784   4.501
 6344SOL    HW119931   6.876   4.723   4.517
 6344SOL    HW219932   0.012   4.751   4.553
 6345SOL     OW19933   2.674   2.409   2.190
 6345SOL    HW119934   2.724   2.352   2.255
 6345SOL    HW219935   2.720   2.407   2.102
 6346SOL     OW19936   0.710   5.668   4.413
 6346SOL    HW119937   0.641   5.649   4.343
 6346SOL    HW219938   0.801   5.664   4.372
 6347SOL     OW19939   2.566   0.074   1.124
 6347SOL    HW119940   2.589   0.124   1.208
 6347SOL    HW219941   2.648   0.068   1.066
 6348SOL     OW19942   0.920   2.792   4.823
 6348SOL    HW119943   0.993   2.859   4.840
 6348SOL    HW219944   0.849   2.803   4.892
 6349SOL     OW19945   2.003   0.973   0.354
 6349SOL    HW119946   1.977   0.949   0.447
 6349SOL    HW219947   1.958   0.911   0.290
 6350SOL     OW19948   0.488   5.417   3.312
 6350SOL    HW119949   0.462   5.360   3.389
 6350SOL    HW219950   0.420   5.409   3.239
 6351SOL     OW19951   6.887   1.420   3.222
 6351SOL    HW119952   6.921   1.431   3.316
 6351SOL    HW219953   6.880   1.510   3.179
 6352SOL     OW19954   0.194   5.659   2.580
 6352SOL    HW119955   0.145   5.595   2.639
 6352SOL    HW219956   0.210   5.745   2.629
 6353SOL     OW19957   6.994   6.812   1.930
 6353SOL    HW119958   0.057   6.864   1.914
 6353SOL    HW219959   6.928   6.830   1.857
 6354SOL     OW19960   0.175   6.969   4.314
 6354SOL    HW119961   0.158   6.893   4.252
 6354SOL    HW219962   0.101   6.974   4.381
 6355SOL     OW19963   0.647   2.562   2.248
 6355SOL    HW119964   0.698   2.542   2.331
 6355SOL    HW219965   0.634   2.479   2.195
 6356SOL     OW19966   3.269   2.722   0.661
 6356SOL    HW119967   3.353   2.716   0.607
 6356SOL    HW219968   3.240   2.630   0.687
 6357SOL     OW19969   4.821   1.781   0.852
 6357SOL    HW119970   4.765   1.777   0.769
 6357SOL    HW219971   4.842   1.688   0.882
 6358SOL     OW19972   0.908   3.035   3.664
 6358SOL    HW119973   0.881   2.996   3.752
 6358SOL    HW219974   0.895   3.134   3.666
 6359SOL     OW19975   0.356   1.594   6.738
 6359SOL    HW119976   0.273   1.595   6.794
 6359SOL    HW219977   0.342   1.649   6.656
 6360SOL     OW19978   3.318   5.384   4.214
 6360SOL    HW119979   3.320   5.423   4.122
 6360SOL    HW219980   3.224   5.363   4.240
 6361SOL     OW19981   3.192   6.696   6.193
 6361SOL    HW119982   3.117   6.631   6.178
 6361SOL    HW219983   3.186   6.733   6.286
 6362SOL     OW19984   6.396   5.338   6.262
 6362SOL    HW119985   6.327   5.302   6.325
 6362SOL    HW219986   6.478   5.364   6.312
 6363SOL     OW19987   1.072   5.911   4.290
 6363SOL    HW119988   1.163   5.949   4.272
 6363SOL    HW219989   1.008   5.986   4.308
 6364SOL     OW19990   1.848   2.722   6.403
 6364SOL    HW119991   1.861   2.624   6.422
 6364SOL    HW219992   1.919   2.775   6.449
 6365SOL     OW19993   4.946   5.487   2.955
 6365SOL    HW119994   4.849   5.462   2.952
 6365SOL    HW219995   4.974   5.524   2.866
 6366SOL     OW19996   0.165   4.667   5.523
 6366SOL    HW119997   0.101   4.638   5.451
 6366SOL    HW219998   0.220   4.744   5.489
 6367SOL     OW19999   6.026   6.044   2.569
 6367SOL    HW120000   5.946   6.082   2.524
 6367SOL    HW220001   6.021   6.061   2.668
 6368SOL     OW20002   3.632   0.505   3.419
 6368SOL    HW120003   3.624   0.473   3.514
 6368SOL    HW220004   3.690   0.587   3.417
 6369SOL     OW20005   2.181   4.987   5.754
 6369SOL    HW120006   2.222   5.026   5.672
 6369SOL    HW220007   2.207   5.042   5.834
 6370SOL     OW20008   5.739   2.797   2.166
 6370SOL    HW120009   5.794   2.789   2.083
 6370SOL    HW220010   5.666   2.863   2.152
 6371SOL     OW20011   4.292   1.697   3.675
 6371SOL    HW120012   4.304   1.750   3.759
 6371SOL    HW220013   4.223   1.627   3.689
 6372SOL     OW20014   3.060   6.261   2.293
 6372SOL    HW120015   3.091   6.241   2.200
 6372SOL    HW220016   3.129   6.315   2.341
 6373SOL     OW20017   3.391   4.831   0.559
 6373SOL    HW120018   3.365   4.863   0.467
 6373SOL    HW220019   3.486   4.856   0.577
 6374SOL     OW20020   3.074   3.156   2.737
 6374SOL    HW120021   3.067   3.097   2.817
 6374SOL    HW220022   3.064   3.101   2.654
 6375SOL     OW20023   1.462   5.904   2.408
 6375SOL    HW120024   1.450   5.856   2.321
 6375SOL    HW220025   1.503   5.842   2.475
 6376SOL     OW20026   0.651   2.852   5.312
 6376SOL    HW120027   0.599   2.768   5.325
 6376SOL    HW220028   0.746   2.829   5.290
 6377SOL     OW20029   0.666   1.822   3.889
 6377SOL    HW120030   0.751   1.788   3.930
 6377SOL    HW220031   0.592   1.758   3.908
 6378SOL     OW20032   4.475   4.869   3.244
 6378SOL    HW120033   4.493   4.906   3.335
 6378SOL    HW220034   4.397   4.806   3.249
 6379SOL     OW20035   2.318   5.134   1.954
 6379SOL    HW120036   2.408   5.108   1.920
 6379SOL    HW220037   2.303   5.232   1.937
 6380SOL     OW20038   1.060   0.769   5.955
 6380SOL    HW120039   1.007   0.750   6.037
 6380SOL    HW220040   1.075   0.685   5.904
 6381SOL     OW20041   2.770   3.406   1.966
 6381SOL    HW120042   2.832   3.328   1.974
 6381SOL    HW220043   2.685   3.386   2.015
 6382SOL     OW20044   1.010   4.462   5.189
 6382SOL    HW120045   1.090   4.455   5.250
 6382SOL    HW220046   0.967   4.552   5.201
 6383SOL     OW20047   3.992   1.408   3.997
 6383SOL    HW120048   3.929   1.439   4.068
 6383SOL    HW220049   4.083   1.446   4.015
 6384SOL     OW20050   6.837   4.667   2.700
 6384SOL    HW120051   6.803   4.624   2.616
 6384SOL    HW220052   6.780   4.746   2.722
 6385SOL     OW20053   0.626   5.746   4.663
 6385SOL    HW120054   0.674   5.714   4.582
 6385SOL    HW220055   0.621   5.673   4.731
 6386SOL     OW20056   2.489   5.420   1.737
 6386SOL    HW120057   2.540   5.349   1.786
 6386SOL    HW220058   2.411   5.378   1.689
 6387SOL     OW20059   6.786   1.433   5.354
 6387SOL    HW120060   6.707   1.411   5.298
 6387SOL    HW220061   6.767   1.413   5.450
 6388SOL     OW20062   2.347   4.793   2.726
 6388SOL    HW120063   2.391   4.737   2.656
 6388SOL    HW220064   2.330   4.737   2.807
 6389SOL     OW20065   0.959   4.786   1.551
 6389SOL    HW120066   1.048   4.794   1.504
 6389SOL    HW220067   0.909   4.708   1.514
 6390SOL     OW20068   0.484   2.819   4.131
 6390SOL    HW120069   0.485   2.899   4.190
 6390SOL    HW220070   0.508   2.846   4.038
 6391SOL     OW20071   3.617   0.978   0.053
 6391SOL    HW120072   3.661   0.957   6.987
 6391SOL    HW220073   3.546   1.047   0.038
 6392SOL     OW20074   1.597   6.181   4.307
 6392SOL    HW120075   1.536   6.162   4.230
 6392SOL    HW220076   1.630   6.095   4.345
 6393SOL     OW20077   5.487   1.316   0.865
 6393SOL    HW120078   5.507   1.275   0.954
 6393SOL    HW220079   5.533   1.404   0.857
 6394SOL     OW20080   3.258   4.875   1.883
 6394SOL    HW120081   3.346   4.833   1.907
 6394SOL    HW220082   3.183   4.820   1.921
 6395SOL     OW20083   6.171   1.785   0.516
 6395SOL    HW120084   6.094   1.797   0.579
 6395SOL    HW220085   6.147   1.717   0.447
 6396SOL     OW20086   6.236   3.747   5.454
 6396SOL    HW120087   6.261   3.813   5.383
 6396SOL    HW220088   6.292   3.664   5.444
 6397SOL     OW20089   6.641   0.856   0.107
 6397SOL    HW120090   6.735   0.833   0.087
 6397SOL    HW220091   6.635   0.897   0.198
 6398SOL     OW20092   3.954   0.746   1.201
 6398SOL    HW120093   4.036   0.702   1.237
 6398SOL    HW220094   3.975   0.787   1.112
 6399SOL     OW20095   2.410   6.311   6.618
 6399SOL    HW120096   2.446   6.232   6.667
 6399SOL    HW220097   2.311   6.318   6.634
 6400SOL     OW20098   3.076   5.016   4.441
 6400SOL    HW120099   3.034   5.025   4.351
 6400SOL    HW220100   3.013   5.052   4.510
 6401SOL     OW20101   1.109   4.333   4.969
 6401SOL    HW120102   1.072   4.384   5.047
 6401SOL    HW220103   1.150   4.396   4.904
 6402SOL     OW20104   1.693   2.296   2.963
 6402SOL    HW120105   1.773   2.348   2.936
 6402SOL    HW220106   1.722   2.204   2.992
 6403SOL     OW20107   0.980   6.767   1.236
 6403SOL    HW120108   1.043   6.689   1.234
 6403SOL    HW220109   1.007   6.831   1.307
 6404SOL     OW20110   4.994   1.161   3.417
 6404SOL    HW120111   5.046   1.130   3.338
 6404SOL    HW220112   4.954   1.083   3.464
 6405SOL     OW20113   3.289   1.006   1.108
 6405SOL    HW120114   3.225   0.966   1.044
 6405SOL    HW220115   3.283   1.106   1.104
 6406SOL     OW20116   2.844   1.859   3.629
 6406SOL    HW120117   2.938   1.882   3.604
 6406SOL    HW220118   2.834   1.760   3.634
 6407SOL     OW20119   4.895   5.744   6.079
 6407SOL    HW120120   4.941   5.813   6.136
 6407SOL    HW220121   4.839   5.685   6.137
 6408SOL     OW20122   5.923   1.991   0.411
 6408SOL    HW120123   5.927   1.924   0.337
 6408SOL    HW220124   5.953   1.949   0.496
 6409SOL     OW20125   0.940   4.615   1.799
 6409SOL    HW120126   0.996   4.680   1.747
 6409SOL    HW220127   0.990   4.586   1.880
 6410SOL     OW20128   1.274   1.131   2.003
 6410SOL    HW120129   1.369   1.103   1.993
 6410SOL    HW220130   1.232   1.081   2.079
 6411SOL     OW20131   1.563   0.906   3.723
 6411SOL    HW120132   1.661   0.918   3.735
 6411SOL    HW220133   1.531   0.960   3.645
 6412SOL     OW20134   6.357   2.768   4.199
 6412SOL    HW120135   6.302   2.781   4.282
 6412SOL    HW220136   6.453   2.762   4.223
 6413SOL     OW20137   0.427   4.727   0.624
 6413SOL    HW120138   0.341   4.759   0.584
 6413SOL    HW220139   0.503   4.783   0.589
 6414SOL     OW20140   6.274   6.702   2.884
 6414SOL    HW120141   6.224   6.770   2.938
 6414SOL    HW220142   6.324   6.641   2.946
 6415SOL     OW20143   1.524   1.540   2.187
 6415SOL    HW120144   1.440   1.516   2.137
 6415SOL    HW220145   1.573   1.612   2.138
 6416SOL     OW20146   2.144   6.283   6.403
 6416SOL    HW120147   2.165   6.216   6.475
 6416SOL    HW220148   2.058   6.328   6.424
 6417SOL     OW20149   0.633   6.715   3.571
 6417SOL    HW120150   0.589   6.736   3.484
 6417SOL    HW220151   0.642   6.799   3.625
 6418SOL     OW20152   6.823   5.697   2.735
 6418SOL    HW120153   6.849   5.610   2.694
 6418SOL    HW220154   6.729   5.720   2.710
 6419SOL     OW20155   2.545   3.398   1.170
 6419SOL    HW120156   2.524   3.466   1.100
 6419SOL    HW220157   2.592   3.442   1.247
 6420SOL     OW20158   0.788   3.072   6.568
 6420SOL    HW120159   0.726   3.142   6.531
 6420SOL    HW220160   0.770   2.985   6.522
 6421SOL     OW20161   6.096   2.197   0.395
 6421SOL    HW120162   6.135   2.203   0.487
 6421SOL    HW220163   6.025   2.127   0.394
 6422SOL     OW20164   5.961   2.348   3.298
 6422SOL    HW120165   5.958   2.252   3.269
 6422SOL    HW220166   6.015   2.356   3.382
 6423SOL     OW20167   4.686   4.290   1.157
 6423SOL    HW120168   4.724   4.227   1.089
 6423SOL    HW220169   4.652   4.372   1.111
 6424SOL     OW20170   6.742   4.295   5.038
 6424SOL    HW120171   6.743   4.208   4.989
 6424SOL    HW220172   6.771   4.368   4.977
 6425SOL     OW20173   0.582   5.086   1.331
 6425SOL    HW120174   0.542   5.039   1.252
 6425SOL    HW220175   0.624   5.019   1.392
 6426SOL     OW20176   6.963   2.935   3.404
 6426SOL    HW120177   6.869   2.926   3.371
 6426SOL    HW220178   7.003   2.844   3.416
 6427SOL     OW20179   1.128   2.879   6.002
 6427SOL    HW120180   1.067   2.802   6.017
 6427SOL    HW220181   1.075   2.963   5.988
 6428SOL     OW20182   6.702   3.016   3.943
 6428SOL    HW120183   6.772   3.028   3.872
 6428SOL    HW220184   6.612   3.006   3.901
 6429SOL     OW20185   0.807   1.260   4.973
 6429SOL    HW120186   0.837   1.280   4.880
 6429SOL    HW220187   0.830   1.336   5.033
 6430SOL     OW20188   6.281   3.390   6.920
 6430SOL    HW120189   6.316   3.327   6.990
 6430SOL    HW220190   6.261   3.339   6.836
 6431SOL     OW20191   5.404   0.939   3.161
 6431SOL    HW120192   5.397   0.850   3.207
 6431SOL    HW220193   5.498   0.955   3.131
 6432SOL     OW20194   5.809   3.356   0.205
 6432SOL    HW120195   5.820   3.257   0.196
 6432SOL    HW220196   5.844   3.385   0.294
 6433SOL     OW20197   2.375   3.704   1.562
 6433SOL    HW120198   2.396   3.716   1.465
 6433SOL    HW220199   2.458   3.719   1.616
 6434SOL     OW20200   1.865   5.089   0.244
 6434SOL    HW120201   1.842   5.071   0.148
 6434SOL    HW220202   1.943   5.152   0.248
 6435SOL     OW20203   4.688   3.911   0.511
 6435SOL    HW120204   4.731   3.839   0.456
 6435SOL    HW220205   4.650   3.981   0.451
 6436SOL     OW20206   1.633   2.437   2.113
 6436SOL    HW120207   1.657   2.348   2.072
 6436SOL    HW220208   1.582   2.422   2.197
 6437SOL     OW20209   0.237   0.514   6.752
 6437SOL    HW120210   0.202   0.425   6.782
 6437SOL    HW220211   0.199   0.536   6.662
 6438SOL     OW20212   0.957   3.599   4.291
 6438SOL    HW120213   0.981   3.511   4.334
 6438SOL    HW220214   0.874   3.587   4.236
 6439SOL     OW20215   0.451   6.222   2.242
 6439SOL    HW120216   0.448   6.235   2.341
 6439SOL    HW220217   0.364   6.250   2.202
 6440SOL     OW20218   0.626   0.825   1.613
 6440SOL    HW120219   0.599   0.812   1.518
 6440SOL    HW220220   0.545   0.825   1.672
 6441SOL     OW20221   3.820   1.802   2.867
 6441SOL    HW120222   3.782   1.886   2.829
 6441SOL    HW220223   3.877   1.823   2.946
 6442SOL     OW20224   3.438   0.219   3.341
 6442SOL    HW120225   3.530   0.248   3.367
 6442SOL    HW220226   3.387   0.191   3.422
 6443SOL     OW20227   2.465   0.855   0.652
 6443SOL    HW120228   2.365   0.848   0.656
 6443SOL    HW220229   2.501   0.878   0.742
 6444SOL     OW20230   0.395   0.933   3.080
 6444SOL    HW120231   0.419   0.877   3.159
 6444SOL    HW220232   0.422   1.028   3.096
 6445SOL     OW20233   3.659   3.998   5.626
 6445SOL    HW120234   3.638   3.950   5.711
 6445SOL    HW220235   3.607   4.083   5.622
 6446SOL     OW20236   6.886   2.225   0.892
 6446SOL    HW120237   6.846   2.273   0.814
 6446SOL    HW220238   6.985   2.236   0.891
 6447SOL     OW20239   1.693   0.213   2.979
 6447SOL    HW120240   1.705   0.184   3.074
 6447SOL    HW220241   1.597   0.235   2.963
 6448SOL     OW20242   6.812   1.969   2.333
 6448SOL    HW120243   6.896   1.956   2.280
 6448SOL    HW220244   6.733   1.961   2.272
 6449SOL     OW20245   3.743   2.648   1.001
 6449SOL    HW120246   3.807   2.585   0.958
 6449SOL    HW220247   3.654   2.603   1.013
 6450SOL     OW20248   6.847   3.402   6.977
 6450SOL    HW120249   6.883   3.342   0.029
 6450SOL    HW220250   6.913   3.475   6.959
 6451SOL     OW20251   2.679   5.949   3.886
 6451SOL    HW120252   2.770   5.967   3.923
 6451SOL    HW220253   2.640   5.869   3.931
 6452SOL     OW20254   4.407   5.939   4.160
 6452SOL    HW120255   4.504   5.951   4.142
 6452SOL    HW220256   4.355   5.952   4.075
 6453SOL     OW20257   2.034   5.058   6.634
 6453SOL    HW120258   2.086   5.110   6.567
 6453SOL    HW220259   2.047   4.960   6.618
 6454SOL     OW20260   3.697   1.082   4.901
 6454SOL    HW120261   3.751   1.076   4.985
 6454SOL    HW220262   3.604   1.114   4.924
 6455SOL     OW20263   6.029   3.152   5.731
 6455SOL    HW120264   5.988   3.061   5.721
 6455SOL    HW220265   6.065   3.182   5.643
 6456SOL     OW20266   6.922   1.163   4.916
 6456SOL    HW120267   6.927   1.124   4.824
 6456SOL    HW220268   6.881   1.097   4.978
 6457SOL     OW20269   6.280   2.474   2.697
 6457SOL    HW120270   6.286   2.471   2.598
 6457SOL    HW220271   6.191   2.439   2.727
 6458SOL     OW20272   1.530   6.519   3.417
 6458SOL    HW120273   1.595   6.474   3.478
 6458SOL    HW220274   1.472   6.450   3.374
 6459SOL     OW20275   5.317   4.983   0.679
 6459SOL    HW120276   5.372   5.025   0.608
 6459SOL    HW220277   5.373   4.918   0.730
 6460SOL     OW20278   2.872   4.802   1.093
 6460SOL    HW120279   2.820   4.770   1.172
 6460SOL    HW220280   2.968   4.816   1.120
 6461SOL     OW20281   3.181   5.975   5.658
 6461SOL    HW120282   3.176   6.064   5.703
 6461SOL    HW220283   3.140   5.980   5.568
 6462SOL     OW20284   2.113   2.934   3.397
 6462SOL    HW120285   2.019   2.944   3.365
 6462SOL    HW220286   2.155   3.024   3.404
 6463SOL     OW20287   0.915   4.122   5.500
 6463SOL    HW120288   1.008   4.102   5.469
 6463SOL    HW220289   0.914   4.133   5.599
 6464SOL     OW20290   1.351   5.513   2.686
 6464SOL    HW120291   1.332   5.418   2.710
 6464SOL    HW220292   1.314   5.532   2.594
 6465SOL     OW20293   6.268   1.031   3.029
 6465SOL    HW120294   6.282   1.042   2.930
 6465SOL    HW220295   6.207   0.954   3.045
 6466SOL     OW20296   0.015   2.700   5.244
 6466SOL    HW120297   6.980   2.770   5.289
 6466SOL    HW220298   6.978   2.621   5.223
 6467SOL     OW20299   3.197   0.886   5.875
 6467SOL    HW120300   3.124   0.941   5.915
 6467SOL    HW220301   3.163   0.793   5.860
 6468SOL     OW20302   5.203   4.589   1.705
 6468SOL    HW120303   5.232   4.651   1.633
 6468SOL    HW220304   5.200   4.638   1.792
 6469SOL     OW20305   6.601   1.182   5.898
 6469SOL    HW120306   6.679   1.126   5.924
 6469SOL    HW220307   6.629   1.278   5.897
 6470SOL     OW20308   6.372   5.871   4.759
 6470SOL    HW120309   6.322   5.827   4.834
 6470SOL    HW220310   6.366   5.970   4.769
 6471SOL     OW20311   5.688   5.543   5.679
 6471SOL    HW120312   5.779   5.550   5.719
 6471SOL    HW220313   5.662   5.447   5.673
 6472SOL     OW20314   1.386   6.046   1.224
 6472SOL    HW120315   1.469   5.989   1.232
 6472SOL    HW220316   1.369   6.092   1.311
 6473SOL     OW20317   2.673   0.670   5.176
 6473SOL    HW120318   2.612   0.595   5.203
 6473SOL    HW220319   2.642   0.708   5.089
 6474SOL     OW20320   2.630   3.364   5.737
 6474SOL    HW120321   2.617   3.453   5.696
 6474SOL    HW220322   2.541   3.325   5.762
 6475SOL     OW20323   4.741   5.451   3.857
 6475SOL    HW120324   4.661   5.392   3.867
 6475SOL    HW220325   4.710   5.545   3.838
 6476SOL     OW20326   5.317   4.710   2.286
 6476SOL    HW120327   5.316   4.613   2.311
 6476SOL    HW220328   5.298   4.765   2.367
 6477SOL     OW20329   6.908   6.520   0.396
 6477SOL    HW120330   6.927   6.565   0.309
 6477SOL    HW220331   6.918   6.586   0.470
 6478SOL     OW20332   5.331   6.237   1.730
 6478SOL    HW120333   5.259   6.305   1.717
 6478SOL    HW220334   5.419   6.283   1.737
 6479SOL     OW20335   3.971   6.369   2.898
 6479SOL    HW120336   4.005   6.343   2.808
 6479SOL    HW220337   3.954   6.467   2.900
 6480SOL     OW20338   2.473   1.101   1.223
 6480SOL    HW120339   2.429   1.080   1.311
 6480SOL    HW220340   2.416   1.066   1.149
 6481SOL     OW20341   4.644   0.693   1.425
 6481SOL    HW120342   4.691   0.759   1.483
 6481SOL    HW220343   4.561   0.662   1.472
 6482SOL     OW20344   6.913   0.538   6.657
 6482SOL    HW120345   6.945   0.543   6.752
 6482SOL    HW220346   6.839   0.604   6.644
 6483SOL     OW20347   1.776   5.543   1.855
 6483SOL    HW120348   1.806   5.628   1.899
 6483SOL    HW220349   1.774   5.470   1.924
 6484SOL     OW20350   5.357   6.741   3.602
 6484SOL    HW120351   5.399   6.826   3.634
 6484SOL    HW220352   5.423   6.666   3.611
 6485SOL     OW20353   1.080   2.713   3.235
 6485SOL    HW120354   1.023   2.679   3.310
 6485SOL    HW220355   1.037   2.794   3.195
 6486SOL     OW20356   1.825   3.050   3.247
 6486SOL    HW120357   1.739   3.044   3.298
 6486SOL    HW220358   1.891   3.104   3.299
 6487SOL     OW20359   5.824   5.189   3.474
 6487SOL    HW120360   5.745   5.137   3.441
 6487SOL    HW220361   5.804   5.286   3.472
 6488SOL     OW20362   3.141   4.985   5.482
 6488SOL    HW120363   3.106   4.925   5.554
 6488SOL    HW220364   3.158   4.931   5.399
 6489SOL     OW20365   2.624   1.879   5.937
 6489SOL    HW120366   2.623   1.927   6.025
 6489SOL    HW220367   2.592   1.941   5.865
 6490SOL     OW20368   4.898   1.516   0.840
 6490SOL    HW120369   4.952   1.489   0.920
 6490SOL    HW220370   4.932   1.468   0.759
 6491SOL     OW20371   4.108   1.021   6.435
 6491SOL    HW120372   4.102   1.108   6.484
 6491SOL    HW220373   4.150   1.036   6.345
 6492SOL     OW20374   5.888   6.274   6.357
 6492SOL    HW120375   5.845   6.272   6.266
 6492SOL    HW220376   5.936   6.361   6.369
 6493SOL     OW20377   1.426   6.482   5.360
 6493SOL    HW120378   1.407   6.391   5.322
 6493SOL    HW220379   1.421   6.550   5.287
 6494SOL     OW20380   1.630   0.312   3.786
 6494SOL    HW120381   1.542   0.337   3.746
 6494SOL    HW220382   1.702   0.370   3.748
 6495SOL     OW20383   5.564   4.833   2.298
 6495SOL    HW120384   5.482   4.775   2.287
 6495SOL    HW220385   5.646   4.777   2.284
 6496SOL     OW20386   0.884   6.105   3.157
 6496SOL    HW120387   0.980   6.131   3.173
 6496SOL    HW220388   0.869   6.091   3.059
 6497SOL     OW20389   0.318   5.420   0.340
 6497SOL    HW120390   0.319   5.345   0.407
 6497SOL    HW220391   0.250   5.400   0.269
 6498SOL     OW20392   1.366   4.386   3.849
 6498SOL    HW120393   1.279   4.387   3.800
 6498SOL    HW220394   1.387   4.292   3.878
 6499SOL     OW20395   5.738   0.921   3.792
 6499SOL    HW120396   5.738   1.021   3.784
 6499SOL    HW220397   5.831   0.888   3.803
 6500SOL     OW20398   5.552   4.855   3.577
 6500SOL    HW120399   5.501   4.827   3.496
 6500SOL    HW220400   5.648   4.829   3.567
 6501SOL     OW20401   0.039   3.491   0.867
 6501SOL    HW120402   0.005   3.399   0.884
 6501SOL    HW220403   0.116   3.511   0.927
 6502SOL     OW20404   1.433   5.169   2.266
 6502SOL    HW120405   1.432   5.168   2.366
 6502SOL    HW220406   1.382   5.248   2.233
 6503SOL     OW20407   4.741   0.172   4.518
 6503SOL    HW120408   4.696   0.134   4.599
 6503SOL    HW220409   4.840   0.177   4.535
 6504SOL     OW20410   1.646   0.955   0.487
 6504SOL    HW120411   1.626   0.903   0.571
 6504SOL    HW220412   1.563   0.961   0.432
 6505SOL     OW20413   5.458   5.503   0.608
 6505SOL    HW120414   5.525   5.577   0.610
 6505SOL    HW220415   5.414   5.500   0.518
 6506SOL     OW20416   2.011   1.711   0.599
 6506SOL    HW120417   2.002   1.699   0.501
 6506SOL    HW220418   1.929   1.676   0.645
 6507SOL     OW20419   2.846   0.506   1.807
 6507SOL    HW120420   2.749   0.481   1.809
 6507SOL    HW220421   2.894   0.456   1.879
 6508SOL     OW20422   2.264   1.664   1.946
 6508SOL    HW120423   2.251   1.652   2.044
 6508SOL    HW220424   2.266   1.574   1.901
 6509SOL     OW20425   0.993   2.462   3.988
 6509SOL    HW120426   0.995   2.467   3.889
 6509SOL    HW220427   0.908   2.419   4.018
 6510SOL     OW20428   5.879   5.197   6.453
 6510SOL    HW120429   5.928   5.256   6.517
 6510SOL    HW220430   5.945   5.139   6.405
 6511SOL     OW20431   6.661   6.435   5.561
 6511SOL    HW120432   6.588   6.501   5.540
 6511SOL    HW220433   6.750   6.481   5.555
 6512SOL     OW20434   5.264   6.079   3.702
 6512SOL    HW120435   5.169   6.071   3.733
 6512SOL    HW220436   5.311   5.992   3.718
 6513SOL     OW20437   1.994   6.910   3.386
 6513SOL    HW120438   1.912   6.893   3.441
 6513SOL    HW220439   2.075   6.875   3.434
 6514SOL     OW20440   3.427   0.163   3.905
 6514SOL    HW120441   3.389   0.240   3.956
 6514SOL    HW220442   3.521   0.145   3.936
 6515SOL     OW20443   0.852   0.924   3.761
 6515SOL    HW120444   0.923   0.853   3.768
 6515SOL    HW220445   0.772   0.897   3.815
 6516SOL     OW20446   1.579   1.690   5.932
 6516SOL    HW120447   1.653   1.650   5.876
 6516SOL    HW220448   1.506   1.624   5.943
 6517SOL     OW20449   1.529   2.050   0.508
 6517SOL    HW120450   1.488   1.959   0.505
 6517SOL    HW220451   1.620   2.045   0.549
 6518SOL     OW20452   5.815   6.200   0.881
 6518SOL    HW120453   5.757   6.245   0.948
 6518SOL    HW220454   5.805   6.101   0.888
 6519SOL     OW20455   1.112   2.279   3.187
 6519SOL    HW120456   1.137   2.216   3.260
 6519SOL    HW220457   1.152   2.369   3.205
 6520SOL     OW20458   5.921   5.837   1.913
 6520SOL    HW120459   5.862   5.811   1.990
 6520SOL    HW220460   5.898   5.930   1.884
 6521SOL     OW20461   1.522   2.215   5.557
 6521SOL    HW120462   1.574   2.189   5.638
 6521SOL    HW220463   1.448   2.277   5.584
 6522SOL     OW20464   2.676   5.273   4.864
 6522SOL    HW120465   2.753   5.216   4.892
 6522SOL    HW220466   2.623   5.300   4.945
 6523SOL     OW20467   2.041   2.774   0.093
 6523SOL    HW120468   2.136   2.743   0.085
 6523SOL    HW220469   2.008   2.753   0.185
 6524SOL     OW20470   4.022   3.920   4.839
 6524SOL    HW120471   4.014   3.820   4.840
 6524SOL    HW220472   4.118   3.945   4.846
 6525SOL     OW20473   0.359   2.381   4.227
 6525SOL    HW120474   0.374   2.385   4.128
 6525SOL    HW220475   0.335   2.472   4.261
 6526SOL     OW20476   1.466   5.246   3.770
 6526SOL    HW120477   1.546   5.290   3.809
 6526SOL    HW220478   1.485   5.218   3.676
 6527SOL     OW20479   2.428   1.162   4.046
 6527SOL    HW120480   2.475   1.073   4.045
 6527SOL    HW220481   2.455   1.213   4.128
 6528SOL     OW20482   0.072   6.800   3.438
 6528SOL    HW120483   0.001   6.862   3.471
 6528SOL    HW220484   0.128   6.846   3.369
 6529SOL     OW20485   6.399   2.552   1.947
 6529SOL    HW120486   6.440   2.561   1.856
 6529SOL    HW220487   6.455   2.601   2.014
 6530SOL     OW20488   0.336   1.984   0.162
 6530SOL    HW120489   0.352   1.968   0.260
 6530SOL    HW220490   0.339   1.897   0.113
 6531SOL     OW20491   5.288   2.796   4.536
 6531SOL    HW120492   5.261   2.892   4.547
 6531SOL    HW220493   5.215   2.737   4.569
 6532SOL     OW20494   1.364   2.481   6.914
 6532SOL    HW120495   1.364   2.570   6.869
 6532SOL    HW220496   1.436   2.479   6.983
 6533SOL     OW20497   4.349   0.728   1.124
 6533SOL    HW120498   4.438   0.683   1.120
 6533SOL    HW220499   4.287   0.684   1.059
 6534SOL     OW20500   2.113   3.361   0.001
 6534SOL    HW120501   2.173   3.438   0.025
 6534SOL    HW220502   2.081   3.317   0.084
 6535SOL     OW20503   2.172   3.413   5.500
 6535SOL    HW120504   2.255   3.357   5.500
 6535SOL    HW220505   2.112   3.385   5.426
 6536SOL     OW20506   6.707   2.432   6.731
 6536SOL    HW120507   6.756   2.470   6.809
 6536SOL    HW220508   6.686   2.336   6.750
 6537SOL     OW20509   0.801   0.291   0.159
 6537SOL    HW120510   0.739   0.212   0.156
 6537SOL    HW220511   0.830   0.315   0.067
 6538SOL     OW20512   1.732   3.041   6.302
 6538SOL    HW120513   1.677   2.963   6.273
 6538SOL    HW220514   1.811   3.049   6.241
 6539SOL     OW20515   2.825   1.749   6.278
 6539SOL    HW120516   2.859   1.701   6.198
 6539SOL    HW220517   2.835   1.691   6.359
 6540SOL     OW20518   3.085   2.146   3.941
 6540SOL    HW120519   3.175   2.126   3.902
 6540SOL    HW220520   3.095   2.173   4.036
 6541SOL     OW20521   2.837   2.825   5.410
 6541SOL    HW120522   2.774   2.903   5.398
 6541SOL    HW220523   2.886   2.835   5.496
 6542SOL     OW20524   6.331   4.177   3.573
 6542SOL    HW120525   6.380   4.237   3.637
 6542SOL    HW220526   6.392   4.105   3.542
 6543SOL     OW20527   0.571   5.632   6.183
 6543SOL    HW120528   0.645   5.645   6.117
 6543SOL    HW220529   0.587   5.549   6.235
 6544SOL     OW20530   6.987   6.251   2.903
 6544SOL    HW120531   6.956   6.332   2.853
 6544SOL    HW220532   6.915   6.181   2.902
 6545SOL     OW20533   5.395   3.149   5.984
 6545SOL    HW120534   5.489   3.128   5.955
 6545SOL    HW220535   5.355   3.068   6.026
 6546SOL     OW20536   3.525   4.810   5.911
 6546SOL    HW120537   3.545   4.902   5.948
 6546SOL    HW220538   3.542   4.742   5.983
 6547SOL     OW20539   5.180   0.738   0.011
 6547SOL    HW120540   5.120   0.795   6.975
 6547SOL    HW220541   5.275   0.762   7.013
 6548SOL     OW20542   5.917   3.898   5.089
 6548SOL    HW120543   5.913   3.806   5.127
 6548SOL    HW220544   5.996   3.947   5.127
 6549SOL     OW20545   2.997   1.878   2.533
 6549SOL    HW120546   3.049   1.936   2.470
 6549SOL    HW220547   2.943   1.813   2.481
 6550SOL     OW20548   0.969   5.028   3.024
 6550SOL    HW120549   0.894   4.966   3.044
 6550SOL    HW220550   0.942   5.122   3.047
 6551SOL     OW20551   2.740   4.993   1.978
 6551SOL    HW120552   2.719   4.906   2.023
 6551SOL    HW220553   2.804   4.977   1.903
 6552SOL     OW20554   4.850   5.616   6.556
 6552SOL    HW120555   4.829   5.649   6.464
 6552SOL    HW220556   4.914   5.679   6.600
 6553SOL     OW20557   6.985   2.834   2.773
 6553SOL    HW120558   6.895   2.804   2.806
 6553SOL    HW220559   0.016   2.873   2.850
 6554SOL     OW20560   0.294   3.653   4.703
 6554SOL    HW120561   0.303   3.619   4.609
 6554SOL    HW220562   0.330   3.746   4.708
 6555SOL     OW20563   0.651   0.924   1.923
 6555SOL    HW120564   0.708   0.853   1.880
 6555SOL    HW220565   0.605   0.977   1.853
 6556SOL     OW20566   3.690   0.298   4.193
 6556SOL    HW120567   3.682   0.249   4.107
 6556SOL    HW220568   3.700   0.396   4.175
 6557SOL     OW20569   5.213   6.117   0.590
 6557SOL    HW120570   5.145   6.141   0.659
 6557SOL    HW220571   5.239   6.199   0.539
 6558SOL     OW20572   6.713   6.366   6.149
 6558SOL    HW120573   6.714   6.294   6.081
 6558SOL    HW220574   6.669   6.448   6.111
 6559SOL     OW20575   3.251   3.245   1.524
 6559SOL    HW120576   3.296   3.293   1.448
 6559SOL    HW220577   3.171   3.195   1.489
 6560SOL     OW20578   3.968   1.654   0.751
 6560SOL    HW120579   3.950   1.563   0.712
 6560SOL    HW220580   4.065   1.660   0.777
 6561SOL     OW20581   3.488   3.823   4.223
 6561SOL    HW120582   3.568   3.862   4.177
 6561SOL    HW220583   3.502   3.725   4.235
 6562SOL     OW20584   6.649   3.952   5.270
 6562SOL    HW120585   6.740   3.910   5.274
 6562SOL    HW220586   6.635   3.992   5.180
 6563SOL     OW20587   0.523   5.197   2.576
 6563SOL    HW120588   0.535   5.296   2.568
 6563SOL    HW220589   0.595   5.159   2.633
 6564SOL     OW20590   1.581   5.803   2.667
 6564SOL    HW120591   1.498   5.852   2.694
 6564SOL    HW220592   1.580   5.712   2.708
 6565SOL     OW20593   6.523   3.665   4.948
 6565SOL    HW120594   6.601   3.725   4.967
 6565SOL    HW220595   6.452   3.679   5.018
 6566SOL     OW20596   3.594   6.969   0.779
 6566SOL    HW120597   3.600   6.941   0.875
 6566SOL    HW220598   3.554   0.039   0.773
 6567SOL     OW20599   6.236   2.879   1.132
 6567SOL    HW120600   6.142   2.887   1.164
 6567SOL    HW220601   6.293   2.948   1.177
 6568SOL     OW20602   4.153   3.843   1.552
 6568SOL    HW120603   4.128   3.920   1.610
 6568SOL    HW220604   4.233   3.868   1.497
 6569SOL     OW20605   0.739   4.955   6.235
 6569SOL    HW120606   0.704   5.041   6.198
 6569SOL    HW220607   0.709   4.944   6.330
 6570SOL     OW20608   6.229   3.544   1.471
 6570SOL    HW120609   6.221   3.628   1.419
 6570SOL    HW220610   6.256   3.565   1.565
 6571SOL     OW20611   2.889   6.263   4.000
 6571SOL    HW120612   2.799   6.228   4.024
 6571SOL    HW220613   2.893   6.361   4.021
 6572SOL     OW20614   1.230   4.589   5.961
 6572SOL    HW120615   1.220   4.681   5.924
 6572SOL    HW220616   1.170   4.578   6.040
 6573SOL     OW20617   1.743   2.166   2.007
 6573SOL    HW120618   1.832   2.199   1.974
 6573SOL    HW220619   1.752   2.136   2.102
 6574SOL     OW20620   1.421   4.496   4.255
 6574SOL    HW120621   1.458   4.444   4.178
 6574SOL    HW220622   1.494   4.514   4.321
 6575SOL     OW20623   2.327   1.312   2.567
 6575SOL    HW120624   2.230   1.319   2.591
 6575SOL    HW220625   2.382   1.310   2.650
 6576SOL     OW20626   1.351   6.197   3.997
 6576SOL    HW120627   1.258   6.234   3.993
 6576SOL    HW220628   1.347   6.097   4.002
 6577SOL     OW20629   6.507   3.200   4.756
 6577SOL    HW120630   6.420   3.245   4.770
 6577SOL    HW220631   6.506   3.150   4.670
 6578SOL     OW20632   6.697   5.609   3.505
 6578SOL    HW120633   6.639   5.619   3.585
 6578SOL    HW220634   6.793   5.619   3.532
 6579SOL     OW20635   1.188   3.848   3.120
 6579SOL    HW120636   1.205   3.881   3.027
 6579SOL    HW220637   1.259   3.883   3.181
 6580SOL     OW20638   5.743   2.587   1.486
 6580SOL    HW120639   5.706   2.671   1.446
 6580SOL    HW220640   5.691   2.564   1.569
 6581SOL     OW20641   2.708   2.484   5.618
 6581SOL    HW120642   2.715   2.488   5.518
 6581SOL    HW220643   2.636   2.547   5.649
 6582SOL     OW20644   6.552   0.599   2.309
 6582SOL    HW120645   6.558   0.511   2.354
 6582SOL    HW220646   6.643   0.628   2.278
 6583SOL     OW20647   5.858   2.099   5.933
 6583SOL    HW120648   5.900   2.168   5.874
 6583SOL    HW220649   5.929   2.053   5.985
 6584SOL     OW20650   5.664   2.439   0.117
 6584SOL    HW120651   5.684   2.343   0.141
 6584SOL    HW220652   5.578   2.443   0.066
 6585SOL     OW20653   2.737   1.264   1.394
 6585SOL    HW120654   2.750   1.341   1.457
 6585SOL    HW220655   2.779   1.285   1.306
 6586SOL     OW20656   0.008   1.403   6.709
 6586SOL    HW120657   0.049   1.475   6.766
 6586SOL    HW220658   6.956   1.443   6.653
 6587SOL     OW20659   1.757   6.435   2.783
 6587SOL    HW120660   1.791   6.522   2.816
 6587SOL    HW220661   1.660   6.443   2.759
 6588SOL     OW20662   2.626   2.824   6.930
 6588SOL    HW120663   2.546   2.865   6.887
 6588SOL    HW220664   2.597   2.754   6.995
 6589SOL     OW20665   5.516   1.804   5.627
 6589SOL    HW120666   5.525   1.854   5.712
 6589SOL    HW220667   5.596   1.821   5.569
 6590SOL     OW20668   6.734   0.997   5.706
 6590SOL    HW120669   6.820   1.011   5.755
 6590SOL    HW220670   6.723   1.070   5.638
 6591SOL     OW20671   5.295   0.750   2.734
 6591SOL    HW120672   5.389   0.736   2.703
 6591SOL    HW220673   5.232   0.728   2.660
 6592SOL     OW20674   5.774   5.891   4.508
 6592SOL    HW120675   5.681   5.888   4.543
 6592SOL    HW220676   5.831   5.946   4.569
 6593SOL     OW20677   4.698   0.862   2.360
 6593SOL    HW120678   4.708   0.960   2.345
 6593SOL    HW220679   4.665   0.845   2.453
 6594SOL     OW20680   5.680   1.349   6.818
 6594SOL    HW120681   5.638   1.259   6.830
 6594SOL    HW220682   5.656   1.385   6.728
 6595SOL     OW20683   1.701   3.687   6.975
 6595SOL    HW120684   1.706   3.715   6.879
 6595SOL    HW220685   1.635   3.745   0.003
 6596SOL     OW20686   3.106   6.571   5.701
 6596SOL    HW120687   3.118   6.660   5.744
 6596SOL    HW220688   3.009   6.555   5.683
 6597SOL     OW20689   6.524   3.934   6.818
 6597SOL    HW120690   6.539   3.891   6.729
 6597SOL    HW220691   6.598   3.997   6.838
 6598SOL     OW20692   2.259   5.442   4.972
 6598SOL    HW120693   2.208   5.396   4.900
 6598SOL    HW220694   2.195   5.471   5.044
 6599SOL     OW20695   4.355   3.233   5.717
 6599SOL    HW120696   4.403   3.219   5.804
 6599SOL    HW220697   4.421   3.237   5.642
 6600SOL     OW20698   4.068   5.417   4.427
 6600SOL    HW120699   4.118   5.471   4.495
 6600SOL    HW220700   3.987   5.468   4.397
 6601SOL     OW20701   0.952   0.283   1.149
 6601SOL    HW120702   0.940   0.291   1.248
 6601SOL    HW220703   0.982   0.372   1.112
 6602SOL     OW20704   6.407   1.261   1.741
 6602SOL    HW120705   6.463   1.341   1.765
 6602SOL    HW220706   6.467   1.187   1.710
 6603SOL     OW20707   2.479   2.241   2.116
 6603SOL    HW120708   2.520   2.195   2.037
 6603SOL    HW220709   2.540   2.314   2.148
 6604SOL     OW20710   4.088   5.759   3.713
 6604SOL    HW120711   4.050   5.814   3.788
 6604SOL    HW220712   4.185   5.742   3.730
 6605SOL     OW20713   5.261   6.320   0.416
 6605SOL    HW120714   5.334   6.313   0.348
 6605SOL    HW220715   5.190   6.382   0.383
 6606SOL     OW20716   6.432   1.162   3.343
 6606SOL    HW120717   6.445   1.064   3.361
 6606SOL    HW220718   6.334   1.182   3.337
 6607SOL     OW20719   0.880   1.677   2.934
 6607SOL    HW120720   0.798   1.730   2.953
 6607SOL    HW220721   0.899   1.678   2.836
 6608SOL     OW20722   5.474   4.827   4.961
 6608SOL    HW120723   5.431   4.790   5.043
 6608SOL    HW220724   5.563   4.783   4.947
 6609SOL     OW20725   5.793   1.518   0.022
 6609SOL    HW120726   5.827   1.427   7.019
 6609SOL    HW220727   5.823   1.583   6.974
 6610SOL     OW20728   3.342   1.402   0.337
 6610SOL    HW120729   3.395   1.477   0.299
 6610SOL    HW220730   3.306   1.345   0.263
 6611SOL     OW20731   5.528   3.041   3.225
 6611SOL    HW120732   5.554   2.946   3.208
 6611SOL    HW220733   5.588   3.080   3.295
 6612SOL     OW20734   1.064   6.021   6.862
 6612SOL    HW120735   1.132   5.947   6.866
 6612SOL    HW220736   1.112   6.109   6.856
 6613SOL     OW20737   4.865   5.178   1.357
 6613SOL    HW120738   4.781   5.197   1.307
 6613SOL    HW220739   4.944   5.202   1.301
 6614SOL     OW20740   5.266   5.361   5.673
 6614SOL    HW120741   5.305   5.271   5.659
 6614SOL    HW220742   5.168   5.352   5.692
 6615SOL     OW20743   0.525   4.262   5.270
 6615SOL    HW120744   0.585   4.341   5.276
 6615SOL    HW220745   0.481   4.260   5.180
 6616SOL     OW20746   5.142   1.049   4.180
 6616SOL    HW120747   5.233   1.085   4.199
 6616SOL    HW220748   5.075   1.094   4.239
 6617SOL     OW20749   4.244   0.311   5.161
 6617SOL    HW120750   4.306   0.364   5.219
 6617SOL    HW220751   4.150   0.339   5.180
 6618SOL     OW20752   0.495   5.028   1.076
 6618SOL    HW120753   0.404   4.992   1.056
 6618SOL    HW220754   0.557   5.005   1.001
 6619SOL     OW20755   0.040   6.284   1.646
 6619SOL    HW120756   6.981   6.342   1.625
 6619SOL    HW220757   0.027   6.194   1.603
 6620SOL     OW20758   4.079   3.155   5.838
 6620SOL    HW120759   4.083   3.098   5.920
 6620SOL    HW220760   4.170   3.191   5.819
 6621SOL     OW20761   2.783   3.853   0.045
 6621SOL    HW120762   2.782   3.933   7.005
 6621SOL    HW220763   2.727   3.871   0.126
 6622SOL     OW20764   6.285   5.822   1.097
 6622SOL    HW120765   6.203   5.840   1.043
 6622SOL    HW220766   6.364   5.811   1.036
 6623SOL     OW20767   3.518   3.852   2.561
 6623SOL    HW120768   3.472   3.789   2.624
 6623SOL    HW220769   3.535   3.939   2.608
 6624SOL     OW20770   4.594   5.249   3.989
 6624SOL    HW120771   4.522   5.182   3.970
 6624SOL    HW220772   4.552   5.337   4.011
 6625SOL     OW20773   5.777   0.188   0.090
 6625SOL    HW120774   5.710   0.221   0.156
 6625SOL    HW220775   5.805   0.095   0.114
 6626SOL     OW20776   2.898   5.101   3.346
 6626SOL    HW120777   2.825   5.165   3.369
 6626SOL    HW220778   2.921   5.046   3.427
 6627SOL     OW20779   1.789   6.021   2.052
 6627SOL    HW120780   1.808   6.097   2.114
 6627SOL    HW220781   1.734   6.054   1.976
 6628SOL     OW20782   3.987   6.304   3.599
 6628SOL    HW120783   3.949   6.364   3.530
 6628SOL    HW220784   4.087   6.311   3.598
 6629SOL     OW20785   3.372   3.999   0.083
 6629SOL    HW120786   3.299   3.933   0.101
 6629SOL    HW220787   3.455   3.972   0.132
 6630SOL     OW20788   3.283   1.898   6.469
 6630SOL    HW120789   3.326   1.844   6.542
 6630SOL    HW220790   3.253   1.837   6.396
 6631SOL     OW20791   4.173   0.887   1.682
 6631SOL    HW120792   4.074   0.901   1.674
 6631SOL    HW220793   4.212   0.871   1.591
 6632SOL     OW20794   6.551   2.546   2.613
 6632SOL    HW120795   6.600   2.459   2.603
 6632SOL    HW220796   6.616   2.618   2.639
 6633SOL     OW20797   0.728   7.009   1.822
 6633SOL    HW120798   0.666   6.948   1.871
 6633SOL    HW220799   0.726   6.987   1.724
 6634SOL     OW20800   6.716   2.664   5.502
 6634SOL    HW120801   6.791   2.727   5.481
 6634SOL    HW220802   6.747   2.595   5.568
 6635SOL     OW20803   4.463   4.498   2.773
 6635SOL    HW120804   4.539   4.477   2.711
 6635SOL    HW220805   4.403   4.566   2.731
 6636SOL     OW20806   1.711   2.902   3.877
 6636SOL    HW120807   1.804   2.891   3.914
 6636SOL    HW220808   1.714   2.959   3.795
 6637SOL     OW20809   6.418   2.002   1.653
 6637SOL    HW120810   6.320   2.021   1.640
 6637SOL    HW220811   6.434   1.974   1.747
 6638SOL     OW20812   2.344   6.418   6.914
 6638SOL    HW120813   2.418   6.381   6.858
 6638SOL    HW220814   2.261   6.426   6.859
 6639SOL     OW20815   4.720   5.720   6.304
 6639SOL    HW120816   4.727   5.818   6.319
 6639SOL    HW220817   4.624   5.695   6.289
 6640SOL     OW20818   6.103   2.393   3.539
 6640SOL    HW120819   6.042   2.373   3.615
 6640SOL    HW220820   6.106   2.492   3.524
 6641SOL     OW20821   2.131   5.015   6.958
 6641SOL    HW120822   2.074   4.963   0.001
 6641SOL    HW220823   2.087   5.018   6.868
 6642SOL     OW20824   6.111   6.397   0.295
 6642SOL    HW120825   6.054   6.418   0.374
 6642SOL    HW220826   6.098   6.467   0.225
 6643SOL     OW20827   3.741   5.680   0.594
 6643SOL    HW120828   3.712   5.614   0.525
 6643SOL    HW220829   3.763   5.767   0.550
 6644SOL     OW20830   2.248   4.127   2.208
 6644SOL    HW120831   2.308   4.197   2.247
 6644SOL    HW220832   2.153   4.160   2.209
 6645SOL     OW20833   6.305   4.897   5.132
 6645SOL    HW120834   6.369   4.821   5.129
 6645SOL    HW220835   6.306   4.946   5.045
 6646SOL     OW20836   1.633   6.264   3.495
 6646SOL    HW120837   1.581   6.227   3.418
 6646SOL    HW220838   1.624   6.202   3.573
 6647SOL     OW20839   4.256   1.806   1.837
 6647SOL    HW120840   4.191   1.800   1.761
 6647SOL    HW220841   4.300   1.718   1.851
 6648SOL     OW20842   4.342   5.736   1.902
 6648SOL    HW120843   4.310   5.643   1.924
 6648SOL    HW220844   4.297   5.801   1.963
 6649SOL     OW20845   4.252   2.249   6.276
 6649SOL    HW120846   4.307   2.208   6.203
 6649SOL    HW220847   4.255   2.348   6.269
 6650SOL     OW20848   2.942   1.215   3.754
 6650SOL    HW120849   2.947   1.216   3.655
 6650SOL    HW220850   2.982   1.129   3.788
 6651SOL     OW20851   1.376   1.966   0.150
 6651SOL    HW120852   1.411   2.036   0.213
 6651SOL    HW220853   1.276   1.966   0.153
 6652SOL     OW20854   0.978   5.534   3.376
 6652SOL    HW120855   1.039   5.573   3.446
 6652SOL    HW220856   0.886   5.523   3.413
 6653SOL     OW20857   3.185   3.493   3.779
 6653SOL    HW120858   3.089   3.465   3.777
 6653SOL    HW220859   3.195   3.581   3.731
 6654SOL     OW20860   1.678   3.466   1.818
 6654SOL    HW120861   1.617   3.484   1.740
 6654SOL    HW220862   1.741   3.542   1.829
 6655SOL     OW20863   2.071   0.226   0.887
 6655SOL    HW120864   1.981   0.264   0.910
 6655SOL    HW220865   2.062   0.164   0.809
 6656SOL     OW20866   7.004   2.680   1.639
 6656SOL    HW120867   7.012   2.626   1.555
 6656SOL    HW220868   6.928   2.743   1.631
 6657SOL     OW20869   2.773   4.633   6.073
 6657SOL    HW120870   2.802   4.710   6.129
 6657SOL    HW220871   2.775   4.549   6.128
 6658SOL     OW20872   5.970   0.146   5.433
 6658SOL    HW120873   5.944   0.170   5.526
 6658SOL    HW220874   5.899   0.177   5.369
 6659SOL     OW20875   1.708   2.988   6.560
 6659SOL    HW120876   1.702   3.008   6.463
 6659SOL    HW220877   1.803   2.971   6.585
 6660SOL     OW20878   0.316   6.855   2.127
 6660SOL    HW120879   0.300   6.947   2.091
 6660SOL    HW220880   0.237   6.825   2.181
 6661SOL     OW20881   6.946   5.784   3.504
 6661SOL    HW120882   7.014   5.853   3.526
 6661SOL    HW220883   6.988   5.693   3.506
 6662SOL     OW20884   1.030   3.389   5.446
 6662SOL    HW120885   1.083   3.470   5.424
 6662SOL    HW220886   1.089   3.308   5.442
 6663SOL     OW20887   0.468   4.955   2.451
 6663SOL    HW120888   0.490   5.043   2.494
 6663SOL    HW220889   0.536   4.887   2.479
 6664SOL     OW20890   0.488   1.637   3.145
 6664SOL    HW120891   0.430   1.559   3.170
 6664SOL    HW220892   0.432   1.719   3.135
 6665SOL     OW20893   2.682   6.613   2.706
 6665SOL    HW120894   2.779   6.597   2.724
 6665SOL    HW220895   2.662   6.588   2.611
 6666SOL     OW20896   6.266   0.637   0.528
 6666SOL    HW120897   6.344   0.692   0.500
 6666SOL    HW220898   6.298   0.554   0.574
 6667SOL     OW20899   6.480   5.064   4.582
 6667SOL    HW120900   6.522   4.997   4.644
 6667SOL    HW220901   6.383   5.072   4.603
 6668SOL     OW20902   0.172   6.650   1.353
 6668SOL    HW120903   0.187   6.744   1.385
 6668SOL    HW220904   0.165   6.649   1.253
 6669SOL     OW20905   1.373   5.342   3.140
 6669SOL    HW120906   1.319   5.413   3.095
 6669SOL    HW220907   1.391   5.268   3.075
 6670SOL     OW20908   3.871   4.693   1.016
 6670SOL    HW120909   3.830   4.652   0.935
 6670SOL    HW220910   3.933   4.767   0.988
 6671SOL     OW20911   0.276   2.994   5.494
 6671SOL    HW120912   0.266   2.980   5.395
 6671SOL    HW220913   0.191   2.969   5.540
 6672SOL     OW20914   0.589   0.955   5.560
 6672SOL    HW120915   0.526   0.896   5.609
 6672SOL    HW220916   0.537   1.017   5.500
 6673SOL     OW20917   5.122   5.659   1.713
 6673SOL    HW120918   5.214   5.682   1.682
 6673SOL    HW220919   5.079   5.595   1.649
 6674SOL     OW20920   0.634   6.831   4.772
 6674SOL    HW120921   0.640   6.767   4.695
 6674SOL    HW220922   0.571   6.905   4.749
 6675SOL     OW20923   0.123   6.046   0.345
 6675SOL    HW120924   0.116   6.027   0.247
 6675SOL    HW220925   0.053   6.112   0.372
 6676SOL     OW20926   1.182   1.701   0.332
 6676SOL    HW120927   1.236   1.627   0.293
 6676SOL    HW220928   1.131   1.747   0.259
 6677SOL     OW20929   6.436   3.800   0.057
 6677SOL    HW120930   6.471   3.834   6.990
 6677SOL    HW220931   6.467   3.859   0.131
 6678SOL     OW20932   0.875   2.925   3.946
 6678SOL    HW120933   0.834   2.836   3.929
 6678SOL    HW220934   0.835   2.966   4.028
 6679SOL     OW20935   1.739   0.896   4.587
 6679SOL    HW120936   1.745   0.993   4.610
 6679SOL    HW220937   1.644   0.870   4.572
 6680SOL     OW20938   2.550   0.128   6.342
 6680SOL    HW120939   2.608   0.047   6.336
 6680SOL    HW220940   2.487   0.118   6.420
 6681SOL     OW20941   5.561   5.446   0.181
 6681SOL    HW120942   5.646   5.494   0.159
 6681SOL    HW220943   5.582   5.354   0.213
 6682SOL     OW20944   6.768   5.085   2.475
 6682SOL    HW120945   6.772   5.160   2.540
 6682SOL    HW220946   6.858   5.070   2.434
 6683SOL     OW20947   5.247   1.973   4.119
 6683SOL    HW120948   5.207   1.887   4.149
 6683SOL    HW220949   5.196   2.008   4.041
 6684SOL     OW20950   2.062   0.830   2.413
 6684SOL    HW120951   2.124   0.756   2.438
 6684SOL    HW220952   2.046   0.888   2.492
 6685SOL     OW20953   5.377   3.271   6.237
 6685SOL    HW120954   5.369   3.185   6.287
 6685SOL    HW220955   5.403   3.252   6.143
 6686SOL     OW20956   5.317   3.364   4.179
 6686SOL    HW120957   5.393   3.428   4.185
 6686SOL    HW220958   5.308   3.315   4.266
 6687SOL     OW20959   0.916   1.118   0.135
 6687SOL    HW120960   1.002   1.123   0.085
 6687SOL    HW220961   0.910   1.195   0.198
 6688SOL     OW20962   0.463   5.541   2.556
 6688SOL    HW120963   0.365   5.560   2.561
 6688SOL    HW220964   0.509   5.615   2.508
 6689SOL     OW20965   4.289   4.847   0.519
 6689SOL    HW120966   4.360   4.899   0.567
 6689SOL    HW220967   4.205   4.846   0.573
 6690SOL     OW20968   1.412   1.792   0.458
 6690SOL    HW120969   1.481   1.725   0.429
 6690SOL    HW220970   1.324   1.768   0.416
 6691SOL     OW20971   1.199   5.157   0.964
 6691SOL    HW120972   1.151   5.150   0.876
 6691SOL    HW220973   1.284   5.104   0.960
 6692SOL     OW20974   3.565   4.240   5.950
 6692SOL    HW120975   3.604   4.306   6.014
 6692SOL    HW220976   3.593   4.148   5.977
 6693SOL     OW20977   4.344   3.663   5.321
 6693SOL    HW120978   4.338   3.571   5.281
 6693SOL    HW220979   4.280   3.724   5.274
 6694SOL     OW20980   2.867   6.446   0.286
 6694SOL    HW120981   2.915   6.361   0.306
 6694SOL    HW220982   2.887   6.514   0.357
 6695SOL     OW20983   1.413   1.619   6.524
 6695SOL    HW120984   1.367   1.530   6.528
 6695SOL    HW220985   1.431   1.651   6.617
 6696SOL     OW20986   2.020   3.183   1.630
 6696SOL    HW120987   2.081   3.190   1.710
 6696SOL    HW220988   2.055   3.242   1.557
 6697SOL     OW20989   5.223   2.468   3.810
 6697SOL    HW120990   5.243   2.543   3.746
 6697SOL    HW220991   5.163   2.501   3.883
 6698SOL     OW20992   3.397   4.346   0.434
 6698SOL    HW120993   3.378   4.327   0.530
 6698SOL    HW220994   3.354   4.432   0.408
 6699SOL     OW20995   1.828   3.396   6.670
 6699SOL    HW120996   1.908   3.457   6.666
 6699SOL    HW220997   1.797   3.376   6.577
 6700SOL     OW20998   6.658   6.972   6.226
 6700SOL    HW120999   6.724   0.025   6.208
 6700SOL    HW221000   6.705   6.894   6.266
 6701SOL     OW21001   0.535   2.372   0.989
 6701SOL    HW121002   0.597   2.300   1.020
 6701SOL    HW221003   0.474   2.398   1.065
 6702SOL     OW21004   1.467   3.376   0.722
 6702SOL    HW121005   1.552   3.424   0.742
 6702SOL    HW221006   1.472   3.336   0.630
 6703SOL     OW21007   0.162   2.274   6.764
 6703SOL    HW121008   0.235   2.317   6.818
 6703SOL    HW221009   0.202   2.227   6.685
 6704SOL     OW21010   4.881   2.432   3.064
 6704SOL    HW121011   4.955   2.496   3.042
 6704SOL    HW221012   4.867   2.430   3.163
 6705SOL     OW21013   6.099   1.174   0.829
 6705SOL    HW121014   6.029   1.246   0.840
 6705SOL    HW221015   6.169   1.185   0.900
 6706SOL     OW21016   0.663   5.639   0.028
 6706SOL    HW121017   0.572   5.626   0.067
 6706SOL    HW221018   0.655   5.656   6.951
 6707SOL     OW21019   1.429   5.611   2.368
 6707SOL    HW121020   1.443   5.593   2.270
 6707SOL    HW221021   1.422   5.524   2.416
 6708SOL     OW21022   2.071   5.998   1.706
 6708SOL    HW121023   2.063   6.038   1.797
 6708SOL    HW221024   2.137   5.923   1.708
 6709SOL     OW21025   5.126   1.662   2.944
 6709SOL    HW121026   5.187   1.591   2.909
 6709SOL    HW221027   5.057   1.683   2.875
 6710SOL     OW21028   1.911   2.145   0.393
 6710SOL    HW121029   1.856   2.121   0.472
 6710SOL    HW221030   1.854   2.194   0.326
 6711SOL     OW21031   5.222   3.695   0.219
 6711SOL    HW121032   5.125   3.720   0.226
 6711SOL    HW221033   5.249   3.644   0.300
 6712SOL     OW21034   3.243   6.106   1.453
 6712SOL    HW121035   3.254   6.046   1.374
 6712SOL    HW221036   3.257   6.201   1.425
 6713SOL     OW21037   1.687   1.521   2.772
 6713SOL    HW121038   1.780   1.558   2.773
 6713SOL    HW221039   1.687   1.433   2.724
 6714SOL     OW21040   6.715   0.049   4.549
 6714SOL    HW121041   6.660   0.035   4.631
 6714SOL    HW221042   6.748   0.143   4.548
 6715SOL     OW21043   6.947   2.023   0.658
 6715SOL    HW121044   0.001   1.962   0.630
 6715SOL    HW221045   6.890   1.976   0.726
 6716SOL     OW21046   2.864   5.733   0.598
 6716SOL    HW121047   2.775   5.711   0.557
 6716SOL    HW221048   2.937   5.708   0.534
 6717SOL     OW21049   4.225   1.545   6.622
 6717SOL    HW121050   4.290   1.583   6.687
 6717SOL    HW221051   4.142   1.516   6.670
 6718SOL     OW21052   3.108   6.733   0.322
 6718SOL    HW121053   3.152   6.809   0.371
 6718SOL    HW221054   3.177   6.666   0.295
 6719SOL     OW21055   0.840   0.801   5.553
 6719SOL    HW121056   0.884   0.875   5.604
 6719SOL    HW221057   0.741   0.815   5.554
 6720SOL     OW21058   1.896   4.764   1.417
 6720SOL    HW121059   1.887   4.803   1.326
 6720SOL    HW221060   1.980   4.710   1.422
 6721SOL     OW21061   6.560   6.207   3.112
 6721SOL    HW121062   6.654   6.230   3.136
 6721SOL    HW221063   6.502   6.211   3.194
 6722SOL     OW21064   5.149   4.681   0.059
 6722SOL    HW121065   5.168   4.635   6.993
 6722SOL    HW221066   5.186   4.773   0.057
 6723SOL     OW21067   4.492   0.946   2.793
 6723SOL    HW121068   4.440   1.024   2.758
 6723SOL    HW221069   4.589   0.971   2.800
 6724SOL     OW21070   3.627   4.621   5.484
 6724SOL    HW121071   3.530   4.609   5.460
 6724SOL    HW221072   3.634   4.662   5.574
 6725SOL     OW21073   6.866   5.283   1.530
 6725SOL    HW121074   6.788   5.343   1.549
 6725SOL    HW221075   6.848   5.192   1.569
 6726SOL     OW21076   2.208   2.720   1.571
 6726SOL    HW121077   2.193   2.721   1.472
 6726SOL    HW221078   2.119   2.715   1.617
 6727SOL     OW21079   3.286   3.939   0.397
 6727SOL    HW121080   3.266   4.029   0.360
 6727SOL    HW221081   3.366   3.944   0.457
 6728SOL     OW21082   4.713   1.446   4.797
 6728SOL    HW121083   4.708   1.346   4.789
 6728SOL    HW221084   4.623   1.482   4.819
 6729SOL     OW21085   5.657   6.647   3.522
 6729SOL    HW121086   5.637   6.682   3.431
 6729SOL    HW221087   5.725   6.574   3.516
 6730SOL     OW21088   1.221   0.260   2.311
 6730SOL    HW121089   1.204   0.235   2.216
 6730SOL    HW221090   1.265   0.350   2.315
 6731SOL     OW21091   2.087   4.243   1.820
 6731SOL    HW121092   2.152   4.197   1.881
 6731SOL    HW221093   2.111   4.225   1.725
 6732SOL     OW21094   2.600   5.179   0.740
 6732SOL    HW121095   2.544   5.118   0.684
 6732SOL    HW221096   2.597   5.149   0.836
 6733SOL     OW21097   6.234   6.106   4.690
 6733SOL    HW121098   6.165   6.177   4.702
 6733SOL    HW221099   6.320   6.147   4.659
 6734SOL     OW21100   2.827   3.798   5.595
 6734SOL    HW121101   2.911   3.798   5.648
 6734SOL    HW221102   2.790   3.891   5.590
 6735SOL     OW21103   0.593   6.030   6.760
 6735SOL    HW121104   0.637   5.940   6.756
 6735SOL    HW221105   0.504   6.022   6.805
 6736SOL     OW21106   2.348   4.351   2.321
 6736SOL    HW121107   2.250   4.361   2.301
 6736SOL    HW221108   2.365   4.374   2.417
 6737SOL     OW21109   2.190   0.249   1.225
 6737SOL    HW121110   2.237   0.318   1.169
 6737SOL    HW221111   2.168   0.289   1.314
 6738SOL     OW21112   4.597   1.327   1.499
 6738SOL    HW121113   4.646   1.252   1.456
 6738SOL    HW221114   4.606   1.321   1.598
 6739SOL     OW21115   4.687   0.329   5.232
 6739SOL    HW121116   4.688   0.266   5.310
 6739SOL    HW221117   4.697   0.277   5.147
 6740SOL     OW21118   5.724   3.074   5.441
 6740SOL    HW121119   5.799   3.140   5.444
 6740SOL    HW221120   5.643   3.114   5.484
 6741SOL     OW21121   7.014   6.964   6.234
 6741SOL    HW121122   0.064   6.903   6.199
 6741SOL    HW221123   7.005   6.952   6.333
 6742SOL     OW21124   6.263   5.808   5.010
 6742SOL    HW121125   6.337   5.807   5.078
 6742SOL    HW221126   6.221   5.898   5.009
 6743SOL     OW21127   5.914   2.400   1.059
 6743SOL    HW121128   5.980   2.392   1.134
 6743SOL    HW221129   5.844   2.467   1.085
 6744SOL     OW21130   5.269   5.770   4.663
 6744SOL    HW121131   5.293   5.758   4.759
 6744SOL    HW221132   5.347   5.811   4.614
 6745SOL     OW21133   0.739   3.517   2.795
 6745SOL    HW121134   0.728   3.549   2.701
 6745SOL    HW221135   0.653   3.478   2.827
 6746SOL     OW21136   0.033   0.874   1.396
 6746SOL    HW121137   0.030   0.839   1.490
 6746SOL    HW221138   0.008   0.801   1.333
 6747SOL     OW21139   4.741   6.015   6.343
 6747SOL    HW121140   4.703   6.057   6.425
 6747SOL    HW221141   4.669   5.996   6.277
 6748SOL     OW21142   6.950   6.552   1.898
 6748SOL    HW121143   0.002   6.485   1.915
 6748SOL    HW221144   6.983   6.644   1.920
 6749SOL     OW21145   3.215   5.830   0.901
 6749SOL    HW121146   3.141   5.792   0.956
 6749SOL    HW221147   3.218   5.783   0.812
 6750SOL     OW21148   2.123   3.161   5.071
 6750SOL    HW121149   2.092   3.149   5.166
 6750SOL    HW221150   2.205   3.106   5.056
 6751SOL     OW21151   3.604   1.684   6.115
 6751SOL    HW121152   3.679   1.628   6.151
 6751SOL    HW221153   3.537   1.700   6.188
 6752SOL     OW21154   6.769   1.986   0.135
 6752SOL    HW121155   6.705   1.997   0.210
 6752SOL    HW221156   6.824   1.904   0.150
 6753SOL     OW21157   5.948   1.285   6.811
 6753SOL    HW121158   5.862   1.334   6.828
 6753SOL    HW221159   6.000   1.332   6.741
 6754SOL     OW21160   5.079   1.541   6.468
 6754SOL    HW121161   5.159   1.504   6.420
 6754SOL    HW221162   5.105   1.624   6.518
 6755SOL     OW21163   4.937   2.133   3.697
 6755SOL    HW121164   5.017   2.183   3.667
 6755SOL    HW221165   4.857   2.194   3.696
 6756SOL     OW21166   4.798   4.023   3.311
 6756SOL    HW121167   4.840   4.113   3.301
 6756SOL    HW221168   4.809   3.991   3.405
 6757SOL     OW21169   6.075   4.913   1.715
 6757SOL    HW121170   6.115   4.897   1.805
 6757SOL    HW221171   6.034   4.828   1.681
 6758SOL     OW21172   5.613   1.364   3.291
 6758SOL    HW121173   5.620   1.292   3.359
 6758SOL    HW221174   5.674   1.344   3.214
 6759SOL     OW21175   1.110   4.688   3.035
 6759SOL    HW121176   1.183   4.684   3.103
 6759SOL    HW221177   1.147   4.661   2.946
 6760SOL     OW21178   0.326   4.241   5.037
 6760SOL    HW121179   0.273   4.184   5.100
 6760SOL    HW221180   0.294   4.336   5.043
 6761SOL     OW21181   6.362   3.162   6.607
 6761SOL    HW121182   6.305   3.126   6.680
 6761SOL    HW221183   6.307   3.219   6.546
 6762SOL     OW21184   6.820   3.796   3.197
 6762SOL    HW121185   6.805   3.708   3.153
 6762SOL    HW221186   6.849   3.863   3.128
 6763SOL     OW21187   6.293   6.743   4.991
 6763SOL    HW121188   6.376   6.692   5.014
 6763SOL    HW221189   6.218   6.680   4.972
 6764SOL     OW21190   2.264   3.126   6.550
 6764SOL    HW121191   2.192   3.139   6.481
 6764SOL    HW221192   2.248   3.186   6.627
 6765SOL     OW21193   5.257   5.268   2.701
 6765SOL    HW121194   5.310   5.192   2.663
 6765SOL    HW221195   5.278   5.278   2.798
 6766SOL     OW21196   1.886   2.120   5.930
 6766SOL    HW121197   1.884   2.220   5.930
 6766SOL    HW221198   1.972   2.089   5.888
 6767SOL     OW21199   0.545   2.663   6.161
 6767SOL    HW121200   0.616   2.667   6.090
 6767SOL    HW221201   0.522   2.567   6.180
 6768SOL     OW21202   6.659   1.387   6.192
 6768SOL    HW121203   6.734   1.341   6.145
 6768SOL    HW221204   6.587   1.321   6.214
 6769SOL     OW21205   0.812   2.661   6.563
 6769SOL    HW121206   0.769   2.574   6.588
 6769SOL    HW221207   0.743   2.722   6.524
 6770SOL     OW21208   6.809   1.707   4.466
 6770SOL    HW121209   6.730   1.766   4.481
 6770SOL    HW221210   6.827   1.653   4.548
 6771SOL     OW21211   5.911   1.492   2.381
 6771SOL    HW121212   5.948   1.549   2.455
 6771SOL    HW221213   5.855   1.549   2.320
 6772SOL     OW21214   1.305   0.505   2.350
 6772SOL    HW121215   1.212   0.541   2.363
 6772SOL    HW221216   1.337   0.526   2.258
 6773SOL     OW21217   1.865   0.564   2.567
 6773SOL    HW121218   1.884   0.587   2.472
 6773SOL    HW221219   1.789   0.619   2.601
 6774SOL     OW21220   3.848   1.327   5.662
 6774SOL    HW121221   3.789   1.378   5.724
 6774SOL    HW221222   3.820   1.231   5.662
 6775SOL     OW21223   0.940   2.609   4.419
 6775SOL    HW121224   0.957   2.666   4.339
 6775SOL    HW221225   1.028   2.584   4.461
 6776SOL     OW21226   2.984   3.826   3.872
 6776SOL    HW121227   2.965   3.886   3.949
 6776SOL    HW221228   2.943   3.736   3.888
 6777SOL     OW21229   0.371   6.501   6.032
 6777SOL    HW121230   0.426   6.475   6.111
 6777SOL    HW221231   0.278   6.466   6.042
 6778SOL     OW21232   6.867   5.939   2.572
 6778SOL    HW121233   6.932   6.013   2.585
 6778SOL    HW221234   6.796   5.943   2.642
 6779SOL     OW21235   4.580   4.859   6.836
 6779SOL    HW121236   4.617   4.914   6.761
 6779SOL    HW221237   4.555   4.920   6.912
 6780SOL     OW21238   4.182   0.225   2.905
 6780SOL    HW121239   4.119   0.155   2.871
 6780SOL    HW221240   4.255   0.239   2.837
 6781SOL     OW21241   6.485   3.327   3.059
 6781SOL    HW121242   6.555   3.364   2.997
 6781SOL    HW221243   6.439   3.403   3.106
 6782SOL     OW21244   0.600   0.937   3.916
 6782SOL    HW121245   0.519   0.990   3.941
 6782SOL    HW221246   0.649   0.911   4.000
 6783SOL     OW21247   0.162   6.120   6.757
 6783SOL    HW121248   0.190   6.126   6.661
 6783SOL    HW221249   0.133   6.026   6.777
 6784SOL     OW21250   1.609   4.714   0.594
 6784SOL    HW121251   1.635   4.651   0.521
 6784SOL    HW221252   1.651   4.803   0.577
 6785SOL     OW21253   5.228   4.941   1.697
 6785SOL    HW121254   5.176   4.895   1.770
 6785SOL    HW221255   5.229   5.039   1.714
 6786SOL     OW21256   6.392   1.751   5.362
 6786SOL    HW121257   6.454   1.802   5.421
 6786SOL    HW221258   6.305   1.736   5.410
 6787SOL     OW21259   3.735   2.111   0.923
 6787SOL    HW121260   3.819   2.064   0.894
 6787SOL    HW221261   3.658   2.047   0.916
 6788SOL     OW21262   1.037   4.109   1.066
 6788SOL    HW121263   1.097   4.163   1.124
 6788SOL    HW221264   0.972   4.170   1.020
 6789SOL     OW21265   5.646   3.531   2.512
 6789SOL    HW121266   5.567   3.592   2.510
 6789SOL    HW221267   5.621   3.443   2.472
 6790SOL     OW21268   0.511   5.412   0.857
 6790SOL    HW121269   0.477   5.482   0.920
 6790SOL    HW221270   0.499   5.442   0.763
 6791SOL     OW21271   2.803   6.502   3.826
 6791SOL    HW121272   2.809   6.490   3.925
 6791SOL    HW221273   2.892   6.528   3.790
 6792SOL     OW21274   3.233   5.481   6.777
 6792SOL    HW121275   3.186   5.432   6.704
 6792SOL    HW221276   3.168   5.541   6.823
 6793SOL     OW21277   2.399   4.350   6.304
 6793SOL    HW121278   2.388   4.251   6.311
 6793SOL    HW221279   2.386   4.379   6.210
 6794SOL     OW21280   5.066   2.457   4.350
 6794SOL    HW121281   5.054   2.360   4.374
 6794SOL    HW221282   5.162   2.481   4.356
 6795SOL     OW21283   0.826   0.654   2.101
 6795SOL    HW121284   0.899   0.718   2.125
 6795SOL    HW221285   0.827   0.637   2.003
 6796SOL     OW21286   0.012   2.565   2.238
 6796SOL    HW121287   6.968   2.490   2.257
 6796SOL    HW221288   0.034   2.612   2.323
 6797SOL     OW21289   1.962   3.785   1.083
 6797SOL    HW121290   2.006   3.867   1.047
 6797SOL    HW221291   1.934   3.727   1.007
 6798SOL     OW21292   4.559   0.841   2.114
 6798SOL    HW121293   4.560   0.829   2.213
 6798SOL    HW221294   4.632   0.903   2.087
 6799SOL     OW21295   5.924   6.628   2.978
 6799SOL    HW121296   5.887   6.547   3.024
 6799SOL    HW221297   5.906   6.709   3.034
 6800SOL     OW21298   6.727   2.896   2.167
 6800SOL    HW121299   6.803   2.926   2.225
 6800SOL    HW221300   6.643   2.939   2.199
 6801SOL     OW21301   1.932   5.147   5.118
 6801SOL    HW121302   1.922   5.072   5.052
 6801SOL    HW221303   1.843   5.188   5.135
 6802SOL     OW21304   2.774   4.362   1.635
 6802SOL    HW121305   2.701   4.303   1.669
 6802SOL    HW221306   2.822   4.404   1.713
 6803SOL     OW21307   5.824   5.215   6.783
 6803SOL    HW121308   5.885   5.272   6.727
 6803SOL    HW221309   5.875   5.180   6.861
 6804SOL     OW21310   3.301   5.302   2.005
 6804SOL    HW121311   3.375   5.311   2.072
 6804SOL    HW221312   3.333   5.332   1.915
 6805SOL     OW21313   0.728   4.682   3.746
 6805SOL    HW121314   0.793   4.753   3.775
 6805SOL    HW221315   0.774   4.593   3.748
 6806SOL     OW21316   5.900   3.527   2.383
 6806SOL    HW121317   5.812   3.541   2.428
 6806SOL    HW221318   5.963   3.482   2.447
 6807SOL     OW21319   2.957   3.396   2.676
 6807SOL    HW121320   2.939   3.418   2.581
 6807SOL    HW221321   2.989   3.302   2.683
 6808SOL     OW21322   3.425   6.765   3.245
 6808SOL    HW121323   3.444   6.775   3.342
 6808SOL    HW221324   3.494   6.816   3.192
 6809SOL     OW21325   5.757   2.367   0.626
 6809SOL    HW121326   5.697   2.410   0.558
 6809SOL    HW221327   5.826   2.432   0.657
 6810SOL     OW21328   3.084   0.140   4.540
 6810SOL    HW121329   3.127   0.230   4.530
 6810SOL    HW221330   3.155   0.071   4.556
 6811SOL     OW21331   6.635   1.403   0.895
 6811SOL    HW121332   6.565   1.390   0.825
 6811SOL    HW221333   6.598   1.376   0.985
 6812SOL     OW21334   3.375   4.562   5.338
 6812SOL    HW121335   3.389   4.605   5.249
 6812SOL    HW221336   3.292   4.599   5.380
 6813SOL     OW21337   0.152   3.618   2.177
 6813SOL    HW121338   0.134   3.637   2.081
 6813SOL    HW221339   0.202   3.531   2.185
 6814SOL     OW21340   4.759   2.310   1.881
 6814SOL    HW121341   4.680   2.328   1.940
 6814SOL    HW221342   4.833   2.271   1.936
 6815SOL     OW21343   0.778   6.117   0.273
 6815SOL    HW121344   0.716   6.091   0.199
 6815SOL    HW221345   0.733   6.100   0.361
 6816SOL     OW21346   6.628   6.973   4.276
 6816SOL    HW121347   6.599   0.047   4.276
 6816SOL    HW221348   6.664   6.949   4.367
 6817SOL     OW21349   5.170   0.969   1.953
 6817SOL    HW121350   5.238   0.942   2.021
 6817SOL    HW221351   5.158   1.068   1.955
 6818SOL     OW21352   0.196   0.241   5.171
 6818SOL    HW121353   0.259   0.173   5.207
 6818SOL    HW221354   0.247   0.307   5.115
 6819SOL     OW21355   5.525   4.195   1.022
 6819SOL    HW121356   5.526   4.218   0.924
 6819SOL    HW221357   5.449   4.243   1.066
 6820SOL     OW21358   2.739   4.087   1.378
 6820SOL    HW121359   2.644   4.061   1.362
 6820SOL    HW221360   2.751   4.184   1.356
 6821SOL     OW21361   3.260   2.898   5.710
 6821SOL    HW121362   3.255   2.870   5.614
 6821SOL    HW221363   3.354   2.887   5.742
 6822SOL     OW21364   6.241   3.953   5.028
 6822SOL    HW121365   6.246   3.866   5.077
 6822SOL    HW221366   6.328   4.001   5.035
 6823SOL     OW21367   6.681   3.154   5.539
 6823SOL    HW121368   6.630   3.068   5.532
 6823SOL    HW221369   6.713   3.181   5.448
 6824SOL     OW21370   1.029   0.506   4.115
 6824SOL    HW121371   1.009   0.604   4.119
 6824SOL    HW221372   1.128   0.492   4.115
 6825SOL     OW21373   4.579   4.380   1.389
 6825SOL    HW121374   4.607   4.331   1.306
 6825SOL    HW221375   4.589   4.479   1.373
 6826SOL     OW21376   5.662   1.117   3.430
 6826SOL    HW121377   5.613   1.040   3.389
 6826SOL    HW221378   5.640   1.122   3.527
 6827SOL     OW21379   4.704   5.667   5.695
 6827SOL    HW121380   4.787   5.664   5.750
 6827SOL    HW221381   4.720   5.621   5.608
 6828SOL     OW21382   2.759   2.236   2.371
 6828SOL    HW121383   2.704   2.157   2.398
 6828SOL    HW221384   2.821   2.210   2.297
 6829SOL     OW21385   5.142   6.263   4.470
 6829SOL    HW121386   5.220   6.200   4.468
 6829SOL    HW221387   5.075   6.234   4.401
 6830SOL     OW21388   4.259   6.217   2.345
 6830SOL    HW121389   4.247   6.279   2.267
 6830SOL    HW221390   4.275   6.270   2.428
 6831SOL     OW21391   1.702   1.139   6.896
 6831SOL    HW121392   1.715   1.213   6.829
 6831SOL    HW221393   1.783   1.134   6.955
 6832SOL     OW21394   3.016   3.333   6.928
 6832SOL    HW121395   2.944   3.290   6.983
 6832SOL    HW221396   3.077   3.384   6.989
 6833SOL     OW21397   4.431   5.152   6.648
 6833SOL    HW121398   4.529   5.152   6.632
 6833SOL    HW221399   4.387   5.220   6.590
 6834SOL     OW21400   5.927   5.513   5.287
 6834SOL    HW121401   5.955   5.472   5.373
 6834SOL    HW221402   6.000   5.573   5.253
 6835SOL     OW21403   3.902   0.351   3.327
 6835SOL    HW121404   3.928   0.260   3.359
 6835SOL    HW221405   3.831   0.389   3.387
 6836SOL     OW21406   0.581   4.389   6.884
 6836SOL    HW121407   0.526   4.345   6.813
 6836SOL    HW221408   0.625   4.319   6.940
 6837SOL     OW21409   6.244   1.730   1.463
 6837SOL    HW121410   6.189   1.769   1.537
 6837SOL    HW221411   6.341   1.734   1.488
 6838SOL     OW21412   2.616   4.030   6.009
 6838SOL    HW121413   2.597   4.128   6.000
 6838SOL    HW221414   2.713   4.014   5.988
 6839SOL     OW21415   5.821   2.671   5.667
 6839SOL    HW121416   5.823   2.640   5.572
 6839SOL    HW221417   5.801   2.593   5.727
 6840SOL     OW21418   3.600   6.619   4.770
 6840SOL    HW121419   3.672   6.687   4.760
 6840SOL    HW221420   3.530   6.653   4.833
 6841SOL     OW21421   4.401   6.851   0.291
 6841SOL    HW121422   4.469   6.870   0.361
 6841SOL    HW221423   4.322   6.805   0.332
 6842SOL     OW21424   1.133   3.137   3.235
 6842SOL    HW121425   1.223   3.167   3.202
 6842SOL    HW221426   1.145   3.080   3.317
 6843SOL     OW21427   4.909   2.941   2.233
 6843SOL    HW121428   4.870   2.949   2.141
 6843SOL    HW221429   4.853   2.880   2.288
 6844SOL     OW21430   3.721   6.656   5.052
 6844SOL    HW121431   3.732   6.641   5.150
 6844SOL    HW221432   3.806   6.633   5.005
 6845SOL     OW21433   3.912   4.086   7.004
 6845SOL    HW121434   4.006   4.059   0.002
 6845SOL    HW221435   3.859   4.085   0.068
 6846SOL     OW21436   4.049   3.647   3.773
 6846SOL    HW121437   3.989   3.726   3.783
 6846SOL    HW221438   4.092   3.626   3.861
 6847SOL     OW21439   5.595   2.637   2.603
 6847SOL    HW121440   5.616   2.659   2.698
 6847SOL    HW221441   5.574   2.722   2.554
 6848SOL     OW21442   0.941   6.110   5.163
 6848SOL    HW121443   0.885   6.033   5.132
 6848SOL    HW221444   0.969   6.096   5.257
 6849SOL     OW21445   3.558   0.384   5.300
 6849SOL    HW121446   3.517   0.293   5.294
 6849SOL    HW221447   3.491   0.449   5.336
 6850SOL     OW21448   6.426   3.642   1.721
 6850SOL    HW121449   6.523   3.622   1.710
 6850SOL    HW221450   6.408   3.736   1.692
 6851SOL     OW21451   1.387   5.835   6.552
 6851SOL    HW121452   1.300   5.855   6.506
 6851SOL    HW221453   1.415   5.914   6.606
 6852SOL     OW21454   6.400   5.226   2.092
 6852SOL    HW121455   6.475   5.277   2.134
 6852SOL    HW221456   6.344   5.288   2.038
 6853SOL     OW21457   5.970   4.497   4.594
 6853SOL    HW121458   5.984   4.523   4.690
 6853SOL    HW221459   5.882   4.532   4.563
 6854SOL     OW21460   6.468   1.717   6.434
 6854SOL    HW121461   6.397   1.723   6.504
 6854SOL    HW221462   6.431   1.749   6.346
 6855SOL     OW21463   3.236   6.483   2.424
 6855SOL    HW121464   3.284   6.568   2.444
 6855SOL    HW221465   3.212   6.436   2.509
 6856SOL     OW21466   0.575   5.605   5.636
 6856SOL    HW121467   0.522   5.523   5.617
 6856SOL    HW221468   0.522   5.667   5.694
 6857SOL     OW21469   4.898   1.351   6.789
 6857SOL    HW121470   4.826   1.285   6.812
 6857SOL    HW221471   4.901   1.363   6.689
 6858SOL     OW21472   3.666   3.171   6.692
 6858SOL    HW121473   3.631   3.159   6.599
 6858SOL    HW221474   3.647   3.088   6.745
 6859SOL     OW21475   4.045   0.788   0.377
 6859SOL    HW121476   3.973   0.849   0.344
 6859SOL    HW221477   4.133   0.814   0.336
 6860SOL     OW21478   4.961   3.820   0.211
 6860SOL    HW121479   4.948   3.869   0.125
 6860SOL    HW221480   4.874   3.782   0.241
 6861SOL     OW21481   5.654   3.866   0.837
 6861SOL    HW121482   5.646   3.809   0.755
 6861SOL    HW221483   5.569   3.859   0.890
 6862SOL     OW21484   2.834   5.303   4.376
 6862SOL    HW121485   2.863   5.270   4.466
 6862SOL    HW221486   2.738   5.329   4.379
 6863SOL     OW21487   1.104   3.004   3.476
 6863SOL    HW121488   1.030   3.019   3.542
 6863SOL    HW221489   1.154   2.921   3.500
 6864SOL     OW21490   3.829   5.735   6.575
 6864SOL    HW121491   3.897   5.753   6.647
 6864SOL    HW221492   3.864   5.766   6.487
 6865SOL     OW21493   6.911   3.250   4.422
 6865SOL    HW121494   6.958   3.335   4.398
 6865SOL    HW221495   6.953   3.174   4.372
 6866SOL     OW21496   1.055   3.381   2.183
 6866SOL    HW121497   1.060   3.443   2.105
 6866SOL    HW221498   1.085   3.428   2.265
 6867SOL     OW21499   2.164   5.149   2.822
 6867SOL    HW121500   2.256   5.151   2.861
 6867SOL    HW221501   2.160   5.082   2.748
 6868SOL     OW21502   1.943   5.360   4.871
 6868SOL    HW121503   1.984   5.281   4.916
 6868SOL    HW221504   1.850   5.375   4.907
 6869SOL     OW21505   0.101   3.584   5.037
 6869SOL    HW121506   0.091   3.490   5.003
 6869SOL    HW221507   0.198   3.607   5.043
 6870SOL     OW21508   6.072   3.428   2.186
 6870SOL    HW121509   6.027   3.435   2.275
 6870SOL    HW221510   6.014   3.376   2.123
 6871SOL     OW21511   5.061   5.945   1.750
 6871SOL    HW121512   5.090   5.849   1.751
 6871SOL    HW221513   5.119   5.998   1.811
 6872SOL     OW21514   3.473   3.992   0.724
 6872SOL    HW121515   3.484   4.091   0.719
 6872SOL    HW221516   3.562   3.948   0.712
 6873SOL     OW21517   5.712   4.695   4.859
 6873SOL    HW121518   5.683   4.612   4.811
 6873SOL    HW221519   5.764   4.753   4.797
 6874SOL     OW21520   0.696   1.925   5.814
 6874SOL    HW121521   0.785   1.968   5.833
 6874SOL    HW221522   0.641   1.924   5.897
 6875SOL     OW21523   4.174   1.028   4.391
 6875SOL    HW121524   4.086   1.028   4.344
 6875SOL    HW221525   4.162   1.058   4.485
 6876SOL     OW21526   3.607   6.013   5.114
 6876SOL    HW121527   3.680   6.036   5.050
 6876SOL    HW221528   3.533   5.968   5.065
 6877SOL     OW21529   1.566   3.488   5.651
 6877SOL    HW121530   1.582   3.584   5.630
 6877SOL    HW221531   1.627   3.459   5.725
 6878SOL     OW21532   1.537   1.565   4.126
 6878SOL    HW121533   1.524   1.653   4.081
 6878SOL    HW221534   1.449   1.530   4.157
 6879SOL     OW21535   0.134   0.958   5.564
 6879SOL    HW121536   0.059   0.965   5.630
 6879SOL    HW221537   0.209   1.017   5.593
 6880SOL     OW21538   1.814   4.028   4.546
 6880SOL    HW121539   1.763   4.095   4.600
 6880SOL    HW221540   1.750   3.967   4.499
 6881SOL     OW21541   5.773   5.872   1.613
 6881SOL    HW121542   5.839   5.802   1.641
 6881SOL    HW221543   5.681   5.846   1.644
 6882SOL     OW21544   2.391   6.040   5.451
 6882SOL    HW121545   2.349   6.115   5.501
 6882SOL    HW221546   2.367   6.047   5.354
 6883SOL     OW21547   3.282   5.992   1.975
 6883SOL    HW121548   3.216   5.932   1.929
 6883SOL    HW221549   3.250   6.086   1.970
 6884SOL     OW21550   1.911   5.059   2.481
 6884SOL    HW121551   1.944   5.135   2.425
 6884SOL    HW221552   1.955   5.062   2.570
 6885SOL     OW21553   3.944   5.257   4.729
 6885SOL    HW121554   4.032   5.281   4.770
 6885SOL    HW221555   3.928   5.159   4.740
 6886SOL     OW21556   5.418   1.190   2.047
 6886SOL    HW121557   5.460   1.217   2.134
 6886SOL    HW221558   5.464   1.109   2.011
 6887SOL     OW21559   5.661   0.753   5.410
 6887SOL    HW121560   5.748   0.760   5.361
 6887SOL    HW221561   5.676   0.710   5.499
 6888SOL     OW21562   6.017   6.868   4.487
 6888SOL    HW121563   5.937   6.888   4.431
 6888SOL    HW221564   6.007   6.910   4.577
 6889SOL     OW21565   1.760   4.700   5.956
 6889SOL    HW121566   1.694   4.703   5.881
 6889SOL    HW221567   1.823   4.778   5.948
 6890SOL     OW21568   1.911   0.564   1.016
 6890SOL    HW121569   1.870   0.473   1.013
 6890SOL    HW221570   1.993   0.565   0.958
 6891SOL     OW21571   3.668   5.363   5.577
 6891SOL    HW121572   3.595   5.295   5.583
 6891SOL    HW221573   3.633   5.452   5.604
 6892SOL     OW21574   3.311   1.561   5.093
 6892SOL    HW121575   3.235   1.625   5.091
 6892SOL    HW221576   3.325   1.522   5.001
 6893SOL     OW21577   5.593   0.795   1.514
 6893SOL    HW121578   5.576   0.784   1.416
 6893SOL    HW221579   5.646   0.717   1.547
 6894SOL     OW21580   6.133   4.522   6.398
 6894SOL    HW121581   6.096   4.561   6.482
 6894SOL    HW221582   6.058   4.486   6.342
 6895SOL     OW21583   3.940   5.766   6.260
 6895SOL    HW121584   3.881   5.836   6.220
 6895SOL    HW221585   3.922   5.678   6.218
 6896SOL     OW21586   4.530   1.207   2.587
 6896SOL    HW121587   4.455   1.141   2.594
 6896SOL    HW221588   4.492   1.298   2.567
 6897SOL     OW21589   3.665   0.744   0.961
 6897SOL    HW121590   3.660   0.837   0.996
 6897SOL    HW221591   3.710   0.685   1.028
 6898SOL     OW21592   3.796   1.194   2.841
 6898SOL    HW121593   3.844   1.281   2.829
 6898SOL    HW221594   3.825   1.151   2.926
 6899SOL     OW21595   5.904   6.144   6.589
 6899SOL    HW121596   5.860   6.054   6.583
 6899SOL    HW221597   5.911   6.184   6.498
 6900SOL     OW21598   4.724   1.471   6.432
 6900SOL    HW121599   4.753   1.410   6.358
 6900SOL    HW221600   4.739   1.566   6.405
 6901SOL     OW21601   1.622   0.888   6.866
 6901SOL    HW121602   1.640   0.987   6.864
 6901SOL    HW221603   1.623   0.857   6.961
 6902SOL     OW21604   6.479   5.721   2.488
 6902SOL    HW121605   6.505   5.792   2.553
 6902SOL    HW221606   6.504   5.750   2.396
 6903SOL     OW21607   4.714   4.471   0.412
 6903SOL    HW121608   4.650   4.436   0.480
 6903SOL    HW221609   4.799   4.419   0.416
 6904SOL     OW21610   0.636   0.707   2.842
 6904SOL    HW121611   0.587   0.788   2.873
 6904SOL    HW221612   0.668   0.721   2.748
 6905SOL     OW21613   3.910   5.770   1.267
 6905SOL    HW121614   3.823   5.739   1.229
 6905SOL    HW221615   3.893   5.847   1.330
 6906SOL     OW21616   6.251   6.404   3.275
 6906SOL    HW121617   6.228   6.426   3.180
 6906SOL    HW221618   6.175   6.430   3.334
 6907SOL     OW21619   3.322   0.776   1.253
 6907SOL    HW121620   3.325   0.865   1.209
 6907SOL    HW221621   3.397   0.769   1.319
 6908SOL     OW21622   6.186   6.832   6.941
 6908SOL    HW121623   6.270   6.831   6.995
 6908SOL    HW221624   6.117   6.774   6.986
 6909SOL     OW21625   2.036   2.393   6.650
 6909SOL    HW121626   2.117   2.357   6.604
 6909SOL    HW221627   2.029   2.354   6.742
 6910SOL     OW21628   5.217   1.180   1.637
 6910SOL    HW121629   5.294   1.120   1.658
 6910SOL    HW221630   5.251   1.267   1.602
 6911SOL     OW21631   4.147   0.701   4.993
 6911SOL    HW121632   4.172   0.628   4.929
 6911SOL    HW221633   4.159   0.669   5.087
 6912SOL     OW21634   4.328   4.638   1.917
 6912SOL    HW121635   4.414   4.667   1.874
 6912SOL    HW221636   4.299   4.551   1.876
 6913SOL     OW21637   4.443   5.552   5.579
 6913SOL    HW121638   4.459   5.650   5.585
 6913SOL    HW221639   4.524   5.508   5.539
 6914SOL     OW21640   6.371   5.234   6.880
 6914SOL    HW121641   6.371   5.152   6.822
 6914SOL    HW221642   6.292   5.291   6.856
 6915SOL     OW21643   0.690   5.799   0.788
 6915SOL    HW121644   0.601   5.790   0.742
 6915SOL    HW221645   0.719   5.895   0.784
 6916SOL     OW21646   6.154   0.321   5.716
 6916SOL    HW121647   6.240   0.286   5.680
 6916SOL    HW221648   6.160   0.420   5.730
 6917SOL     OW21649   4.575   0.280   6.733
 6917SOL    HW121650   4.662   0.328   6.721
 6917SOL    HW221651   4.510   0.310   6.663
 6918SOL     OW21652   2.194   2.974   3.797
 6918SOL    HW121653   2.168   2.884   3.763
 6918SOL    HW221654   2.113   3.034   3.795
 6919SOL     OW21655   1.305   6.345   3.406
 6919SOL    HW121656   1.229   6.409   3.410
 6919SOL    HW221657   1.336   6.325   3.499
 6920SOL     OW21658   5.410   6.204   4.439
 6920SOL    HW121659   5.383   6.109   4.421
 6920SOL    HW221660   5.477   6.233   4.371
 6921SOL     OW21661   1.316   5.890   4.009
 6921SOL    HW121662   1.272   5.809   4.047
 6921SOL    HW221663   1.257   5.932   3.940
 6922SOL     OW21664   1.836   6.946   0.824
 6922SOL    HW121665   1.931   6.974   0.810
 6922SOL    HW221666   1.818   6.933   0.921
 6923SOL     OW21667   5.193   6.125   4.092
 6923SOL    HW121668   5.264   6.055   4.099
 6923SOL    HW221669   5.206   6.176   4.007
 6924SOL     OW21670   6.606   5.991   1.641
 6924SOL    HW121671   6.603   6.045   1.725
 6924SOL    HW221672   6.680   5.925   1.647
 6925SOL     OW21673   5.598   5.562   2.756
 6925SOL    HW121674   5.612   5.514   2.842
 6925SOL    HW221675   5.506   5.543   2.721
 6926SOL     OW21676   2.664   4.580   5.436
 6926SOL    HW121677   2.750   4.622   5.405
 6926SOL    HW221678   2.649   4.603   5.532
 6927SOL     OW21679   4.177   3.530   0.760
 6927SOL    HW121680   4.141   3.453   0.813
 6927SOL    HW221681   4.267   3.555   0.795
 6928SOL     OW21682   6.757   0.343   6.540
 6928SOL    HW121683   6.797   0.408   6.603
 6928SOL    HW221684   6.662   0.324   6.567
 6929SOL     OW21685   2.986   4.988   1.394
 6929SOL    HW121686   3.043   5.000   1.474
 6929SOL    HW221687   3.042   4.995   1.311
 6930SOL     OW21688   0.975   0.239   3.254
 6930SOL    HW121689   0.938   0.177   3.324
 6930SOL    HW221690   1.005   0.186   3.175
 6931SOL     OW21691   2.037   0.021   0.352
 6931SOL    HW121692   2.003   6.954   0.318
 6931SOL    HW221693   1.963   0.071   0.397
 6932SOL     OW21694   2.307   2.381   0.173
 6932SOL    HW121695   2.343   2.330   0.251
 6932SOL    HW221696   2.348   2.472   0.171
 6933SOL     OW21697   2.419   5.728   5.295
 6933SOL    HW121698   2.466   5.741   5.382
 6933SOL    HW221699   2.383   5.635   5.290
 6934SOL     OW21700   5.619   5.176   6.372
 6934SOL    HW121701   5.706   5.173   6.421
 6934SOL    HW221702   5.622   5.247   6.303
 6935SOL     OW21703   4.242   5.767   3.201
 6935SOL    HW121704   4.198   5.677   3.193
 6935SOL    HW221705   4.319   5.760   3.264
 6936SOL     OW21706   0.798   4.562   0.714
 6936SOL    HW121707   0.892   4.527   0.718
 6936SOL    HW221708   0.753   4.526   0.633
 6937SOL     OW21709   4.573   6.632   5.657
 6937SOL    HW121710   4.569   6.532   5.659
 6937SOL    HW221711   4.481   6.668   5.641
 6938SOL     OW21712   5.574   2.393   5.142
 6938SOL    HW121713   5.476   2.408   5.158
 6938SOL    HW221714   5.624   2.478   5.155
 6939SOL     OW21715   6.867   4.820   2.078
 6939SOL    HW121716   6.843   4.912   2.108
 6939SOL    HW221717   6.939   4.825   2.009
 6940SOL     OW21718   4.332   0.214   4.729
 6940SOL    HW121719   4.334   0.311   4.704
 6940SOL    HW221720   4.425   0.182   4.747
 6941SOL     OW21721   3.995   3.656   4.779
 6941SOL    HW121722   4.069   3.592   4.800
 6941SOL    HW221723   3.911   3.606   4.760
 6942SOL     OW21724   6.326   1.720   6.756
 6942SOL    HW121725   6.403   1.655   6.753
 6942SOL    HW221726   6.359   1.809   6.789
 6943SOL     OW21727   6.247   5.737   6.887
 6943SOL    HW121728   6.217   5.820   6.935
 6943SOL    HW221729   6.347   5.739   6.878
 6944SOL     OW21730   1.320   6.331   0.108
 6944SOL    HW121731   1.412   6.350   0.143
 6944SOL    HW221732   1.287   6.245   0.145
 6945SOL     OW21733   4.794   2.090   5.915
 6945SOL    HW121734   4.721   2.143   5.871
 6945SOL    HW221735   4.773   1.992   5.908
 6946SOL     OW21736   6.024   3.551   3.392
 6946SOL    HW121737   6.003   3.499   3.309
 6946SOL    HW221738   6.069   3.491   3.458
 6947SOL     OW21739   3.677   0.044   1.605
 6947SOL    HW121740   3.585   0.023   1.640
 6947SOL    HW221741   3.706   6.992   1.543
 6948SOL     OW21742   4.045   2.271   5.270
 6948SOL    HW121743   3.984   2.225   5.206
 6948SOL    HW221744   4.072   2.360   5.234
 6949SOL     OW21745   4.679   1.137   2.362
 6949SOL    HW121746   4.636   1.143   2.452
 6949SOL    HW221747   4.638   1.204   2.301
 6950SOL     OW21748   2.819   1.693   3.986
 6950SOL    HW121749   2.837   1.789   3.965
 6950SOL    HW221750   2.905   1.644   3.996
 6951SOL     OW21751   4.839   5.130   5.309
 6951SOL    HW121752   4.790   5.053   5.267
 6951SOL    HW221753   4.842   5.117   5.408
 6952SOL     OW21754   0.141   4.709   5.100
 6952SOL    HW121755   0.238   4.727   5.111
 6952SOL    HW221756   0.100   4.780   5.042
 6953SOL     OW21757   5.325   2.454   5.178
 6953SOL    HW121758   5.278   2.540   5.197
 6953SOL    HW221759   5.265   2.378   5.201
 6954SOL     OW21760   0.280   4.467   2.013
 6954SOL    HW121761   0.374   4.489   2.040
 6954SOL    HW221762   0.253   4.526   1.936
 6955SOL     OW21763   6.934   6.829   2.899
 6955SOL    HW121764   6.869   6.813   2.825
 6955SOL    HW221765   6.955   6.927   2.905
 6956SOL     OW21766   2.478   4.511   1.320
 6956SOL    HW121767   2.542   4.441   1.290
 6956SOL    HW221768   2.524   4.575   1.381
 6957SOL     OW21769   1.033   4.067   6.516
 6957SOL    HW121770   0.969   4.144   6.512
 6957SOL    HW221771   1.119   4.098   6.557
 6958SOL     OW21772   2.427   3.353   5.996
 6958SOL    HW121773   2.402   3.320   5.905
 6958SOL    HW221774   2.488   3.432   5.987
 6959SOL     OW21775   3.695   1.009   3.983
 6959SOL    HW121776   3.790   0.987   3.963
 6959SOL    HW221777   3.648   1.034   3.898
 6960SOL     OW21778   0.852   4.640   0.083
 6960SOL    HW121779   0.945   4.671   0.062
 6960SOL    HW221780   0.794   4.653   0.003
 6961SOL     OW21781   6.503   1.271   3.104
 6961SOL    HW121782   6.603   1.266   3.095
 6961SOL    HW221783   6.476   1.237   3.194
 6962SOL     OW21784   3.902   3.456   0.922
 6962SOL    HW121785   3.833   3.412   0.980
 6962SOL    HW221786   3.913   3.551   0.950
 6963SOL     OW21787   6.270   6.122   2.448
 6963SOL    HW121788   6.219   6.199   2.409
 6963SOL    HW221789   6.210   6.068   2.507
 6964SOL     OW21790   3.530   5.600   5.602
 6964SOL    HW121791   3.518   5.699   5.604
 6964SOL    HW221792   3.493   5.564   5.516
 6965SOL     OW21793   6.454   1.930   5.747
 6965SOL    HW121794   6.464   1.837   5.712
 6965SOL    HW221795   6.544   1.974   5.747
 6966SOL     OW21796   5.336   2.575   4.133
 6966SOL    HW121797   5.323   2.660   4.184
 6966SOL    HW221798   5.413   2.586   4.070
 6967SOL     OW21799   2.740   2.383   5.962
 6967SOL    HW121800   2.799   2.348   5.889
 6967SOL    HW221801   2.683   2.456   5.925
 6968SOL     OW21802   4.372   6.890   4.076
 6968SOL    HW121803   4.345   6.800   4.108
 6968SOL    HW221804   4.348   6.900   3.979
 6969SOL     OW21805   3.014   2.795   0.961
 6969SOL    HW121806   2.960   2.721   1.003
 6969SOL    HW221807   2.968   2.826   0.877
 6970SOL     OW21808   4.516   4.313   0.570
 6970SOL    HW121809   4.454   4.391   0.558
 6970SOL    HW221810   4.548   4.310   0.664
 6971SOL     OW21811   5.871   1.157   2.002
 6971SOL    HW121812   5.946   1.180   1.940
 6971SOL    HW221813   5.909   1.117   2.086
 6972SOL     OW21814   5.694   5.103   4.581
 6972SOL    HW121815   5.672   5.018   4.533
 6972SOL    HW221816   5.631   5.175   4.552
 6973SOL     OW21817   1.784   4.049   2.648
 6973SOL    HW121818   1.748   3.965   2.687
 6973SOL    HW221819   1.862   4.081   2.702
 6974SOL     OW21820   3.439   4.076   5.336
 6974SOL    HW121821   3.351   4.089   5.290
 6974SOL    HW221822   3.478   4.166   5.359
 6975SOL     OW21823   3.288   0.341   6.140
 6975SOL    HW121824   3.332   0.330   6.228
 6975SOL    HW221825   3.346   0.396   6.080
 6976SOL     OW21826   1.198   6.677   0.438
 6976SOL    HW121827   1.197   6.623   0.355
 6976SOL    HW221828   1.105   6.708   0.459
 6977SOL     OW21829   4.756   2.762   2.400
 6977SOL    HW121830   4.691   2.753   2.476
 6977SOL    HW221831   4.714   2.727   2.317
 6978SOL     OW21832   4.380   1.620   3.069
 6978SOL    HW121833   4.390   1.713   3.033
 6978SOL    HW221834   4.374   1.556   2.992
 6979SOL     OW21835   0.446   4.575   3.704
 6979SOL    HW121836   0.378   4.629   3.655
 6979SOL    HW221837   0.401   4.519   3.774
 6980SOL     OW21838   4.332   0.934   4.667
 6980SOL    HW121839   4.342   0.914   4.765
 6980SOL    HW221840   4.334   1.033   4.652
 6981SOL     OW21841   3.054   3.872   0.016
 6981SOL    HW121842   3.106   3.832   0.091
 6981SOL    HW221843   2.957   3.857   0.031
 6982SOL     OW21844   0.723   6.962   4.984
 6982SOL    HW121845   0.679   6.917   4.906
 6982SOL    HW221846   0.694   6.918   5.069
 6983SOL     OW21847   6.789   0.593   2.836
 6983SOL    HW121848   6.744   0.670   2.792
 6983SOL    HW221849   6.745   0.507   2.808
 6984SOL     OW21850   2.276   1.323   5.595
 6984SOL    HW121851   2.212   1.283   5.661
 6984SOL    HW221852   2.335   1.251   5.559
 6985SOL     OW21853   5.346   0.196   4.252
 6985SOL    HW121854   5.393   0.111   4.271
 6985SOL    HW221855   5.379   0.233   4.165
 6986SOL     OW21856   1.810   6.952   5.032
 6986SOL    HW121857   1.886   6.891   5.051
 6986SOL    HW221858   1.737   6.901   4.987
 6987SOL     OW21859   6.716   3.391   6.511
 6987SOL    HW121860   6.794   3.450   6.535
 6987SOL    HW221861   6.648   3.394   6.584
 6988SOL     OW21862   5.796   1.383   5.805
 6988SOL    HW121863   5.740   1.374   5.723
 6988SOL    HW221864   5.747   1.345   5.884
 6989SOL     OW21865   1.970   3.136   3.846
 6989SOL    HW121866   1.890   3.155   3.790
 6989SOL    HW221867   2.036   3.211   3.838
 6990SOL     OW21868   4.220   3.111   0.866
 6990SOL    HW121869   4.152   3.181   0.845
 6990SOL    HW221870   4.195   3.067   0.953
 6991SOL     OW21871   4.660   4.535   5.366
 6991SOL    HW121872   4.724   4.612   5.371
 6991SOL    HW221873   4.597   4.539   5.444
 6992SOL     OW21874   6.192   6.549   4.569
 6992SOL    HW121875   6.127   6.543   4.493
 6992SOL    HW221876   6.272   6.601   4.540
 6993SOL     OW21877   0.258   6.322   3.570
 6993SOL    HW121878   0.323   6.396   3.591
 6993SOL    HW221879   0.187   6.356   3.509
 6994SOL     OW21880   1.252   2.885   0.386
 6994SOL    HW121881   1.206   2.829   0.317
 6994SOL    HW221882   1.217   2.862   0.477
 6995SOL     OW21883   1.203   5.394   4.142
 6995SOL    HW121884   1.115   5.388   4.188
 6995SOL    HW221885   1.262   5.320   4.172
 6996SOL     OW21886   1.969   0.020   6.621
 6996SOL    HW121887   1.869   0.016   6.620
 6996SOL    HW221888   1.998   0.116   6.610
 6997SOL     OW21889   4.931   5.860   4.087
 6997SOL    HW121890   5.004   5.907   4.038
 6997SOL    HW221891   4.971   5.792   4.148
 6998SOL     OW21892   2.640   2.017   3.467
 6998SOL    HW121893   2.731   2.011   3.510
 6998SOL    HW221894   2.630   1.943   3.400
 6999SOL     OW21895   5.192   2.309   6.983
 6999SOL    HW121896   5.243   2.230   7.019
 6999SOL    HW221897   5.137   2.281   6.905
 7000SOL     OW21898   6.632   0.314   1.543
 7000SOL    HW121899   6.609   0.396   1.490
 7000SOL    HW221900   6.678   0.341   1.628
 7001SOL     OW21901   2.480   1.466   5.969
 7001SOL    HW121902   2.382   1.466   5.948
 7001SOL    HW221903   2.527   1.533   5.911
 7002SOL     OW21904   1.920   4.459   1.867
 7002SOL    HW121905   1.982   4.390   1.827
 7002SOL    HW221906   1.974   4.527   1.916
 7003SOL     OW21907   1.539   6.042   6.070
 7003SOL    HW121908   1.523   5.944   6.061
 7003SOL    HW221909   1.460   6.092   6.035
 7004SOL     OW21910   1.411   3.927   6.505
 7004SOL    HW121911   1.408   3.883   6.594
 7004SOL    HW221912   1.381   4.022   6.514
 7005SOL     OW21913   6.451   6.797   6.180
 7005SOL    HW121914   6.381   6.818   6.112
 7005SOL    HW221915   6.507   6.878   6.197
 7006SOL     OW21916   4.437   4.750   3.970
 7006SOL    HW121917   4.399   4.732   4.061
 7006SOL    HW221918   4.482   4.668   3.935
 7007SOL     OW21919   4.847   5.199   2.747
 7007SOL    HW121920   4.895   5.115   2.721
 7007SOL    HW221921   4.906   5.254   2.806
 7008SOL     OW21922   1.050   4.821   4.717
 7008SOL    HW121923   0.977   4.817   4.649
 7008SOL    HW221924   1.032   4.756   4.790
 7009SOL     OW21925   0.494   4.233   2.868
 7009SOL    HW121926   0.521   4.145   2.831
 7009SOL    HW221927   0.401   4.255   2.838
 7010SOL     OW21928   4.752   4.613   6.646
 7010SOL    HW121929   4.792   4.643   6.732
 7010SOL    HW221930   4.823   4.606   6.576
 7011SOL     OW21931   0.937   1.150   5.551
 7011SOL    HW121932   0.980   1.085   5.614
 7011SOL    HW221933   0.930   1.240   5.595
 7012SOL     OW21934   1.353   1.654   1.511
 7012SOL    HW121935   1.359   1.629   1.607
 7012SOL    HW221936   1.379   1.750   1.500
 7013SOL     OW21937   6.768   1.531   1.289
 7013SOL    HW121938   6.721   1.448   1.318
 7013SOL    HW221939   6.800   1.581   1.369
 7014SOL     OW21940   2.297   5.168   0.445
 7014SOL    HW121941   2.210   5.139   0.406
 7014SOL    HW221942   2.357   5.202   0.372
 7015SOL     OW21943   4.966   1.775   2.345
 7015SOL    HW121944   5.058   1.813   2.356
 7015SOL    HW221945   4.950   1.755   2.249
 7016SOL     OW21946   4.167   4.571   1.643
 7016SOL    HW121947   4.263   4.543   1.640
 7016SOL    HW221948   4.133   4.583   1.550
 7017SOL     OW21949   4.902   2.180   4.929
 7017SOL    HW121950   4.826   2.185   4.864
 7017SOL    HW221951   4.935   2.272   4.949
 7018SOL     OW21952   0.647   3.326   3.298
 7018SOL    HW121953   0.598   3.387   3.237
 7018SOL    HW221954   0.664   3.238   3.252
 7019SOL     OW21955   1.078   5.670   1.050
 7019SOL    HW121956   0.985   5.646   1.022
 7019SOL    HW221957   1.076   5.709   1.142
 7020SOL     OW21958   6.972   6.328   6.827
 7020SOL    HW121959   0.034   6.281   6.797
 7020SOL    HW221960   6.914   6.265   6.878
 7021SOL     OW21961   3.953   0.257   6.209
 7021SOL    HW121962   3.914   0.250   6.300
 7021SOL    HW221963   3.926   0.178   6.154
 7022SOL     OW21964   4.202   5.727   6.317
 7022SOL    HW121965   4.105   5.730   6.293
 7022SOL    HW221966   4.215   5.761   6.410
 7023SOL     OW21967   5.505   4.032   2.284
 7023SOL    HW121968   5.604   4.023   2.295
 7023SOL    HW221969   5.459   3.982   2.358
 7024SOL     OW21970   6.583   6.121   1.165
 7024SOL    HW121971   6.658   6.097   1.104
 7024SOL    HW221972   6.608   6.203   1.217
 7025SOL     OW21973   2.340   0.647   0.272
 7025SOL    HW121974   2.399   0.705   0.328
 7025SOL    HW221975   2.309   0.699   0.192
 7026SOL     OW21976   3.782   1.329   1.532
 7026SOL    HW121977   3.705   1.293   1.480
 7026SOL    HW221978   3.749   1.370   1.617
 7027SOL     OW21979   4.934   5.753   3.691
 7027SOL    HW121980   5.001   5.759   3.766
 7027SOL    HW221981   4.859   5.816   3.709
 7028SOL     OW21982   3.188   0.392   4.518
 7028SOL    HW121983   3.272   0.446   4.528
 7028SOL    HW221984   3.110   0.449   4.544
 7029SOL     OW21985   4.501   1.568   4.889
 7029SOL    HW121986   4.479   1.666   4.890
 7029SOL    HW221987   4.419   1.516   4.911
 7030SOL     OW21988   1.952   2.890   4.045
 7030SOL    HW121989   1.971   2.856   4.137
 7030SOL    HW221990   2.014   2.965   4.024
 7031SOL     OW21991   1.635   1.308   4.683
 7031SOL    HW121992   1.642   1.216   4.723
 7031SOL    HW221993   1.583   1.303   4.598
 7032SOL     OW21994   5.911   2.065   3.905
 7032SOL    HW121995   5.886   2.093   3.813
 7032SOL    HW221996   5.872   2.128   3.972
 7033SOL     OW21997   0.673   0.061   4.557
 7033SOL    HW121998   0.590   0.051   4.612
 7033SOL    HW221999   0.681   0.156   4.526
 7034SOL     OW22000   0.149   5.132   2.907
 7034SOL    HW122001   0.217   5.201   2.881
 7034SOL    HW222002   0.150   5.121   3.006
 7035SOL     OW22003   6.294   4.992   2.213
 7035SOL    HW122004   6.374   4.932   2.213
 7035SOL    HW222005   6.322   5.085   2.187
 7036SOL     OW22006   6.485   4.529   0.881
 7036SOL    HW122007   6.496   4.592   0.804
 7036SOL    HW222008   6.388   4.513   0.897
 7037SOL     OW22009   0.961   0.772   6.631
 7037SOL    HW122010   1.017   0.804   6.555
 7037SOL    HW222011   0.903   0.847   6.665
 7038SOL     OW22012   2.150   3.242   4.118
 7038SOL    HW122013   2.053   3.218   4.125
 7038SOL    HW222014   2.185   3.261   4.209
 7039SOL     OW22015   3.484   2.650   6.847
 7039SOL    HW122016   3.413   2.680   6.910
 7039SOL    HW222017   3.457   2.669   6.753
 7040SOL     OW22018   5.293   3.047   6.932
 7040SOL    HW122019   5.374   2.995   6.961
 7040SOL    HW222020   5.287   3.046   6.832
 7041SOL     OW22021   1.937   1.158   3.336
 7041SOL    HW122022   1.986   1.072   3.345
 7041SOL    HW222023   1.838   1.140   3.332
 7042SOL     OW22024   1.500   0.539   6.059
 7042SOL    HW122025   1.456   0.555   6.148
 7042SOL    HW222026   1.475   0.613   5.996
 7043SOL     OW22027   1.409   1.926   2.436
 7043SOL    HW122028   1.477   1.994   2.462
 7043SOL    HW222029   1.429   1.840   2.483
 7044SOL     OW22030   5.999   6.476   1.820
 7044SOL    HW122031   6.062   6.398   1.822
 7044SOL    HW222032   6.039   6.550   1.766
 7045SOL     OW22033   6.721   4.755   6.846
 7045SOL    HW122034   6.644   4.760   6.782
 7045SOL    HW222035   6.764   4.846   6.852
 7046SOL     OW22036   2.695   1.261   3.840
 7046SOL    HW122037   2.782   1.231   3.800
 7046SOL    HW222038   2.713   1.317   3.921
 7047SOL     OW22039   1.259   0.597   2.718
 7047SOL    HW122040   1.315   0.528   2.673
 7047SOL    HW222041   1.234   0.668   2.653
 7048SOL     OW22042   6.812   5.547   0.445
 7048SOL    HW122043   6.768   5.636   0.456
 7048SOL    HW222044   6.765   5.478   0.500
 7049SOL     OW22045   2.163   0.793   6.617
 7049SOL    HW122046   2.063   0.789   6.615
 7049SOL    HW222047   2.197   0.812   6.525
 7050SOL     OW22048   3.809   4.016   4.692
 7050SOL    HW122049   3.884   3.979   4.748
 7050SOL    HW222050   3.731   4.038   4.751
 7051SOL     OW22051   6.507   6.404   3.344
 7051SOL    HW122052   6.423   6.404   3.291
 7051SOL    HW222053   6.485   6.397   3.441
 7052SOL     OW22054   0.106   0.680   4.403
 7052SOL    HW122055   0.151   0.717   4.484
 7052SOL    HW222056   0.175   0.649   4.337
 7053SOL     OW22057   6.533   4.715   6.188
 7053SOL    HW122058   6.531   4.777   6.110
 7053SOL    HW222059   6.447   4.720   6.238
 7054SOL     OW22060   6.331   1.657   1.203
 7054SOL    HW122061   6.299   1.666   1.298
 7054SOL    HW222062   6.343   1.748   1.164
 7055SOL     OW22063   4.537   1.516   4.163
 7055SOL    HW122064   4.538   1.428   4.117
 7055SOL    HW222065   4.609   1.574   4.126
 7056SOL     OW22066   4.041   5.176   3.613
 7056SOL    HW122067   4.045   5.209   3.707
 7056SOL    HW222068   4.121   5.208   3.563
 7057SOL     OW22069   6.278   5.756   2.785
 7057SOL    HW122070   6.372   5.788   2.796
 7057SOL    HW222071   6.276   5.657   2.794
 7058SOL     OW22072   0.174   4.508   4.556
 7058SOL    HW122073   0.208   4.583   4.500
 7058SOL    HW222074   0.250   4.449   4.583
 7059SOL     OW22075   2.219   0.577   2.376
 7059SOL    HW122076   2.247   0.508   2.444
 7059SOL    HW222077   2.147   0.538   2.318
 7060SOL     OW22078   2.920   6.785   0.897
 7060SOL    HW122079   3.009   6.809   0.858
 7060SOL    HW222080   2.886   6.701   0.854
 7061SOL     OW22081   0.155   0.801   3.006
 7061SOL    HW122082   0.127   0.748   3.086
 7061SOL    HW222083   0.242   0.846   3.024
 7062SOL     OW22084   6.946   1.191   5.287
 7062SOL    HW122085   6.907   1.279   5.313
 7062SOL    HW222086   0.018   1.183   5.324
 7063SOL     OW22087   2.124   6.781   2.165
 7063SOL    HW122088   2.220   6.791   2.137
 7063SOL    HW222089   2.117   6.789   2.264
 7064SOL     OW22090   4.396   2.801   0.732
 7064SOL    HW122091   4.374   2.883   0.679
 7064SOL    HW222092   4.313   2.765   0.774
 7065SOL     OW22093   3.639   3.294   2.331
 7065SOL    HW122094   3.681   3.378   2.298
 7065SOL    HW222095   3.702   3.217   2.318
 7066SOL     OW22096   2.563   5.538   1.119
 7066SOL    HW122097   2.598   5.567   1.030
 7066SOL    HW222098   2.471   5.501   1.108
 7067SOL     OW22099   0.215   3.740   4.106
 7067SOL    HW122100   0.238   3.751   4.010
 7067SOL    HW222101   0.246   3.651   4.139
 7068SOL     OW22102   1.043   6.992   2.982
 7068SOL    HW122103   1.045   6.968   2.885
 7068SOL    HW222104   0.948   6.995   3.013
 7069SOL     OW22105   1.261   4.464   5.283
 7069SOL    HW122106   1.332   4.515   5.331
 7069SOL    HW222107   1.300   4.379   5.246
 7070SOL     OW22108   5.440   5.360   3.570
 7070SOL    HW122109   5.414   5.290   3.636
 7070SOL    HW222110   5.540   5.360   3.558
 7071SOL     OW22111   1.417   0.286   5.276
 7071SOL    HW122112   1.510   0.262   5.303
 7071SOL    HW222113   1.394   0.242   5.189
 7072SOL     OW22114   0.544   6.833   0.144
 7072SOL    HW122115   0.466   6.797   0.094
 7072SOL    HW222116   0.538   6.805   0.240
 7073SOL     OW22117   1.497   1.723   6.286
 7073SOL    HW122118   1.427   1.671   6.236
 7073SOL    HW222119   1.473   1.726   6.383
 7074SOL     OW22120   2.895   1.537   0.224
 7074SOL    HW122121   2.967   1.594   0.264
 7074SOL    HW222122   2.917   1.518   0.129
 7075SOL     OW22123   0.836   5.616   2.377
 7075SOL    HW122124   0.870   5.522   2.373
 7075SOL    HW222125   0.773   5.631   2.300
 7076SOL     OW22126   3.712   1.623   6.483
 7076SOL    HW122127   3.650   1.687   6.437
 7076SOL    HW222128   3.671   1.532   6.485
 7077SOL     OW22129   1.727   4.669   6.223
 7077SOL    HW122130   1.807   4.614   6.247
 7077SOL    HW222131   1.724   4.681   6.123
 7078SOL     OW22132   6.418   0.612   2.599
 7078SOL    HW122133   6.505   0.634   2.554
 7078SOL    HW222134   6.423   0.638   2.695
 7079SOL     OW22135   5.569   6.035   5.506
 7079SOL    HW122136   5.556   5.954   5.562
 7079SOL    HW222137   5.588   6.008   5.412
 7080SOL     OW22138   5.788   6.900   4.327
 7080SOL    HW122139   5.704   6.953   4.317
 7080SOL    HW222140   5.845   6.911   4.246
 7081SOL     OW22141   4.791   1.105   5.653
 7081SOL    HW122142   4.703   1.127   5.695
 7081SOL    HW222143   4.780   1.099   5.554
 7082SOL     OW22144   5.449   1.307   6.557
 7082SOL    HW122145   5.385   1.332   6.630
 7082SOL    HW222146   5.519   1.377   6.549
 7083SOL     OW22147   3.201   0.296   5.791
 7083SOL    HW122148   3.289   0.315   5.749
 7083SOL    HW222149   3.143   0.378   5.787
 7084SOL     OW22150   6.348   6.003   0.325
 7084SOL    HW122151   6.313   6.081   0.377
 7084SOL    HW222152   6.341   5.920   0.379
 7085SOL     OW22153   3.487   1.572   0.785
 7085SOL    HW122154   3.575   1.617   0.798
 7085SOL    HW222155   3.420   1.610   0.848
 7086SOL     OW22156   0.937   1.622   5.856
 7086SOL    HW122157   1.032   1.613   5.886
 7086SOL    HW222158   0.893   1.696   5.906
 7087SOL     OW22159   2.292   2.734   4.887
 7087SOL    HW122160   2.303   2.829   4.918
 7087SOL    HW222161   2.319   2.728   4.791
 7088SOL     OW22162   0.487   2.103   5.406
 7088SOL    HW122163   0.394   2.139   5.398
 7088SOL    HW222164   0.516   2.107   5.502
 7089SOL     OW22165   2.710   1.736   1.258
 7089SOL    HW122166   2.670   1.822   1.290
 7089SOL    HW222167   2.800   1.755   1.217
 7090SOL     OW22168   2.440   2.448   4.733
 7090SOL    HW122169   2.478   2.459   4.825
 7090SOL    HW222170   2.409   2.536   4.698
 7091SOL     OW22171   0.161   6.638   1.077
 7091SOL    HW122172   0.063   6.642   1.058
 7091SOL    HW222173   0.203   6.568   1.020
 7092SOL     OW22174   2.935   2.976   0.198
 7092SOL    HW122175   3.000   2.972   0.273
 7092SOL    HW222176   2.897   2.885   0.182
 7093SOL     OW22177   4.248   3.380   5.968
 7093SOL    HW122178   4.230   3.475   5.993
 7093SOL    HW222179   4.203   3.319   6.033
 7094SOL     OW22180   6.688   0.687   6.296
 7094SOL    HW122181   6.596   0.649   6.292
 7094SOL    HW222182   6.685   0.779   6.335
 7095SOL     OW22183   0.487   4.245   6.662
 7095SOL    HW122184   0.576   4.219   6.625
 7095SOL    HW222185   0.414   4.209   6.604
 7096SOL     OW22186   4.683   0.570   2.757
 7096SOL    HW122187   4.728   0.487   2.724
 7096SOL    HW222188   4.744   0.618   2.820
 7097SOL     OW22189   1.700   1.054   1.810
 7097SOL    HW122190   1.641   0.993   1.756
 7097SOL    HW222191   1.662   1.147   1.808
 7098SOL     OW22192   1.167   0.273   5.963
 7098SOL    HW122193   1.236   0.211   5.926
 7098SOL    HW222194   1.184   0.289   6.060
 7099SOL     OW22195   0.207   1.153   5.361
 7099SOL    HW122196   0.186   1.125   5.454
 7099SOL    HW222197   0.305   1.142   5.343
 7100SOL     OW22198   5.448   2.075   1.035
 7100SOL    HW122199   5.400   2.033   0.958
 7100SOL    HW222200   5.483   2.003   1.096
 7101SOL     OW22201   1.179   0.700   4.308
 7101SOL    HW122202   1.242   0.629   4.275
 7101SOL    HW222203   1.112   0.659   4.369
 7102SOL     OW22204   5.105   3.332   0.854
 7102SOL    HW122205   5.055   3.293   0.932
 7102SOL    HW222206   5.051   3.323   0.771
 7103SOL     OW22207   2.561   0.063   5.814
 7103SOL    HW122208   2.528   0.021   5.898
 7103SOL    HW222209   2.652   0.102   5.829
 7104SOL     OW22210   0.463   2.378   1.425
 7104SOL    HW122211   0.489   2.287   1.456
 7104SOL    HW222212   0.429   2.432   1.502
 7105SOL     OW22213   2.129   3.795   5.569
 7105SOL    HW122214   2.094   3.886   5.592
 7105SOL    HW222215   2.188   3.801   5.489
 7106SOL     OW22216   3.118   2.658   5.286
 7106SOL    HW122217   3.062   2.630   5.363
 7106SOL    HW222218   3.146   2.577   5.234
 7107SOL     OW22219   2.273   1.023   0.173
 7107SOL    HW122220   2.190   1.007   0.226
 7107SOL    HW222221   2.310   0.935   0.141
 7108SOL     OW22222   4.354   6.592   2.048
 7108SOL    HW122223   4.453   6.606   2.050
 7108SOL    HW222224   4.310   6.650   2.117
 7109SOL     OW22225   3.565   6.301   6.067
 7109SOL    HW122226   3.489   6.239   6.083
 7109SOL    HW222227   3.609   6.323   6.154
 7110SOL     OW22228   3.346   4.937   3.411
 7110SOL    HW122229   3.411   5.002   3.374
 7110SOL    HW222230   3.275   4.917   3.343
 7111SOL     OW22231   1.674   2.209   3.528
 7111SOL    HW122232   1.740   2.208   3.453
 7111SOL    HW222233   1.613   2.288   3.517
 7112SOL     OW22234   1.832   6.280   2.243
 7112SOL    HW122235   1.759   6.259   2.307
 7112SOL    HW222236   1.794   6.325   2.162
 7113SOL     OW22237   3.901   3.939   5.082
 7113SOL    HW122238   3.885   3.925   4.984
 7113SOL    HW222239   3.913   4.037   5.100
 7114SOL     OW22240   4.002   6.817   0.642
 7114SOL    HW122241   3.935   6.744   0.631
 7114SOL    HW222242   4.037   6.817   0.736
 7115SOL     OW22243   4.315   1.300   1.498
 7115SOL    HW122244   4.258   1.334   1.423
 7115SOL    HW222245   4.412   1.311   1.474
 7116SOL     OW22246   6.254   3.406   2.537
 7116SOL    HW122247   6.195   3.350   2.478
 7116SOL    HW222248   6.346   3.410   2.497
 7117SOL     OW22249   6.175   6.538   2.473
 7117SOL    HW122250   6.273   6.517   2.465
 7117SOL    HW222251   6.153   6.557   2.569
 7118SOL     OW22252   6.451   2.632   2.391
 7118SOL    HW122253   6.523   2.622   2.322
 7118SOL    HW222254   6.479   2.587   2.475
 7119SOL     OW22255   1.004   1.934   2.702
 7119SOL    HW122256   1.040   1.990   2.627
 7119SOL    HW222257   0.913   1.967   2.727
 7120SOL     OW22258   5.038   6.227   3.359
 7120SOL    HW122259   5.075   6.149   3.309
 7120SOL    HW222260   5.114   6.287   3.386
 7121SOL     OW22261   3.070   6.830   1.753
 7121SOL    HW122262   3.046   6.734   1.736
 7121SOL    HW222263   3.108   6.839   1.844
 7122SOL     OW22264   6.679   6.760   0.175
 7122SOL    HW122265   6.751   6.694   0.154
 7122SOL    HW222266   6.704   6.812   0.256
 7123SOL     OW22267   2.067   5.263   0.277
 7123SOL    HW122268   2.147   5.246   0.219
 7123SOL    HW222269   2.072   5.357   0.312
 7124SOL     OW22270   0.336   5.705   0.862
 7124SOL    HW122271   0.256   5.763   0.878
 7124SOL    HW222272   0.362   5.661   0.948
 7125SOL     OW22273   0.115   6.736   3.042
 7125SOL    HW122274   0.046   6.770   2.978
 7125SOL    HW222275   0.157   6.813   3.090
 7126SOL     OW22276   1.541   4.709   0.869
 7126SOL    HW122277   1.564   4.707   0.772
 7126SOL    HW222278   1.623   4.733   0.922
 7127SOL     OW22279   2.900   0.182   4.354
 7127SOL    HW122280   2.892   0.281   4.367
 7127SOL    HW222281   2.980   0.148   4.403
 7128SOL     OW22282   3.375   4.235   1.741
 7128SOL    HW122283   3.276   4.240   1.728
 7128SOL    HW222284   3.397   4.154   1.795
 7129SOL     OW22285   2.605   1.955   1.422
 7129SOL    HW122286   2.556   2.014   1.357
 7129SOL    HW222287   2.672   2.009   1.473
 7130SOL     OW22288   2.896   6.942   2.282
 7130SOL    HW122289   2.985   6.897   2.293
 7130SOL    HW222290   2.823   6.878   2.308
 7131SOL     OW22291   2.844   1.576   3.649
 7131SOL    HW122292   2.781   1.534   3.715
 7131SOL    HW222293   2.915   1.509   3.624
 7132SOL     OW22294   3.206   3.789   2.875
 7132SOL    HW122295   3.246   3.845   2.802
 7132SOL    HW222296   3.230   3.693   2.860
 7133SOL     OW22297   5.897   4.459   2.059
 7133SOL    HW122298   5.983   4.409   2.068
 7133SOL    HW222299   5.825   4.410   2.109
 7134SOL     OW22300   5.625   4.594   3.054
 7134SOL    HW122301   5.614   4.535   2.973
 7134SOL    HW222302   5.540   4.591   3.108
 7135SOL     OW22303   0.934   2.316   5.744
 7135SOL    HW122304   0.989   2.390   5.783
 7135SOL    HW222305   0.968   2.294   5.653
 7136SOL     OW22306   2.444   1.832   6.986
 7136SOL    HW122307   2.471   1.914   6.936
 7136SOL    HW222308   2.525   1.777   7.006
 7137SOL     OW22309   4.181   1.624   5.115
 7137SOL    HW122310   4.112   1.635   5.186
 7137SOL    HW222311   4.163   1.539   5.065
 7138SOL     OW22312   2.178   3.799   6.397
 7138SOL    HW122313   2.083   3.799   6.369
 7138SOL    HW222314   2.210   3.705   6.408
 7139SOL     OW22315   2.923   1.706   6.887
 7139SOL    HW122316   2.967   1.711   6.798
 7139SOL    HW222317   2.921   1.611   6.918
 7140SOL     OW22318   6.994   4.322   5.108
 7140SOL    HW122319   0.006   4.291   5.019
 7140SOL    HW222320   6.894   4.332   5.106
 7141SOL     OW22321   1.331   6.907   2.142
 7141SOL    HW122322   1.317   6.877   2.237
 7141SOL    HW222323   1.417   6.958   2.135
 7142SOL     OW22324   3.891   6.715   3.974
 7142SOL    HW122325   3.964   6.738   4.037
 7142SOL    HW222326   3.895   6.775   3.894
 7143SOL     OW22327   2.469   2.068   3.684
 7143SOL    HW122328   2.371   2.078   3.668
 7143SOL    HW222329   2.514   2.048   3.597
 7144SOL     OW22330   1.357   3.155   3.496
 7144SOL    HW122331   1.267   3.117   3.478
 7144SOL    HW222332   1.378   3.149   3.593
 7145SOL     OW22333   4.213   6.600   6.215
 7145SOL    HW122334   4.122   6.640   6.201
 7145SOL    HW222335   4.268   6.662   6.270
 7146SOL     OW22336   2.609   5.242   1.915
 7146SOL    HW122337   2.657   5.308   1.972
 7146SOL    HW222338   2.634   5.149   1.942
 7147SOL     OW22339   0.629   1.167   3.418
 7147SOL    HW122340   0.661   1.261   3.430
 7147SOL    HW222341   0.576   1.139   3.499
 7148SOL     OW22342   0.243   1.239   0.248
 7148SOL    HW122343   0.262   1.318   0.306
 7148SOL    HW222344   0.175   1.181   0.293
 7149SOL     OW22345   6.835   0.646   4.335
 7149SOL    HW122346   6.795   0.627   4.425
 7149SOL    HW222347   6.932   0.664   4.346
 7150SOL     OW22348   6.155   4.025   6.551
 7150SOL    HW122349   6.089   3.960   6.513
 7150SOL    HW222350   6.171   4.003   6.647
 7151SOL     OW22351   1.705   6.296   1.308
 7151SOL    HW122352   1.731   6.337   1.396
 7151SOL    HW222353   1.770   6.224   1.284
 7152SOL     OW22354   1.134   2.553   3.715
 7152SOL    HW122355   1.153   2.480   3.650
 7152SOL    HW222356   1.201   2.550   3.789
 7153SOL     OW22357   3.399   2.073   3.244
 7153SOL    HW122358   3.369   1.978   3.238
 7153SOL    HW222359   3.434   2.103   3.155
 7154SOL     OW22360   4.289   5.919   4.630
 7154SOL    HW122361   4.258   6.007   4.595
 7154SOL    HW222362   4.368   5.887   4.577
 7155SOL     OW22363   2.191   1.040   3.088
 7155SOL    HW122364   2.157   0.947   3.099
 7155SOL    HW222365   2.114   1.102   3.077
 7156SOL     OW22366   1.590   5.180   4.836
 7156SOL    HW122367   1.660   5.246   4.864
 7156SOL    HW222368   1.502   5.206   4.875
 7157SOL     OW22369   5.057   4.394   1.094
 7157SOL    HW122370   4.990   4.402   1.020
 7157SOL    HW222371   5.010   4.380   1.181
 7158SOL     OW22372   4.981   6.866   4.392
 7158SOL    HW122373   5.034   6.946   4.365
 7158SOL    HW222374   4.911   6.846   4.323
 7159SOL     OW22375   1.036   5.021   0.330
 7159SOL    HW122376   1.091   5.051   0.408
 7159SOL    HW222377   0.949   4.984   0.363
 7160SOL     OW22378   6.555   1.085   2.053
 7160SOL    HW122379   6.617   1.049   2.123
 7160SOL    HW222380   6.494   1.013   2.022
 7161SOL     OW22381   3.307   4.033   4.176
 7161SOL    HW122382   3.358   4.111   4.213
 7161SOL    HW222383   3.352   3.948   4.202
 7162SOL     OW22384   3.561   5.071   3.975
 7162SOL    HW122385   3.589   5.164   3.954
 7162SOL    HW222386   3.608   5.007   3.915
 7163SOL     OW22387   1.728   6.307   3.104
 7163SOL    HW122388   1.704   6.254   3.022
 7163SOL    HW222389   1.666   6.386   3.111
 7164SOL     OW22390   2.681   1.880   4.126
 7164SOL    HW122391   2.674   1.781   4.111
 7164SOL    HW222392   2.633   1.929   4.053
 7165SOL     OW22393   5.386   6.577   2.423
 7165SOL    HW122394   5.300   6.581   2.474
 7165SOL    HW222395   5.454   6.634   2.469
 7166SOL     OW22396   5.060   5.646   2.405
 7166SOL    HW122397   5.071   5.665   2.307
 7166SOL    HW222398   4.963   5.646   2.429
 7167SOL     OW22399   4.985   3.110   5.739
 7167SOL    HW122400   4.999   3.206   5.718
 7167SOL    HW222401   4.890   3.095   5.768
 7168SOL     OW22402   1.067   1.698   4.397
 7168SOL    HW122403   1.151   1.726   4.351
 7168SOL    HW222404   1.089   1.666   4.490
 7169SOL     OW22405   1.887   2.712   6.868
 7169SOL    HW122406   1.930   2.692   6.956
 7169SOL    HW222407   1.849   2.628   6.830
 7170SOL     OW22408   6.187   4.938   3.735
 7170SOL    HW122409   6.110   4.971   3.679
 7170SOL    HW222410   6.180   4.839   3.746
 7171SOL     OW22411   4.241   3.166   6.150
 7171SOL    HW122412   4.170   3.096   6.153
 7171SOL    HW222413   4.306   3.144   6.078
 7172SOL     OW22414   0.594   0.510   1.547
 7172SOL    HW122415   0.645   0.495   1.631
 7172SOL    HW222416   0.505   0.549   1.568
 7173SOL     OW22417   6.222   6.367   5.543
 7173SOL    HW122418   6.198   6.299   5.473
 7173SOL    HW222419   6.291   6.430   5.507
 7174SOL     OW22420   0.660   5.916   6.333
 7174SOL    HW122421   0.743   5.876   6.371
 7174SOL    HW222422   0.594   5.843   6.313
 7175SOL     OW22423   6.150   3.228   5.509
 7175SOL    HW122424   6.217   3.292   5.548
 7175SOL    HW222425   6.111   3.268   5.426
 7176SOL     OW22426   0.004   3.451   1.340
 7176SOL    HW122427   0.073   3.466   1.411
 7176SOL    HW222428   0.049   3.430   1.254
 7177SOL     OW22429   0.844   5.321   2.324
 7177SOL    HW122430   0.770   5.364   2.273
 7177SOL    HW222431   0.823   5.225   2.339
 7178SOL     OW22432   0.191   2.019   6.186
 7178SOL    HW122433   0.202   2.070   6.101
 7178SOL    HW222434   0.239   2.066   6.260
 7179SOL     OW22435   1.907   4.431   6.222
 7179SOL    HW122436   2.006   4.442   6.210
 7179SOL    HW222437   1.871   4.379   6.145
 7180SOL     OW22438   0.572   6.970   2.876
 7180SOL    HW122439   0.629   0.029   2.895
 7180SOL    HW222440   0.551   6.923   2.961
 7181SOL     OW22441   5.566   6.344   2.935
 7181SOL    HW122442   5.580   6.248   2.956
 7181SOL    HW222443   5.468   6.361   2.923
 7182SOL     OW22444   3.726   3.592   5.861
 7182SOL    HW122445   3.815   3.596   5.816
 7182SOL    HW222446   3.703   3.497   5.881
 7183SOL     OW22447   1.751   3.982   3.554
 7183SOL    HW122448   1.829   3.976   3.615
 7183SOL    HW222449   1.779   3.960   3.461
 7184SOL     OW22450   2.738   5.476   2.743
 7184SOL    HW122451   2.761   5.403   2.808
 7184SOL    HW222452   2.648   5.514   2.767
 7185SOL     OW22453   4.359   2.972   6.908
 7185SOL    HW122454   4.424   2.916   6.959
 7185SOL    HW222455   4.297   2.912   6.857
 7186SOL     OW22456   0.311   0.028   4.019
 7186SOL    HW122457   0.380   0.014   4.090
 7186SOL    HW222458   0.322   6.978   3.948
 7187SOL     OW22459   1.524   4.944   1.176
 7187SOL    HW122460   1.607   4.999   1.169
 7187SOL    HW222461   1.525   4.893   1.262
 7188SOL     OW22462   5.231   0.371   1.616
 7188SOL    HW122463   5.141   0.405   1.645
 7188SOL    HW222464   5.219   0.301   1.545
 7189SOL     OW22465   6.924   0.526   5.149
 7189SOL    HW122466   6.902   0.434   5.179
 7189SOL    HW222467   6.840   0.580   5.142
 7190SOL     OW22468   4.704   4.718   2.784
 7190SOL    HW122469   4.711   4.623   2.756
 7190SOL    HW222470   4.643   4.725   2.864
 7191SOL     OW22471   0.621   3.208   1.495
 7191SOL    HW122472   0.696   3.161   1.543
 7191SOL    HW222473   0.647   3.222   1.399
 7192SOL     OW22474   3.722   5.063   6.621
 7192SOL    HW122475   3.640   5.071   6.564
 7192SOL    HW222476   3.784   4.995   6.581
 7193SOL     OW22477   5.218   1.764   3.845
 7193SOL    HW122478   5.313   1.757   3.875
 7193SOL    HW222479   5.210   1.835   3.776
 7194SOL     OW22480   3.167   1.649   1.296
 7194SOL    HW122481   3.210   1.647   1.386
 7194SOL    HW222482   3.225   1.601   1.230
 7195SOL     OW22483   0.285   6.033   1.686
 7195SOL    HW122484   0.318   6.096   1.616
 7195SOL    HW222485   0.283   6.080   1.774
 7196SOL     OW22486   3.716   3.093   1.762
 7196SOL    HW122487   3.619   3.081   1.742
 7196SOL    HW222488   3.761   3.004   1.766
 7197SOL     OW22489   1.317   1.298   3.798
 7197SOL    HW122490   1.291   1.201   3.809
 7197SOL    HW222491   1.299   1.346   3.884
 7198SOL     OW22492   0.095   6.436   6.140
 7198SOL    HW122493   0.067   6.400   6.051
 7198SOL    HW222494   0.013   6.458   6.194
 7199SOL     OW22495   5.280   6.938   3.148
 7199SOL    HW122496   5.340   6.868   3.109
 7199SOL    HW222497   5.200   6.894   3.190
 7200SOL     OW22498   2.201   2.071   1.952
 7200SOL    HW122499   2.153   2.053   1.867
 7200SOL    HW222500   2.296   2.096   1.932
 7201SOL     OW22501   2.616   4.933   2.964
 7201SOL    HW122502   2.543   4.898   3.024
 7201SOL    HW222503   2.574   4.981   2.887
 7202SOL     OW22504   3.533   0.023   5.517
 7202SOL    HW122505   3.511   0.056   5.609
 7202SOL    HW222506   3.613   6.983   5.521
 7203SOL     OW22507   6.116   0.035   6.835
 7203SOL    HW122508   6.017   0.036   6.820
 7203SOL    HW222509   6.148   6.961   6.844
 7204SOL     OW22510   5.752   1.378   3.024
 7204SOL    HW122511   5.723   1.357   2.931
 7204SOL    HW222512   5.785   1.473   3.028
 7205SOL     OW22513   1.286   4.152   1.720
 7205SOL    HW122514   1.312   4.086   1.649
 7205SOL    HW222515   1.297   4.245   1.685
 7206SOL     OW22516   5.514   1.851   1.547
 7206SOL    HW122517   5.448   1.840   1.622
 7206SOL    HW222518   5.465   1.852   1.460
 7207SOL     OW22519   3.862   6.738   2.169
 7207SOL    HW122520   3.842   6.643   2.196
 7207SOL    HW222521   3.889   6.740   2.073
 7208SOL     OW22522   3.256   0.447   5.173
 7208SOL    HW122523   3.234   0.530   5.224
 7208SOL    HW222524   3.219   0.368   5.221
 7209SOL     OW22525   2.998   3.293   4.050
 7209SOL    HW122526   2.929   3.336   4.108
 7209SOL    HW222527   3.088   3.331   4.072
 7210SOL     OW22528   4.577   0.148   4.303
 7210SOL    HW122529   4.628   0.145   4.389
 7210SOL    HW222530   4.591   0.063   4.252
 7211SOL     OW22531   1.168   5.137   2.448
 7211SOL    HW122532   1.255   5.120   2.494
 7211SOL    HW222533   1.157   5.072   2.372
 7212SOL     OW22534   4.679   6.948   3.629
 7212SOL    HW122535   4.673   0.025   3.608
 7212SOL    HW222536   4.653   6.933   3.724
 7213SOL     OW22537   5.470   6.831   5.232
 7213SOL    HW122538   5.541   6.812   5.299
 7213SOL    HW222539   5.380   6.814   5.273
 7214SOL     OW22540   0.356   5.025   5.646
 7214SOL    HW122541   0.439   5.076   5.623
 7214SOL    HW222542   0.364   4.931   5.614
 7215SOL     OW22543   1.008   3.104   2.185
 7215SOL    HW122544   1.066   3.066   2.112
 7215SOL    HW222545   1.023   3.203   2.190
 7216SOL     OW22546   2.580   1.188   1.795
 7216SOL    HW122547   2.637   1.149   1.867
 7216SOL    HW222548   2.515   1.118   1.763
 7217SOL     OW22549   0.768   2.965   2.302
 7217SOL    HW122550   0.838   3.018   2.255
 7217SOL    HW222551   0.696   3.026   2.337
 7218SOL     OW22552   6.216   2.602   5.608
 7218SOL    HW122553   6.307   2.611   5.567
 7218SOL    HW222554   6.181   2.692   5.630
 7219SOL     OW22555   3.109   0.906   0.949
 7219SOL    HW122556   3.112   0.806   0.946
 7219SOL    HW222557   3.018   0.938   0.923
 7220SOL     OW22558   6.734   0.910   3.151
 7220SOL    HW122559   6.815   0.945   3.198
 7220SOL    HW222560   6.732   0.810   3.157
 7221SOL     OW22561   5.987   4.402   5.319
 7221SOL    HW122562   5.929   4.362   5.248
 7221SOL    HW222563   5.990   4.341   5.398
 7222SOL     OW22564   6.419   0.066   3.343
 7222SOL    HW122565   6.406   7.014   3.275
 7222SOL    HW222566   6.340   0.127   3.342
 7223SOL     OW22567   4.676   0.767   5.169
 7223SOL    HW122568   4.704   0.863   5.158
 7223SOL    HW222569   4.635   0.735   5.084
 7224SOL     OW22570   5.580   1.210   3.977
 7224SOL    HW122571   5.626   1.207   3.888
 7224SOL    HW222572   5.548   1.303   3.994
 7225SOL     OW22573   2.557   0.597   1.526
 7225SOL    HW122574   2.464   0.632   1.518
 7225SOL    HW222575   2.618   0.647   1.465
 7226SOL     OW22576   5.746   6.562   5.930
 7226SOL    HW122577   5.780   6.640   5.876
 7226SOL    HW222578   5.721   6.594   6.021
 7227SOL     OW22579   6.720   2.474   5.718
 7227SOL    HW122580   6.786   2.398   5.721
 7227SOL    HW222581   6.738   2.537   5.794
 7228SOL     OW22582   2.617   0.597   3.047
 7228SOL    HW122583   2.581   0.504   3.049
 7228SOL    HW222584   2.541   0.662   3.047
 7229SOL     OW22585   6.802   0.115   3.353
 7229SOL    HW122586   6.866   0.069   3.414
 7229SOL    HW222587   6.722   0.146   3.406
 7230SOL     OW22588   6.258   5.416   1.314
 7230SOL    HW122589   6.338   5.375   1.271
 7230SOL    HW222590   6.274   5.514   1.326
 7231SOL     OW22591   5.778   0.844   6.849
 7231SOL    HW122592   5.726   0.786   6.786
 7231SOL    HW222593   5.872   0.851   6.817
 7232SOL     OW22594   3.803   4.262   0.980
 7232SOL    HW122595   3.857   4.218   1.051
 7232SOL    HW222596   3.836   4.233   0.890
 7233SOL     OW22597   0.508   2.358   5.269
 7233SOL    HW122598   0.511   2.354   5.169
 7233SOL    HW222599   0.528   2.267   5.306
 7234SOL     OW22600   4.922   1.946   2.922
 7234SOL    HW122601   4.946   2.036   2.885
 7234SOL    HW222602   4.859   1.957   2.999
 7235SOL     OW22603   6.161   2.788   4.413
 7235SOL    HW122604   6.073   2.834   4.406
 7235SOL    HW222605   6.146   2.692   4.440
 7236SOL     OW22606   1.955   1.226   3.042
 7236SOL    HW122607   1.993   1.313   3.014
 7236SOL    HW222608   1.930   1.230   3.139
 7237SOL     OW22609   5.750   5.192   4.845
 7237SOL    HW122610   5.721   5.185   4.749
 7237SOL    HW222611   5.670   5.184   4.904
 7238SOL     OW22612   1.528   0.860   1.717
 7238SOL    HW122613   1.443   0.899   1.683
 7238SOL    HW222614   1.571   0.805   1.645
 7239SOL     OW22615   4.150   1.208   1.677
 7239SOL    HW122616   4.189   1.130   1.725
 7239SOL    HW222617   4.218   1.246   1.614
 7240SOL     OW22618   2.993   3.142   2.181
 7240SOL    HW122619   2.973   3.151   2.084
 7240SOL    HW222620   3.073   3.083   2.194
 7241SOL     OW22621   5.025   6.901   4.916
 7241SOL    HW122622   4.968   6.824   4.888
 7241SOL    HW222623   5.120   6.884   4.892
 7242SOL     OW22624   5.876   5.013   0.650
 7242SOL    HW122625   5.834   4.939   0.702
 7242SOL    HW222626   5.806   5.076   0.617
 7243SOL     OW22627   0.461   5.494   0.616
 7243SOL    HW122628   0.503   5.438   0.545
 7243SOL    HW222629   0.468   5.591   0.591
 7244SOL     OW22630   5.156   1.591   0.561
 7244SOL    HW122631   5.177   1.516   0.624
 7244SOL    HW222632   5.092   1.559   0.491
 7245SOL     OW22633   6.133   2.119   4.373
 7245SOL    HW122634   6.092   2.096   4.462
 7245SOL    HW222635   6.122   2.042   4.310
 7246SOL     OW22636   1.248   5.716   5.423
 7246SOL    HW122637   1.160   5.762   5.415
 7246SOL    HW222638   1.262   5.689   5.519
 7247SOL     OW22639   3.632   5.740   4.296
 7247SOL    HW122640   3.655   5.723   4.200
 7247SOL    HW222641   3.558   5.679   4.324
 7248SOL     OW22642   3.482   0.949   4.156
 7248SOL    HW122643   3.399   0.933   4.102
 7248SOL    HW222644   3.558   0.971   4.094
 7249SOL     OW22645   5.272   3.501   5.718
 7249SOL    HW122646   5.259   3.600   5.731
 7249SOL    HW222647   5.186   3.460   5.688
 7250SOL     OW22648   3.036   3.634   6.499
 7250SOL    HW122649   2.960   3.683   6.542
 7250SOL    HW222650   3.036   3.539   6.532
 7251SOL     OW22651   5.343   1.132   5.191
 7251SOL    HW122652   5.391   1.054   5.231
 7251SOL    HW222653   5.290   1.178   5.262
 7252SOL     OW22654   4.620   3.559   5.360
 7252SOL    HW122655   4.679   3.549   5.279
 7252SOL    HW222656   4.537   3.609   5.334
 7253SOL     OW22657   5.235   4.818   1.246
 7253SOL    HW122658   5.225   4.802   1.344
 7253SOL    HW222659   5.270   4.911   1.231
 7254SOL     OW22660   5.844   6.438   5.003
 7254SOL    HW122661   5.749   6.421   5.030
 7254SOL    HW222662   5.904   6.420   5.081
 7255SOL     OW22663   4.103   3.193   2.737
 7255SOL    HW122664   4.062   3.217   2.650
 7255SOL    HW222665   4.112   3.093   2.744
 7256SOL     OW22666   3.338   5.422   3.883
 7256SOL    HW122667   3.268   5.368   3.930
 7256SOL    HW222668   3.319   5.519   3.895
 7257SOL     OW22669   6.148   4.693   2.604
 7257SOL    HW122670   6.120   4.773   2.656
 7257SOL    HW222671   6.101   4.612   2.640
 7258SOL     OW22672   2.785   0.222   5.744
 7258SOL    HW122673   2.748   0.307   5.781
 7258SOL    HW222674   2.882   0.234   5.722
 7259SOL     OW22675   3.216   5.002   6.513
 7259SOL    HW122676   3.234   4.912   6.554
 7259SOL    HW222677   3.125   5.034   6.542
 7260SOL     OW22678   4.436   2.023   2.404
 7260SOL    HW122679   4.408   2.077   2.325
 7260SOL    HW222680   4.469   1.934   2.374
 7261SOL     OW22681   1.392   4.933   0.940
 7261SOL    HW122682   1.443   4.851   0.916
 7261SOL    HW222683   1.410   4.956   1.036
 7262SOL     OW22684   6.510   0.824   4.974
 7262SOL    HW122685   6.566   0.863   4.901
 7262SOL    HW222686   6.482   0.897   5.036
 7263SOL     OW22687   4.844   6.359   1.553
 7263SOL    HW122688   4.907   6.281   1.551
 7263SOL    HW222689   4.780   6.349   1.628
 7264SOL     OW22690   0.943   6.608   4.354
 7264SOL    HW122691   0.957   6.534   4.288
 7264SOL    HW222692   1.030   6.652   4.375
 7265SOL     OW22693   4.883   3.801   6.270
 7265SOL    HW122694   4.828   3.786   6.352
 7265SOL    HW222695   4.961   3.858   6.292
 7266SOL     OW22696   3.895   1.611   2.057
 7266SOL    HW122697   3.814   1.579   2.106
 7266SOL    HW222698   3.903   1.561   1.970
 7267SOL     OW22699   5.721   3.035   4.328
 7267SOL    HW122700   5.771   2.981   4.396
 7267SOL    HW222701   5.760   3.019   4.237
 7268SOL     OW22702   3.899   0.546   0.362
 7268SOL    HW122703   3.807   0.548   0.402
 7268SOL    HW222704   3.947   0.630   0.386
 7269SOL     OW22705   1.350   0.458   1.834
 7269SOL    HW122706   1.426   0.522   1.846
 7269SOL    HW222707   1.362   0.381   1.897
 7270SOL     OW22708   3.347   2.016   2.172
 7270SOL    HW122709   3.304   1.926   2.184
 7270SOL    HW222710   3.356   2.060   2.261
 7271SOL     OW22711   6.018   5.285   3.735
 7271SOL    HW122712   5.923   5.314   3.745
 7271SOL    HW222713   6.036   5.263   3.639
 7272SOL     OW22714   6.462   2.217   0.893
 7272SOL    HW122715   6.518   2.241   0.972
 7272SOL    HW222716   6.365   2.225   0.918
 7273SOL     OW22717   5.567   5.626   5.441
 7273SOL    HW122718   5.626   5.604   5.518
 7273SOL    HW222719   5.545   5.543   5.390
 7274SOL     OW22720   5.603   4.603   4.569
 7274SOL    HW122721   5.523   4.657   4.545
 7274SOL    HW222722   5.625   4.540   4.494
 7275SOL     OW22723   5.622   6.388   1.486
 7275SOL    HW122724   5.532   6.397   1.444
 7275SOL    HW222725   5.613   6.400   1.585
 7276SOL     OW22726   2.884   2.260   3.406
 7276SOL    HW122727   2.800   2.305   3.374
 7276SOL    HW222728   2.883   2.257   3.506
 7277SOL     OW22729   6.231   1.496   4.108
 7277SOL    HW122730   6.308   1.453   4.061
 7277SOL    HW222731   6.208   1.582   4.062
 7278SOL     OW22732   3.391   2.068   3.921
 7278SOL    HW122733   3.440   2.064   4.008
 7278SOL    HW222734   3.419   1.993   3.862
 7279SOL     OW22735   4.054   3.566   1.292
 7279SOL    HW122736   4.088   3.492   1.234
 7279SOL    HW222737   4.022   3.528   1.379
 7280SOL     OW22738   6.874   1.822   5.136
 7280SOL    HW122739   6.963   1.829   5.180
 7280SOL    HW222740   6.833   1.913   5.127
 7281SOL     OW22741   3.232   6.335   2.681
 7281SOL    HW122742   3.198   6.269   2.749
 7281SOL    HW222743   3.281   6.408   2.728
 7282SOL     OW22744   0.258   3.275   1.215
 7282SOL    HW122745   0.278   3.327   1.132
 7282SOL    HW222746   0.274   3.334   1.295
 7283SOL     OW22747   3.632   5.852   2.792
 7283SOL    HW122748   3.560   5.783   2.781
 7283SOL    HW222749   3.689   5.828   2.870
 7284SOL     OW22750   0.500   0.464   2.652
 7284SOL    HW122751   0.412   0.469   2.699
 7284SOL    HW222752   0.572   0.447   2.719
 7285SOL     OW22753   5.165   2.913   1.994
 7285SOL    HW122754   5.074   2.904   1.953
 7285SOL    HW222755   5.185   2.832   2.050
 7286SOL     OW22756   5.953   1.434   4.121
 7286SOL    HW122757   6.052   1.443   4.116
 7286SOL    HW222758   5.913   1.519   4.157
 7287SOL     OW22759   3.345   1.332   4.429
 7287SOL    HW122760   3.255   1.377   4.432
 7287SOL    HW222761   3.368   1.311   4.334
 7288SOL     OW22762   3.225   1.679   1.684
 7288SOL    HW122763   3.290   1.662   1.759
 7288SOL    HW222764   3.262   1.641   1.599
 7289SOL     OW22765   6.155   2.396   1.770
 7289SOL    HW122766   6.164   2.359   1.862
 7289SOL    HW222767   6.058   2.398   1.744
 7290SOL     OW22768   3.731   1.997   4.963
 7290SOL    HW122769   3.732   1.897   4.956
 7290SOL    HW222770   3.639   2.030   4.944
 7291SOL     OW22771   1.307   1.186   0.591
 7291SOL    HW122772   1.282   1.112   0.653
 7291SOL    HW222773   1.287   1.160   0.497
 7292SOL     OW22774   3.589   1.066   2.749
 7292SOL    HW122775   3.547   1.006   2.817
 7292SOL    HW222776   3.678   1.097   2.781
 7293SOL     OW22777   6.504   0.939   4.527
 7293SOL    HW122778   6.589   0.961   4.480
 7293SOL    HW222779   6.428   0.945   4.462
 7294SOL     OW22780   3.879   0.293   2.986
 7294SOL    HW122781   3.842   0.244   3.065
 7294SOL    HW222782   3.978   0.305   2.998
 7295SOL     OW22783   5.299   3.985   1.557
 7295SOL    HW122784   5.249   3.961   1.474
 7295SOL    HW222785   5.238   3.978   1.636
 7296SOL     OW22786   3.403   6.224   2.142
 7296SOL    HW122787   3.369   6.141   2.096
 7296SOL    HW222788   3.467   6.198   2.214
 7297SOL     OW22789   3.867   0.115   0.374
 7297SOL    HW122790   3.966   0.126   0.369
 7297SOL    HW222791   3.841   0.089   0.467
 7298SOL     OW22792   4.033   5.313   1.043
 7298SOL    HW122793   4.097   5.286   1.115
 7298SOL    HW222794   4.006   5.408   1.057
 7299SOL     OW22795   0.595   3.529   6.538
 7299SOL    HW122796   0.687   3.567   6.533
 7299SOL    HW222797   0.596   3.445   6.593
 7300SOL     OW22798   0.560   3.843   1.567
 7300SOL    HW122799   0.538   3.927   1.615
 7300SOL    HW222800   0.635   3.797   1.614
 7301SOL     OW22801   4.245   2.409   0.221
 7301SOL    HW122802   4.332   2.377   0.259
 7301SOL    HW222803   4.199   2.468   0.288
 7302SOL     OW22804   5.477   2.011   6.173
 7302SOL    HW122805   5.483   1.912   6.191
 7302SOL    HW222806   5.393   2.047   6.213
 7303SOL     OW22807   2.812   2.329   1.437
 7303SOL    HW122808   2.813   2.289   1.346
 7303SOL    HW222809   2.775   2.263   1.502
 7304SOL     OW22810   2.336   6.940   0.670
 7304SOL    HW122811   2.315   6.883   0.591
 7304SOL    HW222812   2.433   6.931   0.692
 7305SOL     OW22813   5.959   0.469   6.399
 7305SOL    HW122814   5.976   0.388   6.455
 7305SOL    HW222815   5.994   0.550   6.446
 7306SOL     OW22816   1.247   3.223   1.477
 7306SOL    HW122817   1.245   3.197   1.574
 7306SOL    HW222818   1.154   3.239   1.445
 7307SOL     OW22819   3.440   7.000   1.736
 7307SOL    HW122820   3.448   0.032   1.820
 7307SOL    HW222821   3.375   6.925   1.749
 7308SOL     OW22822   3.729   1.423   3.046
 7308SOL    HW122823   3.693   1.467   2.964
 7308SOL    HW222824   3.826   1.445   3.055
 7309SOL     OW22825   2.152   5.217   3.619
 7309SOL    HW122826   2.232   5.198   3.562
 7309SOL    HW222827   2.128   5.314   3.612
 7310SOL     OW22828   2.591   3.140   6.961
 7310SOL    HW122829   2.581   3.089   6.875
 7310SOL    HW222830   2.568   3.236   6.944
 7311SOL     OW22831   0.493   6.783   6.067
 7311SOL    HW122832   0.437   6.701   6.072
 7311SOL    HW222833   0.476   6.841   6.147
 7312SOL     OW22834   6.197   1.959   4.834
 7312SOL    HW122835   6.143   1.906   4.900
 7312SOL    HW222836   6.285   1.914   4.818
 7313SOL     OW22837   3.215   1.205   2.703
 7313SOL    HW122838   3.141   1.243   2.648
 7313SOL    HW222839   3.263   1.279   2.751
 7314SOL     OW22840   2.213   5.264   5.267
 7314SOL    HW122841   2.187   5.359   5.247
 7314SOL    HW222842   2.148   5.202   5.223
 7315SOL     OW22843   3.384   5.408   3.035
 7315SOL    HW122844   3.440   5.473   3.087
 7315SOL    HW222845   3.288   5.422   3.056
 7316SOL     OW22846   3.945   1.109   1.515
 7316SOL    HW122847   4.032   1.120   1.563
 7316SOL    HW222848   3.890   1.192   1.528
 7317SOL     OW22849   5.268   1.962   0.828
 7317SOL    HW122850   5.319   1.898   0.771
 7317SOL    HW222851   5.172   1.963   0.799
 7318SOL     OW22852   5.238   6.663   1.282
 7318SOL    HW122853   5.269   6.677   1.188
 7318SOL    HW222854   5.139   6.681   1.288
 7319SOL     OW22855   5.137   5.784   6.799
 7319SOL    HW122856   5.155   5.705   6.857
 7319SOL    HW222857   5.159   5.868   6.849
 7320SOL     OW22858   0.859   3.292   6.935
 7320SOL    HW122859   0.860   3.294   0.014
 7320SOL    HW222860   0.805   3.215   6.903
 7321SOL     OW22861   2.084   2.166   5.541
 7321SOL    HW122862   2.127   2.166   5.451
 7321SOL    HW222863   2.126   2.096   5.599
 7322SOL     OW22864   1.842   1.815   4.010
 7322SOL    HW122865   1.906   1.740   3.995
 7322SOL    HW222866   1.870   1.866   4.091
 7323SOL     OW22867   1.578   1.942   0.965
 7323SOL    HW122868   1.569   2.033   0.925
 7323SOL    HW222869   1.501   1.924   1.026
 7324SOL     OW22870   4.927   3.523   4.529
 7324SOL    HW122871   5.026   3.515   4.539
 7324SOL    HW222872   4.890   3.581   4.601
 7325SOL     OW22873   3.980   1.589   6.425
 7325SOL    HW122874   4.039   1.596   6.506
 7325SOL    HW222875   3.885   1.603   6.452
 7326SOL     OW22876   3.771   6.633   0.616
 7326SOL    HW122877   3.838   6.589   0.676
 7326SOL    HW222878   3.714   6.563   0.574
 7327SOL     OW22879   1.401   4.544   3.336
 7327SOL    HW122880   1.459   4.466   3.362
 7327SOL    HW222881   1.459   4.617   3.299
 7328SOL     OW22882   5.101   5.302   6.076
 7328SOL    HW122883   5.121   5.353   6.160
 7328SOL    HW222884   5.017   5.337   6.035
 7329SOL     OW22885   2.505   3.526   0.943
 7329SOL    HW122886   2.416   3.529   0.897
 7329SOL    HW222887   2.529   3.618   0.974
 7330SOL     OW22888   3.009   3.408   0.774
 7330SOL    HW122889   3.013   3.329   0.713
 7330SOL    HW222890   2.917   3.418   0.812
 7331SOL     OW22891   4.974   1.612   2.116
 7331SOL    HW122892   4.896   1.560   2.151
 7331SOL    HW222893   5.010   1.567   2.035
 7332SOL     OW22894   2.877   6.822   5.391
 7332SOL    HW122895   2.886   6.740   5.335
 7332SOL    HW222896   2.782   6.833   5.418
 7333SOL     OW22897   6.054   0.891   0.831
 7333SOL    HW122898   5.997   0.855   0.904
 7333SOL    HW222899   6.079   0.985   0.851
 7334SOL     OW22900   1.492   4.478   5.034
 7334SOL    HW122901   1.509   4.450   5.128
 7334SOL    HW222902   1.511   4.402   4.972
 7335SOL     OW22903   0.698   3.623   2.553
 7335SOL    HW122904   0.743   3.706   2.522
 7335SOL    HW222905   0.717   3.548   2.489
 7336SOL     OW22906   2.384   0.360   1.030
 7336SOL    HW122907   2.462   0.407   1.073
 7336SOL    HW222908   2.386   0.263   1.056
 7337SOL     OW22909   3.382   1.055   3.594
 7337SOL    HW122910   3.408   1.146   3.562
 7337SOL    HW222911   3.282   1.050   3.603
 7338SOL     OW22912   4.943   4.006   1.233
 7338SOL    HW122913   4.948   4.092   1.284
 7338SOL    HW222914   4.962   4.023   1.136
 7339SOL     OW22915   0.222   6.592   4.501
 7339SOL    HW122916   0.212   6.545   4.414
 7339SOL    HW222917   0.174   6.541   4.572
 7340SOL     OW22918   2.468   6.115   7.019
 7340SOL    HW122919   2.373   6.141   0.016
 7340SOL    HW222920   2.523   6.130   0.081
 7341SOL     OW22921   6.393   5.227   3.426
 7341SOL    HW122922   6.314   5.281   3.453
 7341SOL    HW222923   6.467   5.289   3.398
 7342SOL     OW22924   0.727   5.308   0.515
 7342SOL    HW122925   0.689   5.221   0.544
 7342SOL    HW222926   0.814   5.325   0.563
 7343SOL     OW22927   6.838   2.499   3.413
 7343SOL    HW122928   6.880   2.457   3.333
 7343SOL    HW222929   6.799   2.428   3.471
 7344SOL     OW22930   2.229   0.830   6.367
 7344SOL    HW122931   2.259   0.771   6.292
 7344SOL    HW222932   2.308   0.876   6.408
 7345SOL     OW22933   1.919   6.752   6.677
 7345SOL    HW122934   1.823   6.731   6.662
 7345SOL    HW222935   1.930   6.850   6.690
 7346SOL     OW22936   3.698   5.036   3.171
 7346SOL    HW122937   3.613   5.056   3.221
 7346SOL    HW222938   3.776   5.046   3.233
 7347SOL     OW22939   6.405   2.852   2.997
 7347SOL    HW122940   6.411   2.850   2.897
 7347SOL    HW222941   6.309   2.850   3.025
 7348SOL     OW22942   6.343   1.195   6.026
 7348SOL    HW122943   6.401   1.185   5.946
 7348SOL    HW222944   6.367   1.127   6.094
 7349SOL     OW22945   3.882   1.704   1.137
 7349SOL    HW122946   3.821   1.765   1.189
 7349SOL    HW222947   3.893   1.618   1.186
 7350SOL     OW22948   2.559   1.084   3.107
 7350SOL    HW122949   2.646   1.038   3.120
 7350SOL    HW222950   2.501   1.030   3.046
 7351SOL     OW22951   4.428   4.569   0.584
 7351SOL    HW122952   4.492   4.615   0.645
 7351SOL    HW222953   4.401   4.632   0.511
 7352SOL     OW22954   6.705   0.515   3.449
 7352SOL    HW122955   6.763   0.588   3.487
 7352SOL    HW222956   6.654   0.471   3.523
 7353SOL     OW22957   5.604   1.287   5.626
 7353SOL    HW122958   5.551   1.300   5.710
 7353SOL    HW222959   5.544   1.297   5.547
 7354SOL     OW22960   6.044   4.783   4.989
 7354SOL    HW122961   6.074   4.760   5.081
 7354SOL    HW222962   6.051   4.881   4.975
 7355SOL     OW22963   0.228   5.926   1.039
 7355SOL    HW122964   0.323   5.930   1.068
 7355SOL    HW222965   0.169   5.949   1.117
 7356SOL     OW22966   0.247   2.182   5.967
 7356SOL    HW122967   0.200   2.265   5.997
 7356SOL    HW222968   0.304   2.203   5.888
 7357SOL     OW22969   0.962   1.327   0.347
 7357SOL    HW122970   0.874   1.325   0.395
 7357SOL    HW222971   0.992   1.422   0.337
 7358SOL     OW22972   3.810   0.700   3.988
 7358SOL    HW122973   3.761   0.687   4.074
 7358SOL    HW222974   3.749   0.739   3.919
 7359SOL     OW22975   3.024   3.179   3.795
 7359SOL    HW122976   3.016   3.207   3.891
 7359SOL    HW222977   3.119   3.157   3.775
 7360SOL     OW22978   0.684   4.105   6.577
 7360SOL    HW122979   0.733   4.151   6.504
 7360SOL    HW222980   0.653   4.015   6.545
 7361SOL     OW22981   4.586   6.389   1.416
 7361SOL    HW122982   4.624   6.482   1.413
 7361SOL    HW222983   4.657   6.326   1.446
 7362SOL     OW22984   1.867   6.077   6.444
 7362SOL    HW122985   1.845   6.085   6.541
 7362SOL    HW222986   1.784   6.053   6.393
 7363SOL     OW22987   4.672   3.147   6.356
 7363SOL    HW122988   4.727   3.144   6.439
 7363SOL    HW222989   4.646   3.053   6.331
 7364SOL     OW22990   4.696   0.018   1.214
 7364SOL    HW122991   4.730   6.945   1.208
 7364SOL    HW222992   4.627   0.024   1.287
 7365SOL     OW22993   4.562   0.006   1.456
 7365SOL    HW122994   4.605   6.949   1.502
 7365SOL    HW222995   4.544   0.078   1.523
 7366SOL     OW22996   1.234   6.951   0.329
 7366SOL    HW122997   1.238   6.895   0.411
 7366SOL    HW222998   1.248   0.026   0.354
 7367SOL     OW22999   4.574   2.845   6.997
 7367SOL    HW123000   4.534   2.784   0.044
 7367SOL    HW223001   4.669   2.864   0.001
 7368SOL     OW23002   3.131   3.050   4.196
 7368SOL    HW123003   3.096   3.071   4.287
 7368SOL    HW223004   3.118   3.129   4.136
 7369SOL     OW23005   5.730   0.841   6.354
 7369SOL    HW123006   5.650   0.884   6.394
 7369SOL    HW223007   5.703   0.790   6.272
 7370SOL     OW23008   0.772   6.116   0.669
 7370SOL    HW123009   0.714   6.192   0.698
 7370SOL    HW223010   0.735   6.077   0.584
 7371SOL     OW23011   1.520   4.534   4.696
 7371SOL    HW123012   1.451   4.486   4.749
 7371SOL    HW223013   1.577   4.588   4.757
 7372SOL     OW23014   3.145   0.651   5.341
 7372SOL    HW123015   3.062   0.636   5.288
 7372SOL    HW223016   3.121   0.652   5.439
 7373SOL     OW23017   3.785   0.552   1.164
 7373SOL    HW123018   3.722   0.583   1.235
 7373SOL    HW223019   3.867   0.609   1.165
 7374SOL     OW23020   2.510   3.416   6.432
 7374SOL    HW123021   2.484   3.347   6.364
 7374SOL    HW223022   2.555   3.370   6.509
 7375SOL     OW23023   2.835   6.614   3.001
 7375SOL    HW123024   2.834   6.614   3.101
 7375SOL    HW223025   2.789   6.696   2.968
 7376SOL     OW23026   3.075   3.861   6.274
 7376SOL    HW123027   3.166   3.885   6.308
 7376SOL    HW223028   3.068   3.762   6.264
 7377SOL     OW23029   6.207   5.892   1.711
 7377SOL    HW123030   6.253   5.963   1.658
 7377SOL    HW223031   6.190   5.812   1.653
 7378SOL     OW23032   0.298   2.668   5.444
 7378SOL    HW123033   0.307   2.633   5.538
 7378SOL    HW223034   0.209   2.643   5.408
 7379SOL     OW23035   4.427   0.640   0.573
 7379SOL    HW123036   4.474   0.660   0.487
 7379SOL    HW223037   4.494   0.632   0.647
 7380SOL     OW23038   6.333   2.846   6.263
 7380SOL    HW123039   6.406   2.862   6.330
 7380SOL    HW223040   6.260   2.793   6.304
 7381SOL     OW23041   4.831   2.035   0.518
 7381SOL    HW123042   4.836   2.128   0.555
 7381SOL    HW223043   4.891   2.029   0.438
 7382SOL     OW23044   1.175   5.405   3.884
 7382SOL    HW123045   1.193   5.413   3.982
 7382SOL    HW223046   1.242   5.460   3.833
 7383SOL     OW23047   1.478   4.669   2.958
 7383SOL    HW123048   1.544   4.627   3.020
 7383SOL    HW223049   1.453   4.760   2.991
 7384SOL     OW23050   6.549   2.018   0.737
 7384SOL    HW123051   6.512   1.996   0.646
 7384SOL    HW223052   6.485   2.078   0.785
 7385SOL     OW23053   4.869   0.695   2.079
 7385SOL    HW123054   4.840   0.646   1.998
 7385SOL    HW223055   4.843   0.791   2.071
 7386SOL     OW23056   7.019   2.370   5.991
 7386SOL    HW123057   0.027   2.361   6.086
 7386SOL    HW223058   6.927   2.331   5.980
 7387SOL     OW23059   5.220   6.570   3.860
 7387SOL    HW123060   5.292   6.592   3.927
 7387SOL    HW223061   5.233   6.625   3.778
 7388SOL     OW23062   5.343   3.985   5.022
 7388SOL    HW123063   5.367   3.891   5.046
 7388SOL    HW223064   5.376   4.004   4.929
 7389SOL     OW23065   0.581   3.319   4.673
 7389SOL    HW123066   0.661   3.259   4.672
 7389SOL    HW223067   0.549   3.330   4.767
 7390SOL     OW23068   3.610   0.531   6.384
 7390SOL    HW123069   3.685   0.517   6.320
 7390SOL    HW223070   3.563   0.617   6.362
 7391SOL     OW23071   0.259   4.896   6.908
 7391SOL    HW123072   0.287   4.823   6.971
 7391SOL    HW223073   0.340   4.940   6.870
 7392SOL     OW23074   2.092   4.614   2.018
 7392SOL    HW123075   2.099   4.694   1.959
 7392SOL    HW223076   2.183   4.585   2.046
 7393SOL     OW23077   1.028   3.920   6.999
 7393SOL    HW123078   1.084   3.999   6.974
 7393SOL    HW223079   1.087   3.841   7.016
 7394SOL     OW23080   2.567   2.646   5.891
 7394SOL    HW123081   2.474   2.633   5.926
 7394SOL    HW223082   2.563   2.673   5.794
 7395SOL     OW23083   2.405   0.398   0.207
 7395SOL    HW123084   2.398   0.496   0.227
 7395SOL    HW223085   2.316   0.355   0.221
 7396SOL     OW23086   6.571   6.759   1.691
 7396SOL    HW123087   6.561   6.728   1.786
 7396SOL    HW223088   6.498   6.822   1.668
 7397SOL     OW23089   6.288   4.071   4.263
 7397SOL    HW123090   6.380   4.065   4.226
 7397SOL    HW223091   6.240   3.985   4.249
 7398SOL     OW23092   4.561   6.517   3.115
 7398SOL    HW123093   4.580   6.437   3.058
 7398SOL    HW223094   4.592   6.600   3.068
 7399SOL     OW23095   5.320   4.261   4.626
 7399SOL    HW123096   5.319   4.225   4.533
 7399SOL    HW223097   5.411   4.246   4.666
 7400SOL     OW23098   2.761   4.195   0.501
 7400SOL    HW123099   2.861   4.188   0.507
 7400SOL    HW223100   2.720   4.106   0.523
 7401SOL     OW23101   5.831   2.283   5.109
 7401SOL    HW123102   5.736   2.296   5.140
 7401SOL    HW223103   5.842   2.322   5.017
 7402SOL     OW23104   2.736   5.876   4.371
 7402SOL    HW123105   2.791   5.915   4.445
 7402SOL    HW223106   2.655   5.832   4.410
 7403SOL     OW23107   2.579   2.919   1.621
 7403SOL    HW123108   2.613   2.977   1.547
 7403SOL    HW223109   2.480   2.928   1.628
 7404SOL     OW23110   0.652   1.719   2.716
 7404SOL    HW123111   0.700   1.743   2.631
 7404SOL    HW223112   0.628   1.622   2.714
 7405SOL     OW23113   4.103   4.949   6.259
 7405SOL    HW123114   4.191   4.981   6.293
 7405SOL    HW223115   4.108   4.852   6.239
 7406SOL     OW23116   0.315   6.670   2.586
 7406SOL    HW123117   0.321   6.709   2.678
 7406SOL    HW223118   0.406   6.643   2.555
 7407SOL     OW23119   2.687   0.399   6.339
 7407SOL    HW123120   2.662   0.409   6.243
 7407SOL    HW223121   2.671   0.305   6.369
 7408SOL     OW23122   1.049   3.672   5.138
 7408SOL    HW123123   1.051   3.751   5.076
 7408SOL    HW223124   1.009   3.698   5.225
 7409SOL     OW23125   2.570   7.003   5.350
 7409SOL    HW123126   2.559   0.022   5.259
 7409SOL    HW223127   2.574   0.055   5.418
 7410SOL     OW23128   4.447   5.632   6.312
 7410SOL    HW123129   4.462   5.565   6.239
 7410SOL    HW223130   4.357   5.674   6.301
 7411SOL     OW23131   4.973   4.522   6.004
 7411SOL    HW123132   4.939   4.447   5.948
 7411SOL    HW223133   5.036   4.578   5.950
 7412SOL     OW23134   1.527   1.300   6.407
 7412SOL    HW123135   1.582   1.379   6.380
 7412SOL    HW223136   1.455   1.328   6.469
 7413SOL     OW23137   0.010   3.660   3.914
 7413SOL    HW123138   0.082   3.709   3.866
 7413SOL    HW223139   6.942   3.701   3.891
 7414SOL     OW23140   0.747   4.933   1.498
 7414SOL    HW123141   0.846   4.941   1.507
 7414SOL    HW223142   0.714   4.858   1.555
 7415SOL     OW23143   3.359   1.800   3.196
 7415SOL    HW123144   3.455   1.773   3.207
 7415SOL    HW223145   3.318   1.748   3.121
 7416SOL     OW23146   6.502   0.182   2.947
 7416SOL    HW123147   6.541   0.090   2.938
 7416SOL    HW223148   6.407   0.176   2.977
 7417SOL     OW23149   0.663   5.030   0.825
 7417SOL    HW123150   0.716   4.946   0.839
 7417SOL    HW223151   0.704   5.103   0.879
 7418SOL     OW23152   1.030   3.635   0.124
 7418SOL    HW123153   1.051   3.601   0.215
 7418SOL    HW223154   0.934   3.663   0.120
 7419SOL     OW23155   6.032   1.906   5.299
 7419SOL    HW123156   5.963   1.919   5.229
 7419SOL    HW223157   6.023   1.977   5.369
 7420SOL     OW23158   6.913   5.464   2.563
 7420SOL    HW123159   6.990   5.462   2.627
 7420SOL    HW223160   6.871   5.373   2.559
 7421SOL     OW23161   4.213   1.773   1.427
 7421SOL    HW123162   4.170   1.798   1.340
 7421SOL    HW223163   4.245   1.855   1.473
 7422SOL     OW23164   0.837   1.706   0.329
 7422SOL    HW123165   0.805   1.627   0.277
 7422SOL    HW223166   0.837   1.683   0.426
 7423SOL     OW23167   2.157   4.619   0.081
 7423SOL    HW123168   2.109   4.706   0.093
 7423SOL    HW223169   2.155   4.568   0.167
 7424SOL     OW23170   5.290   0.361   4.747
 7424SOL    HW123171   5.377   0.336   4.705
 7424SOL    HW223172   5.279   0.461   4.743
 7425SOL     OW23173   3.607   6.894   5.026
 7425SOL    HW123174   3.658   6.968   5.069
 7425SOL    HW223175   3.659   6.809   5.034
 7426SOL     OW23176   0.173   1.547   6.184
 7426SOL    HW123177   0.129   1.596   6.108
 7426SOL    HW223178   0.104   1.524   6.252
 7427SOL     OW23179   5.364   5.425   5.054
 7427SOL    HW123180   5.403   5.440   5.145
 7427SOL    HW223181   5.406   5.489   4.989
 7428SOL     OW23182   4.554   1.188   5.715
 7428SOL    HW123183   4.513   1.229   5.634
 7428SOL    HW223184   4.604   1.257   5.767
 7429SOL     OW23185   6.334   6.328   3.996
 7429SOL    HW123186   6.286   6.400   4.046
 7429SOL    HW223187   6.311   6.239   4.035
 7430SOL     OW23188   0.327   4.107   4.342
 7430SOL    HW123189   0.376   4.045   4.280
 7430SOL    HW223190   0.240   4.133   4.302
 7431SOL     OW23191   0.725   4.096   2.410
 7431SOL    HW123192   0.664   4.131   2.339
 7431SOL    HW223193   0.745   4.168   2.476
 7432SOL     OW23194   1.871   6.538   5.102
 7432SOL    HW123195   1.861   6.462   5.166
 7432SOL    HW223196   1.791   6.598   5.109
 7433SOL     OW23197   0.484   6.437   1.071
 7433SOL    HW123198   0.558   6.454   1.005
 7433SOL    HW223199   0.397   6.429   1.023
 7434SOL     OW23200   3.798   6.869   0.245
 7434SOL    HW123201   3.826   6.965   0.249
 7434SOL    HW223202   3.878   6.813   0.221
 7435SOL     OW23203   1.733   6.279   0.199
 7435SOL    HW123204   1.653   6.292   0.258
 7435SOL    HW223205   1.703   6.240   0.111
 7436SOL     OW23206   4.161   3.756   0.044
 7436SOL    HW123207   4.211   3.767   6.979
 7436SOL    HW223208   4.096   3.680   0.036
 7437SOL     OW23209   6.926   6.561   5.547
 7437SOL    HW123210   6.966   6.622   5.615
 7437SOL    HW223211   6.988   6.484   5.531
 7438SOL     OW23212   5.768   4.127   1.402
 7438SOL    HW123213   5.799   4.222   1.410
 7438SOL    HW223214   5.779   4.080   1.490
 7439SOL     OW23215   1.358   5.928   2.741
 7439SOL    HW123216   1.318   5.968   2.659
 7439SOL    HW223217   1.291   5.869   2.786
 7440SOL     OW23218   0.840   1.155   3.898
 7440SOL    HW123219   0.843   1.073   3.841
 7440SOL    HW223220   0.854   1.236   3.841
 7441SOL     OW23221   6.140   0.471   3.651
 7441SOL    HW123222   6.196   0.530   3.709
 7441SOL    HW223223   6.064   0.434   3.703
 7442SOL     OW23224   1.961   0.505   6.161
 7442SOL    HW123225   1.965   0.460   6.072
 7442SOL    HW223226   1.882   0.470   6.212
 7443SOL     OW23227   6.430   1.990   1.946
 7443SOL    HW123228   6.479   2.074   1.923
 7443SOL    HW223229   6.483   1.938   2.013
 7444SOL     OW23230   0.447   2.798   4.982
 7444SOL    HW123231   0.380   2.724   4.983
 7444SOL    HW223232   0.464   2.826   4.887
 7445SOL     OW23233   5.855   2.972   1.594
 7445SOL    HW123234   5.771   2.922   1.615
 7445SOL    HW223235   5.852   3.003   1.499
 7446SOL     OW23236   5.731   3.547   3.164
 7446SOL    HW123237   5.794   3.522   3.091
 7446SOL    HW223238   5.708   3.466   3.218
 7447SOL     OW23239   0.129   4.042   6.115
 7447SOL    HW123240   0.172   3.961   6.153
 7447SOL    HW223241   0.033   4.045   6.143
 7448SOL     OW23242   0.287   6.916   6.299
 7448SOL    HW123243   0.302   6.880   6.390
 7448SOL    HW223244   0.235   6.850   6.244
 7449SOL     OW23245   4.080   0.009   1.649
 7449SOL    HW123246   4.145   6.990   1.585
 7449SOL    HW223247   4.013   0.063   1.600
 7450SOL     OW23248   3.798   1.158   1.996
 7450SOL    HW123249   3.751   1.130   2.079
 7450SOL    HW223250   3.826   1.077   1.944
 7451SOL     OW23251   1.425   0.339   3.009
 7451SOL    HW123252   1.414   0.437   2.991
 7451SOL    HW223253   1.475   0.326   3.095
 7452SOL     OW23254   1.888   6.191   3.424
 7452SOL    HW123255   1.789   6.198   3.411
 7452SOL    HW223256   1.935   6.222   3.342
 7453SOL     OW23257   6.516   4.848   5.538
 7453SOL    HW123258   6.456   4.874   5.462
 7453SOL    HW223259   6.492   4.902   5.619
 7454SOL     OW23260   1.063   3.352   6.534
 7454SOL    HW123261   1.146   3.409   6.534
 7454SOL    HW223262   1.079   3.270   6.590
 7455SOL     OW23263   5.227   0.858   1.058
 7455SOL    HW123264   5.312   0.903   1.086
 7455SOL    HW223265   5.205   0.883   0.964
 7456SOL     OW23266   0.996   3.595   5.841
 7456SOL    HW123267   0.946   3.681   5.828
 7456SOL    HW223268   0.965   3.550   5.924
 7457SOL     OW23269   6.538   6.945   5.778
 7457SOL    HW123270   6.515   6.971   5.684
 7457SOL    HW223271   6.576   0.003   5.826
 7458SOL     OW23272   2.355   0.626   1.226
 7458SOL    HW123273   2.402   0.538   1.219
 7458SOL    HW223274   2.316   0.636   1.317
 7459SOL     OW23275   4.361   6.447   4.624
 7459SOL    HW123276   4.343   6.545   4.626
 7459SOL    HW223277   4.325   6.409   4.538
 7460SOL     OW23278   1.079   5.714   0.147
 7460SOL    HW123279   1.143   5.680   0.217
 7460SOL    HW223280   1.015   5.777   0.189
 7461SOL     OW23281   4.391   0.860   4.332
 7461SOL    HW123282   4.319   0.928   4.348
 7461SOL    HW223283   4.477   0.893   4.371
 7462SOL     OW23284   1.877   1.074   2.830
 7462SOL    HW123285   1.816   0.996   2.847
 7462SOL    HW223286   1.902   1.116   2.918
 7463SOL     OW23287   3.670   3.641   2.102
 7463SOL    HW123288   3.665   3.684   2.193
 7463SOL    HW223289   3.760   3.599   2.090
 7464SOL     OW23290   4.614   6.715   6.883
 7464SOL    HW123291   4.708   6.684   6.869
 7464SOL    HW223292   4.556   6.678   6.811
 7465SOL     OW23293   3.750   0.574   2.694
 7465SOL    HW123294   3.751   0.475   2.678
 7465SOL    HW223295   3.828   0.599   2.751
 7466SOL     OW23296   6.390   0.056   0.251
 7466SOL    HW123297   6.427   0.094   0.335
 7466SOL    HW223298   6.378   0.129   0.183
 7467SOL     OW23299   4.711   1.962   1.045
 7467SOL    HW123300   4.786   1.996   1.102
 7467SOL    HW223301   4.745   1.889   0.986
 7468SOL     OW23302   5.722   3.842   4.118
 7468SOL    HW123303   5.623   3.833   4.114
 7468SOL    HW223304   5.756   3.883   4.033
 7469SOL     OW23305   5.601   1.008   1.949
 7469SOL    HW123306   5.677   1.073   1.950
 7469SOL    HW223307   5.631   0.922   1.990
 7470SOL     OW23308   6.940   3.157   2.952
 7470SOL    HW123309   6.872   3.197   3.014
 7470SOL    HW223310   6.932   3.200   2.862
 7471SOL     OW23311   6.194   4.711   5.570
 7471SOL    HW123312   6.102   4.693   5.535
 7471SOL    HW223313   6.229   4.797   5.532
 7472SOL     OW23314   4.100   5.087   3.127
 7472SOL    HW123315   4.160   5.071   3.049
 7472SOL    HW223316   4.041   5.007   3.141
 7473SOL     OW23317   0.754   3.257   5.062
 7473SOL    HW123318   0.733   3.220   5.152
 7473SOL    HW223319   0.833   3.318   5.068
 7474SOL     OW23320   3.031   1.615   3.359
 7474SOL    HW123321   3.048   1.713   3.367
 7474SOL    HW223322   2.988   1.595   3.271
 7475SOL     OW23323   4.705   0.987   6.700
 7475SOL    HW123324   4.771   0.918   6.729
 7475SOL    HW223325   4.725   1.074   6.745
 7476SOL     OW23326   2.290   6.711   4.949
 7476SOL    HW123327   2.233   6.629   4.953
 7476SOL    HW223328   2.349   6.716   5.029
 7477SOL     OW23329   4.826   3.703   4.141
 7477SOL    HW123330   4.800   3.739   4.051
 7477SOL    HW223331   4.800   3.769   4.212
 7478SOL     OW23332   0.796   4.462   1.642
 7478SOL    HW123333   0.810   4.486   1.546
 7478SOL    HW223334   0.845   4.527   1.700
 7479SOL     OW23335   3.957   0.320   5.200
 7479SOL    HW123336   3.890   0.337   5.273
 7479SOL    HW223337   4.005   0.235   5.220
 7480SOL     OW23338   6.656   5.351   0.574
 7480SOL    HW123339   6.571   5.331   0.524
 7480SOL    HW223340   6.683   5.271   0.626
 7481SOL     OW23341   5.921   6.001   0.374
 7481SOL    HW123342   5.882   5.913   0.401
 7481SOL    HW223343   5.981   6.035   0.446
 7482SOL     OW23344   5.374   0.043   4.659
 7482SOL    HW123345   5.420   6.991   4.607
 7482SOL    HW223346   5.366   0.125   4.603
 7483SOL     OW23347   3.313   0.735   6.066
 7483SOL    HW123348   3.270   0.788   5.993
 7483SOL    HW223349   3.250   0.664   6.097
 7484SOL     OW23350   3.733   0.551   1.960
 7484SOL    HW123351   3.820   0.515   1.993
 7484SOL    HW223352   3.742   0.580   1.865
 7485SOL     OW23353   1.154   0.199   5.088
 7485SOL    HW123354   1.173   0.236   5.179
 7485SOL    HW223355   1.055   0.188   5.077
 7486SOL     OW23356   1.130   1.760   5.263
 7486SOL    HW123357   1.136   1.718   5.172
 7486SOL    HW223358   1.087   1.850   5.256
 7487SOL     OW23359   3.845   5.532   3.202
 7487SOL    HW123360   3.845   5.579   3.290
 7487SOL    HW223361   3.867   5.435   3.215
 7488SOL     OW23362   4.386   0.473   5.365
 7488SOL    HW123363   4.336   0.542   5.312
 7488SOL    HW223364   4.470   0.514   5.401
 7489SOL     OW23365   6.808   3.764   3.824
 7489SOL    HW123366   6.740   3.698   3.792
 7489SOL    HW223367   6.814   3.840   3.758
 7490SOL     OW23368   5.545   0.748   2.900
 7490SOL    HW123369   5.450   0.778   2.885
 7490SOL    HW223370   5.593   0.816   2.954
 7491SOL     OW23371   0.748   6.718   7.011
 7491SOL    HW123372   0.674   6.773   0.030
 7491SOL    HW223373   0.817   6.698   0.060
 7492SOL     OW23374   2.149   2.248   3.485
 7492SOL    HW123375   2.229   2.251   3.425
 7492SOL    HW223376   2.151   2.164   3.539
 7493SOL     OW23377   5.343   5.001   6.766
 7493SOL    HW123378   5.421   4.976   6.708
 7493SOL    HW223379   5.260   4.957   6.731
 7494SOL     OW23380   4.887   2.211   1.416
 7494SOL    HW123381   4.868   2.283   1.349
 7494SOL    HW223382   4.933   2.251   1.495
 7495SOL     OW23383   0.707   1.986   2.160
 7495SOL    HW123384   0.630   1.979   2.224
 7495SOL    HW223385   0.788   1.944   2.201
 7496SOL     OW23386   0.205   5.383   5.865
 7496SOL    HW123387   0.221   5.289   5.895
 7496SOL    HW223388   0.277   5.443   5.901
 7497SOL     OW23389   1.711   4.874   2.502
 7497SOL    HW123390   1.665   4.950   2.548
 7497SOL    HW223391   1.791   4.910   2.453
 7498SOL     OW23392   5.291   1.940   4.523
 7498SOL    HW123393   5.383   1.909   4.545
 7498SOL    HW223394   5.270   1.916   4.428
 7499SOL     OW23395   4.047   4.778   3.931
 7499SOL    HW123396   4.146   4.767   3.933
 7499SOL    HW223397   4.011   4.778   4.024
 7500SOL     OW23398   4.895   4.478   1.946
 7500SOL    HW123399   4.870   4.539   2.022
 7500SOL    HW223400   4.841   4.501   1.865
 7501SOL     OW23401   0.472   4.863   3.714
 7501SOL    HW123402   0.384   4.866   3.667
 7501SOL    HW223403   0.490   4.771   3.747
 7502SOL     OW23404   1.939   2.207   3.970
 7502SOL    HW123405   2.028   2.248   3.950
 7502SOL    HW223406   1.950   2.130   4.034
 7503SOL     OW23407   2.403   2.984   6.832
 7503SOL    HW123408   2.430   2.968   6.737
 7503SOL    HW223409   2.313   2.943   6.848
 7504SOL     OW23410   4.079   5.311   3.872
 7504SOL    HW123411   4.016   5.269   3.937
 7504SOL    HW223412   4.138   5.377   3.919
 7505SOL     OW23413   1.642   1.105   4.283
 7505SOL    HW123414   1.565   1.143   4.335
 7505SOL    HW223415   1.717   1.171   4.282
 7506SOL     OW23416   3.474   1.303   3.482
 7506SOL    HW123417   3.411   1.370   3.444
 7506SOL    HW223418   3.567   1.338   3.476
 7507SOL     OW23419   1.762   6.473   5.645
 7507SOL    HW123420   1.780   6.426   5.732
 7507SOL    HW223421   1.672   6.514   5.646
 7508SOL     OW23422   5.353   5.262   3.825
 7508SOL    HW123423   5.262   5.223   3.809
 7508SOL    HW223424   5.423   5.196   3.798
 7509SOL     OW23425   4.153   3.584   6.458
 7509SOL    HW123426   4.111   3.668   6.423
 7509SOL    HW223427   4.170   3.521   6.382
 7510SOL     OW23428   3.712   3.699   4.992
 7510SOL    HW123429   3.622   3.656   4.991
 7510SOL    HW223430   3.782   3.632   4.967
 7511SOL     OW23431   1.106   0.797   2.159
 7511SOL    HW123432   1.112   0.886   2.203
 7511SOL    HW223433   1.091   0.726   2.228
 7512SOL     OW23434   1.878   2.922   1.616
 7512SOL    HW123435   1.928   3.005   1.589
 7512SOL    HW223436   1.933   2.869   1.680
 7513SOL     OW23437   1.498   3.529   6.271
 7513SOL    HW123438   1.547   3.443   6.257
 7513SOL    HW223439   1.538   3.578   6.348
 7514SOL     OW23440   3.538   5.472   3.609
 7514SOL    HW123441   3.564   5.449   3.515
 7514SOL    HW223442   3.456   5.420   3.634
 7515SOL     OW23443   0.346   4.955   2.705
 7515SOL    HW123444   0.371   4.951   2.608
 7515SOL    HW223445   0.417   4.909   2.759
 7516SOL     OW23446   1.215   2.086   1.855
 7516SOL    HW123447   1.272   2.014   1.815
 7516SOL    HW223448   1.199   2.157   1.787
 7517SOL     OW23449   0.774   4.833   1.245
 7517SOL    HW123450   0.742   4.866   1.334
 7517SOL    HW223451   0.697   4.795   1.194
 7518SOL     OW23452   5.053   4.444   3.420
 7518SOL    HW123453   5.136   4.454   3.475
 7518SOL    HW223454   5.012   4.534   3.405
 7519SOL     OW23455   2.024   0.265   4.142
 7519SOL    HW123456   2.016   0.259   4.043
 7519SOL    HW223457   1.955   0.328   4.178
 7520SOL     OW23458   2.641   0.060   3.665
 7520SOL    HW123459   2.576   0.087   3.594
 7520SOL    HW223460   2.598   7.013   3.725
 7521SOL     OW23461   4.172   3.332   5.461
 7521SOL    HW123462   4.102   3.326   5.532
 7521SOL    HW223463   4.263   3.330   5.503
 7522SOL     OW23464   1.469   0.454   2.586
 7522SOL    HW123465   1.454   0.478   2.490
 7522SOL    HW223466   1.549   0.395   2.593
 7523SOL     OW23467   6.250   6.787   6.423
 7523SOL    HW123468   6.247   6.727   6.344
 7523SOL    HW223469   6.338   6.779   6.469
 7524SOL     OW23470   6.037   0.842   4.540
 7524SOL    HW123471   5.960   0.798   4.586
 7524SOL    HW223472   6.118   0.838   4.598
 7525SOL     OW23473   0.917   6.852   0.868
 7525SOL    HW123474   0.958   6.885   0.954
 7525SOL    HW223475   0.956   6.902   0.791
 7526SOL     OW23476   3.539   3.335   4.848
 7526SOL    HW123477   3.550   3.412   4.785
 7526SOL    HW223478   3.472   3.271   4.812
 7527SOL     OW23479   4.489   5.948   2.129
 7527SOL    HW123480   4.415   5.911   2.073
 7527SOL    HW223481   4.574   5.949   2.076
 7528SOL     OW23482   5.539   3.376   6.706
 7528SOL    HW123483   5.465   3.381   6.772
 7528SOL    HW223484   5.605   3.449   6.725
 7529SOL     OW23485   2.580   6.998   4.861
 7529SOL    HW123486   2.582   0.038   4.781
 7529SOL    HW223487   2.670   6.955   4.872
 7530SOL     OW23488   6.672   2.824   2.640
 7530SOL    HW123489   6.589   2.828   2.697
 7530SOL    HW223490   6.652   2.864   2.550
 7531SOL     OW23491   2.684   1.569   4.716
 7531SOL    HW123492   2.600   1.623   4.702
 7531SOL    HW223493   2.724   1.593   4.805
 7532SOL     OW23494   5.059   4.866   2.483
 7532SOL    HW123495   5.055   4.963   2.507
 7532SOL    HW223496   4.968   4.825   2.497
 7533SOL     OW23497   3.770   0.705   5.019
 7533SOL    HW123498   3.811   0.622   4.980
 7533SOL    HW223499   3.797   0.714   5.115
 7534SOL     OW23500   5.341   6.476   4.385
 7534SOL    HW123501   5.429   6.428   4.393
 7534SOL    HW223502   5.269   6.420   4.426
 7535SOL     OW23503   2.968   4.707   0.587
 7535SOL    HW123504   2.955   4.700   0.686
 7535SOL    HW223505   3.014   4.793   0.565
 7536SOL     OW23506   3.364   5.634   5.302
 7536SOL    HW123507   3.311   5.718   5.309
 7536SOL    HW223508   3.304   5.555   5.317
 7537SOL     OW23509   2.104   4.602   5.574
 7537SOL    HW123510   2.117   4.584   5.672
 7537SOL    HW223511   2.009   4.624   5.556
 7538SOL     OW23512   2.896   3.584   3.958
 7538SOL    HW123513   2.912   3.515   3.887
 7538SOL    HW223514   2.882   3.538   4.045
 7539SOL     OW23515   1.012   2.399   4.644
 7539SOL    HW123516   1.019   2.340   4.724
 7539SOL    HW223517   0.918   2.429   4.632
 7540SOL     OW23518   2.160   1.037   6.760
 7540SOL    HW123519   2.191   0.955   6.712
 7540SOL    HW223520   2.108   1.095   6.698
 7541SOL     OW23521   6.829   3.087   5.025
 7541SOL    HW123522   6.847   3.016   4.957
 7541SOL    HW223523   6.846   3.177   4.985
 7542SOL     OW23524   1.574   0.036   6.108
 7542SOL    HW123525   1.604   0.047   6.013
 7542SOL    HW223526   1.653   0.017   6.166
 7543SOL     OW23527   3.528   2.244   0.340
 7543SOL    HW123528   3.490   2.254   0.433
 7543SOL    HW223529   3.458   2.206   0.280
 7544SOL     OW23530   0.998   2.004   2.316
 7544SOL    HW123531   1.039   1.931   2.261
 7544SOL    HW223532   1.064   2.036   2.384
 7545SOL     OW23533   4.481   0.230   3.739
 7545SOL    HW123534   4.504   0.303   3.804
 7545SOL    HW223535   4.384   0.235   3.717
 7546SOL     OW23536   5.434   7.006   5.921
 7546SOL    HW123537   5.516   6.995   5.865
 7546SOL    HW223538   5.420   0.082   5.941
 7547SOL     OW23539   2.954   0.375   6.983
 7547SOL    HW123540   2.957   0.288   6.934
 7547SOL    HW223541   2.863   0.390   7.021
 7548SOL     OW23542   0.958   3.235   1.440
 7548SOL    HW123543   0.952   3.192   1.530
 7548SOL    HW223544   0.880   3.208   1.384
 7549SOL     OW23545   5.618   0.988   3.006
 7549SOL    HW123546   5.674   1.047   3.065
 7549SOL    HW223547   5.602   1.034   2.919
 7550SOL     OW23548   1.219   5.458   1.109
 7550SOL    HW123549   1.202   5.378   1.053
 7550SOL    HW223550   1.173   5.537   1.070
 7551SOL     OW23551   5.267   4.347   6.715
 7551SOL    HW123552   5.308   4.371   6.627
 7551SOL    HW223553   5.200   4.274   6.701
 7552SOL     OW23554   3.722   5.560   3.790
 7552SOL    HW123555   3.813   5.545   3.750
 7552SOL    HW223556   3.652   5.533   3.724
 7553SOL     OW23557   4.294   4.366   6.083
 7553SOL    HW123558   4.284   4.305   6.004
 7553SOL    HW223559   4.388   4.359   6.118
 7554SOL     OW23560   0.058   1.491   0.862
 7554SOL    HW123561   6.998   1.514   0.918
 7554SOL    HW223562   0.135   1.547   0.891
 7555SOL     OW23563   1.292   6.123   5.987
 7555SOL    HW123564   1.234   6.048   5.955
 7555SOL    HW223565   1.235   6.193   6.031
 7556SOL     OW23566   6.616   3.996   3.411
 7556SOL    HW123567   6.551   3.921   3.404
 7556SOL    HW223568   6.698   3.965   3.461
 7557SOL     OW23569   3.718   3.905   0.642
 7557SOL    HW123570   3.746   3.849   0.565
 7557SOL    HW223571   3.789   3.973   0.661
 7558SOL     OW23572   1.565   2.564   2.917
 7558SOL    HW123573   1.564   2.527   2.824
 7558SOL    HW223574   1.564   2.489   2.983
 7559SOL     OW23575   1.307   4.961   6.972
 7559SOL    HW123576   1.231   4.965   0.017
 7559SOL    HW223577   1.292   4.886   6.908
 7560SOL     OW23578   4.671   0.577   5.370
 7560SOL    HW123579   4.680   0.490   5.321
 7560SOL    HW223580   4.668   0.652   5.305
 7561SOL     OW23581   0.108   3.998   0.102
 7561SOL    HW123582   0.190   3.949   0.133
 7561SOL    HW223583   0.122   4.096   0.110
 7562SOL     OW23584   4.634   6.406   5.023
 7562SOL    HW123585   4.686   6.335   4.975
 7562SOL    HW223586   4.697   6.476   5.056
 7563SOL     OW23587   2.270   1.426   3.550
 7563SOL    HW123588   2.285   1.458   3.456
 7563SOL    HW223589   2.269   1.326   3.551
 7564SOL     OW23590   5.842   5.328   4.182
 7564SOL    HW123591   5.799   5.242   4.152
 7564SOL    HW223592   5.833   5.397   4.110
 7565SOL     OW23593   4.985   5.272   6.940
 7565SOL    HW123594   4.897   5.315   6.961
 7565SOL    HW223595   4.982   5.175   6.965
 7566SOL     OW23596   1.792   5.826   4.744
 7566SOL    HW123597   1.873   5.810   4.801
 7566SOL    HW223598   1.773   5.924   4.742
 7567SOL     OW23599   2.975   3.185   0.499
 7567SOL    HW123600   3.026   3.108   0.537
 7567SOL    HW223601   2.881   3.158   0.481
 7568SOL     OW23602   4.282   4.684   2.640
 7568SOL    HW123603   4.362   4.730   2.604
 7568SOL    HW223604   4.209   4.685   2.572
 7569SOL     OW23605   3.712   0.279   1.753
 7569SOL    HW123606   3.734   0.197   1.700
 7569SOL    HW223607   3.777   0.288   1.828
 7570SOL     OW23608   6.009   5.058   4.933
 7570SOL    HW123609   5.931   5.105   4.894
 7570SOL    HW223610   6.043   5.108   5.013
 7571SOL     OW23611   5.809   4.392   1.408
 7571SOL    HW123612   5.814   4.403   1.309
 7571SOL    HW223613   5.715   4.408   1.439
 7572SOL     OW23614   0.120   1.163   3.340
 7572SOL    HW123615   0.200   1.114   3.375
 7572SOL    HW223616   0.091   1.232   3.407
 7573SOL     OW23617   2.763   5.490   5.427
 7573SOL    HW123618   2.856   5.523   5.406
 7573SOL    HW223619   2.742   5.412   5.369
 7574SOL     OW23620   4.878   6.436   1.973
 7574SOL    HW123621   4.823   6.414   2.053
 7574SOL    HW223622   4.948   6.365   1.960
 7575SOL     OW23623   4.872   2.843   4.651
 7575SOL    HW123624   4.933   2.767   4.675
 7575SOL    HW223625   4.857   2.845   4.552
 7576SOL     OW23626   6.818   3.788   1.515
 7576SOL    HW123627   6.871   3.862   1.557
 7576SOL    HW223628   6.867   3.753   1.435
 7577SOL     OW23629   4.590   0.896   4.868
 7577SOL    HW123630   4.563   0.865   4.776
 7577SOL    HW223631   4.508   0.916   4.922
 7578SOL     OW23632   2.523   5.177   4.647
 7578SOL    HW123633   2.563   5.087   4.667
 7578SOL    HW223634   2.560   5.244   4.712
 7579SOL     OW23635   4.433   2.219   3.394
 7579SOL    HW123636   4.531   2.204   3.394
 7579SOL    HW223637   4.406   2.261   3.481
 7580SOL     OW23638   2.018   3.448   2.134
 7580SOL    HW123639   2.099   3.448   2.076
 7580SOL    HW223640   1.975   3.357   2.132
 7581SOL     OW23641   5.434   1.006   1.166
 7581SOL    HW123642   5.369   1.027   1.238
 7581SOL    HW223643   5.476   1.091   1.133
 7582SOL     OW23644   3.336   2.209   1.050
 7582SOL    HW123645   3.395   2.206   0.969
 7582SOL    HW223646   3.388   2.179   1.130
 7583SOL     OW23647   6.859   3.780   2.775
 7583SOL    HW123648   6.936   3.760   2.835
 7583SOL    HW223649   6.855   3.878   2.756
 7584SOL     OW23650   1.947   1.869   1.491
 7584SOL    HW123651   1.921   1.812   1.413
 7584SOL    HW223652   2.047   1.874   1.497
 7585SOL     OW23653   1.325   5.041   6.210
 7585SOL    HW123654   1.405   5.069   6.265
 7585SOL    HW223655   1.354   4.975   6.141
 7586SOL     OW23656   2.415   1.620   2.869
 7586SOL    HW123657   2.460   1.703   2.901
 7586SOL    HW223658   2.375   1.636   2.779
 7587SOL     OW23659   2.223   0.674   6.112
 7587SOL    HW123660   2.209   0.646   6.017
 7587SOL    HW223661   2.226   0.593   6.170
 7588SOL     OW23662   1.064   4.208   1.867
 7588SOL    HW123663   1.141   4.181   1.810
 7588SOL    HW223664   1.090   4.206   1.963
 7589SOL     OW23665   4.773   6.167   6.610
 7589SOL    HW123666   4.872   6.166   6.624
 7589SOL    HW223667   4.729   6.106   6.675
 7590SOL     OW23668   1.547   0.186   6.529
 7590SOL    HW123669   1.562   0.269   6.584
 7590SOL    HW223670   1.527   0.212   6.435
 7591SOL     OW23671   6.235   5.461   6.777
 7591SOL    HW123672   6.328   5.454   6.740
 7591SOL    HW223673   6.228   5.543   6.833
 7592SOL     OW23674   4.731   5.134   6.103
 7592SOL    HW123675   4.695   5.192   6.030
 7592SOL    HW223676   4.748   5.191   6.184
 7593SOL     OW23677   5.867   4.436   0.395
 7593SOL    HW123678   5.874   4.339   0.373
 7593SOL    HW223679   5.779   4.456   0.437
 7594SOL     OW23680   1.130   6.786   3.752
 7594SOL    HW123681   1.178   6.713   3.800
 7594SOL    HW223682   1.190   6.866   3.745
 7595SOL     OW23683   6.209   2.642   0.061
 7595SOL    HW123684   6.228   2.727   0.111
 7595SOL    HW223685   6.293   2.589   0.054
 7596SOL     OW23686   4.668   4.971   2.043
 7596SOL    HW123687   4.744   4.983   2.108
 7596SOL    HW223688   4.587   4.939   2.092
 7597SOL     OW23689   2.837   5.803   1.774
 7597SOL    HW123690   2.753   5.794   1.827
 7597SOL    HW223691   2.823   5.764   1.683
 7598SOL     OW23692   6.718   0.950   2.222
 7598SOL    HW123693   6.638   0.898   2.253
 7598SOL    HW223694   6.756   1.002   2.298
 7599SOL     OW23695   6.226   2.355   2.416
 7599SOL    HW123696   6.142   2.402   2.389
 7599SOL    HW223697   6.296   2.369   2.346
 7600SOL     OW23698   2.251   1.680   2.643
 7600SOL    HW123699   2.297   1.662   2.556
 7600SOL    HW223700   2.261   1.777   2.667
 7601SOL     OW23701   1.753   0.616   5.292
 7601SOL    HW123702   1.851   0.603   5.302
 7601SOL    HW223703   1.705   0.564   5.363
 7602SOL     OW23704   2.184   3.419   5.096
 7602SOL    HW123705   2.267   3.423   5.152
 7602SOL    HW223706   2.163   3.324   5.074
 7603SOL     OW23707   0.020   1.264   1.887
 7603SOL    HW123708   0.100   1.296   1.936
 7603SOL    HW223709   6.972   1.229   1.952
 7604SOL     OW23710   5.131   5.511   6.872
 7604SOL    HW123711   5.154   5.486   6.778
 7604SOL    HW223712   5.061   5.448   6.906
 7605SOL     OW23713   5.726   3.801   5.957
 7605SOL    HW123714   5.799   3.802   5.888
 7605SOL    HW223715   5.695   3.707   5.971
 7606SOL     OW23716   5.904   1.616   3.645
 7606SOL    HW123717   5.977   1.583   3.585
 7606SOL    HW223718   5.943   1.677   3.714
 7607SOL     OW23719   4.854   6.896   6.076
 7607SOL    HW123720   4.816   6.985   6.103
 7607SOL    HW223721   4.940   6.910   6.027
 7608SOL     OW23722   4.088   3.216   4.471
 7608SOL    HW123723   4.166   3.250   4.419
 7608SOL    HW223724   4.027   3.292   4.493
 7609SOL     OW23725   1.895   2.480   3.450
 7609SOL    HW123726   1.904   2.468   3.549
 7609SOL    HW223727   1.914   2.393   3.405
 7610SOL     OW23728   5.367   0.876   2.154
 7610SOL    HW123729   5.449   0.904   2.203
 7610SOL    HW223730   5.390   0.801   2.091
 7611SOL     OW23731   2.059   1.970   1.724
 7611SOL    HW123732   2.086   2.057   1.681
 7611SOL    HW223733   2.008   1.914   1.659
 7612SOL     OW23734   4.278   1.730   2.649
 7612SOL    HW123735   4.281   1.830   2.652
 7612SOL    HW223736   4.360   1.693   2.694
 7613SOL     OW23737   5.361   0.739   3.338
 7613SOL    HW123738   5.434   0.672   3.328
 7613SOL    HW223739   5.274   0.698   3.312
 7614SOL     OW23740   4.244   1.102   0.453
 7614SOL    HW123741   4.184   1.053   0.516
 7614SOL    HW223742   4.192   1.172   0.405
 7615SOL     OW23743   3.949   4.828   5.918
 7615SOL    HW123744   3.928   4.731   5.927
 7615SOL    HW223745   4.041   4.845   5.954
 7616SOL     OW23746   6.743   4.361   3.145
 7616SOL    HW123747   6.708   4.301   3.074
 7616SOL    HW223748   6.760   4.452   3.107
 7617SOL     OW23749   3.148   6.147   2.889
 7617SOL    HW123750   3.087   6.161   2.967
 7617SOL    HW223751   3.223   6.087   2.917
 7618SOL     OW23752   2.153   2.179   0.581
 7618SOL    HW123753   2.074   2.176   0.520
 7618SOL    HW223754   2.142   2.255   0.645
 7619SOL     OW23755   5.789   3.369   5.559
 7619SOL    HW123756   5.837   3.372   5.646
 7619SOL    HW223757   5.692   3.388   5.573
 7620SOL     OW23758   2.913   6.579   1.752
 7620SOL    HW123759   2.964   6.541   1.830
 7620SOL    HW223760   2.815   6.574   1.771
 7621SOL     OW23761   2.244   2.394   0.948
 7621SOL    HW123762   2.207   2.483   0.974
 7621SOL    HW223763   2.221   2.327   1.019
 7622SOL     OW23764   4.957   1.752   1.269
 7622SOL    HW123765   4.934   1.846   1.243
 7622SOL    HW223766   4.970   1.697   1.187
 7623SOL     OW23767   5.750   0.227   5.293
 7623SOL    HW123768   5.753   0.310   5.238
 7623SOL    HW223769   5.655   0.195   5.301
 7624SOL     OW23770   6.919   1.289   4.479
 7624SOL    HW123771   6.836   1.323   4.523
 7624SOL    HW223772   6.966   1.226   4.541
 7625SOL     OW23773   3.668   5.995   0.721
 7625SOL    HW123774   3.736   5.936   0.765
 7625SOL    HW223775   3.636   5.951   0.637
 7626SOL     OW23776   2.365   4.348   4.471
 7626SOL    HW123777   2.302   4.286   4.517
 7626SOL    HW223778   2.392   4.421   4.534
 7627SOL     OW23779   6.497   1.506   6.789
 7627SOL    HW123780   6.583   1.458   6.771
 7627SOL    HW223781   6.426   1.439   6.814
 7628SOL     OW23782   4.831   1.342   1.056
 7628SOL    HW123783   4.748   1.314   1.105
 7628SOL    HW223784   4.907   1.350   1.121
 7629SOL     OW23785   6.217   5.722   3.404
 7629SOL    HW123786   6.263   5.638   3.376
 7629SOL    HW223787   6.274   5.770   3.471
 7630SOL     OW23788   6.585   1.372   2.155
 7630SOL    HW123789   6.551   1.442   2.093
 7630SOL    HW223790   6.571   1.282   2.113
 7631SOL     OW23791   1.484   0.954   3.223
 7631SOL    HW123792   1.392   0.938   3.188
 7631SOL    HW223793   1.547   0.887   3.184
 7632SOL     OW23794   4.405   0.892   6.072
 7632SOL    HW123795   4.307   0.910   6.068
 7632SOL    HW223796   4.455   0.972   6.038
 7633SOL     OW23797   5.424   4.654   6.299
 7633SOL    HW123798   5.463   4.574   6.254
 7633SOL    HW223799   5.495   4.724   6.311
 7634SOL     OW23800   0.902   2.764   1.823
 7634SOL    HW123801   0.848   2.844   1.795
 7634SOL    HW223802   0.840   2.694   1.859
 7635SOL     OW23803   2.604   4.984   6.194
 7635SOL    HW123804   2.700   4.956   6.186
 7635SOL    HW223805   2.599   5.082   6.212
 7636SOL     OW23806   2.419   0.115   3.494
 7636SOL    HW123807   2.329   0.106   3.536
 7636SOL    HW223808   2.426   0.054   3.415
 7637SOL     OW23809   2.809   6.118   4.263
 7637SOL    HW123810   2.765   6.058   4.329
 7637SOL    HW223811   2.741   6.152   4.198
 7638SOL     OW23812   4.369   4.409   1.621
 7638SOL    HW123813   4.374   4.345   1.699
 7638SOL    HW223814   4.455   4.404   1.570
 7639SOL     OW23815   6.657   2.353   4.356
 7639SOL    HW123816   6.679   2.411   4.277
 7639SOL    HW223817   6.558   2.347   4.365
 7640SOL     OW23818   2.613   2.976   5.569
 7640SOL    HW123819   2.654   3.023   5.648
 7640SOL    HW223820   2.635   3.026   5.486
 7641SOL     OW23821   6.216   2.693   3.249
 7641SOL    HW123822   6.169   2.704   3.162
 7641SOL    HW223823   6.307   2.654   3.233
 7642SOL     OW23824   1.519   1.085   2.799
 7642SOL    HW123825   1.511   1.098   2.898
 7642SOL    HW223826   1.572   1.160   2.760
 7643SOL     OW23827   5.661   2.778   3.164
 7643SOL    HW123828   5.710   2.692   3.182
 7643SOL    HW223829   5.673   2.803   3.068
 7644SOL     OW23830   6.230   3.981   3.803
 7644SOL    HW123831   6.169   3.902   3.814
 7644SOL    HW223832   6.313   3.952   3.756
 7645SOL     OW23833   3.926   3.078   0.089
 7645SOL    HW123834   3.886   3.081   7.018
 7645SOL    HW223835   4.019   3.117   0.087
 7646SOL     OW23836   0.557   1.109   1.720
 7646SOL    HW123837   0.518   1.050   1.649
 7646SOL    HW223838   0.493   1.183   1.741
 7647SOL     OW23839   2.498   5.010   0.554
 7647SOL    HW123840   2.418   5.064   0.529
 7647SOL    HW223841   2.567   5.016   0.482
 7648SOL     OW23842   3.615   0.727   4.232
 7648SOL    HW123843   3.638   0.752   4.326
 7648SOL    HW223844   3.566   0.803   4.189
 7649SOL     OW23845   3.004   1.441   1.340
 7649SOL    HW123846   2.924   1.460   1.282
 7649SOL    HW223847   3.056   1.525   1.354
 7650SOL     OW23848   5.987   4.095   0.588
 7650SOL    HW123849   5.996   4.011   0.642
 7650SOL    HW223850   6.063   4.156   0.611
 7651SOL     OW23851   4.865   2.779   6.474
 7651SOL    HW123852   4.926   2.775   6.553
 7651SOL    HW223853   4.777   2.736   6.498
 7652SOL     OW23854   1.401   3.521   3.034
 7652SOL    HW123855   1.466   3.464   2.984
 7652SOL    HW223856   1.327   3.549   2.972
 7653SOL     OW23857   4.009   2.158   1.494
 7653SOL    HW123858   4.011   2.255   1.520
 7653SOL    HW223859   3.927   2.116   1.531
 7654SOL     OW23860   5.238   3.545   3.984
 7654SOL    HW123861   5.272   3.467   4.038
 7654SOL    HW223862   5.309   3.574   3.920
 7655SOL     OW23863   4.912   5.598   5.220
 7655SOL    HW123864   4.921   5.518   5.278
 7655SOL    HW223865   4.952   5.678   5.265
 7656SOL     OW23866   1.425   6.777   4.092
 7656SOL    HW123867   1.333   6.762   4.127
 7656SOL    HW223868   1.449   6.703   4.029
 7657SOL     OW23869   4.264   1.519   3.964
 7657SOL    HW123870   4.246   1.617   3.971
 7657SOL    HW223871   4.341   1.495   4.023
 7658SOL     OW23872   4.458   0.185   6.317
 7658SOL    HW123873   4.527   0.224   6.378
 7658SOL    HW223874   4.448   0.087   6.337
 7659SOL     OW23875   4.944   6.229   6.981
 7659SOL    HW123876   4.851   6.267   6.976
 7659SOL    HW223877   4.994   6.251   6.898
 7660SOL     OW23878   5.681   4.850   4.381
 7660SOL    HW123879   5.737   4.821   4.303
 7660SOL    HW223880   5.694   4.786   4.457
 7661SOL     OW23881   6.116   3.158   3.792
 7661SOL    HW123882   6.195   3.100   3.813
 7661SOL    HW223883   6.114   3.235   3.855
 7662SOL     OW23884   6.327   5.471   2.839
 7662SOL    HW123885   6.326   5.434   2.746
 7662SOL    HW223886   6.394   5.421   2.894
 7663SOL     OW23887   6.899   5.777   0.240
 7663SOL    HW123888   6.900   5.703   0.308
 7663SOL    HW223889   6.860   5.859   0.280
 7664SOL     OW23890   2.545   5.382   5.076
 7664SOL    HW123891   2.527   5.326   5.156
 7664SOL    HW223892   2.537   5.479   5.100
 7665SOL     OW23893   2.459   5.509   4.133
 7665SOL    HW123894   2.524   5.436   4.115
 7665SOL    HW223895   2.431   5.506   4.229
 7666SOL     OW23896   2.625   1.012   1.483
 7666SOL    HW123897   2.529   0.990   1.467
 7666SOL    HW223898   2.654   1.084   1.421
 7667SOL     OW23899   4.932   6.261   5.932
 7667SOL    HW123900   5.021   6.234   5.895
 7667SOL    HW223901   4.921   6.222   6.024
 7668SOL     OW23902   3.106   3.857   1.536
 7668SOL    HW123903   3.095   3.909   1.620
 7668SOL    HW223904   3.095   3.760   1.555
 7669SOL     OW23905   4.426   6.535   4.907
 7669SOL    HW123906   4.512   6.502   4.946
 7669SOL    HW223907   4.403   6.481   4.826
 7670SOL     OW23908   1.380   5.738   0.860
 7670SOL    HW123909   1.325   5.814   0.895
 7670SOL    HW223910   1.324   5.681   0.800
 7671SOL     OW23911   5.492   2.240   4.928
 7671SOL    HW123912   5.459   2.283   4.844
 7671SOL    HW223913   5.537   2.309   4.985
 7672SOL     OW23914   5.924   0.244   1.893
 7672SOL    HW123915   5.933   0.167   1.955
 7672SOL    HW223916   5.936   0.330   1.944
 7673SOL     OW23917   0.093   4.107   6.679
 7673SOL    HW123918   0.129   4.122   6.587
 7673SOL    HW223919   0.157   4.144   6.746
 7674SOL     OW23920   6.182   0.881   5.365
 7674SOL    HW123921   6.084   0.888   5.344
 7674SOL    HW223922   6.221   0.972   5.376
 7675SOL     OW23923   4.976   0.114   3.125
 7675SOL    HW123924   4.916   0.143   3.199
 7675SOL    HW223925   5.068   0.148   3.141
 7676SOL     OW23926   1.486   0.343   1.457
 7676SOL    HW123927   1.518   0.437   1.466
 7676SOL    HW223928   1.564   0.282   1.441
 7677SOL     OW23929   1.896   2.239   2.729
 7677SOL    HW123930   1.840   2.308   2.685
 7677SOL    HW223931   1.982   2.280   2.759
 7678SOL     OW23932   5.367   6.742   6.052
 7678SOL    HW123933   5.389   6.799   5.974
 7678SOL    HW223934   5.279   6.770   6.090
 7679SOL     OW23935   1.115   5.078   4.820
 7679SOL    HW123936   1.206   5.101   4.785
 7679SOL    HW223937   1.084   4.992   4.779
 7680SOL     OW23938   5.134   1.068   6.642
 7680SOL    HW123939   5.219   1.117   6.661
 7680SOL    HW223940   5.084   1.115   6.569
 7681SOL     OW23941   2.927   2.171   6.292
 7681SOL    HW123942   2.948   2.169   6.194
 7681SOL    HW223943   2.999   2.222   6.340
 7682SOL     OW23944   2.864   6.921   1.452
 7682SOL    HW123945   2.856   6.997   1.388
 7682SOL    HW223946   2.775   6.903   1.495
 7683SOL     OW23947   6.327   1.854   3.132
 7683SOL    HW123948   6.255   1.884   3.195
 7683SOL    HW223949   6.285   1.811   3.052
 7684SOL     OW23950   4.341   2.756   6.271
 7684SOL    HW123951   4.309   2.736   6.178
 7684SOL    HW223952   4.296   2.695   6.335
 7685SOL     OW23953   4.292   3.838   1.156
 7685SOL    HW123954   4.196   3.812   1.144
 7685SOL    HW223955   4.298   3.928   1.198
 7686SOL     OW23956   3.567   0.749   3.830
 7686SOL    HW123957   3.573   0.835   3.780
 7686SOL    HW223958   3.479   0.744   3.877
 7687SOL     OW23959   4.365   5.005   6.320
 7687SOL    HW123960   4.371   4.912   6.354
 7687SOL    HW223961   4.404   5.068   6.387
 7688SOL     OW23962   6.601   0.419   3.035
 7688SOL    HW123963   6.671   0.395   3.102
 7688SOL    HW223964   6.575   0.337   2.983
 7689SOL     OW23965   3.065   6.165   5.133
 7689SOL    HW123966   3.100   6.103   5.203
 7689SOL    HW223967   3.129   6.168   5.056
 7690SOL     OW23968   0.518   5.025   2.187
 7690SOL    HW123969   0.490   4.996   2.278
 7690SOL    HW223970   0.606   5.072   2.192
 7691SOL     OW23971   5.974   3.688   5.499
 7691SOL    HW123972   5.984   3.604   5.553
 7691SOL    HW223973   6.064   3.726   5.480
 7692SOL     OW23974   1.394   6.581   1.361
 7692SOL    HW123975   1.440   6.554   1.445
 7692SOL    HW223976   1.439   6.537   1.283
 7693SOL     OW23977   5.824   1.117   0.708
 7693SOL    HW123978   5.849   1.179   0.783
 7693SOL    HW223979   5.899   1.111   0.643
 7694SOL     OW23980   6.047   5.105   3.944
 7694SOL    HW123981   6.124   5.145   3.994
 7694SOL    HW223982   6.031   5.156   3.860
 7695SOL     OW23983   4.422   0.444   6.557
 7695SOL    HW123984   4.499   0.486   6.606
 7695SOL    HW223985   4.423   0.473   6.462
 7696SOL     OW23986   1.378   4.095   5.749
 7696SOL    HW123987   1.285   4.102   5.784
 7696SOL    HW223988   1.443   4.124   5.819
 7697SOL     OW23989   4.339   1.777   2.259
 7697SOL    HW123990   4.249   1.778   2.301
 7697SOL    HW223991   4.363   1.683   2.233
 7698SOL     OW23992   0.070   2.883   5.621
 7698SOL    HW123993   0.097   2.903   5.715
 7698SOL    HW223994   0.058   2.784   5.610
 7699SOL     OW23995   2.693   4.673   0.533
 7699SOL    HW123996   2.654   4.744   0.591
 7699SOL    HW223997   2.791   4.689   0.522
 7700SOL     OW23998   5.665   6.589   4.641
 7700SOL    HW123999   5.662   6.564   4.545
 7700SOL    HW224000   5.574   6.578   4.681
 7701SOL     OW24001   6.523   2.057   5.341
 7701SOL    HW124002   6.595   2.042   5.273
 7701SOL    HW224003   6.538   2.146   5.386
 7702SOL     OW24004   2.252   6.031   6.114
 7702SOL    HW124005   2.184   5.976   6.065
 7702SOL    HW224006   2.250   6.007   6.211
 7703SOL     OW24007   0.809   2.581   5.435
 7703SOL    HW124008   0.711   2.596   5.419
 7703SOL    HW224009   0.837   2.497   5.389
 7704SOL     OW24010   2.792   4.396   1.024
 7704SOL    HW124011   2.771   4.350   0.938
 7704SOL    HW224012   2.886   4.375   1.050
 7705SOL     OW24013   3.813   4.382   5.304
 7705SOL    HW124014   3.715   4.365   5.316
 7705SOL    HW224015   3.828   4.477   5.277
 7706SOL     OW24016   6.780   0.761   5.246
 7706SOL    HW124017   6.702   0.743   5.306
 7706SOL    HW224018   6.863   0.769   5.301
 7707SOL     OW24019   0.310   5.674   6.425
 7707SOL    HW124020   0.376   5.606   6.392
 7707SOL    HW224021   0.221   5.657   6.382
 7708SOL     OW24022   5.183   1.523   4.463
 7708SOL    HW124023   5.107   1.463   4.489
 7708SOL    HW224024   5.184   1.603   4.523
 7709SOL     OW24025   3.721   2.177   1.625
 7709SOL    HW124026   3.704   2.231   1.708
 7709SOL    HW224027   3.721   2.237   1.545
 7710SOL     OW24028   3.154   2.345   6.382
 7710SOL    HW124029   3.222   2.280   6.346
 7710SOL    HW224030   3.196   2.435   6.390
 7711SOL     OW24031   4.495   5.992   4.856
 7711SOL    HW124032   4.475   6.026   4.764
 7711SOL    HW224033   4.410   5.980   4.906
 7712SOL     OW24034   4.758   4.798   0.478
 7712SOL    HW124035   4.856   4.803   0.460
 7712SOL    HW224036   4.723   4.709   0.448
 7713SOL     OW24037   0.778   5.465   6.367
 7713SOL    HW124038   0.845   5.423   6.428
 7713SOL    HW224039   0.693   5.481   6.417
 7714SOL     OW24040   5.139   3.658   4.240
 7714SOL    HW124041   5.189   3.616   4.164
 7714SOL    HW224042   5.075   3.592   4.278
 7715SOL     OW24043   3.942   2.237   1.828
 7715SOL    HW124044   3.846   2.248   1.851
 7715SOL    HW224045   3.980   2.159   1.878
 7716SOL     OW24046   4.433   2.347   3.632
 7716SOL    HW124047   4.420   2.446   3.643
 7716SOL    HW224048   4.526   2.323   3.661
 7717SOL     OW24049   3.187   0.186   6.684
 7717SOL    HW124050   3.182   0.191   6.585
 7717SOL    HW224051   3.160   0.095   6.715
 7718SOL     OW24052   2.903   6.348   4.400
 7718SOL    HW124053   2.986   6.381   4.356
 7718SOL    HW224054   2.877   6.259   4.360
 7719SOL     OW24055   6.219   2.790   5.300
 7719SOL    HW124056   6.192   2.853   5.373
 7719SOL    HW224057   6.169   2.704   5.309
 7720SOL     OW24058   5.758   6.443   1.921
 7720SOL    HW124059   5.758   6.472   2.017
 7720SOL    HW224060   5.849   6.455   1.882
 7721SOL     OW24061   0.759   4.840   2.784
 7721SOL    HW124062   0.843   4.796   2.752
 7721SOL    HW224063   0.762   4.850   2.884
 7722SOL     OW24064   0.394   6.188   4.300
 7722SOL    HW124065   0.409   6.173   4.398
 7722SOL    HW224066   0.343   6.111   4.262
 7723SOL     OW24067   0.102   2.215   0.507
 7723SOL    HW124068   0.074   2.299   0.462
 7723SOL    HW224069   0.030   2.186   0.571
 7724SOL     OW24070   1.846   5.833   0.461
 7724SOL    HW124071   1.811   5.823   0.554
 7724SOL    HW224072   1.809   5.761   0.403
 7725SOL     OW24073   4.892   3.464   4.265
 7725SOL    HW124074   4.904   3.463   4.364
 7725SOL    HW224075   4.835   3.542   4.239
 7726SOL     OW24076   5.784   4.105   3.470
 7726SOL    HW124077   5.743   4.120   3.559
 7726SOL    HW224078   5.712   4.088   3.402
 7727SOL     OW24079   5.533   3.072   1.831
 7727SOL    HW124080   5.491   3.120   1.908
 7727SOL    HW224081   5.623   3.112   1.812
 7728SOL     OW24082   2.456   2.587   2.201
 7728SOL    HW124083   2.536   2.528   2.212
 7728SOL    HW224084   2.444   2.609   2.104
 7729SOL     OW24085   4.924   2.382   0.162
 7729SOL    HW124086   4.891   2.463   0.209
 7729SOL    HW224087   5.021   2.368   0.182
 7730SOL     OW24088   4.524   0.373   2.160
 7730SOL    HW124089   4.467   0.448   2.128
 7730SOL    HW224090   4.619   0.403   2.166
 7731SOL     OW24091   0.051   1.992   4.764
 7731SOL    HW124092   0.150   1.987   4.762
 7731SOL    HW224093   0.019   2.051   4.690
 7732SOL     OW24094   4.245   5.211   0.516
 7732SOL    HW124095   4.194   5.129   0.489
 7732SOL    HW224096   4.234   5.226   0.614
 7733SOL     OW24097   2.543   6.620   0.889
 7733SOL    HW124098   2.484   6.587   0.963
 7733SOL    HW224099   2.580   6.710   0.914
 7734SOL     OW24100   1.506   2.853   2.379
 7734SOL    HW124101   1.525   2.883   2.473
 7734SOL    HW224102   1.419   2.891   2.349
 7735SOL     OW24103   5.157   4.736   0.769
 7735SOL    HW124104   5.192   4.715   0.861
 7735SOL    HW224105   5.175   4.833   0.749
 7736SOL     OW24106   5.572   4.468   6.119
 7736SOL    HW124107   5.558   4.427   6.209
 7736SOL    HW224108   5.568   4.397   6.049
 7737SOL     OW24109   4.902   2.552   0.528
 7737SOL    HW124110   4.956   2.570   0.610
 7737SOL    HW224111   4.909   2.630   0.466
 7738SOL     OW24112   2.268   5.228   0.065
 7738SOL    HW124113   2.228   5.161   0.004
 7738SOL    HW224114   2.348   5.189   0.111
 7739SOL     OW24115   5.683   3.450   2.799
 7739SOL    HW124116   5.648   3.463   2.706
 7739SOL    HW224117   5.607   3.457   2.864
 7740SOL     OW24118   0.622   5.917   3.728
 7740SOL    HW124119   0.630   5.828   3.774
 7740SOL    HW224120   0.675   5.916   3.643
 7741SOL     OW24121   2.983   5.746   4.804
 7741SOL    HW124122   3.068   5.714   4.846
 7741SOL    HW224123   2.940   5.671   4.754
 7742SOL     OW24124   6.751   1.134   3.950
 7742SOL    HW124125   6.691   1.057   3.969
 7742SOL    HW224126   6.697   1.210   3.913
 7743SOL     OW24127   5.167   2.935   2.521
 7743SOL    HW124128   5.083   2.972   2.481
 7743SOL    HW224129   5.211   3.005   2.577
 7744SOL     OW24130   0.453   6.692   4.939
 7744SOL    HW124131   0.463   6.595   4.959
 7744SOL    HW224132   0.512   6.717   4.862
 7745SOL     OW24133   4.806   3.305   5.165
 7745SOL    HW124134   4.757   3.389   5.144
 7745SOL    HW224135   4.850   3.270   5.082
 7746SOL     OW24136   1.352   0.340   6.708
 7746SOL    HW124137   1.317   0.432   6.688
 7746SOL    HW224138   1.426   0.346   6.775
 7747SOL     OW24139   5.091   5.195   1.181
 7747SOL    HW124140   5.105   5.291   1.159
 7747SOL    HW224141   5.180   5.153   1.201
 7748SOL     OW24142   2.551   3.847   6.204
 7748SOL    HW124143   2.586   3.910   6.135
 7748SOL    HW224144   2.473   3.889   6.250
 7749SOL     OW24145   5.626   4.212   5.949
 7749SOL    HW124146   5.577   4.126   5.930
 7749SOL    HW224147   5.574   4.289   5.912
 7750SOL     OW24148   5.390   4.988   3.017
 7750SOL    HW124149   5.447   4.946   2.947
 7750SOL    HW224150   5.372   5.084   2.994
 7751SOL     OW24151   0.400   2.725   1.003
 7751SOL    HW124152   0.402   2.639   1.054
 7751SOL    HW224153   0.419   2.801   1.065
 7752SOL     OW24154   4.082   1.699   3.260
 7752SOL    HW124155   4.182   1.692   3.254
 7752SOL    HW224156   4.051   1.662   3.348
 7753SOL     OW24157   3.668   2.241   5.310
 7753SOL    HW124158   3.619   2.322   5.341
 7753SOL    HW224159   3.605   2.164   5.302
 7754SOL     OW24160   5.583   5.492   1.546
 7754SOL    HW124161   5.640   5.426   1.498
 7754SOL    HW224162   5.509   5.445   1.592
 7755SOL     OW24163   0.610   5.253   5.076
 7755SOL    HW124164   0.533   5.292   5.025
 7755SOL    HW224165   0.618   5.155   5.054
 7756SOL     OW24166   2.119   5.025   2.124
 7756SOL    HW124167   2.151   4.993   2.213
 7756SOL    HW224168   2.198   5.051   2.068
 7757SOL     OW24169   0.070   4.203   1.059
 7757SOL    HW124170   0.092   4.227   0.964
 7757SOL    HW224171   0.063   4.103   1.067
 7758SOL     OW24172   0.766   1.983   5.055
 7758SOL    HW124173   0.728   2.006   5.144
 7758SOL    HW224174   0.781   2.066   5.002
 7759SOL     OW24175   3.468   1.211   2.517
 7759SOL    HW124176   3.480   1.117   2.485
 7759SOL    HW224177   3.468   1.213   2.617
 7760SOL     OW24178   5.105   3.161   0.077
 7760SOL    HW124179   5.190   3.122   0.040
 7760SOL    HW224180   5.061   3.218   0.008
 7761SOL     OW24181   4.924   5.195   3.498
 7761SOL    HW124182   4.864   5.223   3.422
 7761SOL    HW224183   4.954   5.277   3.548
 7762SOL     OW24184   5.512   2.117   1.856
 7762SOL    HW124185   5.421   2.146   1.884
 7762SOL    HW224186   5.521   2.018   1.870
 7763SOL     OW24187   2.273   0.149   3.178
 7763SOL    HW124188   2.219   0.180   3.256
 7763SOL    HW224189   2.215   0.143   3.097
 7764SOL     OW24190   3.170   4.611   5.526
 7764SOL    HW124191   3.214   4.666   5.597
 7764SOL    HW224192   3.167   4.515   5.555
 7765SOL     OW24193   5.316   4.149   4.371
 7765SOL    HW124194   5.396   4.090   4.369
 7765SOL    HW224195   5.236   4.098   4.337
 7766SOL     OW24196   6.619   2.666   6.337
 7766SOL    HW124197   6.556   2.605   6.385
 7766SOL    HW224198   6.694   2.691   6.399
 7767SOL     OW24199   4.591   0.017   3.897
 7767SOL    HW124200   4.535   6.955   3.887
 7767SOL    HW224201   4.542   0.095   3.859
 7768SOL     OW24202   3.877   5.534   4.622
 7768SOL    HW124203   3.960   5.590   4.615
 7768SOL    HW224204   3.902   5.437   4.626
 7769SOL     OW24205   3.588   2.919   6.840
 7769SOL    HW124206   3.569   2.872   6.926
 7769SOL    HW224207   3.532   2.879   6.767
 7770SOL     OW24208   1.283   3.625   3.961
 7770SOL    HW124209   1.329   3.691   3.902
 7770SOL    HW224210   1.198   3.664   3.996
 7771SOL     OW24211   1.176   4.094   5.410
 7771SOL    HW124212   1.236   4.162   5.369
 7771SOL    HW224213   1.168   4.016   5.348
 7772SOL     OW24214   5.401   6.525   2.130
 7772SOL    HW124215   5.486   6.541   2.080
 7772SOL    HW224216   5.419   6.528   2.228
 7773SOL     OW24217   2.546   0.047   6.623
 7773SOL    HW124218   2.552   6.987   6.682
 7773SOL    HW224219   2.638   0.073   6.593
 7774SOL     OW24220   4.942   1.141   2.450
 7774SOL    HW124221   4.969   1.057   2.498
 7774SOL    HW224222   4.863   1.122   2.392
 7775SOL     OW24223   3.292   1.915   0.999
 7775SOL    HW124224   3.193   1.920   0.983
 7775SOL    HW224225   3.315   1.967   1.081
 7776SOL     OW24226   2.792   1.109   4.214
 7776SOL    HW124227   2.806   1.201   4.178
 7776SOL    HW224228   2.738   1.114   4.298
 7777SOL     OW24229   5.812   5.424   3.130
 7777SOL    HW124230   5.864   5.489   3.187
 7777SOL    HW224231   5.715   5.444   3.138
 7778SOL     OW24232   0.600   4.312   2.609
 7778SOL    HW124233   0.664   4.258   2.664
 7778SOL    HW224234   0.522   4.339   2.665
 7779SOL     OW24235   3.248   6.482   2.148
 7779SOL    HW124236   3.320   6.445   2.090
 7779SOL    HW224237   3.270   6.466   2.244
 7780SOL     OW24238   6.707   5.587   4.371
 7780SOL    HW124239   6.738   5.657   4.306
 7780SOL    HW224240   6.704   5.498   4.324
 7781SOL     OW24241   2.714   3.118   0.406
 7781SOL    HW124242   2.644   3.182   0.437
 7781SOL    HW224243   2.684   3.074   0.321
 7782SOL     OW24244   5.887   3.966   4.785
 7782SOL    HW124245   5.929   4.031   4.722
 7782SOL    HW224246   5.902   3.998   4.879
 7783SOL     OW24247   1.664   6.444   4.143
 7783SOL    HW124248   1.731   6.370   4.147
 7783SOL    HW224249   1.685   6.513   4.212
 7784SOL     OW24250   1.773   1.859   2.281
 7784SOL    HW124251   1.802   1.954   2.295
 7784SOL    HW224252   1.734   1.848   2.190
 7785SOL     OW24253   6.492   5.880   2.914
 7785SOL    HW124254   6.564   5.813   2.927
 7785SOL    HW224255   6.480   5.934   2.997
 7786SOL     OW24256   5.180   0.993   6.288
 7786SOL    HW124257   5.100   0.983   6.349
 7786SOL    HW224258   5.155   0.964   6.196
 7787SOL     OW24259   1.784   2.698   1.116
 7787SOL    HW124260   1.860   2.636   1.095
 7787SOL    HW224261   1.768   2.698   1.215
 7788SOL     OW24262   0.837   3.499   1.816
 7788SOL    HW124263   0.794   3.493   1.906
 7788SOL    HW224264   0.900   3.421   1.804
 7789SOL     OW24265   3.523   1.029   6.247
 7789SOL    HW124266   3.555   0.986   6.163
 7789SOL    HW224267   3.601   1.064   6.299
 7790SOL     OW24268   4.199   5.178   4.123
 7790SOL    HW124269   4.254   5.171   4.040
 7790SOL    HW224270   4.102   5.183   4.099
 7791SOL     OW24271   2.875   5.265   1.745
 7791SOL    HW124272   2.819   5.347   1.757
 7791SOL    HW224273   2.828   5.201   1.685
 7792SOL     OW24274   1.023   1.604   2.644
 7792SOL    HW124275   1.021   1.646   2.553
 7792SOL    HW224276   1.117   1.575   2.666
 7793SOL     OW24277   5.218   1.409   0.784
 7793SOL    HW124278   5.174   1.340   0.726
 7793SOL    HW224279   5.316   1.390   0.789
 7794SOL     OW24280   1.638   0.758   3.110
 7794SOL    HW124281   1.692   0.679   3.138
 7794SOL    HW224282   1.679   0.800   3.029
 7795SOL     OW24283   3.943   4.264   1.491
 7795SOL    HW124284   3.936   4.275   1.590
 7795SOL    HW224285   4.039   4.259   1.465
 7796SOL     OW24286   3.502   1.626   0.278
 7796SOL    HW124287   3.554   1.624   0.364
 7796SOL    HW224288   3.547   1.567   0.211
 7797SOL     OW24289   1.214   5.693   2.803
 7797SOL    HW124290   1.284   5.636   2.760
 7797SOL    HW224291   1.123   5.659   2.780
 7798SOL     OW24292   2.197   3.467   0.826
 7798SOL    HW124293   2.182   3.521   0.744
 7798SOL    HW224294   2.158   3.376   0.813
 7799SOL     OW24295   2.783   6.491   4.591
 7799SOL    HW124296   2.826   6.451   4.511
 7799SOL    HW224297   2.715   6.559   4.562
 7800SOL     OW24298   1.709   1.256   2.697
 7800SOL    HW124299   1.777   1.212   2.756
 7800SOL    HW224300   1.737   1.246   2.602
 7801SOL     OW24301   1.637   2.415   0.429
 7801SOL    HW124302   1.599   2.392   0.519
 7801SOL    HW224303   1.566   2.406   0.359
 7802SOL     OW24304   6.348   4.609   3.781
 7802SOL    HW124305   6.273   4.610   3.848
 7802SOL    HW224306   6.324   4.665   3.703
 7803SOL     OW24307   3.247   2.559   5.645
 7803SOL    HW124308   3.178   2.612   5.596
 7803SOL    HW224309   3.338   2.589   5.618
 7804SOL     OW24310   3.084   1.514   5.396
 7804SOL    HW124311   3.145   1.593   5.395
 7804SOL    HW224312   3.005   1.534   5.454
 7805SOL     OW24313   5.654   3.173   6.546
 7805SOL    HW124314   5.615   3.208   6.631
 7805SOL    HW224315   5.634   3.238   6.472
 7806SOL     OW24316   6.156   1.681   5.203
 7806SOL    HW124317   6.088   1.748   5.232
 7806SOL    HW224318   6.247   1.711   5.232
 7807SOL     OW24319   1.712   5.537   5.627
 7807SOL    HW124320   1.794   5.515   5.680
 7807SOL    HW224321   1.639   5.473   5.651
 7808SOL     OW24322   6.471   3.903   3.693
 7808SOL    HW124323   6.452   3.878   3.598
 7808SOL    HW224324   6.565   3.936   3.700
 7809SOL     OW24325   4.723   6.397   2.175
 7809SOL    HW124326   4.661   6.319   2.173
 7809SOL    HW224327   4.783   6.390   2.255
 7810SOL     OW24328   1.531   6.850   5.827
 7810SOL    HW124329   1.545   6.799   5.912
 7810SOL    HW224330   1.599   6.923   5.821
 7811SOL     OW24331   1.429   6.102   3.027
 7811SOL    HW124332   1.337   6.063   3.021
 7811SOL    HW224333   1.479   6.081   2.943
 7812SOL     OW24334   2.884   1.369   5.834
 7812SOL    HW124335   2.785   1.355   5.825
 7812SOL    HW224336   2.908   1.459   5.799
 7813SOL     OW24337   5.715   0.969   0.953
 7813SOL    HW124338   5.751   0.959   0.861
 7813SOL    HW224339   5.615   0.978   0.949
 7814SOL     OW24340   5.847   2.358   2.088
 7814SOL    HW124341   5.927   2.369   2.029
 7814SOL    HW224342   5.764   2.354   2.032
 7815SOL     OW24343   4.735   5.064   3.657
 7815SOL    HW124344   4.750   5.026   3.749
 7815SOL    HW224345   4.813   5.119   3.631
 7816SOL     OW24346   1.222   1.339   5.236
 7816SOL    HW124347   1.258   1.314   5.326
 7816SOL    HW224348   1.240   1.266   5.171
 7817SOL     OW24349   4.688   1.985   6.725
 7817SOL    HW124350   4.628   1.930   6.668
 7817SOL    HW224351   4.632   2.042   6.787
 7818SOL     OW24352   6.167   1.245   3.316
 7818SOL    HW124353   6.081   1.193   3.325
 7818SOL    HW224354   6.148   1.334   3.275
 7819SOL     OW24355   1.488   2.794   5.262
 7819SOL    HW124356   1.391   2.779   5.281
 7819SOL    HW224357   1.497   2.858   5.185
 7820SOL     OW24358   1.296   1.250   5.491
 7820SOL    HW124359   1.269   1.154   5.498
 7820SOL    HW224360   1.385   1.263   5.534
 7821SOL     OW24361   3.942   5.492   6.810
 7821SOL    HW124362   3.907   5.528   6.897
 7821SOL    HW224363   4.042   5.498   6.810
 7822SOL     OW24364   0.585   1.375   4.657
 7822SOL    HW124365   0.673   1.406   4.693
 7822SOL    HW224366   0.514   1.390   4.726
 7823SOL     OW24367   2.873   3.021   5.991
 7823SOL    HW124368   2.871   2.922   6.001
 7823SOL    HW224369   2.950   3.058   6.042
 7824SOL     OW24370   6.240   3.849   3.089
 7824SOL    HW124371   6.211   3.826   3.182
 7824SOL    HW224372   6.184   3.799   3.023
 7825SOL     OW24373   4.149   3.449   2.864
 7825SOL    HW124374   4.156   3.524   2.798
 7825SOL    HW224375   4.173   3.363   2.819
 7826SOL     OW24376   6.472   0.035   0.959
 7826SOL    HW124377   6.509   0.072   0.873
 7826SOL    HW224378   6.483   0.103   1.031
 7827SOL     OW24379   4.097   3.738   0.324
 7827SOL    HW124380   4.106   3.652   0.374
 7827SOL    HW224381   4.120   3.723   0.228
 7828SOL     OW24382   1.192   6.609   1.191
 7828SOL    HW124383   1.255   6.609   1.269
 7828SOL    HW224384   1.186   6.517   1.153
 7829SOL     OW24385   3.638   3.813   3.101
 7829SOL    HW124386   3.552   3.763   3.114
 7829SOL    HW224387   3.622   3.911   3.112
 7830SOL     OW24388   6.571   4.025   0.496
 7830SOL    HW124389   6.568   3.934   0.456
 7830SOL    HW224390   6.520   4.026   0.582
 7831SOL     OW24391   2.010   2.750   0.379
 7831SOL    HW124392   1.953   2.670   0.400
 7831SOL    HW224393   1.958   2.834   0.394
 7832SOL     OW24394   3.457   2.372   6.018
 7832SOL    HW124395   3.502   2.386   6.106
 7832SOL    HW224396   3.422   2.459   5.984
 7833SOL     OW24397   6.590   6.353   1.692
 7833SOL    HW124398   6.562   6.285   1.624
 7833SOL    HW224399   6.509   6.403   1.725
 7834SOL     OW24400   5.908   0.793   1.039
 7834SOL    HW124401   5.907   0.781   1.139
 7834SOL    HW224402   5.835   0.856   1.012
 7835SOL     OW24403   1.963   1.962   4.207
 7835SOL    HW124404   1.923   1.920   4.288
 7835SOL    HW224405   2.060   1.939   4.203
 7836SOL     OW24406   1.957   0.670   0.431
 7836SOL    HW124407   1.866   0.633   0.450
 7836SOL    HW224408   2.025   0.599   0.448
 7837SOL     OW24409   5.510   5.788   2.502
 7837SOL    HW124410   5.546   5.880   2.485
 7837SOL    HW224411   5.410   5.790   2.501
 7838SOL     OW24412   4.289   6.278   4.069
 7838SOL    HW124413   4.359   6.216   4.104
 7838SOL    HW224414   4.226   6.228   4.010
 7839SOL     OW24415   0.200   4.730   3.615
 7839SOL    HW124416   0.165   4.744   3.708
 7839SOL    HW224417   0.124   4.701   3.556
 7840SOL     OW24418   5.355   3.653   6.126
 7840SOL    HW124419   5.384   3.591   6.052
 7840SOL    HW224420   5.265   3.624   6.159
 7841SOL     OW24421   1.041   2.077   6.443
 7841SOL    HW124422   1.087   2.049   6.527
 7841SOL    HW224423   1.110   2.095   6.372
 7842SOL     OW24424   2.784   0.097   2.654
 7842SOL    HW124425   2.857   0.034   2.624
 7842SOL    HW224426   2.748   0.066   2.742
 7843SOL     OW24427   0.372   3.004   2.137
 7843SOL    HW124428   0.279   2.982   2.108
 7843SOL    HW224429   0.400   2.940   2.209
 7844SOL     OW24430   3.828   2.108   3.555
 7844SOL    HW124431   3.757   2.118   3.624
 7844SOL    HW224432   3.879   2.023   3.571
 7845SOL     OW24433   1.099   1.046   3.995
 7845SOL    HW124434   1.151   1.023   3.912
 7845SOL    HW224435   1.026   1.109   3.972
 7846SOL     OW24436   4.602   6.720   2.465
 7846SOL    HW124437   4.628   6.706   2.561
 7846SOL    HW224438   4.615   6.817   2.442
 7847SOL     OW24439   0.361   0.045   0.124
 7847SOL    HW124440   0.411   6.992   0.078
 7847SOL    HW224441   0.399   0.133   0.096
 7848SOL     OW24442   3.738   4.032   1.537
 7848SOL    HW124443   3.784   3.947   1.564
 7848SOL    HW224444   3.641   4.015   1.524
 7849SOL     OW24445   5.299   4.241   5.033
 7849SOL    HW124446   5.318   4.143   5.030
 7849SOL    HW224447   5.336   4.285   4.950
 7850SOL     OW24448   0.766   2.772   4.594
 7850SOL    HW124449   0.812   2.725   4.518
 7850SOL    HW224450   0.835   2.802   4.661
 7851SOL     OW24451   3.864   6.476   1.295
 7851SOL    HW124452   3.885   6.514   1.204
 7851SOL    HW224453   3.789   6.411   1.287
 7852SOL     OW24454   2.448   6.861   0.065
 7852SOL    HW124455   2.348   6.867   0.062
 7852SOL    HW224456   2.483   6.921   0.137
 7853SOL     OW24457   2.301   2.746   0.147
 7853SOL    HW124458   2.299   2.767   0.244
 7853SOL    HW224459   2.395   2.735   0.116
 7854SOL     OW24460   3.317   4.143   3.533
 7854SOL    HW124461   3.238   4.082   3.521
 7854SOL    HW224462   3.302   4.200   3.614
 7855SOL     OW24463   3.338   6.928   5.142
 7855SOL    HW124464   3.290   6.949   5.057
 7855SOL    HW224465   3.434   6.909   5.122
 7856SOL     OW24466   3.158   3.626   6.829
 7856SOL    HW124467   3.098   3.619   6.908
 7856SOL    HW224468   3.149   3.716   6.787
 7857SOL     OW24469   0.362   2.975   5.774
 7857SOL    HW124470   0.345   2.979   5.675
 7857SOL    HW224471   0.277   2.953   5.821
 7858SOL     OW24472   5.925   3.443   3.000
 7858SOL    HW124473   6.014   3.455   2.956
 7858SOL    HW224474   5.935   3.381   3.078
 7859SOL     OW24475   0.668   6.410   0.402
 7859SOL    HW124476   0.751   6.378   0.356
 7859SOL    HW224477   0.600   6.437   0.334
 7860SOL     OW24478   3.904   6.657   1.737
 7860SOL    HW124479   3.817   6.707   1.736
 7860SOL    HW224480   3.975   6.714   1.780
 7861SOL     OW24481   5.104   3.710   0.590
 7861SOL    HW124482   5.061   3.692   0.678
 7861SOL    HW224483   5.201   3.688   0.595
 7862SOL     OW24484   3.151   4.562   1.670
 7862SOL    HW124485   3.131   4.494   1.741
 7862SOL    HW224486   3.229   4.532   1.615
 7863SOL     OW24487   5.112   5.814   2.909
 7863SOL    HW124488   5.094   5.902   2.865
 7863SOL    HW224489   5.038   5.792   2.972
 7864SOL     OW24490   1.037   5.762   4.978
 7864SOL    HW124491   1.079   5.671   4.980
 7864SOL    HW224492   0.961   5.765   5.042
 7865SOL     OW24493   4.425   0.772   3.416
 7865SOL    HW124494   4.358   0.822   3.362
 7865SOL    HW224495   4.417   0.798   3.512
 7866SOL     OW24496   2.524   2.150   5.354
 7866SOL    HW124497   2.594   2.217   5.377
 7866SOL    HW224498   2.448   2.195   5.308
 7867SOL     OW24499   5.950   3.608   1.338
 7867SOL    HW124500   6.042   3.569   1.345
 7867SOL    HW224501   5.933   3.636   1.243
 7868SOL     OW24502   4.749   0.463   0.450
 7868SOL    HW124503   4.656   0.437   0.476
 7868SOL    HW224504   4.749   0.552   0.406
 7869SOL     OW24505   6.171   1.687   4.277
 7869SOL    HW124506   6.193   1.604   4.226
 7869SOL    HW224507   6.243   1.705   4.344
 7870SOL     OW24508   6.967   0.096   2.870
 7870SOL    HW124509   6.892   0.086   2.804
 7870SOL    HW224510   7.005   0.188   2.863
 7871SOL     OW24511   6.101   3.116   4.213
 7871SOL    HW124512   6.130   3.136   4.307
 7871SOL    HW224513   6.059   3.198   4.173
 7872SOL     OW24514   0.176   4.159   4.605
 7872SOL    HW124515   0.176   4.084   4.671
 7872SOL    HW224516   0.130   4.129   4.521
 7873SOL     OW24517   6.799   5.875   5.031
 7873SOL    HW124518   6.790   5.948   5.099
 7873SOL    HW224519   6.826   5.790   5.076
 7874SOL     OW24520   6.296   0.455   0.731
 7874SOL    HW124521   6.206   0.415   0.753
 7874SOL    HW224522   6.365   0.416   0.791
 7875SOL     OW24523   4.620   3.481   0.296
 7875SOL    HW124524   4.528   3.461   0.263
 7875SOL    HW224525   4.629   3.451   0.391
 7876SOL     OW24526   0.068   1.372   4.959
 7876SOL    HW124527   7.013   1.307   4.956
 7876SOL    HW224528   0.116   1.363   5.046
 7877SOL     OW24529   5.915   2.959   2.794
 7877SOL    HW124530   5.963   2.892   2.737
 7877SOL    HW224531   5.979   2.996   2.862
 7878SOL     OW24532   3.890   3.778   1.614
 7878SOL    HW124533   3.836   3.707   1.569
 7878SOL    HW224534   3.985   3.772   1.584
 7879SOL     OW24535   6.550   1.201   4.762
 7879SOL    HW124536   6.458   1.239   4.774
 7879SOL    HW224537   6.576   1.207   4.666
 7880SOL     OW24538   1.829   6.358   6.445
 7880SOL    HW124539   1.826   6.260   6.462
 7880SOL    HW224540   1.737   6.391   6.425
 7881SOL     OW24541   1.027   5.650   4.350
 7881SOL    HW124542   1.110   5.608   4.386
 7881SOL    HW224543   1.031   5.749   4.363
 7882SOL     OW24544   1.425   4.953   1.789
 7882SOL    HW124545   1.389   5.013   1.860
 7882SOL    HW224546   1.460   5.008   1.713
 7883SOL     OW24547   3.406   1.407   2.799
 7883SOL    HW124548   3.490   1.459   2.814
 7883SOL    HW224549   3.340   1.464   2.749
 7884SOL     OW24550   0.425   3.150   4.257
 7884SOL    HW124551   0.366   3.173   4.179
 7884SOL    HW224552   0.368   3.125   4.335
 7885SOL     OW24553   6.267   5.363   2.586
 7885SOL    HW124554   6.264   5.455   2.547
 7885SOL    HW224555   6.317   5.302   2.524
 7886SOL     OW24556   4.733   4.081   2.812
 7886SOL    HW124557   4.739   4.074   2.912
 7886SOL    HW224558   4.722   4.177   2.786
 7887SOL     OW24559   0.838   3.050   0.999
 7887SOL    HW124560   0.915   2.987   0.998
 7887SOL    HW224561   0.760   3.008   0.952
 7888SOL     OW24562   6.313   1.283   4.902
 7888SOL    HW124563   6.302   1.255   4.997
 7888SOL    HW224564   6.313   1.383   4.897
 7889SOL     OW24565   5.475   4.808   0.806
 7889SOL    HW124566   5.442   4.805   0.901
 7889SOL    HW224567   5.572   4.830   0.805
 7890SOL     OW24568   2.243   2.753   3.250
 7890SOL    HW124569   2.191   2.812   3.312
 7890SOL    HW224570   2.324   2.719   3.296
 7891SOL     OW24571   6.297   1.316   4.540
 7891SOL    HW124572   6.346   1.387   4.591
 7891SOL    HW224573   6.353   1.286   4.463
 7892SOL     OW24574   1.221   1.547   5.073
 7892SOL    HW124575   1.214   1.464   5.130
 7892SOL    HW224576   1.314   1.582   5.075
 7893SOL     OW24577   6.128   6.681   1.035
 7893SOL    HW124578   6.221   6.658   1.062
 7893SOL    HW224579   6.086   6.602   0.989
 7894SOL     OW24580   3.234   0.959   0.030
 7894SOL    HW124581   3.144   0.973   7.009
 7894SOL    HW224582   3.231   0.881   0.092
 7895SOL     OW24583   6.497   6.570   2.668
 7895SOL    HW124584   6.472   6.617   2.753
 7895SOL    HW224585   6.541   6.483   2.690
 7896SOL     OW24586   2.517   1.317   0.326
 7896SOL    HW124587   2.484   1.401   0.284
 7896SOL    HW224588   2.614   1.304   0.302
 7897SOL     OW24589   4.238   1.678   0.757
 7897SOL    HW124590   4.209   1.728   0.676
 7897SOL    HW224591   4.315   1.725   0.800
 7898SOL     OW24592   5.162   6.839   3.460
 7898SOL    HW124593   5.171   6.938   3.461
 7898SOL    HW224594   5.240   6.798   3.508
 7899SOL     OW24595   6.083   4.281   3.596
 7899SOL    HW124596   6.034   4.258   3.680
 7899SOL    HW224597   6.181   4.261   3.608
 7900SOL     OW24598   0.533   3.575   0.234
 7900SOL    HW124599   0.493   3.648   0.177
 7900SOL    HW224600   0.459   3.524   0.279
 7901SOL     OW24601   0.647   2.352   0.125
 7901SOL    HW124602   0.588   2.299   0.065
 7901SOL    HW224603   0.598   2.374   0.209
 7902SOL     OW24604   1.758   6.492   1.483
 7902SOL    HW124605   1.699   6.494   1.564
 7902SOL    HW224606   1.852   6.514   1.510
 7903SOL     OW24607   3.082   2.158   5.549
 7903SOL    HW124608   3.139   2.076   5.562
 7903SOL    HW224609   3.084   2.214   5.632
 7904SOL     OW24610   4.540   2.558   2.627
 7904SOL    HW124611   4.624   2.516   2.661
 7904SOL    HW224612   4.552   2.657   2.624
 7905SOL     OW24613   6.217   2.193   1.022
 7905SOL    HW124614   6.163   2.186   1.106
 7905SOL    HW224615   6.172   2.256   0.959
 7906SOL     OW24616   0.879   5.563   6.841
 7906SOL    HW124617   0.879   5.551   6.940
 7906SOL    HW224618   0.957   5.620   6.815
 7907SOL     OW24619   6.137   6.411   3.019
 7907SOL    HW124620   6.084   6.326   3.016
 7907SOL    HW224621   6.083   6.486   2.981
 7908SOL     OW24622   1.712   7.002   6.510
 7908SOL    HW124623   1.648   0.058   6.504
 7908SOL    HW224624   1.759   6.991   6.423
 7909SOL     OW24625   6.395   3.538   1.105
 7909SOL    HW124626   6.434   3.447   1.093
 7909SOL    HW224627   6.444   3.587   1.176
 7910SOL     OW24628   1.488   4.243   5.523
 7910SOL    HW124629   1.579   4.207   5.502
 7910SOL    HW224630   1.444   4.183   5.590
 7911SOL     OW24631   5.547   4.776   5.711
 7911SOL    HW124632   5.511   4.765   5.804
 7911SOL    HW224633   5.646   4.761   5.712
 7912SOL     OW24634   5.603   5.743   0.554
 7912SOL    HW124635   5.528   5.809   0.552
 7912SOL    HW224636   5.675   5.777   0.616
 7913SOL     OW24637   1.570   5.154   6.624
 7913SOL    HW124638   1.570   5.158   6.724
 7913SOL    HW224639   1.642   5.093   6.594
 7914SOL     OW24640   1.116   6.961   4.686
 7914SOL    HW124641   1.091   6.865   4.679
 7914SOL    HW224642   1.034   7.017   4.697
 7915SOL     OW24643   2.640   4.918   2.456
 7915SOL    HW124644   2.638   4.825   2.419
 7915SOL    HW224645   2.641   4.984   2.380
 7916SOL     OW24646   1.343   0.228   3.881
 7916SOL    HW124647   1.319   0.318   3.845
 7916SOL    HW224648   1.394   0.238   3.967
 7917SOL     OW24649   5.042   2.136   1.783
 7917SOL    HW124650   4.967   2.199   1.806
 7917SOL    HW224651   5.017   2.083   1.701
 7918SOL     OW24652   2.252   2.772   2.992
 7918SOL    HW124653   2.280   2.767   3.088
 7918SOL    HW224654   2.210   2.861   2.975
 7919SOL     OW24655   1.153   6.588   4.655
 7919SOL    HW124656   1.247   6.557   4.637
 7919SOL    HW224657   1.124   6.649   4.581
 7920SOL     OW24658   4.352   0.496   1.361
 7920SOL    HW124659   4.413   0.453   1.294
 7920SOL    HW224660   4.335   0.433   1.436
 7921SOL     OW24661   5.484   2.357   1.049
 7921SOL    HW124662   5.512   2.373   0.955
 7921SOL    HW224663   5.472   2.258   1.063
 7922SOL     OW24664   2.978   0.279   2.494
 7922SOL    HW124665   2.928   0.221   2.558
 7922SOL    HW224666   2.950   0.258   2.401
 7923SOL     OW24667   4.033   1.047   0.090
 7923SOL    HW124668   3.942   1.023   0.125
 7923SOL    HW224669   4.081   0.963   0.065
 7924SOL     OW24670   5.589   5.815   0.202
 7924SOL    HW124671   5.621   5.725   0.232
 7924SOL    HW224672   5.507   5.841   0.253
 7925SOL     OW24673   1.068   5.342   6.458
 7925SOL    HW124674   1.130   5.363   6.533
 7925SOL    HW224675   1.085   5.249   6.425
 7926SOL     OW24676   5.308   5.930   5.874
 7926SOL    HW124677   5.383   5.864   5.868
 7926SOL    HW224678   5.319   5.985   5.957
 7927SOL     OW24679   4.163   6.995   3.292
 7927SOL    HW124680   4.225   0.030   3.236
 7927SOL    HW224681   4.105   6.940   3.232
 7928SOL     OW24682   5.733   1.777   3.482
 7928SOL    HW124683   5.658   1.830   3.522
 7928SOL    HW224684   5.785   1.732   3.555
 7929SOL     OW24685   4.876   4.365   5.829
 7929SOL    HW124686   4.797   4.426   5.817
 7929SOL    HW224687   4.865   4.284   5.772
 7930SOL     OW24688   4.096   6.383   6.328
 7930SOL    HW124689   4.156   6.451   6.287
 7930SOL    HW224690   4.142   6.339   6.405
 7931SOL     OW24691   4.523   1.331   1.114
 7931SOL    HW124692   4.505   1.390   1.193
 7931SOL    HW224693   4.457   1.350   1.042
 7932SOL     OW24694   1.074   3.885   1.604
 7932SOL    HW124695   1.141   3.942   1.557
 7932SOL    HW224696   1.088   3.789   1.579
 7933SOL     OW24697   1.138   1.810   6.863
 7933SOL    HW124698   1.207   1.872   6.825
 7933SOL    HW224699   1.053   1.861   6.878
 7934SOL     OW24700   0.317   5.243   0.939
 7934SOL    HW124701   0.346   5.176   1.008
 7934SOL    HW224702   0.396   5.296   0.909
 7935SOL     OW24703   6.509   3.057   3.144
 7935SOL    HW124704   6.474   2.988   3.080
 7935SOL    HW224705   6.480   3.148   3.114
 7936SOL     OW24706   2.206   5.711   3.438
 7936SOL    HW124707   2.279   5.729   3.504
 7936SOL    HW224708   2.133   5.777   3.450
 7937SOL     OW24709   4.291   0.988   1.169
 7937SOL    HW124710   4.312   0.892   1.149
 7937SOL    HW224711   4.238   1.027   1.093
 7938SOL     OW24712   2.558   0.341   3.084
 7938SOL    HW124713   2.537   0.362   3.179
 7938SOL    HW224714   2.611   0.257   3.079
 7939SOL     OW24715   1.029   0.604   2.876
 7939SOL    HW124716   1.111   0.592   2.819
 7939SOL    HW224717   1.012   0.701   2.891
 7940SOL     OW24718   5.653   1.621   4.647
 7940SOL    HW124719   5.648   1.521   4.649
 7940SOL    HW224720   5.736   1.652   4.693
 7941SOL     OW24721   3.373   6.823   1.002
 7941SOL    HW124722   3.304   6.858   0.939
 7941SOL    HW224723   3.342   6.835   1.097
 7942SOL     OW24724   1.371   4.131   0.685
 7942SOL    HW124725   1.464   4.140   0.721
 7942SOL    HW224726   1.356   4.036   0.657
 7943SOL     OW24727   1.552   6.429   6.428
 7943SOL    HW124728   1.540   6.525   6.453
 7943SOL    HW224729   1.465   6.380   6.439
 7944SOL     OW24730   1.220   2.079   1.241
 7944SOL    HW124731   1.299   2.113   1.293
 7944SOL    HW224732   1.221   2.119   1.150
 7945SOL     OW24733   6.175   3.622   2.679
 7945SOL    HW124734   6.194   3.553   2.609
 7945SOL    HW224735   6.089   3.601   2.724
 7946SOL     OW24736   4.603   2.455   6.589
 7946SOL    HW124737   4.520   2.400   6.593
 7946SOL    HW224738   4.601   2.512   6.507
 7947SOL     OW24739   0.065   3.708   6.085
 7947SOL    HW124740   0.062   3.661   5.997
 7947SOL    HW224741   0.003   3.787   6.083
 7948SOL     OW24742   1.061   5.858   1.262
 7948SOL    HW124743   1.119   5.844   1.342
 7948SOL    HW224744   1.043   5.956   1.251
 7949SOL     OW24745   2.345   5.562   5.809
 7949SOL    HW124746   2.408   5.529   5.880
 7949SOL    HW224747   2.289   5.486   5.778
 7950SOL     OW24748   6.479   4.530   5.756
 7950SOL    HW124749   6.526   4.562   5.839
 7950SOL    HW224750   6.536   4.547   5.676
 7951SOL     OW24751   3.971   6.908   3.105
 7951SOL    HW124752   3.891   6.967   3.099
 7951SOL    HW224753   3.984   6.860   3.019
 7952SOL     OW24754   0.002   4.295   4.835
 7952SOL    HW124755   0.101   4.280   4.837
 7952SOL    HW224756   6.989   4.278   4.742
 7953SOL     OW24757   1.593   0.149   0.071
 7953SOL    HW124758   1.573   0.058   0.109
 7953SOL    HW224759   1.690   0.154   0.046
 7954SOL     OW24760   3.736   3.473   6.994
 7954SOL    HW124761   3.681   3.553   7.016
 7954SOL    HW224762   3.745   3.465   6.894
 7955SOL     OW24763   0.806   1.430   6.253
 7955SOL    HW124764   0.834   1.465   6.343
 7955SOL    HW224765   0.798   1.506   6.189
 7956SOL     OW24766   0.491   6.724   0.437
 7956SOL    HW124767   0.392   6.716   0.444
 7956SOL    HW224768   0.523   6.670   0.359
 7957SOL     OW24769   5.335   1.619   5.738
 7957SOL    HW124770   5.387   1.689   5.689
 7957SOL    HW224771   5.242   1.616   5.701
 7958SOL     OW24772   3.901   2.546   6.837
 7958SOL    HW124773   3.971   2.502   6.782
 7958SOL    HW224774   3.851   2.612   6.781
 7959SOL     OW24775   5.459   2.636   0.231
 7959SOL    HW124776   5.479   2.734   0.235
 7959SOL    HW224777   5.431   2.612   0.138
 7960SOL     OW24778   0.787   1.733   4.883
 7960SOL    HW124779   0.714   1.734   4.814
 7960SOL    HW224780   0.770   1.804   4.951
 7961SOL     OW24781   5.826   0.349   0.679
 7961SOL    HW124782   5.866   0.372   0.590
 7961SOL    HW224783   5.893   0.296   0.732
 7962SOL     OW24784   5.983   6.950   5.174
 7962SOL    HW124785   5.895   6.921   5.136
 7962SOL    HW224786   5.987   0.029   5.175
 7963SOL     OW24787   5.851   6.458   3.505
 7963SOL    HW124788   5.879   6.369   3.467
 7963SOL    HW224789   5.908   6.479   3.584
 7964SOL     OW24790   6.171   3.452   1.241
 7964SOL    HW124791   6.201   3.455   1.336
 7964SOL    HW224792   6.238   3.498   1.183
 7965SOL     OW24793   5.215   2.063   6.266
 7965SOL    HW124794   5.157   2.129   6.218
 7965SOL    HW224795   5.176   1.972   6.256
 7966SOL     OW24796   5.603   3.724   4.927
 7966SOL    HW124797   5.506   3.727   4.952
 7966SOL    HW224798   5.647   3.809   4.954
 7967SOL     OW24799   1.322   4.588   0.138
 7967SOL    HW124800   1.383   4.580   0.059
 7967SOL    HW224801   1.227   4.584   0.106
 7968SOL     OW24802   1.932   2.455   3.732
 7968SOL    HW124803   2.031   2.456   3.719
 7968SOL    HW224804   1.910   2.477   3.827
 7969SOL     OW24805   3.267   4.225   6.810
 7969SOL    HW124806   3.290   4.162   6.736
 7969SOL    HW224807   3.214   4.301   6.774
 7970SOL     OW24808   5.742   2.622   4.351
 7970SOL    HW124809   5.744   2.523   4.363
 7970SOL    HW224810   5.781   2.645   4.262
 7971SOL     OW24811   2.902   1.037   6.726
 7971SOL    HW124812   2.808   1.005   6.731
 7971SOL    HW224813   2.960   0.981   6.785
 7972SOL     OW24814   3.488   3.994   4.575
 7972SOL    HW124815   3.541   4.036   4.648
 7972SOL    HW224816   3.545   3.986   4.493
 7973SOL     OW24817   6.146   5.001   1.975
 7973SOL    HW124818   6.089   5.083   1.977
 7973SOL    HW224819   6.242   5.026   1.993
 7974SOL     OW24820   0.834   3.237   4.536
 7974SOL    HW124821   0.891   3.183   4.598
 7974SOL    HW224822   0.769   3.177   4.489
 7975SOL     OW24823   4.788   0.678   0.147
 7975SOL    HW124824   4.848   0.706   0.222
 7975SOL    HW224825   4.806   0.582   0.123
 7976SOL     OW24826   0.721   0.376   0.402
 7976SOL    HW124827   0.621   0.379   0.405
 7976SOL    HW224828   0.751   0.342   0.313
 7977SOL     OW24829   5.573   5.528   3.237
 7977SOL    HW124830   5.509   5.452   3.248
 7977SOL    HW224831   5.522   5.611   3.215
 7978SOL     OW24832   0.311   3.586   1.247
 7978SOL    HW124833   0.276   3.676   1.270
 7978SOL    HW224834   0.389   3.564   1.305
 7979SOL     OW24835   2.718   2.355   5.325
 7979SOL    HW124836   2.815   2.333   5.320
 7979SOL    HW224837   2.706   2.455   5.325
 7980SOL     OW24838   3.782   5.307   1.714
 7980SOL    HW124839   3.771   5.264   1.804
 7980SOL    HW224840   3.789   5.236   1.644
 7981SOL     OW24841   1.878   3.600   4.197
 7981SOL    HW124842   1.797   3.541   4.193
 7981SOL    HW224843   1.907   3.610   4.292
 7982SOL     OW24844   6.850   1.084   6.024
 7982SOL    HW124845   6.914   1.052   6.094
 7982SOL    HW224846   6.870   1.180   6.004
 7983SOL     OW24847   3.546   0.894   1.708
 7983SOL    HW124848   3.598   0.975   1.680
 7983SOL    HW224849   3.536   0.833   1.630
 7984SOL     OW24850   6.391   2.789   2.738
 7984SOL    HW124851   6.406   2.690   2.732
 7984SOL    HW224852   6.316   2.815   2.677
 7985SOL     OW24853   3.087   3.010   5.393
 7985SOL    HW124854   3.138   2.933   5.431
 7985SOL    HW224855   2.997   2.978   5.362
 7986SOL     OW24856   4.171   0.857   4.039
 7986SOL    HW124857   4.104   0.893   3.975
 7986SOL    HW224858   4.258   0.843   3.992
 7987SOL     OW24859   0.939   3.210   6.335
 7987SOL    HW124860   0.891   3.148   6.398
 7987SOL    HW224861   1.005   3.264   6.386
 7988SOL     OW24862   6.640   0.525   1.091
 7988SOL    HW124863   6.722   0.477   1.059
 7988SOL    HW224864   6.650   0.623   1.075
 7989SOL     OW24865   0.571   4.659   1.161
 7989SOL    HW124866   0.589   4.564   1.135
 7989SOL    HW224867   0.492   4.663   1.221
 7990SOL     OW24868   5.122   5.058   4.664
 7990SOL    HW124869   5.203   5.068   4.721
 7990SOL    HW224870   5.059   5.134   4.681
 7991SOL     OW24871   5.632   0.962   4.506
 7991SOL    HW124872   5.535   0.986   4.499
 7991SOL    HW224873   5.649   0.919   4.595
 7992SOL     OW24874   1.828   0.182   6.964
 7992SOL    HW124875   1.894   0.244   6.921
 7992SOL    HW224876   1.774   0.136   6.894
 7993SOL     OW24877   5.962   5.807   0.565
 7993SOL    HW124878   5.999   5.825   0.656
 7993SOL    HW224879   5.938   5.710   0.557
 7994SOL     OW24880   6.795   0.612   4.592
 7994SOL    HW124881   6.706   0.629   4.633
 7994SOL    HW224882   6.855   0.569   4.659
 7995SOL     OW24883   0.218   5.829   1.426
 7995SOL    HW124884   0.132   5.881   1.426
 7995SOL    HW224885   0.295   5.892   1.427
 7996SOL     OW24886   2.311   6.725   3.170
 7996SOL    HW124887   2.254   6.658   3.218
 7996SOL    HW224888   2.266   6.753   3.086
 7997SOL     OW24889   2.536   2.000   5.705
 7997SOL    HW124890   2.445   1.963   5.684
 7997SOL    HW224891   2.599   1.979   5.631
 7998SOL     OW24892   2.272   1.034   1.061
 7998SOL    HW124893   2.226   1.017   1.148
 7998SOL    HW224894   2.285   0.948   1.013
 7999SOL     OW24895   0.783   7.014   3.568
 7999SOL    HW124896   0.824   0.071   3.618
 7999SOL    HW224897   0.738   6.954   3.634
 8000SOL     OW24898   4.338   5.919   0.670
 8000SOL    HW124899   4.427   5.894   0.632
 8000SOL    HW224900   4.329   6.018   0.671
 8001SOL     OW24901   4.759   4.323   1.576
 8001SOL    HW124902   4.732   4.373   1.659
 8001SOL    HW224903   4.680   4.316   1.514
 8002SOL     OW24904   1.168   0.303   4.553
 8002SOL    HW124905   1.105   0.232   4.520
 8002SOL    HW224906   1.199   0.280   4.645
 8003SOL     OW24907   2.708   5.797   3.031
 8003SOL    HW124908   2.620   5.816   3.075
 8003SOL    HW224909   2.777   5.778   3.102
 8004SOL     OW24910   1.715   3.811   4.051
 8004SOL    HW124911   1.795   3.870   4.059
 8004SOL    HW224912   1.650   3.832   4.123
 8005SOL     OW24913   2.340   0.351   3.726
 8005SOL    HW124914   2.328   0.364   3.824
 8005SOL    HW224915   2.300   0.263   3.699
 8006SOL     OW24916   4.875   5.449   5.956
 8006SOL    HW124917   4.783   5.413   5.968
 8006SOL    HW224918   4.873   5.549   5.968
 8007SOL     OW24919   0.361   0.852   1.168
 8007SOL    HW124920   0.357   0.950   1.188
 8007SOL    HW224921   0.289   0.806   1.220
 8008SOL     OW24922   4.458   5.374   0.458
 8008SOL    HW124923   4.471   5.439   0.533
 8008SOL    HW224924   4.375   5.321   0.473
 8009SOL     OW24925   6.618   1.240   0.511
 8009SOL    HW124926   6.585   1.309   0.575
 8009SOL    HW224927   6.701   1.273   0.466
 8010SOL     OW24928   3.507   0.922   5.990
 8010SOL    HW124929   3.413   0.896   6.013
 8010SOL    HW224930   3.519   0.919   5.891
 8011SOL     OW24931   4.024   1.877   2.651
 8011SOL    HW124932   4.007   1.966   2.693
 8011SOL    HW224933   4.117   1.875   2.614
 8012SOL     OW24934   6.764   0.923   4.415
 8012SOL    HW124935   6.780   1.002   4.356
 8012SOL    HW224936   6.783   0.839   4.364
 8013SOL     OW24937   3.757   0.712   3.069
 8013SOL    HW124938   3.802   0.674   2.988
 8013SOL    HW224939   3.727   0.805   3.050
 8014SOL     OW24940   2.623   2.456   2.923
 8014SOL    HW124941   2.608   2.402   2.840
 8014SOL    HW224942   2.721   2.462   2.941
 8015SOL     OW24943   3.524   0.259   4.449
 8015SOL    HW124944   3.593   0.295   4.386
 8015SOL    HW224945   3.489   0.172   4.414
 8016SOL     OW24946   3.508   2.445   5.442
 8016SOL    HW124947   3.421   2.400   5.424
 8016SOL    HW224948   3.552   2.402   5.521
 8017SOL     OW24949   6.150   5.694   1.535
 8017SOL    HW124950   6.075   5.628   1.528
 8017SOL    HW224951   6.207   5.690   1.452
 8018SOL     OW24952   3.208   3.766   0.727
 8018SOL    HW124953   3.175   3.754   0.821
 8018SOL    HW224954   3.207   3.864   0.704
 8019SOL     OW24955   2.795   3.416   0.199
 8019SOL    HW124956   2.805   3.329   0.151
 8019SOL    HW224957   2.854   3.417   0.279
 8020SOL     OW24958   0.032   0.260   6.625
 8020SOL    HW124959   6.974   0.265   6.564
 8020SOL    HW224960   0.055   0.164   6.642
 8021SOL     OW24961   1.067   3.243   0.410
 8021SOL    HW124962   1.107   3.321   0.362
 8021SOL    HW224963   1.123   3.162   0.394
 8022SOL     OW24964   4.285   6.993   2.347
 8022SOL    HW124965   4.359   0.036   2.369
 8022SOL    HW224966   4.201   0.003   2.394
 8023SOL     OW24967   4.111   5.612   2.456
 8023SOL    HW124968   4.108   5.706   2.491
 8023SOL    HW224969   4.085   5.549   2.528
 8024SOL     OW24970   2.650   0.751   0.159
 8024SOL    HW124971   2.562   0.728   0.116
 8024SOL    HW224972   2.642   0.742   0.258
 8025SOL     OW24973   0.880   6.651   1.634
 8025SOL    HW124974   0.945   6.591   1.587
 8025SOL    HW224975   0.928   6.705   1.703
 8026SOL     OW24976   1.135   6.544   6.258
 8026SOL    HW124977   1.162   6.601   6.180
 8026SOL    HW224978   1.093   6.602   6.328
 8027SOL     OW24979   3.558   0.904   6.622
 8027SOL    HW124980   3.549   1.002   6.604
 8027SOL    HW224981   3.487   0.876   6.686
 8028SOL     OW24982   3.374   6.058   6.313
 8028SOL    HW124983   3.456   6.114   6.303
 8028SOL    HW224984   3.316   6.070   6.233
 8029SOL     OW24985   0.977   0.579   1.829
 8029SOL    HW124986   1.047   0.599   1.897
 8029SOL    HW224987   0.931   0.664   1.802
 8030SOL     OW24988   0.870   4.405   0.966
 8030SOL    HW124989   0.773   4.382   0.962
 8030SOL    HW224990   0.896   4.452   0.882
 8031SOL     OW24991   6.297   0.596   1.904
 8031SOL    HW124992   6.278   0.512   1.852
 8031SOL    HW224993   6.385   0.588   1.949
 8032SOL     OW24994   0.293   2.529   0.357
 8032SOL    HW124995   0.306   2.556   0.262
 8032SOL    HW224996   0.202   2.488   0.368
 8033SOL     OW24997   3.879   4.154   1.744
 8033SOL    HW124998   3.841   4.109   1.663
 8033SOL    HW224999   3.821   4.134   1.823
 8034SOL     OW25000   0.605   6.921   5.655
 8034SOL    HW125001   0.605   6.944   5.752
 8034SOL    HW225002   0.689   6.871   5.632
 8035SOL     OW25003   6.236   6.865   4.131
 8035SOL    HW125004   6.180   6.855   4.048
 8035SOL    HW225005   6.213   6.951   4.177
 8036SOL     OW25006   5.222   3.236   3.952
 8036SOL    HW125007   5.122   3.248   3.955
 8036SOL    HW225008   5.261   3.270   4.038
 8037SOL     OW25009   2.968   1.037   5.986
 8037SOL    HW125010   2.936   1.014   6.077
 8037SOL    HW225011   2.895   1.019   5.920
 8038SOL     OW25012   6.546   5.463   2.168
 8038SOL    HW125013   6.462   5.517   2.171
 8038SOL    HW225014   6.614   5.511   2.112
 8039SOL     OW25015   2.269   2.369   5.159
 8039SOL    HW125016   2.207   2.434   5.203
 8039SOL    HW225017   2.342   2.419   5.113
 8040SOL     OW25018   0.655   6.188   6.293
 8040SOL    HW125019   0.673   6.090   6.292
 8040SOL    HW225020   0.661   6.222   6.387
 8041SOL     OW25021   3.299   1.471   3.327
 8041SOL    HW125022   3.384   1.508   3.290
 8041SOL    HW225023   3.241   1.547   3.359
 8042SOL     OW25024   3.574   3.999   6.090
 8042SOL    HW125025   3.639   3.943   6.141
 8042SOL    HW225026   3.507   4.037   6.154
 8043SOL     OW25027   4.911   5.484   0.474
 8043SOL    HW125028   4.847   5.480   0.398
 8043SOL    HW225029   4.925   5.391   0.511
 8044SOL     OW25030   1.627   3.013   1.310
 8044SOL    HW125031   1.561   3.087   1.296
 8044SOL    HW225032   1.623   2.982   1.405
 8045SOL     OW25033   6.205   3.527   4.437
 8045SOL    HW125034   6.258   3.607   4.409
 8045SOL    HW225035   6.266   3.461   4.481
 8046SOL     OW25036   0.195   4.025   1.494
 8046SOL    HW125037   0.280   4.077   1.506
 8046SOL    HW225038   0.207   3.957   1.421
 8047SOL     OW25039   2.995   5.989   6.842
 8047SOL    HW125040   3.007   5.957   6.748
 8047SOL    HW225041   2.965   6.084   6.841
 8048SOL     OW25042   3.902   2.142   6.135
 8048SOL    HW125043   3.970   2.091   6.083
 8048SOL    HW225044   3.933   2.237   6.145
 8049SOL     OW25045   1.653   1.376   0.303
 8049SOL    HW125046   1.745   1.372   0.343
 8049SOL    HW225047   1.586   1.348   0.372
 8050SOL     OW25048   0.445   5.152   6.052
 8050SOL    HW125049   0.508   5.184   5.981
 8050SOL    HW225050   0.366   5.109   6.009
 8051SOL     OW25051   4.670   6.736   3.007
 8051SOL    HW125052   4.753   6.755   3.059
 8051SOL    HW225053   4.616   6.820   3.001
 8052SOL     OW25054   2.794   1.947   2.686
 8052SOL    HW125055   2.764   2.033   2.643
 8052SOL    HW225056   2.870   1.909   2.634
 8053SOL     OW25057   1.085   2.644   6.743
 8053SOL    HW125058   1.100   2.703   6.663
 8053SOL    HW225059   1.169   2.641   6.797
 8054SOL     OW25060   5.166   3.656   4.856
 8054SOL    HW125061   5.075   3.690   4.833
 8054SOL    HW225062   5.177   3.563   4.823
 8055SOL     OW25063   6.459   0.575   0.121
 8055SOL    HW125064   6.514   0.657   0.104
 8055SOL    HW225065   6.365   0.602   0.143
 8056SOL     OW25066   2.316   1.352   3.883
 8056SOL    HW125067   2.333   1.361   3.784
 8056SOL    HW225068   2.372   1.277   3.919
 8057SOL     OW25069   3.144   2.081   1.973
 8057SOL    HW125070   3.091   2.090   2.057
 8057SOL    HW225071   3.242   2.083   1.995
 8058SOL     OW25072   3.836   6.089   2.039
 8058SOL    HW125073   3.850   6.134   2.127
 8058SOL    HW225074   3.747   6.045   2.037
 8059SOL     OW25075   3.260   2.824   5.454
 8059SOL    HW125076   3.210   2.755   5.402
 8059SOL    HW225077   3.359   2.811   5.441
 8060SOL     OW25078   0.038   1.095   6.210
 8060SOL    HW125079   0.131   1.066   6.186
 8060SOL    HW225080   0.018   1.067   6.304
 8061SOL     OW25081   6.814   0.899   1.763
 8061SOL    HW125082   6.719   0.869   1.760
 8061SOL    HW225083   6.832   0.944   1.851
 8062SOL     OW25084   4.289   4.586   5.813
 8062SOL    HW125085   4.225   4.510   5.821
 8062SOL    HW225086   4.248   4.668   5.854
 8063SOL     OW25087   2.433   4.783   3.117
 8063SOL    HW125088   2.392   4.779   3.208
 8063SOL    HW225089   2.382   4.724   3.054
 8064SOL     OW25090   0.089   1.922   0.399
 8064SOL    HW125091   0.057   1.856   0.332
 8064SOL    HW225092   0.073   2.015   0.366
 8065SOL     OW25093   4.721   0.007   6.814
 8065SOL    HW125094   4.768   6.951   6.857
 8065SOL    HW225095   4.762   0.026   6.725
 8066SOL     OW25096   0.650   6.944   5.921
 8066SOL    HW125097   0.686   0.006   5.965
 8066SOL    HW225098   0.603   6.888   5.990
 8067SOL     OW25099   5.748   0.729   4.397
 8067SOL    HW125100   5.710   0.729   4.304
 8067SOL    HW225101   5.713   0.808   4.447
 8068SOL     OW25102   6.681   3.595   1.666
 8068SOL    HW125103   6.717   3.652   1.592
 8068SOL    HW225104   6.725   3.620   1.752
 8069SOL     OW25105   0.975   2.846   2.425
 8069SOL    HW125106   0.889   2.862   2.377
 8069SOL    HW225107   0.974   2.894   2.513
 8070SOL     OW25108   5.296   3.953   1.008
 8070SOL    HW125109   5.305   3.855   1.023
 8070SOL    HW225110   5.326   3.976   0.915
 8071SOL     OW25111   3.024   0.226   6.157
 8071SOL    HW125112   3.114   0.241   6.114
 8071SOL    HW225113   2.959   0.292   6.120
 8072SOL     OW25114   2.313   2.141   4.947
 8072SOL    HW125115   2.266   2.201   5.012
 8072SOL    HW225116   2.405   2.121   4.981
 8073SOL     OW25117   5.368   0.359   6.985
 8073SOL    HW125118   5.353   0.280   0.025
 8073SOL    HW225119   5.283   0.409   6.973
 8074SOL     OW25120   6.864   0.693   0.289
 8074SOL    HW125121   6.868   0.630   0.212
 8074SOL    HW225122   6.831   0.645   0.370
 8075SOL     OW25123   0.218   0.246   1.433
 8075SOL    HW125124   0.273   0.194   1.498
 8075SOL    HW225125   0.277   0.289   1.365
 8076SOL     OW25126   6.948   6.209   0.436
 8076SOL    HW125127   6.879   6.266   0.390
 8076SOL    HW225128   6.943   6.224   0.534
 8077SOL     OW25129   5.852   4.517   1.125
 8077SOL    HW125130   5.906   4.444   1.083
 8077SOL    HW225131   5.904   4.602   1.123
 8078SOL     OW25132   6.412   0.973   1.504
 8078SOL    HW125133   6.354   0.912   1.450
 8078SOL    HW225134   6.464   0.920   1.570
 8079SOL     OW25135   0.738   0.933   6.736
 8079SOL    HW125136   0.687   1.003   6.785
 8079SOL    HW225137   0.703   0.843   6.759
 8080SOL     OW25138   1.464   3.410   3.512
 8080SOL    HW125139   1.382   3.352   3.516
 8080SOL    HW225140   1.538   3.358   3.469
 8081SOL     OW25141   6.613   0.122   5.183
 8081SOL    HW125142   6.693   0.124   5.122
 8081SOL    HW225143   6.553   0.046   5.156
 8082SOL     OW25144   3.639   2.114   4.505
 8082SOL    HW125145   3.580   2.092   4.583
 8082SOL    HW225146   3.712   2.176   4.535
 8083SOL     OW25147   6.555   2.693   4.378
 8083SOL    HW125148   6.650   2.663   4.385
 8083SOL    HW225149   6.494   2.617   4.397
 8084SOL     OW25150   4.336   1.450   6.005
 8084SOL    HW125151   4.357   1.543   6.035
 8084SOL    HW225152   4.378   1.433   5.916
 8085SOL     OW25153   1.927   5.867   4.280
 8085SOL    HW125154   1.856   5.925   4.239
 8085SOL    HW225155   1.996   5.924   4.324
 8086SOL     OW25156   6.420   1.593   2.811
 8086SOL    HW125157   6.454   1.620   2.721
 8086SOL    HW225158   6.414   1.493   2.815
 8087SOL     OW25159   6.648   1.274   6.564
 8087SOL    HW125160   6.698   1.287   6.649
 8087SOL    HW225161   6.596   1.188   6.570
 8088SOL     OW25162   7.003   0.030   4.805
 8088SOL    HW125163   0.078   0.029   4.836
 8088SOL    HW225164   6.973   6.958   4.784
 8089SOL     OW25165   6.435   1.921   6.912
 8089SOL    HW125166   6.411   1.866   6.992
 8089SOL    HW225167   6.535   1.929   6.906
 8090SOL     OW25168   4.594   2.420   5.207
 8090SOL    HW125169   4.594   2.329   5.167
 8090SOL    HW225170   4.680   2.435   5.256
 8091SOL     OW25171   0.827   3.995   4.483
 8091SOL    HW125172   0.759   4.008   4.555
 8091SOL    HW225173   0.813   4.063   4.411
 8092SOL     OW25174   4.840   0.530   6.062
 8092SOL    HW125175   4.790   0.611   6.030
 8092SOL    HW225176   4.883   0.484   5.984
 8093SOL     OW25177   3.610   6.487   3.624
 8093SOL    HW125178   3.523   6.536   3.625
 8093SOL    HW225179   3.654   6.499   3.535
 8094SOL     OW25180   2.114   3.947   3.913
 8094SOL    HW125181   2.129   3.892   3.995
 8094SOL    HW225182   2.051   4.022   3.934
 8095SOL     OW25183   1.149   4.820   5.148
 8095SOL    HW125184   1.220   4.791   5.083
 8095SOL    HW225185   1.191   4.837   5.237
 8096SOL     OW25186   0.874   4.632   0.365
 8096SOL    HW125187   0.878   4.637   0.265
 8096SOL    HW225188   0.812   4.559   0.392
 8097SOL     OW25189   4.309   6.668   6.950
 8097SOL    HW125190   4.349   6.621   6.872
 8097SOL    HW225191   4.377   6.675   0.002
 8098SOL     OW25192   2.332   5.785   4.906
 8098SOL    HW125193   2.376   5.727   4.837
 8098SOL    HW225194   2.296   5.728   4.980
 8099SOL     OW25195   2.009   4.181   2.395
 8099SOL    HW125196   2.058   4.257   2.351
 8099SOL    HW225197   1.918   4.212   2.421
 8100SOL     OW25198   6.697   0.318   6.821
 8100SOL    HW125199   6.664   0.244   6.879
 8100SOL    HW225200   6.794   0.332   6.836
 8101SOL     OW25201   2.342   5.382   1.074
 8101SOL    HW125202   2.262   5.404   1.131
 8101SOL    HW225203   2.312   5.333   0.992
 8102SOL     OW25204   0.827   4.104   3.876
 8102SOL    HW125205   0.880   4.020   3.861
 8102SOL    HW225206   0.821   4.156   3.791
 8103SOL     OW25207   4.021   0.911   0.984
 8103SOL    HW125208   3.966   0.968   0.923
 8103SOL    HW225209   4.104   0.882   0.936
 8104SOL     OW25210   1.787   5.120   6.974
 8104SOL    HW125211   1.838   5.168   6.903
 8104SOL    HW225212   1.696   5.097   6.940
 8105SOL     OW25213   6.924   6.981   3.549
 8105SOL    HW125214   6.851   6.926   3.588
 8105SOL    HW225215   6.993   7.000   3.619
 8106SOL     OW25216   2.685   6.581   6.334
 8106SOL    HW125217   2.664   6.609   6.240
 8106SOL    HW225218   2.602   6.549   6.378
 8107SOL     OW25219   1.408   6.549   6.940
 8107SOL    HW125220   1.379   6.573   6.847
 8107SOL    HW225221   1.388   6.453   6.957
 8108SOL     OW25222   1.459   1.503   6.842
 8108SOL    HW125223   1.504   1.447   6.912
 8108SOL    HW225224   1.361   1.483   6.842
 8109SOL     OW25225   6.337   2.826   1.942
 8109SOL    HW125226   6.334   2.726   1.936
 8109SOL    HW225227   6.334   2.865   1.850
 8110SOL     OW25228   4.031   4.781   0.661
 8110SOL    HW125229   4.064   4.688   0.673
 8110SOL    HW225230   4.006   4.820   0.750
 8111SOL     OW25231   6.453   0.998   2.678
 8111SOL    HW125232   6.496   1.011   2.768
 8111SOL    HW225233   6.358   0.971   2.691
 8112SOL     OW25234   1.552   5.108   6.332
 8112SOL    HW125235   1.606   5.185   6.298
 8112SOL    HW225236   1.562   5.101   6.431
 8113SOL     OW25237   4.853   5.206   6.329
 8113SOL    HW125238   4.950   5.230   6.334
 8113SOL    HW225239   4.844   5.112   6.294
 8114SOL     OW25240   2.050   3.656   2.835
 8114SOL    HW125241   2.108   3.574   2.838
 8114SOL    HW225242   2.066   3.704   2.748
 8115SOL     OW25243   2.466   0.801   5.781
 8115SOL    HW125244   2.534   0.822   5.711
 8115SOL    HW225245   2.387   0.862   5.771
 8116SOL     OW25246   3.959   3.420   1.708
 8116SOL    HW125247   3.935   3.471   1.791
 8116SOL    HW225248   4.043   3.369   1.724
 8117SOL     OW25249   2.360   6.683   3.818
 8117SOL    HW125250   2.278   6.679   3.762
 8117SOL    HW225251   2.334   6.679   3.915
 8118SOL     OW25252   6.648   3.119   6.858
 8118SOL    HW125253   6.653   3.215   6.884
 8118SOL    HW225254   6.655   3.111   6.758
 8119SOL     OW25255   5.387   6.298   6.577
 8119SOL    HW125256   5.475   6.336   6.547
 8119SOL    HW225257   5.372   6.210   6.531
 8120SOL     OW25258   2.201   6.260   2.384
 8120SOL    HW125259   2.261   6.334   2.415
 8120SOL    HW225260   2.114   6.298   2.355
 8121SOL     OW25261   1.447   2.348   2.370
 8121SOL    HW125262   1.462   2.442   2.401
 8121SOL    HW225263   1.358   2.343   2.323
 8122SOL     OW25264   0.424   4.251   1.479
 8122SOL    HW125265   0.494   4.249   1.408
 8122SOL    HW225266   0.466   4.230   1.567
 8123SOL     OW25267   6.802   2.248   0.031
 8123SOL    HW125268   6.769   2.174   0.089
 8123SOL    HW225269   6.901   2.255   0.038
 8124SOL     OW25270   6.266   6.100   5.739
 8124SOL    HW125271   6.244   6.113   5.642
 8124SOL    HW225272   6.274   6.189   5.783
 8125SOL     OW25273   1.069   5.733   2.051
 8125SOL    HW125274   1.072   5.717   2.149
 8125SOL    HW225275   1.073   5.645   2.003
 8126SOL     OW25276   3.632   5.630   5.277
 8126SOL    HW125277   3.533   5.637   5.270
 8126SOL    HW225278   3.670   5.717   5.309
 8127SOL     OW25279   3.834   1.522   6.184
 8127SOL    HW125280   3.882   1.521   6.271
 8127SOL    HW225281   3.901   1.525   6.109
 8128SOL     OW25282   3.006   2.848   1.256
 8128SOL    HW125283   3.035   2.849   1.160
 8128SOL    HW225284   3.050   2.772   1.303
 8129SOL     OW25285   0.558   2.254   2.560
 8129SOL    HW125286   0.513   2.176   2.604
 8129SOL    HW225287   0.656   2.254   2.583
 8130SOL     OW25288   6.759   6.084   6.846
 8130SOL    HW125289   6.695   6.026   6.897
 8130SOL    HW225290   6.713   6.120   6.765
 8131SOL     OW25291   1.497   2.708   0.251
 8131SOL    HW125292   1.533   2.760   0.328
 8131SOL    HW225293   1.453   2.624   0.286
 8132SOL     OW25294   6.443   1.878   5.120
 8132SOL    HW125295   6.417   1.849   5.212
 8132SOL    HW225296   6.377   1.945   5.086
 8133SOL     OW25297   3.261   5.047   1.307
 8133SOL    HW125298   3.289   4.990   1.384
 8133SOL    HW225299   3.343   5.084   1.262
 8134SOL     OW25300   5.485   2.224   5.706
 8134SOL    HW125301   5.505   2.318   5.678
 8134SOL    HW225302   5.413   2.225   5.775
 8135SOL     OW25303   2.637   6.558   1.937
 8135SOL    HW125304   2.565   6.511   1.988
 8135SOL    HW225305   2.648   6.514   1.848
 8136SOL     OW25306   4.647   4.447   2.139
 8136SOL    HW125307   4.727   4.388   2.151
 8136SOL    HW225308   4.577   4.397   2.089
 8137SOL     OW25309   4.373   2.100   6.044
 8137SOL    HW125310   4.283   2.058   6.030
 8137SOL    HW225311   4.435   2.032   6.083
 8138SOL     OW25312   5.159   1.294   2.016
 8138SOL    HW125313   5.121   1.274   2.106
 8138SOL    HW225314   5.257   1.273   2.016
 8139SOL     OW25315   0.225   1.694   3.316
 8139SOL    HW125316   0.247   1.599   3.293
 8139SOL    HW225317   0.281   1.722   3.395
 8140SOL     OW25318   5.062   2.628   3.051
 8140SOL    HW125319   5.149   2.622   3.100
 8140SOL    HW225320   5.072   2.690   2.973
 8141SOL     OW25321   5.340   3.924   3.998
 8141SOL    HW125322   5.264   3.982   3.970
 8141SOL    HW225323   5.420   3.944   3.942
 8142SOL     OW25324   6.911   6.298   0.112
 8142SOL    HW125325   6.913   6.386   0.160
 8142SOL    HW225326   6.816   6.269   0.098
 8143SOL     OW25327   6.344   3.477   5.371
 8143SOL    HW125328   6.380   3.397   5.323
 8143SOL    HW225329   6.351   3.463   5.470
 8144SOL     OW25330   5.064   6.942   0.325
 8144SOL    HW125331   4.990   6.874   0.323
 8144SOL    HW225332   5.148   6.899   0.357
 8145SOL     OW25333   4.787   6.270   3.264
 8145SOL    HW125334   4.875   6.238   3.300
 8145SOL    HW225335   4.729   6.298   3.340
 8146SOL     OW25336   3.748   1.434   4.604
 8146SOL    HW125337   3.653   1.465   4.599
 8146SOL    HW225338   3.752   1.336   4.585
 8147SOL     OW25339   5.200   1.077   2.722
 8147SOL    HW125340   5.127   1.144   2.740
 8147SOL    HW225341   5.270   1.085   2.793
 8148SOL     OW25342   6.145   4.297   3.067
 8148SOL    HW125343   6.170   4.222   3.128
 8148SOL    HW225344   6.078   4.356   3.112
 8149SOL     OW25345   3.480   5.160   3.301
 8149SOL    HW125346   3.390   5.200   3.286
 8149SOL    HW225347   3.541   5.228   3.341
 8150SOL     OW25348   1.025   6.108   1.206
 8150SOL    HW125349   1.088   6.181   1.233
 8150SOL    HW225350   0.977   6.136   1.123
 8151SOL     OW25351   0.481   1.741   4.483
 8151SOL    HW125352   0.481   1.820   4.422
 8151SOL    HW225353   0.537   1.761   4.564
 8152SOL     OW25354   1.466   0.674   3.635
 8152SOL    HW125355   1.501   0.757   3.678
 8152SOL    HW225356   1.432   0.696   3.543
 8153SOL     OW25357   1.873   6.696   0.655
 8153SOL    HW125358   1.855   6.788   0.692
 8153SOL    HW225359   1.964   6.693   0.615
 8154SOL     OW25360   2.838   6.681   3.267
 8154SOL    HW125361   2.797   6.772   3.272
 8154SOL    HW225362   2.805   6.626   3.343
 8155SOL     OW25363   3.355   3.839   5.007
 8155SOL    HW125364   3.342   3.759   4.948
 8155SOL    HW225365   3.304   3.826   5.092
 8156SOL     OW25366   0.101   0.486   5.472
 8156SOL    HW125367   0.088   0.447   5.563
 8156SOL    HW225368   0.107   0.413   5.404
 8157SOL     OW25369   5.953   2.144   0.051
 8157SOL    HW125370   5.861   2.139   0.089
 8157SOL    HW225371   5.990   2.236   0.064
 8158SOL     OW25372   1.707   5.183   2.257
 8158SOL    HW125373   1.763   5.103   2.237
 8158SOL    HW225374   1.611   5.162   2.240
 8159SOL     OW25375   0.620   5.494   1.608
 8159SOL    HW125376   0.563   5.527   1.684
 8159SOL    HW225377   0.714   5.525   1.621
 8160SOL     OW25378   4.647   2.100   1.760
 8160SOL    HW125379   4.680   2.194   1.773
 8160SOL    HW225380   4.679   2.066   1.671
 8161SOL     OW25381   3.968   2.441   1.628
 8161SOL    HW125382   3.944   2.381   1.704
 8161SOL    HW225383   3.885   2.466   1.579
 8162SOL     OW25384   5.899   0.699   1.829
 8162SOL    HW125385   5.916   0.765   1.755
 8162SOL    HW225386   5.970   0.709   1.899
 8163SOL     OW25387   1.832   3.078   5.071
 8163SOL    HW125388   1.829   3.095   5.170
 8163SOL    HW225389   1.926   3.081   5.039
 8164SOL     OW25390   4.868   2.552   2.628
 8164SOL    HW125391   4.840   2.513   2.716
 8164SOL    HW225392   4.836   2.646   2.621
 8165SOL     OW25393   2.128   4.841   1.835
 8165SOL    HW125394   2.117   4.912   1.905
 8165SOL    HW225395   2.078   4.868   1.752
 8166SOL     OW25396   3.743   6.884   1.388
 8166SOL    HW125397   3.809   6.826   1.435
 8166SOL    HW225398   3.667   6.828   1.356
 8167SOL     OW25399   5.437   2.803   4.223
 8167SOL    HW125400   5.511   2.746   4.187
 8167SOL    HW225401   5.475   2.875   4.281
 8168SOL     OW25402   3.081   2.066   2.372
 8168SOL    HW125403   3.030   2.137   2.324
 8168SOL    HW225404   3.140   2.108   2.441
 8169SOL     OW25405   5.444   4.083   4.789
 8169SOL    HW125406   5.525   4.055   4.737
 8169SOL    HW225407   5.362   4.058   4.738
 8170SOL     OW25408   1.217   5.146   4.430
 8170SOL    HW125409   1.129   5.194   4.426
 8170SOL    HW225410   1.255   5.139   4.337
 8171SOL     OW25411   1.576   1.105   6.244
 8171SOL    HW125412   1.556   1.166   6.321
 8171SOL    HW225413   1.597   1.013   6.280
 8172SOL     OW25414   0.113   6.279   1.342
 8172SOL    HW125415   0.158   6.264   1.254
 8172SOL    HW225416   0.179   6.318   1.407
 8173SOL     OW25417   5.743   2.929   7.007
 8173SOL    HW125418   5.814   2.871   0.025
 8173SOL    HW225419   5.784   2.994   6.943
 8174SOL     OW25420   5.219   6.780   2.260
 8174SOL    HW125421   5.180   6.806   2.348
 8174SOL    HW225422   5.297   6.719   2.275
 8175SOL     OW25423   1.697   2.661   4.576
 8175SOL    HW125424   1.738   2.610   4.501
 8175SOL    HW225425   1.645   2.738   4.539
 8176SOL     OW25426   4.132   6.011   3.573
 8176SOL    HW125427   4.111   5.995   3.477
 8176SOL    HW225428   4.056   5.977   3.630
 8177SOL     OW25429   1.063   6.633   5.437
 8177SOL    HW125430   0.995   6.666   5.371
 8177SOL    HW225431   1.143   6.692   5.435
 8178SOL     OW25432   2.053   6.929   5.961
 8178SOL    HW125433   2.005   6.843   5.976
 8178SOL    HW225434   2.140   6.927   6.010
 8179SOL     OW25435   3.415   0.338   0.142
 8179SOL    HW125436   3.409   0.379   0.233
 8179SOL    HW225437   3.508   0.346   0.108
 8180SOL     OW25438   4.655   4.532   5.780
 8180SOL    HW125439   4.658   4.625   5.818
 8180SOL    HW225440   4.561   4.510   5.755
 8181SOL     OW25441   2.287   2.384   2.016
 8181SOL    HW125442   2.348   2.318   2.059
 8181SOL    HW225443   2.310   2.392   1.919
 8182SOL     OW25444   5.412   2.675   5.834
 8182SOL    HW125445   5.406   2.635   5.742
 8182SOL    HW225446   5.431   2.603   5.901
 8183SOL     OW25447   2.164   2.744   3.598
 8183SOL    HW125448   2.136   2.794   3.516
 8183SOL    HW225449   2.151   2.646   3.583
 8184SOL     OW25450   5.857   5.866   4.235
 8184SOL    HW125451   5.955   5.869   4.215
 8184SOL    HW225452   5.844   5.844   4.332
 8185SOL     OW25453   1.814   1.725   3.060
 8185SOL    HW125454   1.744   1.788   3.094
 8185SOL    HW225455   1.897   1.776   3.037
 8186SOL     OW25456   4.232   4.112   6.695
 8186SOL    HW125457   4.292   4.180   6.736
 8186SOL    HW225458   4.281   4.063   6.623
 8187SOL     OW25459   2.254   1.000   5.800
 8187SOL    HW125460   2.218   1.092   5.785
 8187SOL    HW225461   2.202   0.955   5.873
 8188SOL     OW25462   5.290   2.693   2.480
 8188SOL    HW125463   5.245   2.778   2.506
 8188SOL    HW225464   5.382   2.712   2.447
 8189SOL     OW25465   6.887   4.978   3.051
 8189SOL    HW125466   6.791   4.994   3.028
 8189SOL    HW225467   6.934   5.066   3.062
 8190SOL     OW25468   5.862   3.726   2.155
 8190SOL    HW125469   5.872   3.655   2.224
 8190SOL    HW225470   5.843   3.684   2.066
 8191SOL     OW25471   6.490   5.009   1.714
 8191SOL    HW125472   6.436   4.928   1.737
 8191SOL    HW225473   6.517   5.005   1.618
 8192SOL     OW25474   1.222   2.838   0.665
 8192SOL    HW125475   1.312   2.828   0.707
 8192SOL    HW225476   1.174   2.751   0.671
 8193SOL     OW25477   3.902   0.038   5.643
 8193SOL    HW125478   3.945   6.973   5.670
 8193SOL    HW225479   3.960   0.084   5.575
 8194SOL     OW25480   1.966   0.469   2.191
 8194SOL    HW125481   1.976   0.498   2.096
 8194SOL    HW225482   1.997   0.374   2.200
 8195SOL     OW25483   5.379   1.679   1.262
 8195SOL    HW125484   5.372   1.584   1.231
 8195SOL    HW225485   5.429   1.733   1.193
 8196SOL     OW25486   2.258   0.723   0.027
 8196SOL    HW125487   2.164   0.714   0.060
 8196SOL    HW225488   2.264   0.687   6.954
 8197SOL     OW25489   0.467   0.333   1.291
 8197SOL    HW125490   0.505   0.365   1.378
 8197SOL    HW225491   0.529   0.356   1.217
 8198SOL     OW25492   3.469   0.289   2.774
 8198SOL    HW125493   3.401   0.306   2.702
 8198SOL    HW225494   3.439   0.333   2.859
 8199SOL     OW25495   5.992   4.917   1.327
 8199SOL    HW125496   6.077   4.938   1.376
 8199SOL    HW225497   5.947   4.839   1.371
 8200SOL     OW25498   4.227   3.453   1.856
 8200SOL    HW125499   4.310   3.431   1.805
 8200SOL    HW225500   4.199   3.547   1.837
 8201SOL     OW25501   6.842   0.843   4.935
 8201SOL    HW125502   6.794   0.777   4.993
 8201SOL    HW225503   6.776   0.902   4.888
 8202SOL     OW25504   1.697   3.818   4.443
 8202SOL    HW125505   1.753   3.735   4.446
 8202SOL    HW225506   1.617   3.802   4.385
 8203SOL     OW25507   6.059   4.512   6.947
 8203SOL    HW125508   5.983   4.550   6.998
 8203SOL    HW225509   6.127   4.584   6.929
 8204SOL     OW25510   2.989   0.475   0.934
 8204SOL    HW125511   3.037   0.434   0.856
 8204SOL    HW225512   2.943   0.559   0.904
 8205SOL     OW25513   5.127   6.525   3.464
 8205SOL    HW125514   5.093   6.559   3.376
 8205SOL    HW225515   5.221   6.554   3.477
 8206SOL     OW25516   3.710   1.760   4.258
 8206SOL    HW125517   3.777   1.726   4.324
 8206SOL    HW225518   3.711   1.702   4.177
 8207SOL     OW25519   2.725   5.939   0.009
 8207SOL    HW125520   2.663   6.017   7.018
 8207SOL    HW225521   2.776   5.949   0.095
 8208SOL     OW25522   1.866   5.952   6.990
 8208SOL    HW125523   1.924   5.903   0.035
 8208SOL    HW225524   1.915   6.032   6.956
 8209SOL     OW25525   1.138   5.507   5.013
 8209SOL    HW125526   1.124   5.447   5.091
 8209SOL    HW225527   1.141   5.453   4.929
 8210SOL     OW25528   2.474   1.567   0.220
 8210SOL    HW125529   2.382   1.578   0.258
 8210SOL    HW225530   2.539   1.621   0.273
 8211SOL     OW25531   3.629   3.993   3.520
 8211SOL    HW125532   3.579   4.035   3.444
 8211SOL    HW225533   3.565   3.973   3.595
 8212SOL     OW25534   4.151   5.267   6.801
 8212SOL    HW125535   4.234   5.257   6.856
 8212SOL    HW225536   4.072   5.234   6.853
 8213SOL     OW25537   4.644   4.466   1.795
 8213SOL    HW125538   4.619   4.557   1.826
 8213SOL    HW225539   4.588   4.398   1.842
 8214SOL     OW25540   3.923   5.271   3.251
 8214SOL    HW125541   3.990   5.209   3.212
 8214SOL    HW225542   3.880   5.228   3.331
 8215SOL     OW25543   2.121   6.170   6.647
 8215SOL    HW125544   2.039   6.226   6.659
 8215SOL    HW225545   2.120   6.095   6.712
 8216SOL     OW25546   5.211   5.928   1.171
 8216SOL    HW125547   5.163   5.862   1.229
 8216SOL    HW225548   5.213   6.017   1.217
 8217SOL     OW25549   3.522   6.499   4.091
 8217SOL    HW125550   3.534   6.579   4.150
 8217SOL    HW225551   3.607   6.446   4.090
 8218SOL     OW25552   2.075   6.338   4.666
 8218SOL    HW125553   2.165   6.348   4.624
 8218SOL    HW225554   2.055   6.242   4.681
 8219SOL     OW25555   4.069   3.147   3.202
 8219SOL    HW125556   4.084   3.179   3.295
 8219SOL    HW225557   4.087   3.049   3.197
 8220SOL     OW25558   3.925   4.115   5.718
 8220SOL    HW125559   3.834   4.075   5.729
 8220SOL    HW225560   3.917   4.214   5.705
 8221SOL     OW25561   6.431   3.369   3.976
 8221SOL    HW125562   6.451   3.400   4.069
 8221SOL    HW225563   6.442   3.446   3.913
 8222SOL     OW25564   5.951   3.138   6.564
 8222SOL    HW125565   5.864   3.185   6.546
 8222SOL    HW225566   5.957   3.056   6.508
 8223SOL     OW25567   1.442   6.504   5.664
 8223SOL    HW125568   1.444   6.491   5.565
 8223SOL    HW225569   1.407   6.421   5.708
 8224SOL     OW25570   5.682   1.577   6.049
 8224SOL    HW125571   5.595   1.610   6.012
 8224SOL    HW225572   5.755   1.641   6.024
 8225SOL     OW25573   6.017   3.082   0.262
 8225SOL    HW125574   5.918   3.082   0.245
 8225SOL    HW225575   6.066   3.088   0.175
 8226SOL     OW25576   3.611   1.328   6.835
 8226SOL    HW125577   3.579   1.421   6.851
 8226SOL    HW225578   3.536   1.272   6.800
 8227SOL     OW25579   4.731   2.791   2.703
 8227SOL    HW125580   4.706   2.779   2.799
 8227SOL    HW225581   4.776   2.879   2.691
 8228SOL     OW25582   3.136   1.232   4.876
 8228SOL    HW125583   3.202   1.164   4.910
 8228SOL    HW225584   3.043   1.202   4.898
 8229SOL     OW25585   4.877   4.636   1.154
 8229SOL    HW125586   4.967   4.634   1.110
 8229SOL    HW225587   4.841   4.730   1.150
 8230SOL     OW25588   5.950   1.206   6.320
 8230SOL    HW125589   5.936   1.193   6.222
 8230SOL    HW225590   5.874   1.166   6.371
 8231SOL     OW25591   3.169   1.396   2.171
 8231SOL    HW125592   3.079   1.354   2.163
 8231SOL    HW225593   3.187   1.417   2.267
 8232SOL     OW25594   3.897   6.306   3.162
 8232SOL    HW125595   3.894   6.324   3.063
 8232SOL    HW225596   3.960   6.370   3.206
 8233SOL     OW25597   2.370   1.527   6.986
 8233SOL    HW125598   2.359   1.614   6.938
 8233SOL    HW225599   2.422   1.542   0.049
 8234SOL     OW25600   1.474   2.921   7.017
 8234SOL    HW125601   1.564   2.956   6.987
 8234SOL    HW225602   1.473   2.822   7.007
 8235SOL     OW25603   0.819   0.580   1.396
 8235SOL    HW125604   0.767   0.616   1.319
 8235SOL    HW225605   0.758   0.528   1.456
 8236SOL     OW25606   0.636   0.077   1.123
 8236SOL    HW125607   0.686   0.049   1.205
 8236SOL    HW225608   0.665   0.168   1.095
 8237SOL     OW25609   4.281   5.014   5.165
 8237SOL    HW125610   4.231   5.006   5.251
 8237SOL    HW225611   4.293   4.923   5.125
 8238SOL     OW25612   0.369   5.707   0.328
 8238SOL    HW125613   0.357   5.608   0.330
 8238SOL    HW225614   0.358   5.741   0.235
 8239SOL     OW25615   3.983   1.926   5.556
 8239SOL    HW125616   3.963   1.863   5.481
 8239SOL    HW225617   3.937   2.013   5.539
 8240SOL     OW25618   3.828   3.934   5.382
 8240SOL    HW125619   3.916   3.900   5.415
 8240SOL    HW225620   3.776   3.973   5.459
 8241SOL     OW25621   0.997   3.095   5.305
 8241SOL    HW125622   0.910   3.142   5.320
 8241SOL    HW225623   1.057   3.154   5.252
 8242SOL     OW25624   0.422   2.484   2.508
 8242SOL    HW125625   0.475   2.403   2.530
 8242SOL    HW225626   0.404   2.536   2.592
 8243SOL     OW25627   1.491   6.881   3.584
 8243SOL    HW125628   1.521   6.896   3.678
 8243SOL    HW225629   1.454   6.789   3.574
 8244SOL     OW25630   5.899   0.385   3.760
 8244SOL    HW125631   5.895   0.409   3.857
 8244SOL    HW225632   5.857   0.295   3.746
 8245SOL     OW25633   4.932   3.146   2.443
 8245SOL    HW125634   4.898   3.103   2.360
 8245SOL    HW225635   4.887   3.235   2.456
 8246SOL     OW25636   1.839   4.610   6.617
 8246SOL    HW125637   1.799   4.569   6.699
 8246SOL    HW225638   1.855   4.539   6.549
 8247SOL     OW25639   2.415   4.792   3.403
 8247SOL    HW125640   2.461   4.707   3.425
 8247SOL    HW225641   2.320   4.788   3.434
 8248SOL     OW25642   6.761   5.741   3.235
 8248SOL    HW125643   6.738   5.825   3.285
 8248SOL    HW225644   6.804   5.676   3.297
 8249SOL     OW25645   3.036   1.329   6.353
 8249SOL    HW125646   2.971   1.399   6.381
 8249SOL    HW225647   3.012   1.242   6.397
 8250SOL     OW25648   1.572   1.736   6.746
 8250SOL    HW125649   1.539   1.653   6.791
 8250SOL    HW225650   1.571   1.812   6.810
 8251SOL     OW25651   1.229   1.637   5.500
 8251SOL    HW125652   1.213   1.721   5.552
 8251SOL    HW225653   1.212   1.654   5.403
 8252SOL     OW25654   0.581   2.123   6.437
 8252SOL    HW125655   0.571   2.116   6.338
 8252SOL    HW225656   0.671   2.161   6.458
 8253SOL     OW25657   5.912   5.066   6.174
 8253SOL    HW125658   5.881   5.018   6.092
 8253SOL    HW225659   5.856   5.148   6.187
 8254SOL     OW25660   6.002   5.682   6.940
 8254SOL    HW125661   6.090   5.707   6.898
 8254SOL    HW225662   5.933   5.750   6.916
 8255SOL     OW25663   1.150   0.294   5.378
 8255SOL    HW125664   1.247   0.316   5.366
 8255SOL    HW225665   1.142   0.211   5.433
 8256SOL     OW25666   1.322   6.229   3.650
 8256SOL    HW125667   1.353   6.221   3.744
 8256SOL    HW225668   1.241   6.172   3.637
 8257SOL     OW25669   4.896   3.222   3.534
 8257SOL    HW125670   4.991   3.192   3.543
 8257SOL    HW225671   4.886   3.279   3.453
 8258SOL     OW25672   0.230   2.513   3.303
 8258SOL    HW125673   0.272   2.458   3.376
 8258SOL    HW225674   0.209   2.604   3.338
 8259SOL     OW25675   5.669   2.129   4.282
 8259SOL    HW125676   5.625   2.158   4.367
 8259SOL    HW225677   5.600   2.094   4.218
 8260SOL     OW25678   5.128   2.612   6.442
 8260SOL    HW125679   5.102   2.649   6.532
 8260SOL    HW225680   5.073   2.530   6.423
 8261SOL     OW25681   6.012   1.607   2.928
 8261SOL    HW125682   5.919   1.643   2.938
 8261SOL    HW225683   6.070   1.678   2.888
 8262SOL     OW25684   5.168   4.240   1.974
 8262SOL    HW125685   5.212   4.246   1.885
 8262SOL    HW225686   5.092   4.306   1.978
 8263SOL     OW25687   6.354   1.806   6.199
 8263SOL    HW125688   6.413   1.730   6.170
 8263SOL    HW225689   6.318   1.853   6.118
 8264SOL     OW25690   3.137   1.025   1.442
 8264SOL    HW125691   3.229   1.038   1.404
 8264SOL    HW225692   3.144   0.979   1.531
 8265SOL     OW25693   4.820   5.876   0.031
 8265SOL    HW125694   4.803   5.945   0.102
 8265SOL    HW225695   4.736   5.825   0.013
 8266SOL     OW25696   3.335   1.324   3.042
 8266SOL    HW125697   3.394   1.341   3.121
 8266SOL    HW225698   3.383   1.349   2.958
 8267SOL     OW25699   1.753   2.813   3.066
 8267SOL    HW125700   1.661   2.823   3.028
 8267SOL    HW225701   1.796   2.903   3.074
 8268SOL     OW25702   2.918   4.635   0.846
 8268SOL    HW125703   2.865   4.561   0.803
 8268SOL    HW225704   2.885   4.649   0.939
 8269SOL     OW25705   6.364   2.508   4.490
 8269SOL    HW125706   6.285   2.519   4.550
 8269SOL    HW225707   6.441   2.471   4.543
 8270SOL     OW25708   3.423   4.628   6.864
 8270SOL    HW125709   3.518   4.600   6.878
 8270SOL    HW225710   3.365   4.586   6.934
 8271SOL     OW25711   3.483   0.055   5.795
 8271SOL    HW125712   3.401   0.094   5.838
 8271SOL    HW225713   3.529   7.016   5.860
 8272SOL     OW25714   0.555   0.639   1.951
 8272SOL    HW125715   0.527   0.730   1.921
 8272SOL    HW225716   0.576   0.641   2.049
 8273SOL     OW25717   3.908   0.108   6.757
 8273SOL    HW125718   3.959   0.087   6.673
 8273SOL    HW225719   3.854   0.028   6.783
 8274SOL     OW25720   5.412   6.416   4.682
 8274SOL    HW125721   5.371   6.470   4.608
 8274SOL    HW225722   5.441   6.327   4.646
 8275SOL     OW25723   4.635   1.486   5.143
 8275SOL    HW125724   4.602   1.540   5.066
 8275SOL    HW225725   4.729   1.512   5.165
 8276SOL     OW25726   5.552   2.856   0.621
 8276SOL    HW125727   5.504   2.774   0.651
 8276SOL    HW225728   5.631   2.831   0.566
 8277SOL     OW25729   1.098   6.950   1.403
 8277SOL    HW125730   1.150   7.014   1.346
 8277SOL    HW225731   1.161   6.885   1.446
 8278SOL     OW25732   1.427   0.771   1.085
 8278SOL    HW125733   1.512   0.788   1.036
 8278SOL    HW225734   1.354   0.750   1.020
 8279SOL     OW25735   4.943   5.702   5.815
 8279SOL    HW125736   5.033   5.715   5.775
 8279SOL    HW225737   4.948   5.717   5.914
 8280SOL     OW25738   5.516   4.351   6.351
 8280SOL    HW125739   5.547   4.256   6.353
 8280SOL    HW225740   5.555   4.401   6.428
 8281SOL     OW25741   3.408   4.897   6.177
 8281SOL    HW125742   3.423   4.799   6.188
 8281SOL    HW225743   3.479   4.935   6.118
 8282SOL     OW25744   4.217   2.846   1.166
 8282SOL    HW125745   4.314   2.824   1.161
 8282SOL    HW225746   4.172   2.786   1.232
 8283SOL     OW25747   0.513   6.947   3.141
 8283SOL    HW125748   0.533   6.861   3.187
 8283SOL    HW225749   0.508   0.001   3.208
 8284SOL     OW25750   5.280   2.243   1.921
 8284SOL    HW125751   5.233   2.299   1.990
 8284SOL    HW225752   5.215   2.213   1.852
 8285SOL     OW25753   1.203   4.266   0.486
 8285SOL    HW125754   1.225   4.364   0.488
 8285SOL    HW225755   1.251   4.220   0.560
 8286SOL     OW25756   6.324   2.537   6.806
 8286SOL    HW125757   6.330   2.471   6.731
 8286SOL    HW225758   6.245   2.596   6.792
 8287SOL     OW25759   1.019   0.765   3.321
 8287SOL    HW125760   0.992   0.758   3.417
 8287SOL    HW225761   1.003   0.677   3.276
 8288SOL     OW25762   2.537   0.171   2.402
 8288SOL    HW125763   2.554   0.267   2.379
 8288SOL    HW225764   2.573   0.113   2.329
 8289SOL     OW25765   5.931   0.115   0.405
 8289SOL    HW125766   5.896   0.064   0.327
 8289SOL    HW225767   5.859   0.177   0.439
 8290SOL     OW25768   5.151   2.571   1.833
 8290SOL    HW125769   5.053   2.585   1.847
 8290SOL    HW225770   5.198   2.659   1.835
 8291SOL     OW25771   5.157   5.744   6.522
 8291SOL    HW125772   5.096   5.805   6.471
 8291SOL    HW225773   5.146   5.761   6.620
 8292SOL     OW25774   0.479   3.801   5.445
 8292SOL    HW125775   0.387   3.838   5.440
 8292SOL    HW225776   0.476   3.702   5.432
 8293SOL     OW25777   3.041   5.022   4.045
 8293SOL    HW125778   2.981   5.040   4.122
 8293SOL    HW225779   3.136   5.021   4.076
 8294SOL     OW25780   6.299   3.415   5.639
 8294SOL    HW125781   6.253   3.500   5.666
 8294SOL    HW225782   6.342   3.374   5.720
 8295SOL     OW25783   4.641   5.124   2.582
 8295SOL    HW125784   4.674   5.086   2.495
 8295SOL    HW225785   4.720   5.142   2.642
 8296SOL     OW25786   3.624   0.638   2.464
 8296SOL    HW125787   3.653   0.614   2.557
 8296SOL    HW225788   3.692   0.700   2.423
 8297SOL     OW25789   5.949   4.166   1.847
 8297SOL    HW125790   5.986   4.240   1.791
 8297SOL    HW225791   6.023   4.121   1.897
 8298SOL     OW25792   6.815   6.185   1.047
 8298SOL    HW125793   6.869   6.104   1.027
 8298SOL    HW225794   6.875   6.259   1.078
 8299SOL     OW25795   1.303   2.896   6.216
 8299SOL    HW125796   1.250   2.907   6.131
 8299SOL    HW225797   1.242   2.866   6.289
 8300SOL     OW25798   5.959   5.175   4.443
 8300SOL    HW125799   5.878   5.132   4.484
 8300SOL    HW225800   5.937   5.205   4.350
 8301SOL     OW25801   6.611   4.764   0.224
 8301SOL    HW125802   6.592   4.674   0.185
 8301SOL    HW225803   6.674   4.754   0.301
 8302SOL     OW25804   3.584   6.898   6.037
 8302SOL    HW125805   3.596   6.851   5.949
 8302SOL    HW225806   3.527   6.842   6.097
 8303SOL     OW25807   1.344   5.165   4.180
 8303SOL    HW125808   1.427   5.156   4.235
 8303SOL    HW225809   1.364   5.137   4.086
 8304SOL     OW25810   6.229   2.369   3.917
 8304SOL    HW125811   6.271   2.330   3.834
 8304SOL    HW225812   6.293   2.433   3.959
 8305SOL     OW25813   4.788   0.065   5.195
 8305SOL    HW125814   4.863   0.038   5.255
 8305SOL    HW225815   4.814   0.050   5.099
 8306SOL     OW25816   5.571   0.814   3.626
 8306SOL    HW125817   5.485   0.862   3.608
 8306SOL    HW225818   5.634   0.876   3.672
 8307SOL     OW25819   0.580   5.014   4.005
 8307SOL    HW125820   0.581   5.035   3.907
 8307SOL    HW225821   0.578   4.915   4.018
 8308SOL     OW25822   1.217   5.614   0.689
 8308SOL    HW125823   1.142   5.667   0.650
 8308SOL    HW225824   1.232   5.532   0.634
 8309SOL     OW25825   6.368   4.849   2.900
 8309SOL    HW125826   6.370   4.864   2.802
 8309SOL    HW225827   6.397   4.755   2.921
 8310SOL     OW25828   2.547   6.768   3.054
 8310SOL    HW125829   2.617   6.811   3.112
 8310SOL    HW225830   2.470   6.739   3.111
 8311SOL     OW25831   4.221   6.360   2.123
 8311SOL    HW125832   4.277   6.432   2.084
 8311SOL    HW225833   4.136   6.352   2.070
 8312SOL     OW25834   6.778   2.040   0.425
 8312SOL    HW125835   6.767   2.135   0.454
 8312SOL    HW225836   6.803   1.984   0.504
 8313SOL     OW25837   5.028   3.285   5.995
 8313SOL    HW125838   5.088   3.337   6.056
 8313SOL    HW225839   5.069   3.196   5.977
 8314SOL     OW25840   4.328   5.670   3.789
 8314SOL    HW125841   4.350   5.611   3.867
 8314SOL    HW225842   4.412   5.694   3.741
 8315SOL     OW25843   3.198   2.761   6.746
 8315SOL    HW125844   3.116   2.712   6.714
 8315SOL    HW225845   3.202   2.759   6.846
 8316SOL     OW25846   1.495   1.560   5.163
 8316SOL    HW125847   1.468   1.537   5.257
 8316SOL    HW225848   1.588   1.527   5.146
 8317SOL     OW25849   1.390   1.985   5.438
 8317SOL    HW125850   1.463   2.050   5.457
 8317SOL    HW225851   1.412   1.932   5.357
 8318SOL     OW25852   4.427   6.670   5.953
 8318SOL    HW125853   4.402   6.618   6.035
 8318SOL    HW225854   4.519   6.643   5.924
 8319SOL     OW25855   2.320   5.796   0.059
 8319SOL    HW125856   2.332   5.894   0.074
 8319SOL    HW225857   2.381   5.745   0.120
 8320SOL     OW25858   3.946   4.324   5.522
 8320SOL    HW125859   3.883   4.332   5.445
 8320SOL    HW225860   4.040   4.341   5.491
 8321SOL     OW25861   0.531   0.713   1.010
 8321SOL    HW125862   0.495   0.689   0.919
 8321SOL    HW225863   0.466   0.774   1.056
 8322SOL     OW25864   1.532   1.148   1.124
 8322SOL    HW125865   1.447   1.139   1.177
 8322SOL    HW225866   1.509   1.165   1.028
 8323SOL     OW25867   6.028   4.933   6.783
 8323SOL    HW125868   5.961   4.861   6.800
 8323SOL    HW225869   6.037   4.990   6.865
 8324SOL     OW25870   5.165   6.481   6.515
 8324SOL    HW125871   5.202   6.543   6.445
 8324SOL    HW225872   5.205   6.390   6.504
 8325SOL     OW25873   1.307   6.163   4.728
 8325SOL    HW125874   1.288   6.221   4.807
 8325SOL    HW225875   1.405   6.169   4.705
 8326SOL     OW25876   2.150   1.973   6.530
 8326SOL    HW125877   2.220   1.909   6.496
 8326SOL    HW225878   2.187   2.066   6.530
 8327SOL     OW25879   1.312   6.725   5.127
 8327SOL    HW125880   1.299   6.785   5.048
 8327SOL    HW225881   1.237   6.738   5.191
 8328SOL     OW25882   0.784   6.437   1.011
 8328SOL    HW125883   0.851   6.364   0.996
 8328SOL    HW225884   0.785   6.464   1.107
 8329SOL     OW25885   1.453   2.469   5.399
 8329SOL    HW125886   1.359   2.501   5.414
 8329SOL    HW225887   1.470   2.462   5.300
 8330SOL     OW25888   2.766   6.678   0.157
 8330SOL    HW125889   2.669   6.664   0.139
 8330SOL    HW225890   2.804   6.598   0.204
 8331SOL     OW25891   2.312   2.536   5.707
 8331SOL    HW125892   2.229   2.530   5.651
 8331SOL    HW225893   2.366   2.454   5.695
 8332SOL     OW25894   5.608   4.007   1.210
 8332SOL    HW125895   5.619   4.085   1.271
 8332SOL    HW225896   5.552   4.033   1.131
 8333SOL     OW25897   2.875   4.449   6.460
 8333SOL    HW125898   2.945   4.382   6.439
 8333SOL    HW225899   2.869   4.462   6.559
 8334SOL     OW25900   3.368   2.220   5.280
 8334SOL    HW125901   3.359   2.148   5.348
 8334SOL    HW225902   3.279   2.263   5.265
 8335SOL     OW25903   5.404   4.343   5.866
 8335SOL    HW125904   5.347   4.420   5.896
 8335SOL    HW225905   5.346   4.263   5.853
 8336SOL     OW25906   1.152   4.065   3.488
 8336SOL    HW125907   1.177   3.983   3.437
 8336SOL    HW225908   1.054   4.064   3.507
 8337SOL     OW25909   6.738   1.145   4.239
 8337SOL    HW125910   6.743   1.118   4.143
 8337SOL    HW225911   6.805   1.217   4.257
 8338SOL     OW25912   2.670   5.720   0.948
 8338SOL    HW125913   2.740   5.739   0.879
 8338SOL    HW225914   2.583   5.760   0.919
 8339SOL     OW25915   6.076   0.702   2.047
 8339SOL    HW125916   6.157   0.652   2.016
 8339SOL    HW225917   6.088   0.728   2.144
 8340SOL     OW25918   5.825   2.438   6.891
 8340SOL    HW125919   5.768   2.441   6.973
 8340SOL    HW225920   5.778   2.387   6.819
 8341SOL     OW25921   3.860   0.294   1.011
 8341SOL    HW125922   3.767   0.258   1.013
 8341SOL    HW225923   3.860   0.387   1.050
 8342SOL     OW25924   3.803   1.428   0.691
 8342SOL    HW125925   3.851   1.344   0.669
 8342SOL    HW225926   3.744   1.414   0.770
 8343SOL     OW25927   5.483   5.692   3.049
 8343SOL    HW125928   5.478   5.596   3.022
 8343SOL    HW225929   5.457   5.750   2.972
 8344SOL     OW25930   2.395   4.837   6.323
 8344SOL    HW125931   2.429   4.748   6.354
 8344SOL    HW225932   2.469   4.888   6.279
 8345SOL     OW25933   6.150   0.119   3.701
 8345SOL    HW125934   6.147   0.031   3.749
 8345SOL    HW225935   6.219   0.178   3.743
 8346SOL     OW25936   5.895   3.623   4.080
 8346SOL    HW125937   5.966   3.668   4.028
 8346SOL    HW225938   5.821   3.688   4.100
 8347SOL     OW25939   1.807   1.566   5.811
 8347SOL    HW125940   1.852   1.605   5.731
 8347SOL    HW225941   1.871   1.507   5.860
 8348SOL     OW25942   3.725   5.504   1.544
 8348SOL    HW125943   3.688   5.587   1.585
 8348SOL    HW225944   3.749   5.439   1.617
 8349SOL     OW25945   4.480   5.996   1.416
 8349SOL    HW125946   4.474   6.059   1.493
 8349SOL    HW225947   4.388   5.975   1.382
 8350SOL     OW25948   0.830   0.432   6.903
 8350SOL    HW125949   0.873   0.493   6.970
 8350SOL    HW225950   0.900   0.379   6.857
 8351SOL     OW25951   6.886   2.782   3.121
 8351SOL    HW125952   6.859   2.708   3.060
 8351SOL    HW225953   6.804   2.823   3.161
 8352SOL     OW25954   2.856   6.666   6.542
 8352SOL    HW125955   2.936   6.708   6.500
 8352SOL    HW225956   2.788   6.645   6.471
 8353SOL     OW25957   0.612   6.113   2.766
 8353SOL    HW125958   0.567   6.179   2.826
 8353SOL    HW225959   0.615   6.149   2.673
 8354SOL     OW25960   4.672   1.816   3.085
 8354SOL    HW125961   4.754   1.865   3.115
 8354SOL    HW225962   4.622   1.784   3.165
 8355SOL     OW25963   2.791   5.357   6.031
 8355SOL    HW125964   2.698   5.389   6.011
 8355SOL    HW225965   2.828   5.307   5.953
 8356SOL     OW25966   3.093   4.350   1.455
 8356SOL    HW125967   3.125   4.316   1.543
 8356SOL    HW225968   3.015   4.411   1.469
 8357SOL     OW25969   3.514   6.960   4.753
 8357SOL    HW125970   3.520   6.950   4.853
 8357SOL    HW225971   3.593   6.915   4.711
 8358SOL     OW25972   0.460   0.710   4.386
 8358SOL    HW125973   0.432   0.705   4.481
 8358SOL    HW225974   0.548   0.664   4.375
 8359SOL     OW25975   4.330   2.196   5.485
 8359SOL    HW125976   4.247   2.211   5.539
 8359SOL    HW225977   4.395   2.142   5.539
 8360SOL     OW25978   3.669   6.792   1.771
 8360SOL    HW125979   3.598   6.755   1.712
 8360SOL    HW225980   3.671   6.892   1.763
 8361SOL     OW25981   4.682   1.244   0.461
 8361SOL    HW125982   4.635   1.230   0.548
 8361SOL    HW225983   4.751   1.316   0.471
 8362SOL     OW25984   0.215   3.857   1.261
 8362SOL    HW125985   0.296   3.888   1.211
 8362SOL    HW225986   0.133   3.877   1.208
 8363SOL     OW25987   1.111   2.590   1.405
 8363SOL    HW125988   1.143   2.496   1.406
 8363SOL    HW225989   1.078   2.614   1.314
 8364SOL     OW25990   0.746   2.165   4.087
 8364SOL    HW125991   0.753   2.200   4.180
 8364SOL    HW225992   0.718   2.239   4.026
 8365SOL     OW25993   1.544   2.714   1.567
 8365SOL    HW125994   1.546   2.629   1.620
 8365SOL    HW225995   1.452   2.729   1.532
 8366SOL     OW25996   5.036   5.819   2.092
 8366SOL    HW125997   5.100   5.798   2.018
 8366SOL    HW225998   4.948   5.774   2.074
 8367SOL     OW25999   2.173   4.507   3.288
 8367SOL    HW126000   2.269   4.481   3.292
 8367SOL    HW226001   2.133   4.503   3.379
 8368SOL     OW26002   6.373   4.591   5.425
 8368SOL    HW126003   6.313   4.641   5.487
 8368SOL    HW226004   6.455   4.561   5.474
 8369SOL     OW26005   1.710   6.942   6.906
 8369SOL    HW126006   1.660   6.872   6.956
 8369SOL    HW226007   1.804   6.947   6.938
 8370SOL     OW26008   3.164   2.976   0.562
 8370SOL    HW126009   3.210   2.899   0.607
 8370SOL    HW226010   3.233   3.043   0.533
 8371SOL     OW26011   2.851   4.156   6.290
 8371SOL    HW126012   2.817   4.096   6.362
 8371SOL    HW226013   2.929   4.209   6.324
 8372SOL     OW26014   1.740   0.321   1.718
 8372SOL    HW126015   1.732   0.334   1.817
 8372SOL    HW226016   1.735   0.224   1.696
 8373SOL     OW26017   6.059   0.323   4.146
 8373SOL    HW126018   6.105   0.404   4.184
 8373SOL    HW226019   5.985   0.295   4.207
 8374SOL     OW26020   1.214   1.373   3.401
 8374SOL    HW126021   1.233   1.275   3.405
 8374SOL    HW226022   1.157   1.399   3.480
 8375SOL     OW26023   1.747   1.767   5.587
 8375SOL    HW126024   1.809   1.845   5.578
 8375SOL    HW226025   1.661   1.798   5.628
 8376SOL     OW26026   1.067   1.738   3.616
 8376SOL    HW126027   1.032   1.725   3.523
 8376SOL    HW226028   1.149   1.796   3.612
 8377SOL     OW26029   3.408   5.116   0.815
 8377SOL    HW126030   3.338   5.069   0.868
 8377SOL    HW226031   3.407   5.213   0.836
 8378SOL     OW26032   4.193   5.347   4.810
 8378SOL    HW126033   4.213   5.304   4.898
 8378SOL    HW226034   4.199   5.446   4.818
 8379SOL     OW26035   6.148   2.017   1.963
 8379SOL    HW126036   6.246   2.035   1.951
 8379SOL    HW226037   6.136   1.940   2.027
 8380SOL     OW26038   0.938   6.194   2.205
 8380SOL    HW126039   0.851   6.150   2.226
 8380SOL    HW226040   1.006   6.125   2.182
 8381SOL     OW26041   1.269   1.726   2.293
 8381SOL    HW126042   1.350   1.780   2.315
 8381SOL    HW226043   1.254   1.728   2.194
 8382SOL     OW26044   0.342   6.828   1.735
 8382SOL    HW126045   0.398   6.821   1.817
 8382SOL    HW226046   0.397   6.802   1.655
 8383SOL     OW26047   2.955   6.826   5.652
 8383SOL    HW126048   3.030   6.890   5.667
 8383SOL    HW226049   2.932   6.822   5.555
 8384SOL     OW26050   0.466   3.463   3.161
 8384SOL    HW126051   0.377   3.422   3.181
 8384SOL    HW226052   0.503   3.423   3.077
 8385SOL     OW26053   4.681   2.107   2.291
 8385SOL    HW126054   4.610   2.048   2.330
 8385SOL    HW226055   4.647   2.149   2.207
 8386SOL     OW26056   0.853   5.432   1.369
 8386SOL    HW126057   0.793   5.369   1.319
 8386SOL    HW226058   0.842   5.524   1.332
 8387SOL     OW26059   0.943   1.580   3.210
 8387SOL    HW126060   0.910   1.587   3.116
 8387SOL    HW226061   1.039   1.553   3.209
 8388SOL     OW26062   3.915   4.884   1.729
 8388SOL    HW126063   3.983   4.911   1.797
 8388SOL    HW226064   3.921   4.943   1.649
 8389SOL     OW26065   1.435   2.770   3.445
 8389SOL    HW126066   1.362   2.773   3.513
 8389SOL    HW226067   1.487   2.685   3.455
 8390SOL     OW26068   2.801   0.448   6.662
 8390SOL    HW126069   2.888   0.498   6.663
 8390SOL    HW226070   2.731   0.502   6.708
 8391SOL     OW26071   4.682   6.077   0.822
 8391SOL    HW126072   4.739   6.008   0.777
 8391SOL    HW226073   4.617   6.031   0.883
 8392SOL     OW26074   4.315   6.162   0.185
 8392SOL    HW126075   4.298   6.248   0.136
 8392SOL    HW226076   4.254   6.091   0.150
 8393SOL     OW26077   0.795   5.079   2.046
 8393SOL    HW126078   0.760   5.145   1.980
 8393SOL    HW226079   0.885   5.046   2.016
 8394SOL     OW26080   1.568   1.408   3.682
 8394SOL    HW126081   1.556   1.467   3.602
 8394SOL    HW226082   1.481   1.365   3.705
 8395SOL     OW26083   1.214   6.573   5.987
 8395SOL    HW126084   1.310   6.550   6.008
 8395SOL    HW226085   1.159   6.490   5.989
 8396SOL     OW26086   4.356   2.503   1.053
 8396SOL    HW126087   4.364   2.600   1.030
 8396SOL    HW226088   4.346   2.493   1.152
 8397SOL     OW26089   1.759   5.105   3.040
 8397SOL    HW126090   1.758   5.183   3.103
 8397SOL    HW226091   1.839   5.048   3.059
 8398SOL     OW26092   5.975   1.788   0.230
 8398SOL    HW126093   5.960   1.791   0.131
 8398SOL    HW226094   5.917   1.716   0.270
 8399SOL     OW26095   5.401   5.801   6.480
 8399SOL    HW126096   5.303   5.785   6.485
 8399SOL    HW226097   5.446   5.762   6.560
 8400SOL     OW26098   6.809   6.595   3.967
 8400SOL    HW126099   6.886   6.645   4.007
 8400SOL    HW226100   6.832   6.499   3.958
 8401SOL     OW26101   2.912   3.430   5.779
 8401SOL    HW126102   2.817   3.457   5.763
 8401SOL    HW226103   2.936   3.354   5.719
 8402SOL     OW26104   5.226   0.224   5.571
 8402SOL    HW126105   5.145   0.168   5.586
 8402SOL    HW226106   5.234   0.246   5.474
 8403SOL     OW26107   0.694   3.022   5.561
 8403SOL    HW126108   0.636   3.104   5.563
 8403SOL    HW226109   0.663   2.962   5.488
 8404SOL     OW26110   4.482   4.897   5.537
 8404SOL    HW126111   4.445   4.908   5.630
 8404SOL    HW226112   4.471   4.983   5.487
 8405SOL     OW26113   2.013   2.489   5.287
 8405SOL    HW126114   2.002   2.475   5.385
 8405SOL    HW226115   1.924   2.510   5.246
 8406SOL     OW26116   4.898   3.830   2.047
 8406SOL    HW126117   4.972   3.897   2.040
 8406SOL    HW226118   4.811   3.874   2.023
 8407SOL     OW26119   4.934   3.414   3.322
 8407SOL    HW126120   4.926   3.470   3.404
 8407SOL    HW226121   4.925   3.472   3.241
 8408SOL     OW26122   5.003   3.645   3.806
 8408SOL    HW126123   5.044   3.733   3.780
 8408SOL    HW226124   5.041   3.614   3.893
 8409SOL     OW26125   0.830   1.408   3.699
 8409SOL    HW126126   0.781   1.407   3.612
 8409SOL    HW226127   0.928   1.417   3.682
 8410SOL     OW26128   2.422   5.659   2.575
 8410SOL    HW126129   2.475   5.604   2.511
 8410SOL    HW226130   2.460   5.650   2.667
 8411SOL     OW26131   2.049   3.184   3.335
 8411SOL    HW126132   2.054   3.234   3.421
 8411SOL    HW226133   2.049   3.248   3.259
 8412SOL     OW26134   6.818   1.776   2.525
 8412SOL    HW126135   6.822   1.871   2.494
 8412SOL    HW226136   6.891   1.724   2.483
 8413SOL     OW26137   1.810   4.854   1.171
 8413SOL    HW126138   1.863   4.842   1.087
 8413SOL    HW226139   1.716   4.825   1.156
 8414SOL     OW26140   6.263   0.469   3.394
 8414SOL    HW126141   6.193   0.481   3.465
 8414SOL    HW226142   6.324   0.548   3.393
 8415SOL     OW26143   6.868   4.467   1.803
 8415SOL    HW126144   6.801   4.409   1.757
 8415SOL    HW226145   6.931   4.409   1.856
 8416SOL     OW26146   4.816   4.782   2.543
 8416SOL    HW126147   4.810   4.743   2.635
 8416SOL    HW226148   4.738   4.752   2.489
 8417SOL     OW26149   1.538   5.932   6.751
 8417SOL    HW126150   1.603   5.857   6.740
 8417SOL    HW226151   1.499   5.928   6.843
 8418SOL     OW26152   5.874   5.884   3.040
 8418SOL    HW126153   5.915   5.934   2.964
 8418SOL    HW226154   5.917   5.912   3.126
 8419SOL     OW26155   5.086   0.249   4.283
 8419SOL    HW126156   5.069   0.236   4.380
 8419SOL    HW226157   5.184   0.245   4.266
 8420SOL     OW26158   4.138   2.438   5.910
 8420SOL    HW126159   4.130   2.383   5.827
 8420SOL    HW226160   4.047   2.453   5.949
 8421SOL     OW26161   0.137   1.301   1.187
 8421SOL    HW126162   0.222   1.250   1.173
 8421SOL    HW226163   0.082   1.257   1.258
 8422SOL     OW26164   3.201   6.834   1.996
 8422SOL    HW126165   3.171   6.812   2.089
 8422SOL    HW226166   3.297   6.861   1.997
 8423SOL     OW26167   2.230   3.679   1.105
 8423SOL    HW126168   2.137   3.715   1.101
 8423SOL    HW226169   2.286   3.722   1.035
 8424SOL     OW26170   2.772   2.620   1.515
 8424SOL    HW126171   2.860   2.607   1.562
 8424SOL    HW226172   2.771   2.710   1.472
 8425SOL     OW26173   6.156   4.982   6.188
 8425SOL    HW126174   6.057   4.992   6.199
 8425SOL    HW226175   6.175   4.951   6.094
 8426SOL     OW26176   3.434   3.609   2.687
 8426SOL    HW126177   3.353   3.559   2.716
 8426SOL    HW226178   3.516   3.554   2.706
 8427SOL     OW26179   2.020   2.118   0.090
 8427SOL    HW126180   1.954   2.048   0.066
 8427SOL    HW226181   2.108   2.076   0.111
 8428SOL     OW26182   6.047   3.875   0.761
 8428SOL    HW126183   6.030   3.895   0.857
 8428SOL    HW226184   6.080   3.781   0.752
 8429SOL     OW26185   1.639   6.713   3.022
 8429SOL    HW126186   1.731   6.673   3.028
 8429SOL    HW226187   1.619   6.764   3.106
 8430SOL     OW26188   4.968   4.341   2.998
 8430SOL    HW126189   4.905   4.287   3.054
 8430SOL    HW226190   4.972   4.303   2.906
 8431SOL     OW26191   2.893   3.351   2.369
 8431SOL    HW126192   2.873   3.425   2.305
 8431SOL    HW226193   2.910   3.267   2.319
 8432SOL     OW26194   4.641   6.043   6.893
 8432SOL    HW126195   4.607   5.973   6.956
 8432SOL    HW226196   4.658   6.128   6.942
 8433SOL     OW26197   0.623   1.201   4.075
 8433SOL    HW126198   0.531   1.165   4.058
 8433SOL    HW226199   0.684   1.171   4.001
 8434SOL     OW26200   6.061   6.472   6.454
 8434SOL    HW126201   5.990   6.541   6.468
 8434SOL    HW226202   6.111   6.458   6.540
 8435SOL     OW26203   4.676   2.050   1.463
 8435SOL    HW126204   4.765   2.093   1.451
 8435SOL    HW226205   4.667   1.974   1.397
 8436SOL     OW26206   3.113   4.270   1.722
 8436SOL    HW126207   3.096   4.174   1.742
 8436SOL    HW226208   3.027   4.321   1.727
 8437SOL     OW26209   0.431   1.801   0.988
 8437SOL    HW126210   0.362   1.746   1.036
 8437SOL    HW226211   0.446   1.763   0.897
 8438SOL     OW26212   2.152   5.624   0.832
 8438SOL    HW126213   2.093   5.546   0.811
 8438SOL    HW226214   2.105   5.685   0.896
 8439SOL     OW26215   5.572   0.495   1.840
 8439SOL    HW126216   5.518   0.412   1.826
 8439SOL    HW226217   5.619   0.520   1.756
 8440SOL     OW26218   1.133   2.975   3.867
 8440SOL    HW126219   1.210   2.926   3.909
 8440SOL    HW226220   1.047   2.939   3.903
 8441SOL     OW26221   4.947   5.994   2.765
 8441SOL    HW126222   4.875   5.934   2.801
 8441SOL    HW226223   4.913   6.044   2.687
 8442SOL     OW26224   2.723   2.945   0.606
 8442SOL    HW126225   2.716   3.001   0.523
 8442SOL    HW226226   2.644   2.884   0.611
 8443SOL     OW26227   0.340   1.671   1.378
 8443SOL    HW126228   0.271   1.614   1.334
 8443SOL    HW226229   0.320   1.767   1.360
 8444SOL     OW26230   4.085   1.315   3.391
 8444SOL    HW126231   4.176   1.299   3.428
 8444SOL    HW226232   4.091   1.321   3.291
 8445SOL     OW26233   4.591   5.584   2.241
 8445SOL    HW126234   4.572   5.539   2.153
 8445SOL    HW226235   4.506   5.595   2.292
 8446SOL     OW26236   0.053   2.953   3.053
 8446SOL    HW126237   7.002   2.889   3.081
 8446SOL    HW226238   0.010   3.036   3.016
 8447SOL     OW26239   4.505   3.661   1.122
 8447SOL    HW126240   4.420   3.711   1.139
 8447SOL    HW226241   4.550   3.642   1.210
 8448SOL     OW26242   1.878   3.345   5.674
 8448SOL    HW126243   1.964   3.393   5.659
 8448SOL    HW226244   1.846   3.363   5.767
 8449SOL     OW26245   1.036   0.923   4.931
 8449SOL    HW126246   0.947   0.951   4.966
 8449SOL    HW226247   1.097   0.903   5.007
 8450SOL     OW26248   1.945   5.562   1.241
 8450SOL    HW126249   1.960   5.500   1.164
 8450SOL    HW226250   1.864   5.532   1.291
 8451SOL     OW26251   3.298   3.434   0.855
 8451SOL    HW126252   3.333   3.349   0.896
 8451SOL    HW226253   3.202   3.422   0.829
 8452SOL     OW26254   0.093   5.349   1.496
 8452SOL    HW126255   7.017   5.331   1.510
 8452SOL    HW226256   0.104   5.434   1.444
 8453SOL     OW26257   6.310   5.466   5.309
 8453SOL    HW126258   6.260   5.478   5.223
 8453SOL    HW226259   6.337   5.555   5.345
 8454SOL     OW26260   2.293   6.890   4.743
 8454SOL    HW126261   2.297   6.827   4.821
 8454SOL    HW226262   2.322   6.981   4.773
 8455SOL     OW26263   6.143   2.381   0.863
 8455SOL    HW126264   6.088   2.427   0.793
 8455SOL    HW226265   6.199   2.449   0.911
 8456SOL     OW26266   5.122   4.803   3.656
 8456SOL    HW126267   5.087   4.831   3.566
 8456SOL    HW226268   5.050   4.814   3.725
 8457SOL     OW26269   6.566   5.944   5.812
 8457SOL    HW126270   6.649   5.889   5.816
 8457SOL    HW226271   6.540   5.959   5.717
 8458SOL     OW26272   1.685   2.349   1.035
 8458SOL    HW126273   1.740   2.320   1.113
 8458SOL    HW226274   1.589   2.328   1.053
 8459SOL     OW26275   2.399   5.090   3.506
 8459SOL    HW126276   2.436   5.007   3.465
 8459SOL    HW226277   2.402   5.164   3.439
 8460SOL     OW26278   4.143   1.299   1.240
 8460SOL    HW126279   4.198   1.267   1.163
 8460SOL    HW226280   4.078   1.228   1.268
 8461SOL     OW26281   5.097   3.803   3.147
 8461SOL    HW126282   5.094   3.844   3.238
 8461SOL    HW226283   5.111   3.875   3.079
 8462SOL     OW26284   1.632   3.652   0.787
 8462SOL    HW126285   1.588   3.618   0.871
 8462SOL    HW226286   1.719   3.605   0.774
 8463SOL     OW26287   6.922   0.419   1.079
 8463SOL    HW126288   6.991   0.361   1.036
 8463SOL    HW226289   6.951   0.514   1.076
 8464SOL     OW26290   6.222   3.310   6.447
 8464SOL    HW126291   6.288   3.363   6.394
 8464SOL    HW226292   6.179   3.368   6.516
 8465SOL     OW26293   4.898   3.598   1.000
 8465SOL    HW126294   4.832   3.558   0.937
 8465SOL    HW226295   4.978   3.629   0.948
 8466SOL     OW26296   0.421   1.364   5.514
 8466SOL    HW126297   0.422   1.389   5.611
 8466SOL    HW226298   0.403   1.266   5.505
 8467SOL     OW26299   3.277   1.420   0.624
 8467SOL    HW126300   3.352   1.474   0.662
 8467SOL    HW226301   3.275   1.431   0.525
 8468SOL     OW26302   5.347   4.398   0.414
 8468SOL    HW126303   5.349   4.300   0.435
 8468SOL    HW226304   5.263   4.438   0.450
 8469SOL     OW26305   3.841   2.928   5.477
 8469SOL    HW126306   3.874   2.863   5.409
 8469SOL    HW226307   3.892   2.916   5.563
 8470SOL     OW26308   1.226   5.904   1.478
 8470SOL    HW126309   1.155   5.899   1.548
 8470SOL    HW226310   1.280   5.820   1.479
 8471SOL     OW26311   4.260   2.058   4.781
 8471SOL    HW126312   4.186   2.111   4.822
 8471SOL    HW226313   4.250   1.961   4.805
 8472SOL     OW26314   5.362   1.939   6.712
 8472SOL    HW126315   5.341   1.864   6.649
 8472SOL    HW226316   5.287   2.005   6.712
 8473SOL     OW26317   5.145   5.046   5.987
 8473SOL    HW126318   5.116   5.140   6.005
 8473SOL    HW226319   5.225   5.046   5.927
 8474SOL     OW26320   2.772   4.048   5.335
 8474SOL    HW126321   2.825   4.125   5.368
 8474SOL    HW226322   2.679   4.079   5.314
 8475SOL     OW26323   6.871   1.656   3.077
 8475SOL    HW126324   6.888   1.596   2.998
 8475SOL    HW226325   6.793   1.714   3.059
 8476SOL     OW26326   6.156   1.400   1.765
 8476SOL    HW126327   6.227   1.348   1.717
 8476SOL    HW226328   6.078   1.415   1.704
 8477SOL     OW26329   5.849   0.833   1.316
 8477SOL    HW126330   5.894   0.763   1.372
 8477SOL    HW226331   5.751   0.812   1.309
 8478SOL     OW26332   0.529   6.271   5.519
 8478SOL    HW126333   0.590   6.254   5.441
 8478SOL    HW226334   0.502   6.185   5.560
 8479SOL     OW26335   1.080   2.729   0.234
 8479SOL    HW126336   1.129   2.642   0.234
 8479SOL    HW226337   1.058   2.754   0.139
 8480SOL     OW26338   3.444   4.375   0.708
 8480SOL    HW126339   3.450   4.336   0.800
 8480SOL    HW226340   3.431   4.474   0.714
 8481SOL     OW26341   4.196   2.257   2.428
 8481SOL    HW126342   4.232   2.281   2.518
 8481SOL    HW226343   4.112   2.203   2.439
 8482SOL     OW26344   4.231   0.847   6.633
 8482SOL    HW126345   4.188   0.911   6.570
 8482SOL    HW226346   4.321   0.820   6.597
 8483SOL     OW26347   4.003   4.869   3.418
 8483SOL    HW126348   4.011   4.968   3.430
 8483SOL    HW226349   4.016   4.846   3.321
 8484SOL     OW26350   6.145   6.129   5.411
 8484SOL    HW126351   6.194   6.042   5.418
 8484SOL    HW226352   6.078   6.123   5.337
 8485SOL     OW26353   4.227   1.191   6.035
 8485SOL    HW126354   4.261   1.284   6.051
 8485SOL    HW226355   4.156   1.193   5.964
 8486SOL     OW26356   6.121   2.357   5.101
 8486SOL    HW126357   6.033   2.311   5.113
 8486SOL    HW226358   6.113   2.426   5.029
 8487SOL     OW26359   6.766   2.653   5.935
 8487SOL    HW126360   6.700   2.709   5.985
 8487SOL    HW226361   6.853   2.702   5.927
 8488SOL     OW26362   4.682   4.442   2.619
 8488SOL    HW126363   4.677   4.511   2.547
 8488SOL    HW226364   4.714   4.355   2.580
 8489SOL     OW26365   5.955   1.908   2.252
 8489SOL    HW126366   6.011   1.847   2.196
 8489SOL    HW226367   6.011   1.983   2.285
 8490SOL     OW26368   2.921   6.644   0.501
 8490SOL    HW126369   3.015   6.658   0.470
 8490SOL    HW226370   2.881   6.732   0.525
 8491SOL     OW26371   3.149   5.494   2.217
 8491SOL    HW126372   3.151   5.498   2.317
 8491SOL    HW226373   3.172   5.401   2.187
 8492SOL     OW26374   6.344   5.823   4.141
 8492SOL    HW126375   6.390   5.735   4.139
 8492SOL    HW226376   6.412   5.896   4.146
 8493SOL     OW26377   5.112   0.928   6.018
 8493SOL    HW126378   5.148   0.990   5.949
 8493SOL    HW226379   5.012   0.930   6.017
 8494SOL     OW26380   6.948   3.049   2.284
 8494SOL    HW126381   6.902   3.136   2.271
 8494SOL    HW226382   6.934   3.017   2.378
 8495SOL     OW26383   5.741   5.784   6.152
 8495SOL    HW126384   5.732   5.847   6.074
 8495SOL    HW226385   5.687   5.818   6.228
 8496SOL     OW26386   5.244   1.849   2.463
 8496SOL    HW126387   5.229   1.901   2.547
 8496SOL    HW226388   5.265   1.912   2.388
 8497SOL     OW26389   6.856   0.429   2.622
 8497SOL    HW126390   6.908   0.490   2.682
 8497SOL    HW226391   6.872   0.454   2.527
 8498SOL     OW26392   4.985   6.133   4.302
 8498SOL    HW126393   4.919   6.061   4.284
 8498SOL    HW226394   5.064   6.122   4.242
 8499SOL     OW26395   5.836   6.876   5.443
 8499SOL    HW126396   5.846   6.972   5.420
 8499SOL    HW226397   5.918   6.845   5.492
 8500SOL     OW26398   0.870   0.619   0.077
 8500SOL    HW126399   0.843   0.701   0.127
 8500SOL    HW226400   0.930   0.563   0.134
 8501SOL     OW26401   2.657   0.990   6.198
 8501SOL    HW126402   2.613   0.915   6.149
 8501SOL    HW226403   2.748   0.961   6.229
 8502SOL     OW26404   6.212   3.073   0.049
 8502SOL    HW126405   6.261   3.013   7.007
 8502SOL    HW226406   6.277   3.124   0.105
 8503SOL     OW26407   4.596   2.500   5.626
 8503SOL    HW126408   4.577   2.527   5.532
 8503SOL    HW226409   4.551   2.564   5.689
 8504SOL     OW26410   1.021   6.972   2.393
 8504SOL    HW126411   0.991   6.911   2.466
 8504SOL    HW226412   1.120   6.967   2.383
 8505SOL     OW26413   5.450   2.010   2.845
 8505SOL    HW126414   5.447   2.087   2.781
 8505SOL    HW226415   5.364   2.007   2.896
 8506SOL     OW26416   1.083   6.980   6.164
 8506SOL    HW126417   1.025   6.899   6.161
 8506SOL    HW226418   1.031   0.039   6.133
 8507SOL     OW26419   3.875   5.379   5.725
 8507SOL    HW126420   3.854   5.330   5.810
 8507SOL    HW226421   3.802   5.362   5.658
 8508SOL     OW26422   3.179   0.890   6.615
 8508SOL    HW126423   3.234   0.863   6.694
 8508SOL    HW226424   3.112   0.819   6.595
 8509SOL     OW26425   5.157   2.482   2.594
 8509SOL    HW126426   5.167   2.545   2.517
 8509SOL    HW226427   5.080   2.512   2.651
 8510SOL     OW26428   0.570   2.114   4.617
 8510SOL    HW126429   0.644   2.131   4.552
 8510SOL    HW226430   0.482   2.138   4.575
 8511SOL     OW26431   5.970   1.817   3.868
 8511SOL    HW126432   6.061   1.822   3.827
 8511SOL    HW226433   5.935   1.909   3.884
 8512SOL     OW26434   2.027   6.106   5.598
 8512SOL    HW126435   1.931   6.097   5.571
 8512SOL    HW226436   2.032   6.152   5.687
 8513SOL     OW26437   4.837   5.870   6.775
 8513SOL    HW126438   4.921   5.848   6.824
 8513SOL    HW226439   4.794   5.950   6.817
 8514SOL     OW26440   3.421   5.603   4.389
 8514SOL    HW126441   3.389   5.517   4.348
 8514SOL    HW226442   3.385   5.612   4.481
 8515SOL     OW26443   6.140   2.284   2.028
 8515SOL    HW126444   6.216   2.325   2.079
 8515SOL    HW226445   6.126   2.190   2.058
 8516SOL     OW26446   6.717   1.490   2.369
 8516SOL    HW126447   6.817   1.488   2.356
 8516SOL    HW226448   6.675   1.428   2.303
 8517SOL     OW26449   1.247   3.559   5.383
 8517SOL    HW126450   1.282   3.570   5.289
 8517SOL    HW226451   1.212   3.647   5.415
 8518SOL     OW26452   2.886   5.962   0.970
 8518SOL    HW126453   2.909   5.880   1.023
 8518SOL    HW226454   2.881   5.938   0.873
 8519SOL     OW26455   2.838   5.810   3.566
 8519SOL    HW126456   2.903   5.741   3.599
 8519SOL    HW226457   2.856   5.829   3.470
 8520SOL     OW26458   3.327   6.190   6.793
 8520SOL    HW126459   3.278   6.267   6.753
 8520SOL    HW226460   3.361   6.131   6.720
 8521SOL     OW26461   2.127   0.248   2.270
 8521SOL    HW126462   2.144   0.221   2.364
 8521SOL    HW226463   2.163   0.179   2.208
 8522SOL     OW26464   2.438   6.548   4.760
 8522SOL    HW126465   2.348   6.569   4.799
 8522SOL    HW226466   2.449   6.449   4.751
 8523SOL     OW26467   1.648   6.732   6.631
 8523SOL    HW126468   1.645   6.830   6.611
 8523SOL    HW226469   1.556   6.694   6.628
 8524SOL     OW26470   1.900   1.472   6.976
 8524SOL    HW126471   1.911   1.406   0.031
 8524SOL    HW226472   1.987   1.481   6.927
 8525SOL     OW26473   6.223   3.436   3.686
 8525SOL    HW126474   6.164   3.441   3.767
 8525SOL    HW226475   6.225   3.342   3.651
 8526SOL     OW26476   1.583   3.407   2.068
 8526SOL    HW126477   1.651   3.435   2.001
 8526SOL    HW226478   1.622   3.410   2.160
 8527SOL     OW26479   4.500   0.445   4.694
 8527SOL    HW126480   4.585   0.395   4.679
 8527SOL    HW226481   4.467   0.483   4.607
 8528SOL     OW26482   5.648   1.659   6.798
 8528SOL    HW126483   5.622   1.742   6.749
 8528SOL    HW226484   5.600   1.656   6.886
 8529SOL     OW26485   6.782   6.730   5.381
 8529SOL    HW126486   6.819   6.669   5.452
 8529SOL    HW226487   6.848   6.801   5.359
 8530SOL     OW26488   1.862   5.233   5.935
 8530SOL    HW126489   1.783   5.177   5.910
 8530SOL    HW226490   1.918   5.184   6.001
 8531SOL     OW26491   4.278   5.293   1.626
 8531SOL    HW126492   4.278   5.371   1.563
 8531SOL    HW226493   4.203   5.303   1.691
 8532SOL     OW26494   1.720   4.002   0.594
 8532SOL    HW126495   1.816   3.979   0.582
 8532SOL    HW226496   1.711   4.077   0.659
 8533SOL     OW26497   3.843   6.582   5.709
 8533SOL    HW126498   3.775   6.647   5.744
 8533SOL    HW226499   3.832   6.572   5.610
 8534SOL     OW26500   1.946   2.480   1.099
 8534SOL    HW126501   1.983   2.493   1.008
 8534SOL    HW226502   1.991   2.402   1.143
 8535SOL     OW26503   0.387   3.489   5.708
 8535SOL    HW126504   0.420   3.515   5.617
 8535SOL    HW226505   0.289   3.470   5.704
 8536SOL     OW26506   6.120   1.125   5.860
 8536SOL    HW126507   6.192   1.118   5.928
 8536SOL    HW226508   6.031   1.109   5.903
 8537SOL     OW26509   4.453   6.251   3.609
 8537SOL    HW126510   4.379   6.289   3.553
 8537SOL    HW226511   4.423   6.164   3.649
 8538SOL     OW26512   5.180   0.222   4.956
 8538SOL    HW126513   5.171   0.127   4.925
 8538SOL    HW226514   5.236   0.273   4.891
 8539SOL     OW26515   0.922   3.055   2.612
 8539SOL    HW126516   0.953   3.116   2.539
 8539SOL    HW226517   0.824   3.068   2.627
 8540SOL     OW26518   4.026   0.312   6.910
 8540SOL    HW126519   4.050   0.406   6.886
 8540SOL    HW226520   4.023   0.255   6.828
 8541SOL     OW26521   2.804   6.595   5.268
 8541SOL    HW126522   2.724   6.592   5.328
 8541SOL    HW226523   2.838   6.503   5.253
 8542SOL     OW26524   0.960   5.438   5.704
 8542SOL    HW126525   1.042   5.386   5.679
 8542SOL    HW226526   0.931   5.412   5.796
 8543SOL     OW26527   2.966   2.301   5.342
 8543SOL    HW126528   3.039   2.339   5.286
 8543SOL    HW226529   3.005   2.253   5.420
 8544SOL     OW26530   5.553   4.171   5.543
 8544SOL    HW126531   5.631   4.233   5.538
 8544SOL    HW226532   5.500   4.192   5.626
 8545SOL     OW26533   2.018   0.161   6.261
 8545SOL    HW126534   2.090   0.150   6.330
 8545SOL    HW226535   2.054   0.215   6.185
 8546SOL     OW26536   3.668   1.328   3.788
 8546SOL    HW126537   3.765   1.338   3.762
 8546SOL    HW226538   3.648   1.231   3.804
 8547SOL     OW26539   5.218   6.178   5.858
 8547SOL    HW126540   5.262   6.253   5.809
 8547SOL    HW226541   5.262   6.092   5.832
 8548SOL     OW26542   1.236   4.189   4.272
 8548SOL    HW126543   1.218   4.246   4.192
 8548SOL    HW226544   1.187   4.226   4.351
 8549SOL     OW26545   2.560   0.338   4.073
 8549SOL    HW126546   2.612   0.356   3.989
 8549SOL    HW226547   2.514   0.250   4.066
 8550SOL     OW26548   0.400   4.808   5.480
 8550SOL    HW126549   0.425   4.836   5.387
 8550SOL    HW226550   0.445   4.721   5.502
 8551SOL     OW26551   3.774   1.139   4.624
 8551SOL    HW126552   3.717   1.113   4.546
 8551SOL    HW226553   3.724   1.124   4.709
 8552SOL     OW26554   3.460   1.704   1.856
 8552SOL    HW126555   3.465   1.790   1.907
 8552SOL    HW226556   3.487   1.719   1.761
 8553SOL     OW26557   4.775   4.112   0.977
 8553SOL    HW126558   4.875   4.114   0.986
 8553SOL    HW226559   4.742   4.019   0.986
 8554SOL     OW26560   1.196   0.880   6.501
 8554SOL    HW126561   1.260   0.910   6.572
 8554SOL    HW226562   1.245   0.866   6.415
 8555SOL     OW26563   3.133   1.882   3.334
 8555SOL    HW126564   3.222   1.837   3.323
 8555SOL    HW226565   3.129   1.963   3.276
 8556SOL     OW26566   6.896   5.273   5.365
 8556SOL    HW126567   6.957   5.309   5.435
 8556SOL    HW226568   6.949   5.216   5.301
 8557SOL     OW26569   6.398   1.011   0.075
 8557SOL    HW126570   6.482   0.957   0.066
 8557SOL    HW226571   6.421   1.107   0.086
 8558SOL     OW26572   2.869   6.536   4.092
 8558SOL    HW126573   2.942   6.540   4.160
 8558SOL    HW226574   2.812   6.618   4.100
 8559SOL     OW26575   1.803   3.565   2.533
 8559SOL    HW126576   1.874   3.525   2.475
 8559SOL    HW226577   1.713   3.533   2.502
 8560SOL     OW26578   3.612   4.013   1.247
 8560SOL    HW126579   3.614   4.010   1.147
 8560SOL    HW226580   3.560   3.934   1.281
 8561SOL     OW26581   4.157   0.588   2.891
 8561SOL    HW126582   4.251   0.562   2.871
 8561SOL    HW226583   4.130   0.547   2.979
 8562SOL     OW26584   5.461   2.443   6.337
 8562SOL    HW126585   5.495   2.375   6.273
 8562SOL    HW226586   5.371   2.415   6.371
 8563SOL     OW26587   1.973   5.315   2.943
 8563SOL    HW126588   2.062   5.272   2.951
 8563SOL    HW226589   1.907   5.251   2.904
 8564SOL     OW26590   3.597   5.905   0.466
 8564SOL    HW126591   3.504   5.941   0.475
 8564SOL    HW226592   3.624   5.906   0.370
 8565SOL     OW26593   1.047   5.197   1.207
 8565SOL    HW126594   1.087   5.204   1.116
 8565SOL    HW226595   0.948   5.210   1.202
 8566SOL     OW26596   3.810   0.717   3.334
 8566SOL    HW126597   3.909   0.722   3.343
 8566SOL    HW226598   3.786   0.719   3.237
 8567SOL     OW26599   1.762   2.357   1.584
 8567SOL    HW126600   1.854   2.373   1.622
 8567SOL    HW226601   1.698   2.421   1.627
 8568SOL     OW26602   6.140   0.227   5.989
 8568SOL    HW126603   6.140   0.272   5.899
 8568SOL    HW226604   6.201   0.276   6.051
 8569SOL     OW26605   5.195   1.794   0.174
 8569SOL    HW126606   5.163   1.765   0.084
 8569SOL    HW226607   5.120   1.786   0.240
 8570SOL     OW26608   2.037   1.657   3.251
 8570SOL    HW126609   2.044   1.578   3.312
 8570SOL    HW226610   1.941   1.676   3.233
 8571SOL     OW26611   1.394   0.407   3.631
 8571SOL    HW126612   1.420   0.497   3.667
 8571SOL    HW226613   1.305   0.413   3.585
 8572SOL     OW26614   3.103   3.948   5.614
 8572SOL    HW126615   3.177   3.881   5.618
 8572SOL    HW226616   3.059   3.944   5.524
 8573SOL     OW26617   2.117   5.939   6.339
 8573SOL    HW126618   2.197   5.985   6.379
 8573SOL    HW226619   2.035   5.995   6.355
 8574SOL     OW26620   5.428   1.346   5.426
 8574SOL    HW126621   5.346   1.290   5.437
 8574SOL    HW226622   5.401   1.441   5.410
 8575SOL     OW26623   3.383   6.441   4.720
 8575SOL    HW126624   3.400   6.378   4.645
 8575SOL    HW226625   3.462   6.501   4.733
 8576SOL     OW26626   1.185   4.452   4.538
 8576SOL    HW126627   1.143   4.367   4.508
 8576SOL    HW226628   1.225   4.499   4.458
 8577SOL     OW26629   2.173   0.517   0.470
 8577SOL    HW126630   2.225   0.557   0.395
 8577SOL    HW226631   2.173   0.418   0.462
 8578SOL     OW26632   0.933   0.162   5.876
 8578SOL    HW126633   0.855   0.222   5.895
 8578SOL    HW226634   1.017   0.203   5.911
 8579SOL     OW26635   3.521   0.176   1.934
 8579SOL    HW126636   3.440   0.234   1.943
 8579SOL    HW226637   3.574   0.206   1.854
 8580SOL     OW26638   2.094   0.574   1.911
 8580SOL    HW126639   2.102   0.615   1.820
 8580SOL    HW226640   2.173   0.516   1.929
 8581SOL     OW26641   3.985   3.970   2.234
 8581SOL    HW126642   3.887   3.965   2.254
 8581SOL    HW226643   4.017   4.063   2.253
 8582SOL     OW26644   4.480   5.495   6.062
 8582SOL    HW126645   4.394   5.478   6.014
 8582SOL    HW226646   4.515   5.585   6.036
 8583SOL     OW26647   3.173   0.113   2.735
 8583SOL    HW126648   3.180   0.177   2.812
 8583SOL    HW226649   3.201   0.160   2.651
 8584SOL     OW26650   6.225   1.570   4.933
 8584SOL    HW126651   6.195   1.613   5.018
 8584SOL    HW226652   6.195   1.626   4.855
 8585SOL     OW26653   4.922   2.207   2.057
 8585SOL    HW126654   5.007   2.259   2.059
 8585SOL    HW226655   4.872   2.222   2.143
 8586SOL     OW26656   5.945   5.671   5.754
 8586SOL    HW126657   5.970   5.767   5.766
 8586SOL    HW226658   6.026   5.614   5.767
 8587SOL     OW26659   6.762   1.340   6.797
 8587SOL    HW126660   6.857   1.314   6.817
 8587SOL    HW226661   6.702   1.300   6.866
 8588SOL     OW26662   1.496   0.840   5.294
 8588SOL    HW126663   1.533   0.818   5.203
 8588SOL    HW226664   1.469   0.757   5.340
 8589SOL     OW26665   5.480   2.966   6.649
 8589SOL    HW126666   5.580   2.970   6.649
 8589SOL    HW226667   5.443   3.058   6.636
 8590SOL     OW26668   1.093   1.439   3.663
 8590SOL    HW126669   1.133   1.383   3.736
 8590SOL    HW226670   1.096   1.535   3.690
 8591SOL     OW26671   0.597   3.950   4.951
 8591SOL    HW126672   0.666   4.022   4.946
 8591SOL    HW226673   0.571   3.935   5.046
 8592SOL     OW26674   6.882   2.039   3.994
 8592SOL    HW126675   6.938   2.049   4.076
 8592SOL    HW226676   6.812   1.969   4.009
 8593SOL     OW26677   6.421   1.280   0.050
 8593SOL    HW126678   6.343   1.309   0.105
 8593SOL    HW226679   6.396   1.281   6.973
 8594SOL     OW26680   5.931   4.382   6.241
 8594SOL    HW126681   5.952   4.317   6.314
 8594SOL    HW226682   5.882   4.335   6.168
 8595SOL     OW26683   4.892   6.418   3.080
 8595SOL    HW126684   4.839   6.369   3.149
 8595SOL    HW226685   4.928   6.353   3.013
 8596SOL     OW26686   1.202   2.545   5.454
 8596SOL    HW126687   1.200   2.608   5.531
 8596SOL    HW226688   1.131   2.569   5.388
 8597SOL     OW26689   5.981   2.163   6.425
 8597SOL    HW126690   5.905   2.115   6.469
 8597SOL    HW226691   6.044   2.196   6.495
 8598SOL     OW26692   0.075   0.544   5.855
 8598SOL    HW126693   0.130   0.606   5.798
 8598SOL    HW226694   0.088   0.450   5.823
 8599SOL     OW26695   6.236   4.416   4.958
 8599SOL    HW126696   6.255   4.396   5.054
 8599SOL    HW226697   6.233   4.330   4.906
 8600SOL     OW26698   4.517   2.911   1.614
 8600SOL    HW126699   4.479   2.972   1.544
 8600SOL    HW226700   4.511   2.956   1.703
 8601SOL     OW26701   5.758   5.799   2.813
 8601SOL    HW126702   5.775   5.821   2.909
 8601SOL    HW226703   5.723   5.706   2.805
 8602SOL     OW26704   2.025   0.358   5.564
 8602SOL    HW126705   2.090   0.324   5.632
 8602SOL    HW226706   1.935   0.318   5.582
 8603SOL     OW26707   0.705   0.986   6.428
 8603SOL    HW126708   0.729   1.023   6.518
 8603SOL    HW226709   0.673   0.891   6.438
 8604SOL     OW26710   1.718   5.621   5.945
 8604SOL    HW126711   1.689   5.527   5.963
 8604SOL    HW226712   1.790   5.621   5.875
 8605SOL     OW26713   6.840   4.382   3.757
 8605SOL    HW126714   6.846   4.465   3.814
 8605SOL    HW226715   6.776   4.398   3.683
 8606SOL     OW26716   1.357   0.601   7.006
 8606SOL    HW126717   1.282   0.617   6.943
 8606SOL    HW226718   1.437   0.567   6.956
 8607SOL     OW26719   2.904   3.134   1.617
 8607SOL    HW126720   2.963   3.082   1.554
 8607SOL    HW226721   2.865   3.213   1.569
 8608SOL     OW26722   1.425   5.875   2.062
 8608SOL    HW126723   1.351   5.834   2.009
 8608SOL    HW226724   1.427   5.974   2.047
 8609SOL     OW26725   5.140   2.048   4.764
 8609SOL    HW126726   5.056   2.082   4.722
 8609SOL    HW226727   5.198   2.007   4.694
 8610SOL     OW26728   6.925   5.301   2.919
 8610SOL    HW126729   6.904   5.225   2.857
 8610SOL    HW226730   6.991   5.271   2.988
 8611SOL     OW26731   2.330   1.464   5.298
 8611SOL    HW126732   2.391   1.526   5.250
 8611SOL    HW226733   2.382   1.385   5.332
 8612SOL     OW26734   3.692   3.166   5.010
 8612SOL    HW126735   3.630   3.219   4.952
 8612SOL    HW226736   3.641   3.125   5.085
 8613SOL     OW26737   4.083   3.170   3.731
 8613SOL    HW126738   4.049   3.104   3.799
 8613SOL    HW226739   4.175   3.199   3.756
 8614SOL     OW26740   0.822   2.108   3.334
 8614SOL    HW126741   0.840   2.207   3.330
 8614SOL    HW226742   0.813   2.072   3.241
 8615SOL     OW26743   3.536   1.633   5.411
 8615SOL    HW126744   3.441   1.654   5.433
 8615SOL    HW226745   3.565   1.689   5.333
 8616SOL     OW26746   5.722   4.624   5.122
 8616SOL    HW126747   5.701   4.650   5.028
 8616SOL    HW226748   5.805   4.671   5.152
 8617SOL     OW26749   1.327   6.612   3.006
 8617SOL    HW126750   1.237   6.628   3.046
 8617SOL    HW226751   1.374   6.540   3.058
 8618SOL     OW26752   5.521   4.266   0.744
 8618SOL    HW126753   5.612   4.232   0.722
 8618SOL    HW226754   5.511   4.359   0.709
 8619SOL     OW26755   4.915   5.960   0.418
 8619SOL    HW126756   5.008   5.935   0.391
 8619SOL    HW226757   4.895   5.921   0.508
 8620SOL     OW26758   2.103   6.112   3.727
 8620SOL    HW126759   2.196   6.077   3.712
 8620SOL    HW226760   2.102   6.169   3.809
 8621SOL     OW26761   5.844   3.666   1.893
 8621SOL    HW126762   5.766   3.637   1.838
 8621SOL    HW226763   5.926   3.614   1.865
 8622SOL     OW26764   0.652   5.459   2.207
 8622SOL    HW126765   0.704   5.484   2.125
 8622SOL    HW226766   0.555   5.452   2.183
 8623SOL     OW26767   1.933   1.945   3.431
 8623SOL    HW126768   2.029   1.916   3.431
 8623SOL    HW226769   1.916   2.004   3.510
 8624SOL     OW26770   3.564   4.329   5.375
 8624SOL    HW126771   3.575   4.307   5.472
 8624SOL    HW226772   3.490   4.396   5.364
 8625SOL     OW26773   4.722   3.649   6.093
 8625SOL    HW126774   4.665   3.722   6.054
 8625SOL    HW226775   4.761   3.680   6.180
 8626SOL     OW26776   5.008   1.961   1.560
 8626SOL    HW126777   5.018   1.998   1.468
 8626SOL    HW226778   4.973   1.867   1.555
 8627SOL     OW26779   1.522   0.130   2.698
 8627SOL    HW126780   1.569   0.217   2.686
 8627SOL    HW226781   1.573   0.058   2.651
 8628SOL     OW26782   0.946   7.021   1.095
 8628SOL    HW126783   0.968   0.097   1.108
 8628SOL    HW226784   0.913   6.982   1.181
 8629SOL     OW26785   0.427   6.779   4.481
 8629SOL    HW126786   0.454   6.836   4.403
 8629SOL    HW226787   0.352   6.718   4.454
 8630SOL     OW26788   5.049   2.690   1.549
 8630SOL    HW126789   4.968   2.748   1.559
 8630SOL    HW226790   5.130   2.740   1.578
 8631SOL     OW26791   2.249   5.726   6.224
 8631SOL    HW126792   2.175   5.778   6.268
 8631SOL    HW226793   2.243   5.737   6.125
 8632SOL     OW26794   6.193   5.445   3.884
 8632SOL    HW126795   6.224   5.376   3.949
 8632SOL    HW226796   6.128   5.404   3.819
 8633SOL     OW26797   6.071   4.043   5.266
 8633SOL    HW126798   6.081   4.133   5.224
 8633SOL    HW226799   6.158   3.995   5.263
 8634SOL     OW26800   5.147   4.782   6.588
 8634SOL    HW126801   5.242   4.796   6.561
 8634SOL    HW226802   5.113   4.865   6.635
 8635SOL     OW26803   4.625   2.857   6.713
 8635SOL    HW126804   4.669   2.934   6.666
 8635SOL    HW226805   4.602   2.885   6.806
 8636SOL     OW26806   4.236   5.976   2.034
 8636SOL    HW126807   4.238   6.052   2.100
 8636SOL    HW226808   4.148   5.977   1.987
 8637SOL     OW26809   1.827   2.455   6.885
 8637SOL    HW126810   1.787   2.402   6.810
 8637SOL    HW226811   1.897   2.400   6.931
 8638SOL     OW26812   4.861   2.918   4.386
 8638SOL    HW126813   4.948   2.950   4.348
 8638SOL    HW226814   4.786   2.969   4.344
 8639SOL     OW26815   3.194   4.592   0.462
 8639SOL    HW126816   3.122   4.622   0.524
 8639SOL    HW226817   3.260   4.666   0.449
 8640SOL     OW26818   4.135   2.491   0.478
 8640SOL    HW126819   4.114   2.446   0.565
 8640SOL    HW226820   4.234   2.501   0.469
 8641SOL     OW26821   3.198   4.909   3.154
 8641SOL    HW126822   3.289   4.893   3.116
 8641SOL    HW226823   3.136   4.836   3.125
 8642SOL     OW26824   2.497   5.891   3.168
 8642SOL    HW126825   2.414   5.866   3.119
 8642SOL    HW226826   2.498   5.847   3.258
 8643SOL     OW26827   3.537   6.678   1.561
 8643SOL    HW126828   3.548   6.687   1.462
 8643SOL    HW226829   3.452   6.630   1.582
 8644SOL     OW26830   5.933   2.802   5.980
 8644SOL    HW126831   5.840   2.835   5.965
 8644SOL    HW226832   5.978   2.861   6.048
 8645SOL     OW26833   5.291   5.302   3.017
 8645SOL    HW126834   5.214   5.258   3.063
 8645SOL    HW226835   5.276   5.400   3.012
 8646SOL     OW26836   0.217   2.918   5.213
 8646SOL    HW126837   0.169   2.830   5.210
 8646SOL    HW226838   0.314   2.904   5.191
 8647SOL     OW26839   1.556   5.414   1.573
 8647SOL    HW126840   1.471   5.376   1.610
 8647SOL    HW226841   1.633   5.356   1.600
 8648SOL     OW26842   4.710   5.219   0.405
 8648SOL    HW126843   4.717   5.141   0.468
 8648SOL    HW226844   4.622   5.265   0.419
 8649SOL     OW26845   5.427   1.656   0.961
 8649SOL    HW126846   5.335   1.691   0.943
 8649SOL    HW226847   5.478   1.722   1.016
 8650SOL     OW26848   1.981   0.434   5.902
 8650SOL    HW126849   2.048   0.360   5.896
 8650SOL    HW226850   1.963   0.469   5.810
 8651SOL     OW26851   4.037   1.833   1.697
 8651SOL    HW126852   4.025   1.741   1.659
 8651SOL    HW226853   3.948   1.872   1.720
 8652SOL     OW26854   0.674   2.372   3.939
 8652SOL    HW126855   0.651   2.389   3.843
 8652SOL    HW226856   0.656   2.454   3.993
 8653SOL     OW26857   5.883   1.249   0.043
 8653SOL    HW126858   5.857   1.163   0.088
 8653SOL    HW226859   5.906   1.232   6.968
 8654SOL     OW26860   6.782   4.658   3.049
 8654SOL    HW126861   6.770   4.757   3.040
 8654SOL    HW226862   6.879   4.636   3.036
 8655SOL     OW26863   0.890   0.180   4.997
 8655SOL    HW126864   0.834   0.098   4.986
 8655SOL    HW226865   0.831   0.261   4.997
 8656SOL     OW26866   4.235   6.641   0.776
 8656SOL    HW126867   4.283   6.725   0.802
 8656SOL    HW226868   4.259   6.568   0.839
 8657SOL     OW26869   2.940   1.859   2.926
 8657SOL    HW126870   2.937   1.759   2.924
 8657SOL    HW226871   2.914   1.895   2.836
 8658SOL     OW26872   6.541   3.865   1.229
 8658SOL    HW126873   6.556   3.775   1.270
 8658SOL    HW226874   6.461   3.909   1.271
 8659SOL     OW26875   3.918   0.685   2.855
 8659SOL    HW126876   4.005   0.649   2.888
 8659SOL    HW226877   3.928   0.782   2.833
 8660SOL     OW26878   0.489   3.595   1.466
 8660SOL    HW126879   0.472   3.693   1.476
 8660SOL    HW226880   0.520   3.558   1.553
 8661SOL     OW26881   6.322   3.527   1.938
 8661SOL    HW126882   6.376   3.567   1.865
 8661SOL    HW226883   6.289   3.599   2.000
 8662SOL     OW26884   1.197   2.049   2.524
 8662SOL    HW126885   1.224   2.137   2.563
 8662SOL    HW226886   1.278   2.004   2.485
 8663SOL     OW26887   4.043   4.778   2.482
 8663SOL    HW126888   3.948   4.808   2.475
 8663SOL    HW226889   4.103   4.858   2.484
 8664SOL     OW26890   3.393   6.327   4.430
 8664SOL    HW126891   3.397   6.274   4.346
 8664SOL    HW226892   3.472   6.389   4.435
 8665SOL     OW26893   5.857   4.007   6.840
 8665SOL    HW126894   5.914   4.034   6.917
 8665SOL    HW226895   5.826   4.088   6.790
 8666SOL     OW26896   4.834   0.675   2.961
 8666SOL    HW126897   4.822   0.608   3.034
 8666SOL    HW226898   4.928   0.671   2.927
 8667SOL     OW26899   5.479   2.531   2.143
 8667SOL    HW126900   5.497   2.467   2.069
 8667SOL    HW226901   5.512   2.493   2.229
 8668SOL     OW26902   4.452   2.053   4.593
 8668SOL    HW126903   4.384   2.062   4.665
 8668SOL    HW226904   4.425   2.108   4.514
 8669SOL     OW26905   6.725   6.032   6.424
 8669SOL    HW126906   6.636   6.074   6.404
 8669SOL    HW226907   6.798   6.099   6.407
 8670SOL     OW26908   0.230   5.225   5.508
 8670SOL    HW126909   0.230   5.227   5.408
 8670SOL    HW226910   0.268   5.138   5.539
 8671SOL     OW26911   0.308   2.903   2.962
 8671SOL    HW126912   0.341   2.819   3.006
 8671SOL    HW226913   0.222   2.932   3.006
 8672SOL     OW26914   0.031   1.264   2.494
 8672SOL    HW126915   0.070   1.288   2.583
 8672SOL    HW226916   6.952   1.274   2.497
 8673SOL     OW26917   0.974   1.423   1.204
 8673SOL    HW126918   1.020   1.405   1.117
 8673SOL    HW226919   0.935   1.516   1.203
 8674SOL     OW26920   6.992   4.208   3.180
 8674SOL    HW126921   6.938   4.291   3.170
 8674SOL    HW226922   0.005   4.201   3.274
 8675SOL     OW26923   4.586   2.689   5.065
 8675SOL    HW126924   4.548   2.754   5.131
 8675SOL    HW226925   4.595   2.600   5.109
 8676SOL     OW26926   4.587   2.362   1.029
 8676SOL    HW126927   4.515   2.431   1.034
 8676SOL    HW226928   4.550   2.273   1.056
 8677SOL     OW26929   2.802   0.186   6.569
 8677SOL    HW126930   2.862   0.175   6.649
 8677SOL    HW226931   2.776   0.282   6.559
 8678SOL     OW26932   2.788   2.316   0.046
 8678SOL    HW126933   2.828   2.377   0.114
 8678SOL    HW226934   2.849   2.237   0.031
 8679SOL     OW26935   1.805   2.110   6.582
 8679SOL    HW126936   1.896   2.084   6.613
 8679SOL    HW226937   1.802   2.110   6.482
 8680SOL     OW26938   0.126   0.317   0.829
 8680SOL    HW126939   0.074   0.373   0.764
 8680SOL    HW226940   0.221   0.350   0.833
 8681SOL     OW26941   5.722   5.159   1.384
 8681SOL    HW126942   5.732   5.110   1.297
 8681SOL    HW226943   5.755   5.253   1.373
 8682SOL     OW26944   2.648   0.806   2.492
 8682SOL    HW126945   2.616   0.762   2.576
 8682SOL    HW226946   2.630   0.904   2.496
 8683SOL     OW26947   2.397   4.508   4.041
 8683SOL    HW126948   2.351   4.424   4.011
 8683SOL    HW226949   2.440   4.493   4.130
 8684SOL     OW26950   2.340   4.185   3.290
 8684SOL    HW126951   2.405   4.260   3.304
 8684SOL    HW226952   2.322   4.174   3.193
 8685SOL     OW26953   4.943   3.389   4.803
 8685SOL    HW126954   4.899   3.471   4.840
 8685SOL    HW226955   4.873   3.320   4.785
 8686SOL     OW26956   1.197   4.710   2.735
 8686SOL    HW126957   1.213   4.628   2.680
 8686SOL    HW226958   1.278   4.768   2.733
 8687SOL     OW26959   5.371   4.469   5.603
 8687SOL    HW126960   5.371   4.401   5.676
 8687SOL    HW226961   5.393   4.559   5.641
 8688SOL     OW26962   1.141   3.977   4.675
 8688SOL    HW126963   1.103   3.924   4.599
 8688SOL    HW226964   1.209   4.040   4.640
 8689SOL     OW26965   4.435   3.520   0.893
 8689SOL    HW126966   4.421   3.423   0.914
 8689SOL    HW226967   4.466   3.568   0.975
 8690SOL     OW26968   1.006   1.642   2.361
 8690SOL    HW126969   1.095   1.686   2.352
 8690SOL    HW226970   1.015   1.544   2.346
 8691SOL     OW26971   3.411   2.069   6.681
 8691SOL    HW126972   3.316   2.054   6.709
 8691SOL    HW226973   3.471   2.011   6.735
 8692SOL     OW26974   5.338   2.553   4.414
 8692SOL    HW126975   5.314   2.645   4.446
 8692SOL    HW226976   5.397   2.560   4.334
 8693SOL     OW26977   0.004   6.875   5.330
 8693SOL    HW126978   0.101   6.867   5.352
 8693SOL    HW226979   7.014   6.921   5.242
 8694SOL     OW26980   4.541   3.775   5.906
 8694SOL    HW126981   4.563   3.703   5.841
 8694SOL    HW226982   4.442   3.778   5.920
 8695SOL     OW26983   3.484   5.126   1.169
 8695SOL    HW126984   3.474   5.072   1.085
 8695SOL    HW226985   3.581   5.131   1.193
 8696SOL     OW26986   2.341   5.993   6.485
 8696SOL    HW126987   2.406   6.064   6.460
 8696SOL    HW226988   2.390   5.906   6.496
 8697SOL     OW26989   0.990   3.416   5.080
 8697SOL    HW126990   1.055   3.357   5.128
 8697SOL    HW226991   1.019   3.512   5.088
 8698SOL     OW26992   4.373   4.406   6.773
 8698SOL    HW126993   4.299   4.470   6.793
 8698SOL    HW226994   4.407   4.422   6.680
 8699SOL     OW26995   2.483   2.325   0.799
 8699SOL    HW126996   2.487   2.227   0.778
 8699SOL    HW226997   2.411   2.342   0.866
 8700SOL     OW26998   0.236   1.603   4.608
 8700SOL    HW126999   0.241   1.538   4.684
 8700SOL    HW227000   0.326   1.614   4.567
 8701SOL     OW27001   1.695   4.006   6.540
 8701SOL    HW127002   1.730   4.005   6.446
 8701SOL    HW227003   1.599   3.981   6.540
 8702SOL     OW27004   6.045   4.334   1.610
 8702SOL    HW127005   5.952   4.346   1.576
 8702SOL    HW227006   6.095   4.420   1.602
 8703SOL     OW27007   2.194   5.665   2.018
 8703SOL    HW127008   2.164   5.696   1.928
 8703SOL    HW227009   2.293   5.678   2.026
 8704SOL     OW27010   6.842   1.762   4.186
 8704SOL    HW127011   6.821   1.736   4.281
 8704SOL    HW227012   6.764   1.811   4.147
 8705SOL     OW27013   3.795   2.110   0.601
 8705SOL    HW127014   3.722   2.045   0.619
 8705SOL    HW227015   3.760   2.203   0.608
 8706SOL     OW27016   4.996   2.765   6.232
 8706SOL    HW127017   4.950   2.765   6.321
 8706SOL    HW227018   5.078   2.708   6.237
 8707SOL     OW27019   0.948   1.034   4.254
 8707SOL    HW127020   0.874   0.968   4.256
 8707SOL    HW227021   1.004   1.019   4.172
 8708SOL     OW27022   5.917   2.540   0.780
 8708SOL    HW127023   5.901   2.620   0.839
 8708SOL    HW227024   5.913   2.457   0.835
 8709SOL     OW27025   6.748   6.141   3.987
 8709SOL    HW127026   6.706   6.146   3.896
 8709SOL    HW227027   6.847   6.132   3.978
 8710SOL     OW27028   2.207   2.450   3.654
 8710SOL    HW127029   2.182   2.370   3.599
 8710SOL    HW227030   2.303   2.442   3.683
 8711SOL     OW27031   1.818   1.238   2.177
 8711SOL    HW127032   1.873   1.255   2.096
 8711SOL    HW227033   1.809   1.322   2.231
 8712SOL     OW27034   0.912   4.199   4.153
 8712SOL    HW127035   0.876   4.144   4.079
 8712SOL    HW227036   1.011   4.209   4.143
 8713SOL     OW27037   0.254   3.662   2.419
 8713SOL    HW127038   0.210   3.651   2.330
 8713SOL    HW227039   0.327   3.596   2.429
 8714SOL     OW27040   6.427   4.378   6.299
 8714SOL    HW127041   6.421   4.318   6.379
 8714SOL    HW227042   6.442   4.473   6.329
 8715SOL     OW27043   2.109   5.004   1.235
 8715SOL    HW127044   2.070   5.011   1.143
 8715SOL    HW227045   2.206   4.984   1.228
 8716SOL     OW27046   5.913   0.458   2.046
 8716SOL    HW127047   5.836   0.467   2.109
 8716SOL    HW227048   5.953   0.548   2.028
 8717SOL     OW27049   3.391   2.248   0.582
 8717SOL    HW127050   3.422   2.206   0.667
 8717SOL    HW227051   3.333   2.184   0.533
 8718SOL     OW27052   2.659   5.511   6.468
 8718SOL    HW127053   2.720   5.506   6.389
 8718SOL    HW227054   2.697   5.573   6.536
 8719SOL     OW27055   2.912   1.467   4.973
 8719SOL    HW127056   2.951   1.472   4.881
 8719SOL    HW227057   2.863   1.381   4.985
 8720SOL     OW27058   0.653   6.112   4.531
 8720SOL    HW127059   0.622   6.017   4.536
 8720SOL    HW227060   0.661   6.150   4.623
 8721SOL     OW27061   1.337   0.256   1.076
 8721SOL    HW127062   1.269   0.318   1.115
 8721SOL    HW227063   1.294   0.199   1.006
 8722SOL     OW27064   3.580   1.278   0.422
 8722SOL    HW127065   3.487   1.289   0.389
 8722SOL    HW227066   3.579   1.236   0.513
 8723SOL     OW27067   3.603   6.555   2.644
 8723SOL    HW127068   3.609   6.522   2.738
 8723SOL    HW227069   3.694   6.580   2.611
 8724SOL     OW27070   3.695   1.319   5.097
 8724SOL    HW127071   3.642   1.328   5.013
 8724SOL    HW227072   3.639   1.274   5.167
 8725SOL     OW27073   0.401   0.763   2.556
 8725SOL    HW127074   0.345   0.761   2.638
 8725SOL    HW227075   0.461   0.682   2.555
 8726SOL     OW27076   6.649   0.992   0.355
 8726SOL    HW127077   6.740   1.028   0.374
 8726SOL    HW227078   6.580   1.061   0.377
 8727SOL     OW27079   5.108   5.249   6.381
 8727SOL    HW127080   5.188   5.204   6.342
 8727SOL    HW227081   5.115   5.348   6.368
 8728SOL     OW27082   6.270   6.359   4.349
 8728SOL    HW127083   6.258   6.445   4.299
 8728SOL    HW227084   6.182   6.330   4.386
 8729SOL     OW27085   5.725   5.974   5.944
 8729SOL    HW127086   5.654   6.002   5.880
 8729SOL    HW227087   5.813   5.969   5.897
 8730SOL     OW27088   3.991   4.641   1.827
 8730SOL    HW127089   4.056   4.621   1.753
 8730SOL    HW227090   4.041   4.656   1.912
 8731SOL     OW27091   0.118   1.997   3.782
 8731SOL    HW127092   0.096   2.011   3.685
 8731SOL    HW227093   0.034   1.979   3.833
 8732SOL     OW27094   4.955   6.434   5.548
 8732SOL    HW127095   4.956   6.340   5.516
 8732SOL    HW227096   5.037   6.451   5.604
 8733SOL     OW27097   0.010   4.394   2.026
 8733SOL    HW127098   0.104   4.429   2.029
 8733SOL    HW227099   6.969   4.460   2.068
 8734SOL     OW27100   1.324   4.800   0.569
 8734SOL    HW127101   1.396   4.751   0.520
 8734SOL    HW227102   1.241   4.745   0.570
 8735SOL     OW27103   1.347   2.724   5.890
 8735SOL    HW127104   1.323   2.632   5.920
 8735SOL    HW227105   1.275   2.788   5.917
 8736SOL     OW27106   1.931   5.640   3.342
 8736SOL    HW127107   2.022   5.677   3.324
 8736SOL    HW227108   1.866   5.715   3.350
 8737SOL     OW27109   0.377   5.667   0.063
 8737SOL    HW127110   0.395   5.742   7.020
 8737SOL    HW227111   0.278   5.653   0.070
 8738SOL     OW27112   1.719   2.664   1.974
 8738SOL    HW127113   1.674   2.584   2.014
 8738SOL    HW227114   1.815   2.667   2.004
 8739SOL     OW27115   5.410   4.297   2.951
 8739SOL    HW127116   5.387   4.213   2.902
 8739SOL    HW227117   5.426   4.370   2.884
 8740SOL     OW27118   3.125   1.259   3.344
 8740SOL    HW127119   3.192   1.329   3.319
 8740SOL    HW227120   3.037   1.280   3.301
 8741SOL     OW27121   0.801   1.794   2.460
 8741SOL    HW127122   0.870   1.725   2.437
 8741SOL    HW227123   0.839   1.885   2.445
 8742SOL     OW27124   2.346   2.844   1.781
 8742SOL    HW127125   2.388   2.789   1.853
 8742SOL    HW227126   2.309   2.784   1.711
 8743SOL     OW27127   1.008   3.532   6.888
 8743SOL    HW127128   1.018   3.565   6.982
 8743SOL    HW227129   0.941   3.458   6.886
 8744SOL     OW27130   3.163   4.000   5.927
 8744SOL    HW127131   3.078   3.993   5.979
 8744SOL    HW227132   3.177   3.916   5.874
 8745SOL     OW27133   5.635   1.922   6.730
 8745SOL    HW127134   5.538   1.940   6.716
 8745SOL    HW227135   5.687   1.957   6.652
 8746SOL     OW27136   4.142   4.907   4.785
 8746SOL    HW127137   4.115   4.894   4.690
 8746SOL    HW227138   4.079   4.972   4.828
 8747SOL     OW27139   1.163   0.110   2.078
 8747SOL    HW127140   1.086   0.088   2.018
 8747SOL    HW227141   1.215   0.027   2.097
 8748SOL     OW27142   5.756   1.882   4.410
 8748SOL    HW127143   5.665   1.860   4.445
 8748SOL    HW227144   5.748   1.935   4.326
 8749SOL     OW27145   2.751   1.422   4.062
 8749SOL    HW127146   2.767   1.521   4.052
 8749SOL    HW227147   2.669   1.407   4.117
 8750SOL     OW27148   4.568   3.607   1.366
 8750SOL    HW127149   4.628   3.599   1.446
 8750SOL    HW227150   4.473   3.608   1.395
 8751SOL     OW27151   2.377   0.174   0.685
 8751SOL    HW127152   2.370   0.076   0.704
 8751SOL    HW227153   2.367   0.225   0.771
 8752SOL     OW27154   6.822   3.501   5.810
 8752SOL    HW127155   6.889   3.432   5.838
 8752SOL    HW227156   6.857   3.592   5.831
 8753SOL     OW27157   1.868   1.941   1.014
 8753SOL    HW127158   1.930   1.912   0.942
 8753SOL    HW227159   1.773   1.929   0.983
 8754SOL     OW27160   0.981   6.083   6.382
 8754SOL    HW127161   0.913   6.015   6.411
 8754SOL    HW227162   0.995   6.150   6.455
 8755SOL     OW27163   0.401   2.618   1.555
 8755SOL    HW127164   0.346   2.686   1.507
 8755SOL    HW227165   0.419   2.651   1.648
 8756SOL     OW27166   1.461   1.841   1.922
 8756SOL    HW127167   1.405   1.788   1.858
 8756SOL    HW227168   1.413   1.850   2.009
 8757SOL     OW27169   5.929   5.991   4.740
 8757SOL    HW127170   5.854   6.036   4.788
 8757SOL    HW227171   6.016   6.021   4.779
 8758SOL     OW27172   3.439   5.587   6.167
 8758SOL    HW127173   3.506   5.516   6.188
 8758SOL    HW227174   3.485   5.676   6.165
 8759SOL     OW27175   6.175   1.176   1.515
 8759SOL    HW127176   6.252   1.118   1.540
 8759SOL    HW227177   6.209   1.263   1.479
 8760SOL     OW27178   2.062   2.594   4.467
 8760SOL    HW127179   2.112   2.524   4.517
 8760SOL    HW227180   2.059   2.678   4.522
 8761SOL     OW27181   4.791   2.828   3.020
 8761SOL    HW127182   4.878   2.807   3.065
 8761SOL    HW227183   4.728   2.751   3.030
 8762SOL     OW27184   4.266   6.663   3.026
 8762SOL    HW127185   4.303   6.706   2.943
 8762SOL    HW227186   4.325   6.587   3.052
 8763SOL     OW27187   6.983   1.624   4.941
 8763SOL    HW127188   6.922   1.665   5.009
 8763SOL    HW227189   7.000   1.528   4.964
 8764SOL     OW27190   3.465   4.622   6.142
 8764SOL    HW127191   3.460   4.538   6.087
 8764SOL    HW227192   3.541   4.615   6.206
 8765SOL     OW27193   4.840   6.757   4.176
 8765SOL    HW127194   4.826   6.699   4.095
 8765SOL    HW227195   4.769   6.827   4.179
 8766SOL     OW27196   5.979   7.019   4.721
 8766SOL    HW127197   6.042   7.018   4.799
 8766SOL    HW227198   5.988   0.085   4.672
 8767SOL     OW27199   1.874   0.771   4.848
 8767SOL    HW127200   1.823   0.809   4.770
 8767SOL    HW227201   1.948   0.713   4.814
 8768SOL     OW27202   6.497   1.777   0.879
 8768SOL    HW127203   6.567   1.706   0.881
 8768SOL    HW227204   6.530   1.857   0.828
 8769SOL     OW27205   6.023   6.867   6.526
 8769SOL    HW127206   5.953   6.802   6.495
 8769SOL    HW227207   6.111   6.842   6.486
 8770SOL     OW27208   4.978   2.081   6.991
 8770SOL    HW127209   4.911   2.008   6.979
 8770SOL    HW227210   4.935   2.169   6.971
 8771SOL     OW27211   0.773   2.418   6.084
 8771SOL    HW127212   0.774   2.321   6.109
 8771SOL    HW227213   0.831   2.432   6.004
 8772SOL     OW27214   0.937   6.723   3.573
 8772SOL    HW127215   0.875   6.799   3.556
 8772SOL    HW227216   1.009   6.753   3.636
 8773SOL     OW27217   0.368   1.528   3.957
 8773SOL    HW127218   0.345   1.621   3.928
 8773SOL    HW227219   0.420   1.533   4.043
 8774SOL     OW27220   1.614   1.903   6.561
 8774SOL    HW127221   1.602   1.829   6.627
 8774SOL    HW227222   1.668   1.976   6.603
 8775SOL     OW27223   5.296   2.308   3.021
 8775SOL    HW127224   5.211   2.273   2.983
 8775SOL    HW227225   5.351   2.233   3.058
 8776SOL     OW27226   4.825   3.127   1.426
 8776SOL    HW127227   4.821   3.155   1.522
 8776SOL    HW227228   4.814   3.206   1.367
 8777SOL     OW27229   6.744   2.144   3.405
 8777SOL    HW127230   6.665   2.085   3.420
 8777SOL    HW227231   6.793   2.115   3.323
 8778SOL     OW27232   2.331   3.992   0.057
 8778SOL    HW127233   2.393   4.032   0.125
 8778SOL    HW227234   2.375   3.912   0.015
 8779SOL     OW27235   3.889   5.785   3.357
 8779SOL    HW127236   3.896   5.880   3.328
 8779SOL    HW227237   3.924   5.776   3.450
 8780SOL     OW27238   0.582   4.134   4.063
 8780SOL    HW127239   0.561   4.043   4.099
 8780SOL    HW227240   0.659   4.129   4.001
 8781SOL     OW27241   2.992   1.839   1.192
 8781SOL    HW127242   3.023   1.932   1.212
 8781SOL    HW227243   3.052   1.773   1.238
 8782SOL     OW27244   6.747   2.334   0.349
 8782SOL    HW127245   6.805   2.278   0.290
 8782SOL    HW227246   6.673   2.374   0.294
 8783SOL     OW27247   4.181   4.070   5.368
 8783SOL    HW127248   4.149   4.164   5.382
 8783SOL    HW227249   4.161   4.041   5.275
 8784SOL     OW27250   4.401   0.870   6.872
 8784SOL    HW127251   4.388   0.845   6.776
 8784SOL    HW227252   4.318   0.849   6.923
 8785SOL     OW27253   0.014   5.857   5.575
 8785SOL    HW127254   0.079   5.781   5.584
 8785SOL    HW227255   0.022   5.917   5.655
 8786SOL     OW27256   5.879   1.671   3.249
 8786SOL    HW127257   5.855   1.658   3.345
 8786SOL    HW227258   5.969   1.634   3.231
 8787SOL     OW27259   3.544   5.264   2.122
 8787SOL    HW127260   3.525   5.251   2.219
 8787SOL    HW227261   3.553   5.175   2.078
 8788SOL     OW27262   0.062   5.872   4.326
 8788SOL    HW127263   0.132   5.843   4.391
 8788SOL    HW227264   0.096   5.860   4.233
 8789SOL     OW27265   1.278   2.996   6.661
 8789SOL    HW127266   1.196   3.041   6.695
 8789SOL    HW227267   1.336   3.064   6.615
 8790SOL     OW27268   4.840   2.824   5.019
 8790SOL    HW127269   4.754   2.773   5.025
 8790SOL    HW227270   4.838   2.901   5.082
 8791SOL     OW27271   4.026   6.096   5.357
 8791SOL    HW127272   3.985   6.014   5.396
 8791SOL    HW227273   4.056   6.157   5.431
 8792SOL     OW27274   5.845   5.409   1.326
 8792SOL    HW127275   5.932   5.432   1.371
 8792SOL    HW227276   5.863   5.351   1.247
 8793SOL     OW27277   6.461   6.195   5.404
 8793SOL    HW127278   6.509   6.281   5.419
 8793SOL    HW227279   6.446   6.181   5.306
 8794SOL     OW27280   0.258   1.756   2.954
 8794SOL    HW127281   0.167   1.764   2.913
 8794SOL    HW227282   0.274   1.835   3.014
 8795SOL     OW27283   1.090   6.752   6.590
 8795SOL    HW127284   1.004   6.774   6.544
 8795SOL    HW227285   1.135   6.837   6.619
 8796SOL     OW27286   5.676   4.211   4.484
 8796SOL    HW127287   5.602   4.205   4.417
 8796SOL    HW227288   5.677   4.129   4.541
 8797SOL     OW27289   4.872   6.207   4.605
 8797SOL    HW127290   4.832   6.297   4.585
 8797SOL    HW227291   4.934   6.181   4.531
 8798SOL     OW27292   1.981   6.004   5.967
 8798SOL    HW127293   1.976   6.088   6.022
 8798SOL    HW227294   1.912   5.939   5.999
 8799SOL     OW27295   1.279   6.182   1.461
 8799SOL    HW127296   1.230   6.096   1.477
 8799SOL    HW227297   1.244   6.226   1.378
 8800SOL     OW27298   6.744   5.864   3.895
 8800SOL    HW127299   6.717   5.859   3.799
 8800SOL    HW227300   6.756   5.960   3.921
 8801SOL     OW27301   5.020   3.378   5.595
 8801SOL    HW127302   4.939   3.422   5.634
 8801SOL    HW227303   4.996   3.337   5.507
 8802SOL     OW27304   1.134   6.289   6.902
 8802SOL    HW127305   1.052   6.347   6.901
 8802SOL    HW227306   1.187   6.309   6.984
 8803SOL     OW27307   5.529   5.387   5.279
 8803SOL    HW127308   5.560   5.325   5.351
 8803SOL    HW227309   5.607   5.415   5.222
 8804SOL     OW27310   1.943   6.440   2.046
 8804SOL    HW127311   1.866   6.478   2.098
 8804SOL    HW227312   1.910   6.402   1.960
 8805SOL     OW27313   5.311   4.817   2.568
 8805SOL    HW127314   5.372   4.896   2.567
 8805SOL    HW227315   5.216   4.847   2.569
 8806SOL     OW27316   1.071   0.632   2.419
 8806SOL    HW127317   0.998   0.582   2.466
 8806SOL    HW227318   1.109   0.701   2.481
 8807SOL     OW27319   5.728   2.200   1.321
 8807SOL    HW127320   5.763   2.162   1.236
 8807SOL    HW227321   5.771   2.153   1.398
 8808SOL     OW27322   1.838   1.917   0.012
 8808SOL    HW127323   1.823   1.843   0.079
 8808SOL    HW227324   1.753   1.934   6.983
 8809SOL     OW27325   0.913   3.379   3.365
 8809SOL    HW127326   0.967   3.331   3.296
 8809SOL    HW227327   0.816   3.363   3.347
 8810SOL     OW27328   0.141   2.491   4.566
 8810SOL    HW127329   0.197   2.533   4.494
 8810SOL    HW227330   0.052   2.465   4.529
 8811SOL     OW27331   4.456   4.866   2.183
 8811SOL    HW127332   4.400   4.783   2.193
 8811SOL    HW227333   4.405   4.945   2.216
 8812SOL     OW27334   5.838   0.928   0.389
 8812SOL    HW127335   5.868   0.992   0.460
 8812SOL    HW227336   5.741   0.907   0.403
 8813SOL     OW27337   1.522   3.155   1.964
 8813SOL    HW127338   1.607   3.136   1.913
 8813SOL    HW227339   1.529   3.244   2.008
 8814SOL     OW27340   5.797   6.815   4.981
 8814SOL    HW127341   5.810   6.726   5.025
 8814SOL    HW227342   5.842   6.815   4.892
 8815SOL     OW27343   5.184   1.043   1.343
 8815SOL    HW127344   5.149   1.036   1.436
 8815SOL    HW227345   5.108   1.044   1.278
 8816SOL     OW27346   6.888   0.284   3.619
 8816SOL    HW127347   6.910   0.224   3.695
 8816SOL    HW227348   6.798   0.262   3.583
 8817SOL     OW27349   1.329   2.819   3.188
 8817SOL    HW127350   1.385   2.814   3.271
 8817SOL    HW227351   1.234   2.800   3.210
 8818SOL     OW27352   1.242   6.252   6.294
 8818SOL    HW127353   1.196   6.341   6.301
 8818SOL    HW227354   1.174   6.179   6.294
 8819SOL     OW27355   5.093   5.950   6.192
 8819SOL    HW127356   5.115   6.009   6.269
 8819SOL    HW227357   5.176   5.928   6.142
 8820SOL     OW27358   4.019   6.827   5.713
 8820SOL    HW127359   4.076   6.813   5.794
 8820SOL    HW227360   3.968   6.743   5.694
 8821SOL     OW27361   0.619   5.198   5.820
 8821SOL    HW127362   0.612   5.211   5.721
 8821SOL    HW227363   0.688   5.128   5.839
 8822SOL     OW27364   6.304   0.295   4.755
 8822SOL    HW127365   6.256   0.235   4.820
 8822SOL    HW227366   6.301   0.255   4.664
 8823SOL     OW27367   4.299   1.987   2.659
 8823SOL    HW127368   4.233   2.054   2.692
 8823SOL    HW227369   4.350   2.025   2.582
 8824SOL     OW27370   1.793   0.676   4.109
 8824SOL    HW127371   1.722   0.747   4.108
 8824SOL    HW227372   1.882   0.717   4.088
 8825SOL     OW27373   0.628   6.991   0.512
 8825SOL    HW127374   0.584   6.902   0.496
 8825SOL    HW227375   0.579   0.019   0.584
 8826SOL     OW27376   0.717   4.229   0.072
 8826SOL    HW127377   0.758   4.161   0.012
 8826SOL    HW227378   0.730   4.200   0.167
 8827SOL     OW27379   4.970   6.432   3.895
 8827SOL    HW127380   5.061   6.471   3.908
 8827SOL    HW227381   4.950   6.425   3.798
 8828SOL     OW27382   5.241   2.248   5.855
 8828SOL    HW127383   5.166   2.298   5.811
 8828SOL    HW227384   5.246   2.276   5.951
 8829SOL     OW27385   6.720   0.791   2.648
 8829SOL    HW127386   6.673   0.855   2.710
 8829SOL    HW227387   6.754   0.840   2.569
 8830SOL     OW27388   3.585   0.505   3.143
 8830SOL    HW127389   3.656   0.554   3.093
 8830SOL    HW227390   3.611   0.496   3.239
 8831SOL     OW27391   0.057   2.735   2.442
 8831SOL    HW127392   6.997   2.788   2.470
 8831SOL    HW227393   0.098   2.692   2.522
 8832SOL     OW27394   5.710   0.627   5.681
 8832SOL    HW127395   5.727   0.581   5.768
 8832SOL    HW227396   5.796   0.639   5.632
 8833SOL     OW27397   4.854   2.881   1.536
 8833SOL    HW127398   4.779   2.818   1.519
 8833SOL    HW227399   4.838   2.966   1.487
 8834SOL     OW27400   5.242   4.864   6.327
 8834SOL    HW127401   5.330   4.818   6.338
 8834SOL    HW227402   5.171   4.811   6.373
 8835SOL     OW27403   6.276   1.290   5.187
 8835SOL    HW127404   6.270   1.199   5.229
 8835SOL    HW227405   6.185   1.331   5.183
 8836SOL     OW27406   4.144   1.200   0.968
 8836SOL    HW127407   4.120   1.157   0.881
 8836SOL    HW227408   4.062   1.208   1.025
 8837SOL     OW27409   4.437   5.870   0.367
 8837SOL    HW127410   4.444   5.970   0.373
 8837SOL    HW227411   4.359   5.839   0.421
 8838SOL     OW27412   2.056   3.370   3.122
 8838SOL    HW127413   2.020   3.453   3.163
 8838SOL    HW227414   2.079   3.387   3.026
 8839SOL     OW27415   4.580   5.049   1.300
 8839SOL    HW127416   4.505   5.111   1.277
 8839SOL    HW227417   4.597   5.053   1.399
 8840SOL     OW27418   6.963   0.724   1.170
 8840SOL    HW127419   6.870   0.753   1.148
 8840SOL    HW227420   6.960   0.654   1.242
 8841SOL     OW27421   3.475   1.306   0.843
 8841SOL    HW127422   3.391   1.263   0.809
 8841SOL    HW227423   3.460   1.405   0.849
 8842SOL     OW27424   3.532   3.135   3.905
 8842SOL    HW127425   3.523   3.204   3.833
 8842SOL    HW227426   3.577   3.175   3.985
 8843SOL     OW27427   2.413   5.437   5.380
 8843SOL    HW127428   2.351   5.374   5.332
 8843SOL    HW227429   2.493   5.386   5.413
 8844SOL     OW27430   3.145   2.849   5.942
 8844SOL    HW127431   3.200   2.900   5.876
 8844SOL    HW227432   3.078   2.792   5.894
 8845SOL     OW27433   0.729   3.454   2.061
 8845SOL    HW127434   0.676   3.526   2.106
 8845SOL    HW227435   0.679   3.368   2.066
 8846SOL     OW27436   5.528   5.149   4.211
 8846SOL    HW127437   5.620   5.116   4.190
 8846SOL    HW227438   5.464   5.073   4.205
 8847SOL     OW27439   1.192   1.720   3.877
 8847SOL    HW127440   1.287   1.742   3.902
 8847SOL    HW227441   1.164   1.777   3.800
 8848SOL     OW27442   6.708   2.330   0.666
 8848SOL    HW127443   6.716   2.356   0.570
 8848SOL    HW227444   6.649   2.250   0.674
 8849SOL     OW27445   3.290   5.560   4.683
 8849SOL    HW127446   3.379   5.518   4.700
 8849SOL    HW227447   3.256   5.601   4.768
 8850SOL     OW27448   3.026   1.930   0.905
 8850SOL    HW127449   2.940   1.963   0.943
 8850SOL    HW227450   3.015   1.836   0.872
 8851SOL     OW27451   0.087   5.214   2.597
 8851SOL    HW127452   0.126   5.302   2.624
 8851SOL    HW227453   0.061   5.217   2.501
 8852SOL     OW27454   5.206   3.489   4.581
 8852SOL    HW127455   5.304   3.505   4.589
 8852SOL    HW227456   5.185   3.395   4.609
 8853SOL     OW27457   4.589   2.035   5.656
 8853SOL    HW127458   4.588   2.120   5.708
 8853SOL    HW227459   4.634   2.050   5.568
 8854SOL     OW27460   2.239   0.627   5.828
 8854SOL    HW127461   2.318   0.674   5.790
 8854SOL    HW227462   2.249   0.528   5.818
 8855SOL     OW27463   6.360   5.228   5.891
 8855SOL    HW127464   6.284   5.250   5.952
 8855SOL    HW227465   6.325   5.208   5.800
 8856SOL     OW27466   5.934   0.991   5.325
 8856SOL    HW127467   5.904   1.038   5.242
 8856SOL    HW227468   5.953   1.059   5.396
 8857SOL     OW27469   1.604   3.377   4.536
 8857SOL    HW127470   1.646   3.413   4.453
 8857SOL    HW227471   1.640   3.285   4.554
 8858SOL     OW27472   0.198   3.725   5.496
 8858SOL    HW127473   0.210   3.735   5.595
 8858SOL    HW227474   0.136   3.649   5.478
 8859SOL     OW27475   3.008   6.292   5.534
 8859SOL    HW127476   2.955   6.368   5.571
 8859SOL    HW227477   2.978   6.272   5.441
 8860SOL     OW27478   1.787   2.035   0.609
 8860SOL    HW127479   1.797   2.093   0.690
 8860SOL    HW227480   1.837   1.950   0.623
 8861SOL     OW27481   2.416   2.655   1.140
 8861SOL    HW127482   2.500   2.655   1.086
 8861SOL    HW227483   2.438   2.648   1.237
 8862SOL     OW27484   6.583   2.252   4.955
 8862SOL    HW127485   6.488   2.238   4.928
 8862SOL    HW227486   6.603   2.350   4.956
 8863SOL     OW27487   1.247   6.034   5.490
 8863SOL    HW127488   1.272   6.046   5.586
 8863SOL    HW227489   1.301   5.960   5.450
 8864SOL     OW27490   1.701   3.750   5.804
 8864SOL    HW127491   1.688   3.667   5.859
 8864SOL    HW227492   1.668   3.734   5.711
 8865SOL     OW27493   3.035   2.115   6.011
 8865SOL    HW127494   3.038   2.042   6.079
 8865SOL    HW227495   3.104   2.185   6.034
 8866SOL     OW27496   5.164   6.512   5.151
 8866SOL    HW127497   5.103   6.575   5.199
 8866SOL    HW227498   5.120   6.481   5.067
 8867SOL     OW27499   6.565   0.913   3.998
 8867SOL    HW127500   6.473   0.932   4.031
 8867SOL    HW227501   6.595   0.824   4.033
 8868SOL     OW27502   4.942   3.561   0.452
 8868SOL    HW127503   4.996   3.620   0.512
 8868SOL    HW227504   4.887   3.618   0.390
 8869SOL     OW27505   3.122   2.062   2.992
 8869SOL    HW127506   3.062   1.983   2.980
 8869SOL    HW227507   3.123   2.089   3.088
 8870SOL     OW27508   4.543   1.321   2.190
 8870SOL    HW127509   4.452   1.361   2.177
 8870SOL    HW227510   4.613   1.384   2.158
 8871SOL     OW27511   1.921   2.130   3.648
 8871SOL    HW127512   1.838   2.177   3.617
 8871SOL    HW227513   1.980   2.195   3.696
 8872SOL     OW27514   1.310   2.272   2.009
 8872SOL    HW127515   1.336   2.346   1.947
 8872SOL    HW227516   1.259   2.203   1.958
 8873SOL     OW27517   7.018   6.154   4.755
 8873SOL    HW127518   7.019   6.201   4.843
 8873SOL    HW227519   0.085   6.108   4.741
 8874SOL     OW27520   0.782   1.705   6.171
 8874SOL    HW127521   0.781   1.742   6.264
 8874SOL    HW227522   0.689   1.678   6.145
 8875SOL     OW27523   1.179   1.369   4.476
 8875SOL    HW127524   1.252   1.306   4.449
 8875SOL    HW227525   1.098   1.316   4.503
 8876SOL     OW27526   2.924   0.801   4.461
 8876SOL    HW127527   2.914   0.756   4.372
 8876SOL    HW227528   2.903   0.899   4.450
 8877SOL     OW27529   3.240   6.705   4.531
 8877SOL    HW127530   3.234   6.676   4.626
 8877SOL    HW227531   3.185   6.644   4.474
 8878SOL     OW27532   5.806   4.877   5.381
 8878SOL    HW127533   5.726   4.828   5.415
 8878SOL    HW227534   5.779   4.935   5.304
 8879SOL     OW27535   4.629   5.433   4.250
 8879SOL    HW127536   4.675   5.363   4.195
 8879SOL    HW227537   4.598   5.393   4.336
 8880SOL     OW27538   0.152   6.484   5.042
 8880SOL    HW127539   0.171   6.393   5.079
 8880SOL    HW227540   0.186   6.553   5.106
 8881SOL     OW27541   6.535   1.576   1.503
 8881SOL    HW127542   6.572   1.669   1.502
 8881SOL    HW227543   6.576   1.523   1.429
 8882SOL     OW27544   5.296   2.626   0.460
 8882SOL    HW127545   5.325   2.615   0.555
 8882SOL    HW227546   5.375   2.614   0.399
 8883SOL     OW27547   6.416   1.437   5.411
 8883SOL    HW127548   6.341   1.372   5.419
 8883SOL    HW227549   6.470   1.416   5.329
 8884SOL     OW27550   6.870   1.339   5.884
 8884SOL    HW127551   6.861   1.305   5.791
 8884SOL    HW227552   6.889   1.437   5.882
 8885SOL     OW27553   5.585   3.819   1.907
 8885SOL    HW127554   5.668   3.765   1.893
 8885SOL    HW227555   5.545   3.842   1.819
 8886SOL     OW27556   2.963   5.181   6.175
 8886SOL    HW127557   3.052   5.203   6.135
 8886SOL    HW227558   2.890   5.227   6.124
 8887SOL     OW27559   1.764   1.014   1.052
 8887SOL    HW127560   1.789   1.065   0.970
 8887SOL    HW227561   1.685   1.057   1.095
 8888SOL     OW27562   2.877   2.321   2.828
 8888SOL    HW127563   2.953   2.324   2.763
 8888SOL    HW227564   2.906   2.274   2.912
 8889SOL     OW27565   3.630   0.366   4.915
 8889SOL    HW127566   3.630   0.287   4.853
 8889SOL    HW227567   3.724   0.398   4.928
 8890SOL     OW27568   0.623   3.775   3.470
 8890SOL    HW127569   0.687   3.755   3.397
 8890SOL    HW227570   0.601   3.872   3.471
 8891SOL     OW27571   3.053   1.899   6.193
 8891SOL    HW127572   2.988   1.838   6.238
 8891SOL    HW227573   3.087   1.856   6.110
 8892SOL     OW27574   1.489   6.404   2.706
 8892SOL    HW127575   1.404   6.352   2.705
 8892SOL    HW227576   1.468   6.502   2.711
 8893SOL     OW27577   0.445   0.607   0.043
 8893SOL    HW127578   0.370   0.667   0.016
 8893SOL    HW227579   0.421   0.512   0.024
 8894SOL     OW27580   4.564   2.910   6.300
 8894SOL    HW127581   4.600   2.831   6.349
 8894SOL    HW227582   4.464   2.903   6.296
 8895SOL     OW27583   2.073   1.009   2.616
 8895SOL    HW127584   2.039   1.064   2.540
 8895SOL    HW227585   2.014   1.023   2.696
 8896SOL     OW27586   2.168   4.219   4.903
 8896SOL    HW127587   2.229   4.285   4.947
 8896SOL    HW227588   2.185   4.128   4.940
 8897SOL     OW27589   1.508   2.397   0.689
 8897SOL    HW127590   1.507   2.313   0.743
 8897SOL    HW227591   1.550   2.470   0.743
 8898SOL     OW27592   0.052   3.265   4.793
 8898SOL    HW127593   0.124   3.325   4.829
 8898SOL    HW227594   6.985   3.291   4.832
 8899SOL     OW27595   3.124   5.146   1.626
 8899SOL    HW127596   3.044   5.190   1.667
 8899SOL    HW227597   3.122   5.048   1.647
 8900SOL     OW27598   6.966   1.474   3.637
 8900SOL    HW127599   0.023   1.534   3.658
 8900SOL    HW227600   6.998   1.380   3.627
 8901SOL     OW27601   1.742   6.854   1.759
 8901SOL    HW127602   1.740   6.759   1.728
 8901SOL    HW227603   1.782   6.860   1.850
 8902SOL     OW27604   3.451   6.402   5.792
 8902SOL    HW127605   3.438   6.491   5.748
 8902SOL    HW227606   3.438   6.411   5.890
 8903SOL     OW27607   0.268   0.195   2.513
 8903SOL    HW127608   0.308   0.174   2.602
 8903SOL    HW227609   0.287   0.120   2.449
 8904SOL     OW27610   1.408   4.870   3.113
 8904SOL    HW127611   1.331   4.899   3.170
 8904SOL    HW227612   1.484   4.842   3.171
 8905SOL     OW27613   2.138   4.282   4.613
 8905SOL    HW127614   2.118   4.250   4.705
 8905SOL    HW227615   2.128   4.382   4.610
 8906SOL     OW27616   1.639   5.230   4.107
 8906SOL    HW127617   1.666   5.258   4.015
 8906SOL    HW227618   1.669   5.136   4.124
 8907SOL     OW27619   3.763   2.746   6.661
 8907SOL    HW127620   3.686   2.769   6.720
 8907SOL    HW227621   3.834   2.816   6.671
 8908SOL     OW27622   0.832   2.243   2.584
 8908SOL    HW127623   0.916   2.290   2.611
 8908SOL    HW227624   0.835   2.224   2.486
 8909SOL     OW27625   3.710   0.225   5.671
 8909SOL    HW127626   3.648   0.184   5.738
 8909SOL    HW227627   3.796   0.173   5.670
 8910SOL     OW27628   3.925   3.303   0.280
 8910SOL    HW127629   4.000   3.260   0.329
 8910SOL    HW227630   3.883   3.236   0.218
 8911SOL     OW27631   4.662   2.283   3.964
 8911SOL    HW127632   4.652   2.192   4.004
 8911SOL    HW227633   4.731   2.334   4.014
 8912SOL     OW27634   5.181   1.771   6.319
 8912SOL    HW127635   5.212   1.732   6.232
 8912SOL    HW227636   5.256   1.768   6.386
 8913SOL     OW27637   4.219   4.263   1.460
 8913SOL    HW127638   4.244   4.176   1.504
 8913SOL    HW227639   4.240   4.339   1.522
 8914SOL     OW27640   5.034   1.851   3.578
 8914SOL    HW127641   4.993   1.935   3.615
 8914SOL    HW227642   4.971   1.774   3.593
 8915SOL     OW27643   0.933   5.839   2.472
 8915SOL    HW127644   0.854   5.876   2.520
 8915SOL    HW227645   0.904   5.765   2.411
 8916SOL     OW27646   5.891   2.926   2.382
 8916SOL    HW127647   5.833   2.857   2.339
 8916SOL    HW227648   5.901   2.905   2.479
 8917SOL     OW27649   5.528   5.128   4.992
 8917SOL    HW127650   5.460   5.191   5.031
 8917SOL    HW227651   5.482   5.068   4.926
 8918SOL     OW27652   4.958   4.184   6.099
 8918SOL    HW127653   4.947   4.209   6.003
 8918SOL    HW227654   5.054   4.166   6.119
 8919SOL     OW27655   2.429   3.310   1.566
 8919SOL    HW127656   2.406   3.224   1.612
 8919SOL    HW227657   2.526   3.309   1.541
 8920SOL     OW27658   6.563   5.495   5.459
 8920SOL    HW127659   6.566   5.408   5.409
 8920SOL    HW227660   6.656   5.526   5.478
 8921SOL     OW27661   1.545   5.656   3.866
 8921SOL    HW127662   1.493   5.617   3.791
 8921SOL    HW227663   1.489   5.653   3.950
 8922SOL     OW27664   6.297   3.741   6.324
 8922SOL    HW127665   6.341   3.826   6.294
 8922SOL    HW227666   6.331   3.716   6.415
 8923SOL     OW27667   2.227   4.304   3.929
 8923SOL    HW127668   2.255   4.246   4.006
 8923SOL    HW227669   2.127   4.306   3.924
 8924SOL     OW27670   2.622   5.640   5.098
 8924SOL    HW127671   2.713   5.682   5.106
 8924SOL    HW227672   2.563   5.672   5.172
 8925SOL     OW27673   4.522   5.737   1.374
 8925SOL    HW127674   4.528   5.825   1.421
 8925SOL    HW227675   4.611   5.691   1.377
 8926SOL     OW27676   5.482   0.466   6.529
 8926SOL    HW127677   5.469   0.419   6.442
 8926SOL    HW227678   5.469   0.565   6.516
 8927SOL     OW27679   2.626   1.887   4.393
 8927SOL    HW127680   2.646   1.896   4.295
 8927SOL    HW227681   2.595   1.975   4.429
 8928SOL     OW27682   0.855   6.917   4.440
 8928SOL    HW127683   0.776   6.970   4.471
 8928SOL    HW227684   0.853   6.826   4.483
 8929SOL     OW27685   5.250   4.014   3.569
 8929SOL    HW127686   5.245   4.105   3.611
 8929SOL    HW227687   5.200   4.015   3.482
 8930SOL     OW27688   0.811   5.316   5.456
 8930SOL    HW127689   0.864   5.388   5.501
 8930SOL    HW227690   0.732   5.356   5.410
 8931SOL     OW27691   4.948   1.249   1.719
 8931SOL    HW127692   4.921   1.341   1.693
 8931SOL    HW227693   5.046   1.238   1.705
 8932SOL     OW27694   5.546   0.836   0.330
 8932SOL    HW127695   5.514   0.918   0.282
 8932SOL    HW227696   5.579   0.769   0.264
 8933SOL     OW27697   1.341   0.601   5.303
 8933SOL    HW127698   1.276   0.677   5.310
 8933SOL    HW227699   1.337   0.563   5.210
 8934SOL     OW27700   4.346   6.864   3.796
 8934SOL    HW127701   4.256   6.898   3.766
 8934SOL    HW227702   4.377   6.793   3.733
 8935SOL     OW27703   5.623   1.557   2.600
 8935SOL    HW127704   5.682   1.621   2.550
 8935SOL    HW227705   5.527   1.580   2.583
 8936SOL     OW27706   1.995   3.940   2.166
 8936SOL    HW127707   1.969   3.985   2.251
 8936SOL    HW227708   2.084   3.895   2.179
 8937SOL     OW27709   4.430   0.375   4.976
 8937SOL    HW127710   4.377   0.393   4.893
 8937SOL    HW227711   4.367   0.354   5.051
 8938SOL     OW27712   5.785   6.539   1.316
 8938SOL    HW127713   5.853   6.482   1.271
 8938SOL    HW227714   5.723   6.482   1.369
 8939SOL     OW27715   0.683   3.016   4.453
 8939SOL    HW127716   0.583   3.020   4.463
 8939SOL    HW227717   0.717   2.930   4.490
 8940SOL     OW27718   6.272   3.098   2.023
 8940SOL    HW127719   6.191   3.089   2.082
 8940SOL    HW227720   6.322   3.011   2.021
 8941SOL     OW27721   5.959   1.871   3.087
 8941SOL    HW127722   5.883   1.896   3.026
 8941SOL    HW227723   5.937   1.785   3.133
 8942SOL     OW27724   4.937   4.488   3.682
 8942SOL    HW127725   4.899   4.578   3.659
 8942SOL    HW227726   4.934   4.429   3.601
 8943SOL     OW27727   4.542   2.915   0.363
 8943SOL    HW127728   4.535   2.972   0.445
 8943SOL    HW227729   4.629   2.932   0.318
 8944SOL     OW27730   4.049   5.694   5.282
 8944SOL    HW127731   4.106   5.694   5.364
 8944SOL    HW227732   3.959   5.731   5.304
 8945SOL     OW27733   6.512   4.515   1.953
 8945SOL    HW127734   6.468   4.578   2.018
 8945SOL    HW227735   6.574   4.454   2.002
 8946SOL     OW27736   3.934   1.456   5.054
 8946SOL    HW127737   3.934   1.465   4.954
 8946SOL    HW227738   3.847   1.417   5.084
 8947SOL     OW27739   1.812   4.821   0.877
 8947SOL    HW127740   1.866   4.893   0.833
 8947SOL    HW227741   1.842   4.732   0.844
 8948SOL     OW27742   5.498   0.457   2.943
 8948SOL    HW127743   5.514   0.552   2.916
 8948SOL    HW227744   5.573   0.425   3.000
 8949SOL     OW27745   3.462   6.380   1.117
 8949SOL    HW127746   3.492   6.465   1.073
 8949SOL    HW227747   3.389   6.338   1.064
 8950SOL     OW27748   3.240   3.459   2.858
 8950SOL    HW127749   3.254   3.402   2.940
 8950SOL    HW227750   3.143   3.470   2.841
 8951SOL     OW27751   0.525   0.474   3.718
 8951SOL    HW127752   0.499   0.426   3.802
 8951SOL    HW227753   0.447   0.528   3.685
 8952SOL     OW27754   1.652   4.295   4.545
 8952SOL    HW127755   1.653   4.345   4.631
 8952SOL    HW227756   1.630   4.357   4.470
 8953SOL     OW27757   0.526   5.348   1.403
 8953SOL    HW127758   0.567   5.378   1.489
 8953SOL    HW227759   0.553   5.253   1.385
 8954SOL     OW27760   2.049   4.053   5.610
 8954SOL    HW127761   2.003   4.100   5.685
 8954SOL    HW227762   2.137   4.097   5.593
 8955SOL     OW27763   6.199   2.973   5.499
 8955SOL    HW127764   6.168   3.067   5.490
 8955SOL    HW227765   6.218   2.953   5.595
 8956SOL     OW27766   0.536   6.297   0.683
 8956SOL    HW127767   0.444   6.316   0.719
 8956SOL    HW227768   0.536   6.311   0.584
 8957SOL     OW27769   1.436   6.654   2.780
 8957SOL    HW127770   1.401   6.649   2.873
 8957SOL    HW227771   1.503   6.727   2.773
 8958SOL     OW27772   6.764   3.875   4.393
 8958SOL    HW127773   6.757   3.832   4.483
 8958SOL    HW227774   6.841   3.834   4.343
 8959SOL     OW27775   5.514   1.997   4.067
 8959SOL    HW127776   5.554   1.907   4.082
 8959SOL    HW227777   5.415   1.991   4.070
 8960SOL     OW27778   5.403   5.051   2.642
 8960SOL    HW127779   5.423   5.008   2.730
 8960SOL    HW227780   5.488   5.083   2.600
 8961SOL     OW27781   2.751   1.481   5.196
 8961SOL    HW127782   2.812   1.409   5.227
 8961SOL    HW227783   2.781   1.513   5.106
 8962SOL     OW27784   6.802   5.693   2.434
 8962SOL    HW127785   6.840   5.610   2.473
 8962SOL    HW227786   6.792   5.762   2.505
 8963SOL     OW27787   2.266   6.331   6.168
 8963SOL    HW127788   2.261   6.241   6.124
 8963SOL    HW227789   2.232   6.324   6.261
 8964SOL     OW27790   1.548   2.413   3.164
 8964SOL    HW127791   1.621   2.360   3.121
 8964SOL    HW227792   1.588   2.492   3.212
 8965SOL     OW27793   4.002   6.264   0.519
 8965SOL    HW127794   3.917   6.283   0.568
 8965SOL    HW227795   4.005   6.318   0.435
 8966SOL     OW27796   5.156   6.780   5.433
 8966SOL    HW127797   5.229   6.844   5.459
 8966SOL    HW227798   5.179   6.689   5.465
 8967SOL     OW27799   3.200   0.246   2.977
 8967SOL    HW127800   3.240   0.325   3.024
 8967SOL    HW227801   3.241   0.162   3.014
 8968SOL     OW27802   3.529   4.857   2.538
 8968SOL    HW127803   3.522   4.824   2.633
 8968SOL    HW227804   3.437   4.874   2.503
 8969SOL     OW27805   6.795   1.231   3.038
 8969SOL    HW127806   6.815   1.135   3.059
 8969SOL    HW227807   6.850   1.290   3.096
 8970SOL     OW27808   2.358   1.042   3.304
 8970SOL    HW127809   2.439   1.069   3.253
 8970SOL    HW227810   2.284   1.022   3.240
 8971SOL     OW27811   3.361   4.140   1.142
 8971SOL    HW127812   3.287   4.122   1.206
 8971SOL    HW227813   3.443   4.166   1.192
 8972SOL     OW27814   5.480   4.044   6.637
 8972SOL    HW127815   5.391   4.077   6.670
 8972SOL    HW227816   5.471   4.013   6.543
 8973SOL     OW27817   2.415   1.657   3.521
 8973SOL    HW127818   2.507   1.668   3.484
 8973SOL    HW227819   2.413   1.580   3.584
 8974SOL     OW27820   1.927   4.536   4.236
 8974SOL    HW127821   2.022   4.560   4.215
 8974SOL    HW227822   1.927   4.456   4.297
 8975SOL     OW27823   0.309   3.617   6.162
 8975SOL    HW127824   0.376   3.691   6.157
 8975SOL    HW227825   0.217   3.654   6.146
 8976SOL     OW27826   5.941   0.453   1.704
 8976SOL    HW127827   5.913   0.383   1.770
 8976SOL    HW227828   5.916   0.543   1.738
 8977SOL     OW27829   6.727   4.766   6.392
 8977SOL    HW127830   6.700   4.861   6.407
 8977SOL    HW227831   6.676   4.728   6.315
 8978SOL     OW27832   6.521   5.563   5.796
 8978SOL    HW127833   6.519   5.518   5.707
 8978SOL    HW227834   6.432   5.605   5.814
 8979SOL     OW27835   1.946   5.038   3.573
 8979SOL    HW127836   1.967   5.130   3.606
 8979SOL    HW227837   2.016   4.974   3.606
 8980SOL     OW27838   4.101   0.943   0.611
 8980SOL    HW127839   4.147   0.914   0.695
 8980SOL    HW227840   4.089   0.864   0.551
 8981SOL     OW27841   4.108   2.174   0.255
 8981SOL    HW127842   4.026   2.190   0.201
 8981SOL    HW227843   4.170   2.252   0.245
 8982SOL     OW27844   6.885   1.374   1.703
 8982SOL    HW127845   6.878   1.289   1.651
 8982SOL    HW227846   6.936   1.357   1.788
 8983SOL     OW27847   1.606   6.978   2.507
 8983SOL    HW127848   1.635   6.884   2.526
 8983SOL    HW227849   1.619   6.998   2.410
 8984SOL     OW27850   6.468   1.869   4.775
 8984SOL    HW127851   6.459   1.876   4.676
 8984SOL    HW227852   6.563   1.853   4.799
 8985SOL     OW27853   4.280   1.033   2.359
 8985SOL    HW127854   4.221   1.047   2.280
 8985SOL    HW227855   4.369   1.075   2.341
 8986SOL     OW27856   6.643   5.770   0.443
 8986SOL    HW127857   6.548   5.777   0.475
 8986SOL    HW227858   6.663   5.848   0.384
 8987SOL     OW27859   2.335   6.473   2.215
 8987SOL    HW127860   2.358   6.431   2.127
 8987SOL    HW227861   2.324   6.572   2.203
 8988SOL     OW27862   2.456   0.186   1.443
 8988SOL    HW127863   2.444   0.273   1.395
 8988SOL    HW227864   2.399   0.116   1.400
 8989SOL     OW27865   5.941   1.285   2.592
 8989SOL    HW127866   5.911   1.339   2.513
 8989SOL    HW227867   5.895   1.197   2.592
 8990SOL     OW27868   3.618   0.974   3.139
 8990SOL    HW127869   3.540   0.958   3.078
 8990SOL    HW227870   3.691   1.020   3.089
 8991SOL     OW27871   1.234   2.044   0.581
 8991SOL    HW127872   1.166   2.045   0.507
 8991SOL    HW227873   1.256   1.949   0.604
 8992SOL     OW27874   6.778   4.551   6.089
 8992SOL    HW127875   6.843   4.497   6.143
 8992SOL    HW227876   6.695   4.565   6.142
 8993SOL     OW27877   5.119   3.904   3.771
 8993SOL    HW127878   5.129   3.980   3.835
 8993SOL    HW227879   5.167   3.925   3.686
 8994SOL     OW27880   1.248   6.266   2.674
 8994SOL    HW127881   1.201   6.324   2.741
 8994SOL    HW227882   1.193   6.185   2.655
 8995SOL     OW27883   2.021   3.937   3.652
 8995SOL    HW127884   2.055   3.963   3.742
 8995SOL    HW227885   2.074   3.983   3.581
 8996SOL     OW27886   2.347   3.750   0.865
 8996SOL    HW127887   2.332   3.848   0.873
 8996SOL    HW227888   2.348   3.724   0.768
 8997SOL     OW27889   4.750   1.033   5.060
 8997SOL    HW127890   4.792   1.116   5.022
 8997SOL    HW227891   4.695   0.989   4.989
 8998SOL     OW27892   1.130   1.697   6.518
 8998SOL    HW127893   1.136   1.758   6.597
 8998SOL    HW227894   1.212   1.640   6.513
 8999SOL     OW27895   5.411   2.646   5.538
 8999SOL    HW127896   5.481   2.689   5.481
 8999SOL    HW227897   5.397   2.552   5.507
 9000SOL     OW27898   3.760   4.787   1.256
 9000SOL    HW127899   3.759   4.705   1.314
 9000SOL    HW227900   3.789   4.761   1.163
 9001SOL     OW27901   1.565   4.208   3.171
 9001SOL    HW127902   1.656   4.223   3.210
 9001SOL    HW227903   1.557   4.113   3.141
 9002SOL     OW27904   5.690   3.423   5.272
 9002SOL    HW127905   5.649   3.508   5.307
 9002SOL    HW227906   5.727   3.370   5.349
 9003SOL     OW27907   6.428   3.243   0.123
 9003SOL    HW127908   6.395   3.297   0.200
 9003SOL    HW227909   6.510   3.193   0.151
 9004SOL     OW27910   4.782   5.462   1.189
 9004SOL    HW127911   4.692   5.435   1.155
 9004SOL    HW227912   4.831   5.511   1.117
 9005SOL     OW27913   5.194   2.752   3.623
 9005SOL    HW127914   5.179   2.805   3.706
 9005SOL    HW227915   5.269   2.792   3.571
 9006SOL     OW27916   2.042   6.359   1.239
 9006SOL    HW127917   2.033   6.317   1.148
 9006SOL    HW227918   2.024   6.291   1.309
 9007SOL     OW27919   1.960   6.299   5.242
 9007SOL    HW127920   1.875   6.252   5.267
 9007SOL    HW227921   2.007   6.247   5.170
 9008SOL     OW27922   0.322   4.476   2.347
 9008SOL    HW127923   0.398   4.521   2.394
 9008SOL    HW227924   0.320   4.504   2.251
 9009SOL     OW27925   3.845   5.599   0.037
 9009SOL    HW127926   3.881   5.627   0.126
 9009SOL    HW227927   3.797   5.677   7.016
 9010SOL     OW27928   6.928   5.648   4.523
 9010SOL    HW127929   6.895   5.679   4.612
 9010SOL    HW227930   6.850   5.624   4.466
 9011SOL     OW27931   4.612   2.484   2.361
 9011SOL    HW127932   4.553   2.515   2.436
 9011SOL    HW227933   4.701   2.457   2.397
 9012SOL     OW27934   5.307   5.206   2.262
 9012SOL    HW127935   5.328   5.162   2.175
 9012SOL    HW227936   5.208   5.205   2.278
 9013SOL     OW27937   4.527   6.271   2.472
 9013SOL    HW127938   4.550   6.291   2.377
 9013SOL    HW227939   4.456   6.334   2.503
 9014SOL     OW27940   2.320   0.440   2.016
 9014SOL    HW127941   2.409   0.483   2.029
 9014SOL    HW227942   2.322   0.349   2.057
 9015SOL     OW27943   6.000   1.779   4.956
 9015SOL    HW127944   5.962   1.727   5.033
 9015SOL    HW227945   5.944   1.763   4.875
 9016SOL     OW27946   6.976   5.923   6.858
 9016SOL    HW127947   6.967   5.827   6.884
 9016SOL    HW227948   6.886   5.964   6.848
 9017SOL     OW27949   0.142   3.432   2.940
 9017SOL    HW127950   0.163   3.417   3.036
 9017SOL    HW227951   0.102   3.348   2.901
 9018SOL     OW27952   4.713   2.107   6.281
 9018SOL    HW127953   4.796   2.162   6.293
 9018SOL    HW227954   4.659   2.108   6.365
 9019SOL     OW27955   1.655   5.616   0.331
 9019SOL    HW127956   1.603   5.629   0.246
 9019SOL    HW227957   1.602   5.558   0.393
 9020SOL     OW27958   0.634   5.069   3.684
 9020SOL    HW127959   0.568   4.994   3.669
 9020SOL    HW227960   0.713   5.056   3.624
 9021SOL     OW27961   5.591   5.207   5.484
 9021SOL    HW127962   5.556   5.137   5.422
 9021SOL    HW227963   5.551   5.193   5.575
 9022SOL     OW27964   2.850   6.873   6.732
 9022SOL    HW127965   2.769   6.888   6.788
 9022SOL    HW227966   2.832   6.802   6.664
 9023SOL     OW27967   2.919   3.421   3.746
 9023SOL    HW127968   2.936   3.323   3.761
 9023SOL    HW227969   2.902   3.437   3.649
 9024SOL     OW27970   1.193   0.314   6.472
 9024SOL    HW127971   1.221   0.336   6.566
 9024SOL    HW227972   1.116   0.251   6.474
 9025SOL     OW27973   0.491   3.359   6.951
 9025SOL    HW127974   0.489   3.346   6.852
 9025SOL    HW227975   0.581   3.395   6.977
 9026SOL     OW27976   2.622   3.637   5.638
 9026SOL    HW127977   2.693   3.706   5.623
 9026SOL    HW227978   2.535   3.683   5.659
 9027SOL     OW27979   1.825   2.697   2.516
 9027SOL    HW127980   1.779   2.713   2.429
 9027SOL    HW227981   1.923   2.715   2.506
 9028SOL     OW27982   2.488   4.524   4.301
 9028SOL    HW127983   2.513   4.598   4.364
 9028SOL    HW227984   2.452   4.447   4.354
 9029SOL     OW27985   5.721   5.309   2.570
 9029SOL    HW127986   5.680   5.238   2.512
 9029SOL    HW227987   5.815   5.326   2.540
 9030SOL     OW27988   3.712   1.949   2.269
 9030SOL    HW127989   3.797   1.980   2.226
 9030SOL    HW227990   3.636   2.006   2.238
 9031SOL     OW27991   2.213   1.382   1.231
 9031SOL    HW127992   2.240   1.474   1.261
 9031SOL    HW227993   2.245   1.314   1.297
 9032SOL     OW27994   0.623   2.899   1.664
 9032SOL    HW127995   0.659   2.812   1.630
 9032SOL    HW227996   0.545   2.927   1.609
 9033SOL     OW27997   1.323   4.063   2.573
 9033SOL    HW127998   1.404   4.084   2.628
 9033SOL    HW227999   1.244   4.050   2.632
 9034SOL     OW28000   1.780   6.482   6.903
 9034SOL    HW128001   1.782   6.563   6.962
 9034SOL    HW228002   1.757   6.402   6.958
 9035SOL     OW28003   6.623   1.381   4.544
 9035SOL    HW128004   6.599   1.418   4.455
 9035SOL    HW228005   6.569   1.426   4.615
 9036SOL     OW28006   0.624   0.983   4.433
 9036SOL    HW128007   0.539   0.932   4.446
 9036SOL    HW228008   0.613   1.076   4.465
 9037SOL     OW28009   2.373   3.731   5.713
 9037SOL    HW128010   2.330   3.821   5.721
 9037SOL    HW228011   2.314   3.662   5.755
 9038SOL     OW28012   4.543   5.254   5.668
 9038SOL    HW128013   4.496   5.215   5.589
 9038SOL    HW228014   4.600   5.331   5.638
 9039SOL     OW28015   2.319   4.585   6.687
 9039SOL    HW128016   2.231   4.542   6.705
 9039SOL    HW228017   2.334   4.591   6.588
 9040SOL     OW28018   2.493   1.840   2.123
 9040SOL    HW128019   2.405   1.850   2.168
 9040SOL    HW228020   2.480   1.838   2.024
 9041SOL     OW28021   1.676   2.916   5.914
 9041SOL    HW128022   1.659   2.830   5.865
 9041SOL    HW228023   1.752   2.964   5.871
 9042SOL     OW28024   1.586   5.500   3.253
 9042SOL    HW128025   1.674   5.467   3.217
 9042SOL    HW228026   1.517   5.430   3.240
 9043SOL     OW28027   0.044   2.527   6.787
 9043SOL    HW128028   0.098   2.447   6.811
 9043SOL    HW228029   6.973   2.520   6.829
 9044SOL     OW28030   0.116   4.091   0.590
 9044SOL    HW128031   0.058   4.052   0.519
 9044SOL    HW228032   0.166   4.169   0.553
 9045SOL     OW28033   2.188   4.693   4.195
 9045SOL    HW128034   2.249   4.671   4.118
 9045SOL    HW228035   2.230   4.661   4.280
 9046SOL     OW28036   3.671   4.567   6.282
 9046SOL    HW128037   3.709   4.483   6.242
 9046SOL    HW228038   3.739   4.640   6.277
 9047SOL     OW28039   0.867   4.591   4.572
 9047SOL    HW128040   0.767   4.600   4.580
 9047SOL    HW228041   0.896   4.506   4.617
 9048SOL     OW28042   1.847   2.015   5.578
 9048SOL    HW128043   1.782   2.057   5.514
 9048SOL    HW228044   1.931   2.069   5.580
 9049SOL     OW28045   4.705   6.675   5.956
 9049SOL    HW128046   4.759   6.751   5.993
 9049SOL    HW228047   4.749   6.641   5.872
 9050SOL     OW28048   6.984   5.469   5.844
 9050SOL    HW128049   0.055   5.432   5.860
 9050SOL    HW228050   6.917   5.395   5.839
 9051SOL     OW28051   5.684   6.536   6.665
 9051SOL    HW128052   5.644   6.473   6.598
 9051SOL    HW228053   5.752   6.487   6.719
 9052SOL     OW28054   2.840   4.902   5.081
 9052SOL    HW128055   2.770   4.927   5.148
 9052SOL    HW228056   2.823   4.808   5.049
 9053SOL     OW28057   2.633   1.402   2.444
 9053SOL    HW128058   2.629   1.335   2.518
 9053SOL    HW228059   2.667   1.489   2.479
 9054SOL     OW28060   1.794   0.066   1.640
 9054SOL    HW128061   1.888   0.032   1.633
 9054SOL    HW228062   1.736   7.015   1.679
 9055SOL     OW28063   0.763   2.194   4.360
 9055SOL    HW128064   0.708   2.278   4.361
 9055SOL    HW228065   0.859   2.217   4.379
 9056SOL     OW28066   4.582   2.737   1.820
 9056SOL    HW128067   4.642   2.774   1.890
 9056SOL    HW228068   4.580   2.799   1.741
 9057SOL     OW28069   3.802   6.249   6.875
 9057SOL    HW128070   3.730   6.317   6.891
 9057SOL    HW228071   3.774   6.188   6.800
 9058SOL     OW28072   2.485   2.178   4.730
 9058SOL    HW128073   2.404   2.152   4.783
 9058SOL    HW228074   2.486   2.277   4.718
 9059SOL     OW28075   0.260   1.354   2.348
 9059SOL    HW128076   0.167   1.367   2.380
 9059SOL    HW228077   0.310   1.298   2.415
 9060SOL     OW28078   0.025   5.030   1.103
 9060SOL    HW128079   7.006   4.939   1.114
 9060SOL    HW228080   0.018   5.081   1.189
 9061SOL     OW28081   4.809   4.219   2.222
 9061SOL    HW128082   4.787   4.154   2.149
 9061SOL    HW228083   4.907   4.220   2.238
 9062SOL     OW28084   0.702   5.398   3.116
 9062SOL    HW128085   0.704   5.429   3.021
 9062SOL    HW228086   0.614   5.423   3.158
 9063SOL     OW28087   4.714   0.913   1.049
 9063SOL    HW128088   4.672   0.823   1.052
 9063SOL    HW228089   4.674   0.971   1.120
 9064SOL     OW28090   1.516   5.627   3.503
 9064SOL    HW128091   1.578   5.691   3.550
 9064SOL    HW228092   1.567   5.576   3.434
 9065SOL     OW28093   3.653   4.210   6.894
 9065SOL    HW128094   3.564   4.196   6.938
 9065SOL    HW228095   3.705   4.277   6.947
 9066SOL     OW28096   4.936   4.784   3.848
 9066SOL    HW128097   4.849   4.742   3.826
 9066SOL    HW228098   4.953   4.777   3.947
 9067SOL     OW28099   2.133   6.458   4.305
 9067SOL    HW128100   2.221   6.453   4.354
 9067SOL    HW228101   2.086   6.543   4.329
 9068SOL     OW28102   4.543   6.905   6.186
 9068SOL    HW128103   4.575   6.939   6.098
 9068SOL    HW228104   4.449   6.872   6.177
 9069SOL     OW28105   5.124   2.426   2.088
 9069SOL    HW128106   5.191   2.474   2.031
 9069SOL    HW228107   5.075   2.492   2.144
 9070SOL     OW28108   1.733   0.656   6.391
 9070SOL    HW128109   1.689   0.574   6.354
 9070SOL    HW228110   1.817   0.674   6.341
 9071SOL     OW28111   5.116   2.729   6.698
 9071SOL    HW128112   5.210   2.733   6.732
 9071SOL    HW228113   5.065   2.660   6.749
 9072SOL     OW28114   5.736   6.871   1.935
 9072SOL    HW128115   5.820   6.827   1.903
 9072SOL    HW228116   5.676   6.889   1.857
 9073SOL     OW28117   4.534   3.317   5.516
 9073SOL    HW128118   4.581   3.396   5.475
 9073SOL    HW228119   4.554   3.235   5.464
 9074SOL     OW28120   2.010   0.899   3.356
 9074SOL    HW128121   1.974   0.821   3.408
 9074SOL    HW228122   2.046   0.866   3.268
 9075SOL     OW28123   5.002   5.658   0.683
 9075SOL    HW128124   5.069   5.606   0.736
 9075SOL    HW228125   4.974   5.604   0.603
 9076SOL     OW28126   1.070   6.042   2.617
 9076SOL    HW128127   1.026   6.056   2.705
 9076SOL    HW228128   1.037   5.957   2.576
 9077SOL     OW28129   6.366   2.143   6.380
 9077SOL    HW128130   6.398   2.147   6.285
 9077SOL    HW228131   6.444   2.130   6.441
 9078SOL     OW28132   5.317   6.800   0.378
 9078SOL    HW128133   5.371   6.729   0.331
 9078SOL    HW228134   5.358   6.819   0.467
 9079SOL     OW28135   1.319   1.234   6.144
 9079SOL    HW128136   1.412   1.198   6.147
 9079SOL    HW228137   1.253   1.159   6.147
 9080SOL     OW28138   6.496   4.376   2.329
 9080SOL    HW128139   6.464   4.353   2.237
 9080SOL    HW228140   6.465   4.306   2.393
 9081SOL     OW28141   4.966   1.509   0.409
 9081SOL    HW128142   4.979   1.411   0.394
 9081SOL    HW228143   4.872   1.526   0.440
 9082SOL     OW28144   3.358   4.793   6.657
 9082SOL    HW128145   3.423   4.755   6.591
 9082SOL    HW228146   3.352   4.733   6.737
 9083SOL     OW28147   3.461   0.200   0.776
 9083SOL    HW128148   3.369   0.223   0.810
 9083SOL    HW228149   3.472   0.234   0.683
 9084SOL     OW28150   0.060   3.946   4.737
 9084SOL    HW128151   0.033   3.947   4.833
 9084SOL    HW228152   0.130   3.876   4.723
 9085SOL     OW28153   2.788   4.995   0.923
 9085SOL    HW128154   2.706   5.023   0.974
 9085SOL    HW228155   2.842   4.932   0.979
 9086SOL     OW28156   0.092   3.150   0.591
 9086SOL    HW128157   0.086   3.053   0.614
 9086SOL    HW228158   0.036   3.202   0.655
 9087SOL     OW28159   5.171   1.630   1.705
 9087SOL    HW128160   5.163   1.639   1.606
 9087SOL    HW228161   5.237   1.696   1.740
 9088SOL     OW28162   5.895   5.449   0.038
 9088SOL    HW128163   5.969   5.425   0.101
 9088SOL    HW228164   5.918   5.534   7.011
 9089SOL     OW28165   5.322   5.065   3.277
 9089SOL    HW128166   5.371   5.021   3.202
 9089SOL    HW228167   5.317   5.003   3.355
 9090SOL     OW28168   5.177   5.768   5.668
 9090SOL    HW128169   5.183   5.789   5.570
 9090SOL    HW228170   5.215   5.844   5.720
 9091SOL     OW28171   2.681   2.174   1.934
 9091SOL    HW128172   2.745   2.244   1.967
 9091SOL    HW228173   2.709   2.084   1.968
 9092SOL     OW28174   2.062   1.779   5.012
 9092SOL    HW128175   2.080   1.711   5.084
 9092SOL    HW228176   2.083   1.739   4.923
 9093SOL     OW28177   2.218   3.591   0.575
 9093SOL    HW128178   2.206   3.519   0.506
 9093SOL    HW228179   2.311   3.627   0.570
 9094SOL     OW28180   6.414   3.751   0.915
 9094SOL    HW128181   6.373   3.668   0.955
 9094SOL    HW228182   6.513   3.747   0.925
 9095SOL     OW28183   2.363   3.018   0.104
 9095SOL    HW128184   2.302   2.939   0.113
 9095SOL    HW228185   2.388   3.029   0.007
 9096SOL     OW28186   6.481   3.776   3.196
 9096SOL    HW128187   6.567   3.804   3.153
 9096SOL    HW228188   6.404   3.816   3.147
 9097SOL     OW28189   6.397   6.370   5.892
 9097SOL    HW128190   6.412   6.436   5.818
 9097SOL    HW228191   6.350   6.416   5.968
 9098SOL     OW28192   3.574   4.092   4.833
 9098SOL    HW128193   3.613   4.089   4.925
 9098SOL    HW228194   3.481   4.128   4.838
 9099SOL     OW28195   1.556   1.914   6.978
 9099SOL    HW128196   1.539   1.998   6.927
 9099SOL    HW228197   1.503   1.915   0.042
 9100SOL     OW28198   1.607   3.007   0.224
 9100SOL    HW128199   1.549   2.938   0.182
 9100SOL    HW228200   1.551   3.081   0.260
 9101SOL     OW28201   2.065   1.761   6.677
 9101SOL    HW128202   1.967   1.767   6.691
 9101SOL    HW228203   2.095   1.835   6.617
 9102SOL     OW28204   4.912   6.404   2.610
 9102SOL    HW128205   4.965   6.357   2.539
 9102SOL    HW228206   4.920   6.503   2.597
 9103SOL     OW28207   0.480   4.874   6.065
 9103SOL    HW128208   0.450   4.840   6.154
 9103SOL    HW228209   0.499   4.972   6.072
 9104SOL     OW28210   5.220   0.358   2.904
 9104SOL    HW128211   5.213   0.277   2.963
 9104SOL    HW228212   5.303   0.408   2.925
 9105SOL     OW28213   2.805   1.541   5.480
 9105SOL    HW128214   2.707   1.558   5.491
 9105SOL    HW228215   2.857   1.616   5.521
 9106SOL     OW28216   6.396   4.790   1.826
 9106SOL    HW128217   6.455   4.758   1.900
 9106SOL    HW228218   6.302   4.762   1.844
 9107SOL     OW28219   4.357   0.515   0.240
 9107SOL    HW128220   4.442   0.495   0.289
 9107SOL    HW228221   4.279   0.496   0.301
 9108SOL     OW28222   3.847   5.969   6.943
 9108SOL    HW128223   3.820   6.062   6.918
 9108SOL    HW228224   3.844   5.959   0.022
 9109SOL     OW28225   3.045   1.432   4.740
 9109SOL    HW128226   3.071   1.420   4.644
 9109SOL    HW228227   3.076   1.352   4.793
 9110SOL     OW28228   1.382   3.099   3.084
 9110SOL    HW128229   1.395   3.010   3.127
 9110SOL    HW228230   1.471   3.141   3.065
 9111SOL     OW28231   4.142   4.067   1.700
 9111SOL    HW128232   4.057   4.113   1.725
 9111SOL    HW228233   4.218   4.107   1.750
 9112SOL     OW28234   0.883   5.339   1.901
 9112SOL    HW128235   0.880   5.289   1.814
 9112SOL    HW228236   0.965   5.395   1.905
 9113SOL     OW28237   3.040   5.933   0.089
 9113SOL    HW128238   3.030   5.944   7.011
 9113SOL    HW228239   3.050   6.023   0.132
 9114SOL     OW28240   2.761   3.999   1.633
 9114SOL    HW128241   2.724   4.071   1.692
 9114SOL    HW228242   2.752   4.027   1.537
 9115SOL     OW28243   1.615   4.354   4.086
 9115SOL    HW128244   1.587   4.297   4.009
 9115SOL    HW228245   1.697   4.406   4.060
 9116SOL     OW28246   2.213   1.655   5.865
 9116SOL    HW128247   2.248   1.749   5.865
 9116SOL    HW228248   2.125   1.652   5.912
 9117SOL     OW28249   6.700   3.120   6.582
 9117SOL    HW128250   6.671   3.203   6.536
 9117SOL    HW228251   6.799   3.106   6.568
 9118SOL     OW28252   0.300   5.235   1.319
 9118SOL    HW128253   0.373   5.302   1.336
 9118SOL    HW228254   0.234   5.237   1.394
 9119SOL     OW28255   6.257   0.025   0.664
 9119SOL    HW128256   6.207   7.016   0.746
 9119SOL    HW228257   6.255   0.124   0.658
 9120SOL     OW28258   5.802   1.163   6.563
 9120SOL    HW128259   5.898   1.185   6.581
 9120SOL    HW228260   5.762   1.119   6.644
 9121SOL     OW28261   1.407   0.941   6.702
 9121SOL    HW128262   1.500   0.967   6.729
 9121SOL    HW228263   1.344   0.959   6.777
 9122SOL     OW28264   0.728   2.494   0.839
 9122SOL    HW128265   0.692   2.497   0.746
 9122SOL    HW228266   0.662   2.451   0.900
 9123SOL     OW28267   2.668   6.451   6.891
 9123SOL    HW128268   2.609   6.491   6.961
 9123SOL    HW228269   2.746   6.406   6.936
 9124SOL     OW28270   5.815   4.680   5.704
 9124SOL    HW128271   5.841   4.647   5.613
 9124SOL    HW228272   5.893   4.728   5.745
 9125SOL     OW28273   4.772   5.975   1.717
 9125SOL    HW128274   4.754   5.894   1.663
 9125SOL    HW228275   4.870   5.983   1.735
 9126SOL     OW28276   5.810   0.092   2.139
 9126SOL    HW128277   5.863   0.152   2.198
 9126SOL    HW228278   5.872   0.035   2.085
 9127SOL     OW28279   4.878   6.619   6.847
 9127SOL    HW128280   4.921   6.709   6.841
 9127SOL    HW228281   4.910   6.573   6.930
 9128SOL     OW28282   5.109   2.800   5.069
 9128SOL    HW128283   5.017   2.768   5.046
 9128SOL    HW228284   5.152   2.733   5.130
 9129SOL     OW28285   2.167   1.582   6.318
 9129SOL    HW128286   2.244   1.605   6.379
 9129SOL    HW228287   2.119   1.666   6.293
 9130SOL     OW28288   6.017   5.495   0.902
 9130SOL    HW128289   5.937   5.486   0.962
 9130SOL    HW228290   6.099   5.464   0.950
 9131SOL     OW28291   0.321   4.449   3.911
 9131SOL    HW128292   0.300   4.481   4.003
 9131SOL    HW228293   0.241   4.401   3.874
 9132SOL     OW28294   1.628   3.140   4.315
 9132SOL    HW128295   1.542   3.108   4.277
 9132SOL    HW228296   1.625   3.136   4.415
 9133SOL     OW28297   1.466   4.543   1.070
 9133SOL    HW128298   1.484   4.609   0.996
 9133SOL    HW228299   1.466   4.591   1.158
 9134SOL     OW28300   2.859   4.922   6.211
 9134SOL    HW128301   2.917   4.862   6.266
 9134SOL    HW228302   2.904   5.010   6.198
 9135SOL     OW28303   0.186   5.869   4.069
 9135SOL    HW128304   0.260   5.920   4.025
 9135SOL    HW228305   0.211   5.772   4.074
 9136SOL     OW28306   4.130   5.242   6.100
 9136SOL    HW128307   4.210   5.245   6.041
 9136SOL    HW228308   4.155   5.206   6.189
 9137SOL     OW28309   4.153   1.252   2.513
 9137SOL    HW128310   4.168   1.345   2.547
 9137SOL    HW228311   4.160   1.252   2.413
 9138SOL     OW28312   3.453   4.650   0.760
 9138SOL    HW128313   3.371   4.652   0.817
 9138SOL    HW228314   3.447   4.720   0.689
 9139SOL     OW28315   3.799   1.069   5.657
 9139SOL    HW128316   3.708   1.032   5.674
 9139SOL    HW228317   3.867   1.013   5.705
 9140SOL     OW28318   0.203   2.304   3.572
 9140SOL    HW128319   0.141   2.288   3.495
 9140SOL    HW228320   0.239   2.217   3.605
 9141SOL     OW28321   6.097   0.590   5.825
 9141SOL    HW128322   6.042   0.638   5.757
 9141SOL    HW228323   6.108   0.647   5.906
 9142SOL     OW28324   1.091   4.056   6.213
 9142SOL    HW128325   1.183   4.095   6.223
 9142SOL    HW228326   1.047   4.054   6.303
 9143SOL     OW28327   5.351   4.356   1.199
 9143SOL    HW128328   5.357   4.316   1.291
 9143SOL    HW228329   5.255   4.379   1.180
 9144SOL     OW28330   1.347   4.729   4.984
 9144SOL    HW128331   1.386   4.638   4.992
 9144SOL    HW228332   1.339   4.754   4.887
 9145SOL     OW28333   0.268   3.976   6.393
 9145SOL    HW128334   0.238   4.071   6.382
 9145SOL    HW228335   0.190   3.920   6.422
 9146SOL     OW28336   6.891   1.575   1.508
 9146SOL    HW128337   6.887   1.501   1.576
 9146SOL    HW228338   6.890   1.663   1.555
 9147SOL     OW28339   4.423   6.272   6.057
 9147SOL    HW128340   4.378   6.344   6.109
 9147SOL    HW228341   4.504   6.309   6.012
 9148SOL     OW28342   3.720   5.981   3.083
 9148SOL    HW128343   3.766   5.894   3.064
 9148SOL    HW228344   3.747   6.048   3.014
 9149SOL     OW28345   5.929   3.268   3.576
 9149SOL    HW128346   5.872   3.345   3.605
 9149SOL    HW228347   5.994   3.245   3.649
 9150SOL     OW28348   4.451   1.310   3.261
 9150SOL    HW128349   4.526   1.318   3.196
 9150SOL    HW228350   4.431   1.399   3.301
 9151SOL     OW28351   1.545   3.676   2.311
 9151SOL    HW128352   1.480   3.650   2.239
 9151SOL    HW228353   1.612   3.740   2.273
 9152SOL     OW28354   2.499   5.581   2.821
 9152SOL    HW128355   2.408   5.542   2.830
 9152SOL    HW228356   2.509   5.659   2.883
 9153SOL     OW28357   1.638   3.292   6.244
 9153SOL    HW128358   1.611   3.293   6.148
 9153SOL    HW228359   1.671   3.201   6.269
 9154SOL     OW28360   2.106   5.699   0.569
 9154SOL    HW128361   2.107   5.678   0.667
 9154SOL    HW228362   2.033   5.764   0.550
 9155SOL     OW28363   1.488   4.231   0.346
 9155SOL    HW128364   1.523   4.307   0.400
 9155SOL    HW228365   1.389   4.223   0.360
 9156SOL     OW28366   5.510   2.939   2.160
 9156SOL    HW128367   5.514   3.036   2.134
 9156SOL    HW228368   5.420   2.902   2.134
 9157SOL     OW28369   5.242   3.764   5.757
 9157SOL    HW128370   5.247   3.810   5.846
 9157SOL    HW228371   5.282   3.822   5.687
 9158SOL     OW28372   0.835   3.731   3.276
 9158SOL    HW128373   0.904   3.658   3.275
 9158SOL    HW228374   0.869   3.810   3.224
 9159SOL     OW28375   0.269   4.210   3.094
 9159SOL    HW128376   0.344   4.265   3.132
 9159SOL    HW228377   0.249   4.134   3.156
 9160SOL     OW28378   6.993   6.845   0.291
 9160SOL    HW128379   6.930   6.877   0.362
 9160SOL    HW228380   0.060   6.894   0.300
 9161SOL     OW28381   5.371   3.729   3.784
 9161SOL    HW128382   5.323   3.731   3.696
 9161SOL    HW228383   5.341   3.805   3.841
 9162SOL     OW28384   5.373   2.191   2.184
 9162SOL    HW128385   5.392   2.200   2.087
 9162SOL    HW228386   5.362   2.094   2.207
 9163SOL     OW28387   3.149   1.747   4.000
 9163SOL    HW128388   3.168   1.736   4.098
 9163SOL    HW228389   3.173   1.663   3.952
 9164SOL     OW28390   2.515   0.001   0.269
 9164SOL    HW128391   2.597   0.057   0.280
 9164SOL    HW228392   2.434   0.057   0.291
 9165SOL     OW28393   4.972   6.378   0.367
 9165SOL    HW128394   4.968   6.319   0.448
 9165SOL    HW228395   4.980   6.473   0.396
 9166SOL     OW28396   3.009   5.546   1.551
 9166SOL    HW128397   3.105   5.567   1.570
 9166SOL    HW228398   2.970   5.496   1.629
 9167SOL     OW28399   0.819   4.458   4.839
 9167SOL    HW128400   0.833   4.409   4.924
 9167SOL    HW228401   0.743   4.417   4.789
 9168SOL     OW28402   2.178   0.262   6.459
 9168SOL    HW128403   2.117   0.282   6.536
 9168SOL    HW228404   2.272   0.254   6.493
 9169SOL     OW28405   6.518   6.480   3.007
 9169SOL    HW128406   6.532   6.382   3.016
 9169SOL    HW228407   6.607   6.526   3.005
 9170SOL     OW28408   6.212   5.987   6.630
 9170SOL    HW128409   6.182   5.986   6.535
 9170SOL    HW228410   6.133   6.006   6.689
 9171SOL     OW28411   2.684   5.718   6.061
 9171SOL    HW128412   2.714   5.787   5.995
 9171SOL    HW228413   2.762   5.684   6.112
 9172SOL     OW28414   2.532   2.415   4.131
 9172SOL    HW128415   2.462   2.427   4.060
 9172SOL    HW228416   2.506   2.338   4.189
 9173SOL     OW28417   0.504   4.910   5.232
 9173SOL    HW128418   0.589   4.949   5.195
 9173SOL    HW228419   0.503   4.811   5.216
 9174SOL     OW28420   0.004   4.987   0.241
 9174SOL    HW128421   0.088   4.939   0.217
 9174SOL    HW228422   0.014   5.030   0.331
 9175SOL     OW28423   1.698   0.157   5.134
 9175SOL    HW128424   1.607   0.181   5.100
 9175SOL    HW228425   1.736   0.082   5.079
 9176SOL     OW28426   1.630   1.189   5.875
 9176SOL    HW128427   1.693   1.129   5.827
 9176SOL    HW228428   1.656   1.194   5.972
 9177SOL     OW28429   1.288   4.862   3.674
 9177SOL    HW128430   1.266   4.773   3.636
 9177SOL    HW228431   1.273   4.933   3.605
 9178SOL     OW28432   2.313   4.520   0.614
 9178SOL    HW128433   2.376   4.449   0.582
 9178SOL    HW228434   2.349   4.610   0.589
 9179SOL     OW28435   2.910   4.815   4.768
 9179SOL    HW128436   2.961   4.890   4.812
 9179SOL    HW228437   2.883   4.748   4.837
 9180SOL     OW28438   4.994   2.201   2.828
 9180SOL    HW128439   4.908   2.249   2.812
 9180SOL    HW228440   5.048   2.202   2.744
 9181SOL     OW28441   3.869   1.524   2.453
 9181SOL    HW128442   3.900   1.619   2.458
 9181SOL    HW228443   3.915   1.478   2.378
 9182SOL     OW28444   1.465   6.912   1.717
 9182SOL    HW128445   1.544   6.886   1.773
 9182SOL    HW228446   1.481   7.001   1.676
 9183SOL     OW28447   5.225   5.489   6.556
 9183SOL    HW128448   5.325   5.492   6.556
 9183SOL    HW228449   5.189   5.580   6.539
 9184SOL     OW28450   4.889   6.713   0.293
 9184SOL    HW128451   4.837   6.770   0.229
 9184SOL    HW228452   4.826   6.668   0.355
 9185SOL     OW28453   4.458   1.287   5.474
 9185SOL    HW128454   4.525   1.268   5.402
 9185SOL    HW228455   4.366   1.269   5.439
 9186SOL     OW28456   5.630   6.859   6.611
 9186SOL    HW128457   5.643   6.760   6.620
 9186SOL    HW228458   5.542   6.885   6.651
 9187SOL     OW28459   2.709   5.994   2.146
 9187SOL    HW128460   2.662   5.953   2.224
 9187SOL    HW228461   2.808   5.991   2.161
 9188SOL     OW28462   2.445   6.006   1.489
 9188SOL    HW128463   2.496   5.922   1.469
 9188SOL    HW228464   2.407   6.001   1.581
 9189SOL     OW28465   5.523   5.114   1.572
 9189SOL    HW128466   5.500   5.019   1.591
 9189SOL    HW228467   5.608   5.118   1.520
 9190SOL     OW28468   1.401   5.067   0.643
 9190SOL    HW128469   1.351   4.984   0.618
 9190SOL    HW228470   1.499   5.048   0.643
 9191SOL     OW28471   6.888   0.433   6.318
 9191SOL    HW128472   6.860   0.528   6.304
 9191SOL    HW228473   6.826   0.388   6.382
 9192SOL     OW28474   0.220   3.773   3.744
 9192SOL    HW128475   0.171   3.861   3.747
 9192SOL    HW228476   0.218   3.737   3.651
 9193SOL     OW28477   2.809   3.441   6.727
 9193SOL    HW128478   2.880   3.390   6.777
 9193SOL    HW228479   2.822   3.539   6.741
 9194SOL     OW28480   3.450   0.520   4.575
 9194SOL    HW128481   3.494   0.604   4.542
 9194SOL    HW228482   3.505   0.441   4.549
 9195SOL     OW28483   1.746   1.193   3.662
 9195SOL    HW128484   1.668   1.253   3.675
 9195SOL    HW228485   1.736   1.143   3.576
 9196SOL     OW28486   4.832   2.410   5.541
 9196SOL    HW128487   4.839   2.421   5.442
 9196SOL    HW228488   4.758   2.469   5.575
 9197SOL     OW28489   2.440   3.739   1.288
 9197SOL    HW128490   2.344   3.715   1.273
 9197SOL    HW228491   2.481   3.768   1.201
 9198SOL     OW28492   0.284   4.797   3.985
 9198SOL    HW128493   0.370   4.749   3.972
 9198SOL    HW228494   0.301   4.895   3.992
 9199SOL     OW28495   6.333   4.885   4.814
 9199SOL    HW128496   6.362   4.793   4.842
 9199SOL    HW228497   6.262   4.877   4.744
 9200SOL     OW28498   2.708   0.188   0.262
 9200SOL    HW128499   2.800   0.148   0.256
 9200SOL    HW228500   2.716   0.287   0.267
 9201SOL     OW28501   1.811   4.134   0.361
 9201SOL    HW128502   1.847   4.042   0.345
 9201SOL    HW228503   1.712   4.129   0.377
 9202SOL     OW28504   2.573   0.483   3.730
 9202SOL    HW128505   2.581   0.549   3.805
 9202SOL    HW228506   2.480   0.448   3.726
 9203SOL     OW28507   6.743   6.956   0.832
 9203SOL    HW128508   6.820   6.985   0.776
 9203SOL    HW228509   6.777   6.914   0.916
 9204SOL     OW28510   5.329   0.437   5.776
 9204SOL    HW128511   5.348   0.534   5.756
 9204SOL    HW228512   5.303   0.390   5.692
 9205SOL     OW28513   0.043   4.829   1.468
 9205SOL    HW128514   0.006   4.745   1.506
 9205SOL    HW228515   0.143   4.828   1.475
 9206SOL     OW28516   3.408   6.099   0.486
 9206SOL    HW128517   3.387   6.168   0.415
 9206SOL    HW228518   3.425   6.145   0.573
 9207SOL     OW28519   5.512   5.423   6.495
 9207SOL    HW128520   5.537   5.329   6.519
 9207SOL    HW228521   5.579   5.486   6.534
 9208SOL     OW28522   1.352   3.932   2.898
 9208SOL    HW128523   1.298   3.898   2.822
 9208SOL    HW228524   1.421   3.997   2.864
 9209SOL     OW28525   3.164   0.248   6.424
 9209SOL    HW128526   3.261   0.266   6.409
 9209SOL    HW228527   3.112   0.277   6.344
 9210SOL     OW28528   6.977   0.533   3.728
 9210SOL    HW128529   6.908   0.528   3.799
 9210SOL    HW228530   6.970   0.453   3.668
 9211SOL     OW28531   0.629   1.668   2.259
 9211SOL    HW128532   0.545   1.707   2.222
 9211SOL    HW228533   0.668   1.730   2.327
 9212SOL     OW28534   3.344   4.961   4.510
 9212SOL    HW128535   3.263   4.957   4.450
 9212SOL    HW228536   3.315   4.966   4.605
 9213SOL     OW28537   6.336   4.255   6.534
 9213SOL    HW128538   6.304   4.165   6.564
 9213SOL    HW228539   6.273   4.326   6.567
 9214SOL     OW28540   0.202   4.664   1.065
 9214SOL    HW128541   0.270   4.619   1.007
 9214SOL    HW228542   0.110   4.642   1.032
 9215SOL     OW28543   1.238   1.207   0.941
 9215SOL    HW128544   1.169   1.135   0.946
 9215SOL    HW228545   1.195   1.296   0.953
 9216SOL     OW28546   1.924   6.884   3.108
 9216SOL    HW128547   1.969   6.888   3.198
 9216SOL    HW228548   1.846   6.947   3.107
 9217SOL     OW28549   0.826   2.835   0.259
 9217SOL    HW128550   0.922   2.816   0.278
 9217SOL    HW228551   0.805   2.931   0.279
 9218SOL     OW28552   2.865   0.923   0.371
 9218SOL    HW128553   2.897   1.001   0.425
 9218SOL    HW228554   2.775   0.944   0.333
 9219SOL     OW28555   7.018   1.412   0.608
 9219SOL    HW128556   0.025   1.446   0.698
 9219SOL    HW228557   0.037   1.470   0.537
 9220SOL     OW28558   3.160   6.217   1.921
 9220SOL    HW128559   3.126   6.311   1.916
 9220SOL    HW228560   3.145   6.172   1.833
 9221SOL     OW28561   2.879   5.117   4.602
 9221SOL    HW128562   2.882   5.206   4.648
 9221SOL    HW228563   2.789   5.075   4.615
 9222SOL     OW28564   2.969   2.275   5.813
 9222SOL    HW128565   2.999   2.205   5.878
 9222SOL    HW228566   2.896   2.238   5.755
 9223SOL     OW28567   2.675   3.054   5.342
 9223SOL    HW128568   2.719   3.138   5.311
 9223SOL    HW228569   2.606   3.025   5.275
 9224SOL     OW28570   2.415   4.986   4.834
 9224SOL    HW128571   2.332   4.974   4.888
 9224SOL    HW228572   2.427   5.083   4.813
 9225SOL     OW28573   2.085   6.604   0.099
 9225SOL    HW128574   2.156   6.569   0.160
 9225SOL    HW228575   2.122   6.615   0.007
 9226SOL     OW28576   3.652   6.317   1.307
 9226SOL    HW128577   3.583   6.331   1.236
 9226SOL    HW228578   3.609   6.284   1.390
 9227SOL     OW28579   1.626   6.149   1.877
 9227SOL    HW128580   1.530   6.174   1.880
 9227SOL    HW228581   1.647   6.107   1.789
 9228SOL     OW28582   0.645   0.258   6.903
 9228SOL    HW128583   0.706   0.337   6.910
 9228SOL    HW228584   0.603   0.256   6.812
 9229SOL     OW28585   0.603   5.765   5.391
 9229SOL    HW128586   0.585   5.684   5.446
 9229SOL    HW228587   0.584   5.745   5.294
 9230SOL     OW28588   5.606   0.706   4.147
 9230SOL    HW128589   5.633   0.686   4.052
 9230SOL    HW228590   5.594   0.805   4.157
 9231SOL     OW28591   1.891   3.069   2.996
 9231SOL    HW128592   1.873   3.056   3.093
 9231SOL    HW228593   1.986   3.045   2.976
 9232SOL     OW28594   4.231   4.859   1.490
 9232SOL    HW128595   4.153   4.833   1.547
 9232SOL    HW228596   4.203   4.863   1.395
 9233SOL     OW28597   4.791   4.877   1.231
 9233SOL    HW128598   4.831   4.849   1.319
 9233SOL    HW228599   4.722   4.947   1.247
 9234SOL     OW28600   2.493   5.863   3.655
 9234SOL    HW128601   2.426   5.836   3.724
 9234SOL    HW228602   2.569   5.911   3.699
 9235SOL     OW28603   0.726   2.046   3.073
 9235SOL    HW128604   0.698   1.952   3.053
 9235SOL    HW228605   0.742   2.094   2.987
 9236SOL     OW28606   3.676   2.672   5.671
 9236SOL    HW128607   3.681   2.583   5.718
 9236SOL    HW228608   3.768   2.698   5.640
 9237SOL     OW28609   1.735   3.370   3.967
 9237SOL    HW128610   1.637   3.391   3.960
 9237SOL    HW228611   1.767   3.337   3.878
 9238SOL     OW28612   4.574   3.473   6.622
 9238SOL    HW128613   4.548   3.376   6.626
 9238SOL    HW228614   4.613   3.500   6.710
 9239SOL     OW28615   1.718   4.242   6.918
 9239SOL    HW128616   1.781   4.212   6.990
 9239SOL    HW228617   1.761   4.230   6.829
 9240SOL     OW28618   4.548   0.722   2.609
 9240SOL    HW128619   4.602   0.656   2.661
 9240SOL    HW228620   4.518   0.796   2.669
 9241SOL     OW28621   0.625   6.103   0.041
 9241SOL    HW128622   0.662   6.018   0.003
 9241SOL    HW228623   0.541   6.082   0.091
 9242SOL     OW28624   6.347   6.031   1.520
 9242SOL    HW128625   6.444   6.027   1.545
 9242SOL    HW228626   6.337   6.082   1.435
 9243SOL     OW28627   6.486   6.464   4.675
 9243SOL    HW128628   6.498   6.456   4.576
 9243SOL    HW228629   6.394   6.499   4.695
 9244SOL     OW28630   3.008   5.279   7.003
 9244SOL    HW128631   3.102   5.290   0.014
 9244SOL    HW228632   2.950   5.349   0.023
 9245SOL     OW28633   0.543   6.184   1.173
 9245SOL    HW128634   0.535   6.272   1.126
 9245SOL    HW228635   0.629   6.181   1.224
 9246SOL     OW28636   0.156   4.816   4.244
 9246SOL    HW128637   0.078   4.753   4.240
 9246SOL    HW228638   0.184   4.840   4.151
 9247SOL     OW28639   1.824   6.737   2.225
 9247SOL    HW128640   1.908   6.685   2.240
 9247SOL    HW228641   1.826   6.777   2.133
 9248SOL     OW28642   3.594   1.887   6.379
 9248SOL    HW128643   3.589   1.916   6.475
 9248SOL    HW228644   3.502   1.871   6.344
 9249SOL     OW28645   4.452   6.637   3.345
 9249SOL    HW128646   4.485   6.731   3.339
 9249SOL    HW228647   4.481   6.586   3.263
 9250SOL     OW28648   5.844   3.601   3.727
 9250SOL    HW128649   5.789   3.622   3.646
 9250SOL    HW228650   5.920   3.666   3.733
 9251SOL     OW28651   3.499   1.848   2.888
 9251SOL    HW128652   3.591   1.818   2.912
 9251SOL    HW228653   3.434   1.813   2.955
 9252SOL     OW28654   1.595   6.534   4.448
 9252SOL    HW128655   1.689   6.515   4.476
 9252SOL    HW228656   1.586   6.631   4.424
 9253SOL     OW28657   1.101   0.044   5.505
 9253SOL    HW128658   1.164   0.098   5.561
 9253SOL    HW228659   1.031   0.003   5.564
 9254SOL     OW28660   5.581   3.412   1.421
 9254SOL    HW128661   5.541   3.504   1.427
 9254SOL    HW228662   5.567   3.376   1.329
 9255SOL     OW28663   0.101   4.579   0.231
 9255SOL    HW128664   0.012   4.575   0.186
 9255SOL    HW228665   0.171   4.542   0.169
 9256SOL     OW28666   4.159   4.982   1.876
 9256SOL    HW128667   4.167   4.917   1.952
 9256SOL    HW228668   4.244   4.981   1.823
 9257SOL     OW28669   0.899   3.474   0.968
 9257SOL    HW128670   0.929   3.476   1.064
 9257SOL    HW228671   0.938   3.552   0.919
 9258SOL     OW28672   3.948   3.920   3.743
 9258SOL    HW128673   4.002   3.911   3.826
 9258SOL    HW228674   3.898   4.007   3.745
 9259SOL     OW28675   0.988   2.815   0.008
 9259SOL    HW128676   0.986   2.915   7.020
 9259SOL    HW228677   0.899   2.777   7.003
 9260SOL     OW28678   5.703   3.585   6.802
 9260SOL    HW128679   5.700   3.576   6.902
 9260SOL    HW228680   5.749   3.670   6.778
 9261SOL     OW28681   4.339   0.229   0.113
 9261SOL    HW128682   4.258   0.169   0.112
 9261SOL    HW228683   4.315   0.316   0.157
 9262SOL     OW28684   5.120   1.109   5.634
 9262SOL    HW128685   5.199   1.064   5.594
 9262SOL    HW228686   5.043   1.045   5.637
 9263SOL     OW28687   5.373   3.920   2.072
 9263SOL    HW128688   5.442   3.880   2.013
 9263SOL    HW228689   5.416   3.956   2.155
 9264SOL     OW28690   6.417   2.719   0.249
 9264SOL    HW128691   6.363   2.800   0.273
 9264SOL    HW228692   6.429   2.662   0.330
 9265SOL     OW28693   2.056   1.241   5.376
 9265SOL    HW128694   2.001   1.287   5.446
 9265SOL    HW228695   2.152   1.263   5.390
 9266SOL     OW28696   1.973   6.435   2.621
 9266SOL    HW128697   2.034   6.367   2.663
 9266SOL    HW228698   1.887   6.439   2.672
 9267SOL     OW28699   2.599   4.888   5.276
 9267SOL    HW128700   2.499   4.895   5.276
 9267SOL    HW228701   2.632   4.887   5.371
 9268SOL     OW28702   0.459   0.945   2.817
 9268SOL    HW128703   0.392   0.977   2.750
 9268SOL    HW228704   0.419   0.947   2.908
 9269SOL     OW28705   3.846   1.781   5.744
 9269SOL    HW128706   3.861   1.801   5.841
 9269SOL    HW228707   3.911   1.834   5.689
 9270SOL     OW28708   1.020   6.962   5.738
 9270SOL    HW128709   1.072   6.907   5.803
 9270SOL    HW228710   0.969   0.012   5.787
 9271SOL     OW28711   1.046   4.970   0.037
 9271SOL    HW128712   1.026   5.023   0.120
 9271SOL    HW228713   0.963   4.962   7.003
 9272SOL     OW28714   2.817   4.854   6.943
 9272SOL    HW128715   2.844   4.762   6.974
 9272SOL    HW228716   2.899   4.905   6.917
 9273SOL     OW28717   3.898   5.888   5.511
 9273SOL    HW128718   3.803   5.867   5.490
 9273SOL    HW228719   3.905   5.913   5.608
 9274SOL     OW28720   5.762   2.131   0.987
 9274SOL    HW128721   5.663   2.136   0.995
 9274SOL    HW228722   5.800   2.223   0.990
 9275SOL     OW28723   0.603   0.278   6.179
 9275SOL    HW128724   0.671   0.264   6.251
 9275SOL    HW228725   0.526   0.215   6.193
 9276SOL     OW28726   4.723   6.195   4.860
 9276SOL    HW128727   4.639   6.145   4.840
 9276SOL    HW228728   4.777   6.204   4.776
 9277SOL     OW28729   3.495   2.618   0.538
 9277SOL    HW128730   3.458   2.614   0.445
 9277SOL    HW228731   3.583   2.665   0.537
 9278SOL     OW28732   1.187   2.276   1.609
 9278SOL    HW128733   1.250   2.261   1.533
 9278SOL    HW228734   1.194   2.371   1.640
 9279SOL     OW28735   3.211   0.150   1.347
 9279SOL    HW128736   3.206   0.109   1.438
 9279SOL    HW228737   3.177   0.085   1.279
 9280SOL     OW28738   2.256   0.551   2.800
 9280SOL    HW128739   2.163   0.533   2.834
 9280SOL    HW228740   2.281   0.482   2.733
 9281SOL     OW28741   1.687   3.084   0.529
 9281SOL    HW128742   1.692   3.074   0.628
 9281SOL    HW228743   1.616   3.024   0.492
 9282SOL     OW28744   4.616   2.623   6.338
 9282SOL    HW128745   4.542   2.654   6.278
 9282SOL    HW228746   4.690   2.584   6.283
 9283SOL     OW28747   5.773   1.762   2.513
 9283SOL    HW128748   5.856   1.797   2.468
 9283SOL    HW228749   5.702   1.832   2.509
 9284SOL     OW28750   3.128   3.564   2.051
 9284SOL    HW128751   3.219   3.560   2.091
 9284SOL    HW228752   3.113   3.484   1.993
 9285SOL     OW28753   5.839   2.674   6.704
 9285SOL    HW128754   5.823   2.601   6.771
 9285SOL    HW228755   5.783   2.753   6.727
 9286SOL     OW28756   5.583   6.037   5.206
 9286SOL    HW128757   5.588   5.974   5.129
 9286SOL    HW228758   5.492   6.079   5.209
 9287SOL     OW28759   2.989   6.476   2.041
 9287SOL    HW128760   3.079   6.486   2.084
 9287SOL    HW228761   2.921   6.525   2.094
 9288SOL     OW28762   4.523   2.786   5.765
 9288SOL    HW128763   4.446   2.836   5.723
 9288SOL    HW228764   4.495   2.750   5.854
 9289SOL     OW28765   4.860   3.240   2.853
 9289SOL    HW128766   4.867   3.213   2.949
 9289SOL    HW228767   4.828   3.335   2.846
 9290SOL     OW28768   4.605   2.408   4.912
 9290SOL    HW128769   4.632   2.329   4.857
 9290SOL    HW228770   4.525   2.452   4.871
 9291SOL     OW28771   0.611   1.839   4.702
 9291SOL    HW128772   0.547   1.916   4.697
 9291SOL    HW228773   0.692   1.860   4.647
 9292SOL     OW28774   6.591   3.490   6.925
 9292SOL    HW128775   6.585   3.583   6.960
 9292SOL    HW228776   6.682   3.453   6.942
 9293SOL     OW28777   5.746   4.200   6.659
 9293SOL    HW128778   5.654   4.161   6.656
 9293SOL    HW228779   5.780   4.210   6.565
 9294SOL     OW28780   5.591   5.862   6.947
 9294SOL    HW128781   5.502   5.908   6.938
 9294SOL    HW228782   5.612   5.849   0.023
 9295SOL     OW28783   4.843   1.626   3.644
 9295SOL    HW128784   4.836   1.613   3.545
 9295SOL    HW228785   4.763   1.677   3.676
 9296SOL     OW28786   6.589   6.679   5.804
 9296SOL    HW128787   6.588   6.779   5.799
 9296SOL    HW228788   6.521   6.642   5.740
 9297SOL     OW28789   0.842   0.719   0.732
 9297SOL    HW128790   0.806   0.810   0.755
 9297SOL    HW228791   0.805   0.690   0.644
 9298SOL     OW28792   1.202   6.485   4.931
 9298SOL    HW128793   1.240   6.560   4.986
 9298SOL    HW228794   1.167   6.521   4.845
 9299SOL     OW28795   2.155   2.842   4.269
 9299SOL    HW128796   2.195   2.898   4.197
 9299SOL    HW228797   2.183   2.746   4.257
 9300SOL     OW28798   5.528   4.219   4.071
 9300SOL    HW128799   5.503   4.162   4.149
 9300SOL    HW228800   5.505   4.314   4.089
 9301SOL     OW28801   5.954   4.086   2.574
 9301SOL    HW128802   5.962   4.150   2.650
 9301SOL    HW228803   5.878   4.023   2.591
 9302SOL     OW28804   2.598   2.061   2.498
 9302SOL    HW128805   2.572   2.067   2.594
 9302SOL    HW228806   2.520   2.083   2.441
 9303SOL     OW28807   3.445   4.773   1.162
 9303SOL    HW128808   3.533   4.815   1.138
 9303SOL    HW228809   3.420   4.799   1.255
 9304SOL     OW28810   4.159   3.489   0.454
 9304SOL    HW128811   4.173   3.518   0.548
 9304SOL    HW228812   4.154   3.389   0.450
 9305SOL     OW28813   5.045   2.878   2.877
 9305SOL    HW128814   5.093   2.941   2.816
 9305SOL    HW228815   4.947   2.889   2.866
 9306SOL     OW28816   6.433   4.346   3.759
 9306SOL    HW128817   6.397   4.306   3.843
 9306SOL    HW228818   6.417   4.445   3.760
 9307SOL     OW28819   2.383   1.435   6.668
 9307SOL    HW128820   2.405   1.437   6.570
 9307SOL    HW228821   2.361   1.527   6.699
 9308SOL     OW28822   6.692   2.566   0.786
 9308SOL    HW128823   6.599   2.598   0.767
 9308SOL    HW228824   6.710   2.482   0.736
 9309SOL     OW28825   4.831   3.708   6.663
 9309SOL    HW128826   4.886   3.640   6.614
 9309SOL    HW228827   4.868   3.800   6.644
 9310SOL     OW28828   3.774   6.259   0.656
 9310SOL    HW128829   3.735   6.168   0.671
 9310SOL    HW228830   3.702   6.322   0.629
 9311SOL     OW28831   6.328   3.070   1.275
 9311SOL    HW128832   6.249   3.106   1.326
 9311SOL    HW228833   6.411   3.117   1.306
 9312SOL     OW28834   1.322   4.924   5.351
 9312SOL    HW128835   1.412   4.942   5.389
 9312SOL    HW228836   1.280   4.847   5.399
 9313SOL     OW28837   6.113   6.707   2.266
 9313SOL    HW128838   6.065   6.786   2.303
 9313SOL    HW228839   6.130   6.641   2.339
 9314SOL     OW28840   5.018   5.003   0.370
 9314SOL    HW128841   5.012   5.026   0.468
 9314SOL    HW228842   4.926   5.002   0.331
 9315SOL     OW28843   6.476   6.490   6.421
 9315SOL    HW128844   6.492   6.421   6.492
 9315SOL    HW228845   6.437   6.447   6.340
 9316SOL     OW28846   3.954   5.881   4.338
 9316SOL    HW128847   3.924   5.802   4.392
 9316SOL    HW228848   4.051   5.871   4.315
 9317SOL     OW28849   6.006   4.158   4.649
 9317SOL    HW128850   5.973   4.251   4.662
 9317SOL    HW228851   6.064   4.154   4.568
 9318SOL     OW28852   6.020   0.225   6.520
 9318SOL    HW128853   5.969   0.166   6.583
 9318SOL    HW228854   6.105   0.179   6.493
 9319SOL     OW28855   6.803   3.802   4.921
 9319SOL    HW128856   6.829   3.750   4.840
 9319SOL    HW228857   6.886   3.833   4.969
 9320SOL     OW28858   4.227   2.983   6.487
 9320SOL    HW128859   4.285   2.920   6.537
 9320SOL    HW228860   4.282   3.059   6.452
 9321SOL     OW28861   6.467   5.973   3.333
 9321SOL    HW128862   6.557   5.939   3.361
 9321SOL    HW228863   6.424   5.906   3.272
 9322SOL     OW28864   0.577   6.374   6.985
 9322SOL    HW128865   0.495   6.367   6.929
 9322SOL    HW228866   0.605   6.283   7.015
 9323SOL     OW28867   0.049   1.713   6.030
 9323SOL    HW128868   0.037   1.707   5.931
 9323SOL    HW228869   6.982   1.735   6.073
 9324SOL     OW28870   2.129   5.531   6.992
 9324SOL    HW128871   2.081   5.509   6.908
 9324SOL    HW228872   2.217   5.483   6.994
 9325SOL     OW28873   0.291   2.681   0.576
 9325SOL    HW128874   0.346   2.636   0.646
 9325SOL    HW228875   0.288   2.624   0.493
 9326SOL     OW28876   2.273   6.041   1.278
 9326SOL    HW128877   2.309   6.007   1.365
 9326SOL    HW228878   2.343   6.097   1.233
 9327SOL     OW28879   3.870   1.173   3.390
 9327SOL    HW128880   3.799   1.193   3.323
 9327SOL    HW228881   3.934   1.249   3.396
 9328SOL     OW28882   3.311   1.139   2.232
 9328SOL    HW128883   3.301   1.125   2.331
 9328SOL    HW228884   3.312   1.237   2.213
 9329SOL     OW28885   1.235   3.555   1.710
 9329SOL    HW128886   1.208   3.619   1.782
 9329SOL    HW228887   1.154   3.522   1.662
 9330SOL     OW28888   5.638   0.334   0.308
 9330SOL    HW128889   5.622   0.317   0.405
 9330SOL    HW228890   5.579   0.408   0.277
 9331SOL     OW28891   0.612   1.471   6.744
 9331SOL    HW128892   0.538   1.534   6.769
 9331SOL    HW228893   0.624   1.471   6.645
 9332SOL     OW28894   3.486   3.780   4.769
 9332SOL    HW128895   3.489   3.806   4.672
 9332SOL    HW228896   3.505   3.860   4.825
 9333SOL     OW28897   5.777   5.015   1.142
 9333SOL    HW128898   5.740   5.010   1.049
 9333SOL    HW228899   5.830   4.933   1.161
 9334SOL     OW28900   2.853   0.227   4.692
 9334SOL    HW128901   2.866   0.255   4.787
 9334SOL    HW228902   2.942   0.218   4.648
 9335SOL     OW28903   0.756   0.880   0.949
 9335SOL    HW128904   0.779   0.966   0.994
 9335SOL    HW228905   0.677   0.838   0.994
 9336SOL     OW28906   3.135   0.008   5.633
 9336SOL    HW128907   3.199   0.035   5.705
 9336SOL    HW228908   3.185   6.988   5.557
 9337SOL     OW28909   4.770   6.987   2.738
 9337SOL    HW128910   4.738   0.053   2.777
 9337SOL    HW228911   4.770   6.993   2.638
 9338SOL     OW28912   3.888   0.193   1.484
 9338SOL    HW128913   3.902   0.288   1.512
 9338SOL    HW228914   3.794   0.166   1.502
 9339SOL     OW28915   4.068   5.873   0.668
 9339SOL    HW128916   4.036   5.875   0.762
 9339SOL    HW228917   4.168   5.877   0.665
 9340SOL     OW28918   5.369   3.258   0.702
 9340SOL    HW128919   5.294   3.262   0.768
 9340SOL    HW228920   5.379   3.164   0.669
 9341SOL     OW28921   6.907   5.215   5.989
 9341SOL    HW128922   6.961   5.147   5.939
 9341SOL    HW228923   6.811   5.208   5.962
 9342SOL     OW28924   0.864   6.055   6.094
 9342SOL    HW128925   0.904   6.117   6.162
 9342SOL    HW228926   0.897   5.962   6.110
 9343SOL     OW28927   6.474   5.546   4.726
 9343SOL    HW128928   6.510   5.456   4.705
 9343SOL    HW228929   6.375   5.540   4.740
 9344SOL     OW28930   4.560   6.318   1.141
 9344SOL    HW128931   4.597   6.350   1.228
 9344SOL    HW228932   4.626   6.336   1.069
 9345SOL     OW28933   6.960   2.864   0.429
 9345SOL    HW128934   6.865   2.873   0.399
 9345SOL    HW228935   7.019   2.850   0.350
 9346SOL     OW28936   5.985   6.911   0.580
 9346SOL    HW128937   6.027   6.936   0.668
 9346SOL    HW228938   5.971   6.993   0.525
 9347SOL     OW28939   1.395   6.592   1.911
 9347SOL    HW128940   1.304   6.626   1.887
 9347SOL    HW228941   1.457   6.669   1.924
 9348SOL     OW28942   2.874   5.068   0.662
 9348SOL    HW128943   2.825   5.052   0.748
 9348SOL    HW228944   2.972   5.055   0.676
 9349SOL     OW28945   2.111   5.947   2.782
 9349SOL    HW128946   2.065   5.931   2.695
 9349SOL    HW228947   2.100   6.043   2.809
 9350SOL     OW28948   0.680   2.690   5.910
 9350SOL    HW128949   0.641   2.778   5.883
 9350SOL    HW228950   0.678   2.627   5.832
 9351SOL     OW28951   2.626   1.075   6.667
 9351SOL    HW128952   2.662   1.161   6.629
 9351SOL    HW228953   2.564   1.095   6.742
 9352SOL     OW28954   2.307   4.667   5.394
 9352SOL    HW128955   2.220   4.633   5.429
 9352SOL    HW228956   2.370   4.682   5.471
 9353SOL     OW28957   6.272   0.722   0.837
 9353SOL    HW128958   6.251   0.631   0.800
 9353SOL    HW228959   6.198   0.785   0.814
 9354SOL     OW28960   0.891   1.840   6.422
 9354SOL    HW128961   0.974   1.795   6.454
 9354SOL    HW228962   0.905   1.940   6.424
 9355SOL     OW28963   0.432   1.800   5.314
 9355SOL    HW128964   0.465   1.717   5.359
 9355SOL    HW228965   0.510   1.855   5.284
 9356SOL     OW28966   5.548   0.217   3.890
 9356SOL    HW128967   5.543   0.220   3.790
 9356SOL    HW228968   5.483   0.282   3.929
 9357SOL     OW28969   0.758   1.578   0.022
 9357SOL    HW128970   0.843   1.544   7.004
 9357SOL    HW228971   0.725   1.655   6.988
 9358SOL     OW28972   1.110   2.591   1.674
 9358SOL    HW128973   1.031   2.628   1.723
 9358SOL    HW228974   1.105   2.615   1.577
 9359SOL     OW28975   0.721   0.225   5.313
 9359SOL    HW128976   0.677   0.202   5.400
 9359SOL    HW228977   0.650   0.243   5.244
 9360SOL     OW28978   0.678   0.259   5.915
 9360SOL    HW128979   0.611   0.270   5.841
 9360SOL    HW228980   0.633   0.270   6.003
 9361SOL     OW28981   2.195   5.531   4.022
 9361SOL    HW128982   2.128   5.545   4.095
 9361SOL    HW228983   2.287   5.551   4.057
 9362SOL     OW28984   2.248   0.728   2.121
 9362SOL    HW128985   2.187   0.658   2.085
 9362SOL    HW228986   2.316   0.686   2.181
 9363SOL     OW28987   1.932   4.806   2.680
 9363SOL    HW128988   1.995   4.871   2.639
 9363SOL    HW228989   1.844   4.809   2.631
 9364SOL     OW28990   0.845   2.549   0.484
 9364SOL    HW128991   0.769   2.605   0.517
 9364SOL    HW228992   0.838   2.537   0.385
 9365SOL     OW28993   3.417   1.071   4.889
 9365SOL    HW128994   3.360   0.989   4.891
 9365SOL    HW228995   3.432   1.099   4.794
 9366SOL     OW28996   4.079   6.248   2.664
 9366SOL    HW128997   4.078   6.155   2.626
 9366SOL    HW228998   4.106   6.313   2.593
 9367SOL     OW28999   6.486   1.085   1.272
 9367SOL    HW129000   6.458   1.040   1.358
 9367SOL    HW229001   6.409   1.083   1.208
 9368SOL     OW29002   2.788   0.518   2.816
 9368SOL    HW129003   2.731   0.560   2.887
 9368SOL    HW229004   2.873   0.485   2.857
 9369SOL     OW29005   3.430   5.232   0.556
 9369SOL    HW129006   3.519   5.276   0.547
 9369SOL    HW229007   3.417   5.201   0.650
 9370SOL     OW29008   4.201   1.885   5.049
 9370SOL    HW129009   4.190   1.940   5.132
 9370SOL    HW229010   4.198   1.788   5.073
 9371SOL     OW29011   4.283   5.047   0.863
 9371SOL    HW129012   4.276   5.140   0.826
 9371SOL    HW229013   4.364   5.003   0.824
 9372SOL     OW29014   4.286   6.019   1.737
 9372SOL    HW129015   4.297   5.945   1.804
 9372SOL    HW229016   4.357   6.087   1.751
 9373SOL     OW29017   6.785   2.963   1.053
 9373SOL    HW129018   6.804   2.910   0.971
 9373SOL    HW229019   6.745   2.904   1.123
 9374SOL     OW29020   0.077   5.572   6.086
 9374SOL    HW129021   0.174   5.550   6.077
 9374SOL    HW229022   0.030   5.552   6.000
 9375SOL     OW29023   0.825   1.329   6.902
 9375SOL    HW129024   0.756   1.400   6.889
 9375SOL    HW229025   0.784   1.250   6.947
 9376SOL     OW29026   2.622   3.760   1.056
 9376SOL    HW129027   2.699   3.737   0.997
 9376SOL    HW229028   2.610   3.860   1.058
 9377SOL     OW29029   2.180   0.703   3.490
 9377SOL    HW129030   2.240   0.756   3.550
 9377SOL    HW229031   2.217   0.704   3.397
 9378SOL     OW29032   3.848   1.120   5.305
 9378SOL    HW129033   3.837   1.211   5.266
 9378SOL    HW229034   3.855   1.127   5.405
 9379SOL     OW29035   4.628   6.939   4.188
 9379SOL    HW129036   4.543   6.886   4.191
 9379SOL    HW229037   4.644   6.971   4.094
 9380SOL     OW29038   5.374   5.535   0.332
 9380SOL    HW129039   5.442   5.493   0.272
 9380SOL    HW229040   5.376   5.634   0.319
 9381SOL     OW29041   5.365   1.030   5.589
 9381SOL    HW129042   5.440   1.007   5.651
 9381SOL    HW229043   5.384   0.994   5.497
 9382SOL     OW29044   2.899   5.162   5.863
 9382SOL    HW129045   2.958   5.126   5.935
 9382SOL    HW229046   2.834   5.092   5.834
 9383SOL     OW29047   5.778   3.864   2.599
 9383SOL    HW129048   5.843   3.797   2.635
 9383SOL    HW229049   5.689   3.851   2.642
 9384SOL     OW29050   3.617   0.362   1.399
 9384SOL    HW129051   3.549   0.393   1.466
 9384SOL    HW229052   3.697   0.422   1.402
 9385SOL     OW29053   4.297   1.174   4.168
 9385SOL    HW129054   4.204   1.153   4.140
 9385SOL    HW229055   4.309   1.147   4.264
 9386SOL     OW29056   4.997   6.671   0.907
 9386SOL    HW129057   4.930   6.701   0.975
 9386SOL    HW229058   4.979   6.575   0.883
 9387SOL     OW29059   2.674   1.355   6.910
 9387SOL    HW129060   2.610   1.388   6.840
 9387SOL    HW229061   2.633   1.277   6.958
 9388SOL     OW29062   2.608   0.179   5.533
 9388SOL    HW129063   2.674   0.189   5.609
 9388SOL    HW229064   2.521   0.219   5.560
 9389SOL     OW29065   2.204   3.919   1.516
 9389SOL    HW129066   2.108   3.898   1.498
 9389SOL    HW229067   2.255   3.835   1.533
 9390SOL     OW29068   4.925   4.376   4.456
 9390SOL    HW129069   5.012   4.427   4.457
 9390SOL    HW229070   4.924   4.311   4.531
 9391SOL     OW29071   1.389   4.123   4.639
 9391SOL    HW129072   1.460   4.069   4.684
 9391SOL    HW229073   1.411   4.221   4.648
 9392SOL     OW29074   5.243   4.352   2.627
 9392SOL    HW129075   5.253   4.443   2.666
 9392SOL    HW229076   5.332   4.320   2.593
 9393SOL     OW29077   1.614   6.018   6.332
 9393SOL    HW129078   1.590   6.028   6.235
 9393SOL    HW229079   1.597   5.924   6.361
 9394SOL     OW29080   4.148   0.441   0.397
 9394SOL    HW129081   4.187   0.448   0.489
 9394SOL    HW229082   4.055   0.478   0.398
 9395SOL     OW29083   1.128   1.464   0.929
 9395SOL    HW129084   1.154   1.550   0.973
 9395SOL    HW229085   1.155   1.467   0.832
 9396SOL     OW29086   0.824   0.544   6.074
 9396SOL    HW129087   0.805   0.572   5.981
 9396SOL    HW229088   0.860   0.622   6.126
 9397SOL     OW29089   4.024   1.060   5.060
 9397SOL    HW129090   3.937   1.084   5.105
 9397SOL    HW229091   4.006   1.004   4.980
 9398SOL     OW29092   0.724   1.941   0.254
 9398SOL    HW129093   0.662   1.903   0.185
 9398SOL    HW229094   0.785   1.868   0.287
 9399SOL     OW29095   1.121   2.033   4.373
 9399SOL    HW129096   1.084   1.991   4.290
 9399SOL    HW229097   1.072   2.118   4.393
 9400SOL     OW29098   5.714   1.537   0.874
 9400SOL    HW129099   5.739   1.632   0.894
 9400SOL    HW229100   5.647   1.535   0.800
 9401SOL     OW29101   0.514   2.230   3.521
 9401SOL    HW129102   0.599   2.219   3.572
 9401SOL    HW229103   0.436   2.211   3.581
 9402SOL     OW29104   2.691   6.816   4.455
 9402SOL    HW129105   2.741   6.863   4.527
 9402SOL    HW229106   2.630   6.747   4.495
 9403SOL     OW29107   5.164   2.116   1.145
 9403SOL    HW129108   5.247   2.091   1.095
 9403SOL    HW229109   5.189   2.149   1.236
 9404SOL     OW29110   2.178   2.666   1.007
 9404SOL    HW129111   2.267   2.661   1.053
 9404SOL    HW229112   2.144   2.760   1.010
 9405SOL     OW29113   6.230   5.878   5.448
 9405SOL    HW129114   6.200   5.848   5.538
 9405SOL    HW229115   6.298   5.814   5.412
 9406SOL     OW29116   1.078   2.039   0.360
 9406SOL    HW129117   1.016   2.117   0.353
 9406SOL    HW229118   1.051   1.969   0.294
 9407SOL     OW29119   1.696   4.640   4.866
 9407SOL    HW129120   1.684   4.569   4.935
 9407SOL    HW229121   1.650   4.723   4.896
 9408SOL     OW29122   6.057   4.443   4.131
 9408SOL    HW129123   5.992   4.367   4.129
 9408SOL    HW229124   6.040   4.499   4.212
 9409SOL     OW29125   6.298   5.600   2.177
 9409SOL    HW129126   6.272   5.627   2.085
 9409SOL    HW229127   6.357   5.670   2.217
 9410SOL     OW29128   3.974   0.515   0.738
 9410SOL    HW129129   4.062   0.511   0.691
 9410SOL    HW229130   3.918   0.437   0.710
 9411SOL     OW29131   3.213   4.039   3.212
 9411SOL    HW129132   3.162   4.008   3.292
 9411SOL    HW229133   3.152   4.092   3.153
 9412SOL     OW29134   4.764   6.848   1.815
 9412SOL    HW129135   4.715   6.880   1.896
 9412SOL    HW229136   4.698   6.818   1.746
 9413SOL     OW29137   4.757   4.157   3.070
 9413SOL    HW129138   4.750   4.101   3.152
 9413SOL    HW229139   4.687   4.229   3.072
 9414SOL     OW29140   2.346   2.120   2.385
 9414SOL    HW129141   2.300   2.042   2.427
 9414SOL    HW229142   2.318   2.127   2.289
 9415SOL     OW29143   5.422   0.272   1.775
 9415SOL    HW129144   5.400   0.215   1.855
 9415SOL    HW229145   5.338   0.296   1.728
 9416SOL     OW29146   5.838   5.245   5.605
 9416SOL    HW129147   5.758   5.218   5.551
 9416SOL    HW229148   5.894   5.308   5.552
 9417SOL     OW29149   3.373   5.512   2.500
 9417SOL    HW129150   3.434   5.436   2.479
 9417SOL    HW229151   3.425   5.588   2.538
 9418SOL     OW29152   3.058   1.691   5.062
 9418SOL    HW129153   2.998   1.767   5.087
 9418SOL    HW229154   3.008   1.626   5.005
 9419SOL     OW29155   2.170   2.840   6.857
 9419SOL    HW129156   2.070   2.851   6.860
 9419SOL    HW229157   2.193   2.754   6.812
 9420SOL     OW29158   5.853   4.036   5.451
 9420SOL    HW129159   5.882   4.124   5.490
 9420SOL    HW229160   5.921   4.006   5.384
 9421SOL     OW29161   3.731   6.082   6.662
 9421SOL    HW129162   3.798   6.018   6.623
 9421SOL    HW229163   3.642   6.066   6.619
 9422SOL     OW29164   2.471   6.413   5.637
 9422SOL    HW129165   2.420   6.441   5.718
 9422SOL    HW229166   2.426   6.333   5.596
 9423SOL     OW29167   4.547   5.244   2.072
 9423SOL    HW129168   4.568   5.328   2.021
 9423SOL    HW229169   4.612   5.172   2.047
 9424SOL     OW29170   6.837   0.296   4.550
 9424SOL    HW129171   6.892   0.302   4.467
 9424SOL    HW229172   6.854   0.375   4.608
 9425SOL     OW29173   6.908   3.982   0.451
 9425SOL    HW129174   6.841   4.049   0.419
 9425SOL    HW229175   6.901   3.973   0.551
 9426SOL     OW29176   4.991   3.142   6.269
 9426SOL    HW129177   4.904   3.106   6.234
 9426SOL    HW229178   5.066   3.094   6.224
 9427SOL     OW29179   4.676   4.612   2.368
 9427SOL    HW129180   4.632   4.547   2.306
 9427SOL    HW229181   4.768   4.581   2.390
 9428SOL     OW29182   0.916   6.224   5.811
 9428SOL    HW129183   0.893   6.127   5.806
 9428SOL    HW229184   0.863   6.274   5.742
 9429SOL     OW29185   2.923   2.258   3.672
 9429SOL    HW129186   3.006   2.269   3.728
 9429SOL    HW229187   2.850   2.220   3.729
 9430SOL     OW29188   2.103   0.959   4.264
 9430SOL    HW129189   2.154   0.988   4.183
 9430SOL    HW229190   2.007   0.985   4.253
 9431SOL     OW29191   0.874   4.396   5.505
 9431SOL    HW129192   0.898   4.427   5.597
 9431SOL    HW229193   0.887   4.297   5.499
 9432SOL     OW29194   7.007   1.390   4.208
 9432SOL    HW129195   6.996   1.356   4.302
 9432SOL    HW229196   0.045   1.471   4.210
 9433SOL     OW29197   4.740   5.421   2.381
 9433SOL    HW129198   4.685   5.388   2.458
 9433SOL    HW229199   4.681   5.473   2.319
 9434SOL     OW29200   4.015   5.582   4.127
 9434SOL    HW129201   3.929   5.567   4.176
 9434SOL    HW229202   4.008   5.666   4.072
 9435SOL     OW29203   5.997   3.832   1.018
 9435SOL    HW129204   5.935   3.910   1.031
 9435SOL    HW229205   5.943   3.748   1.015
 9436SOL     OW29206   2.947   0.761   3.228
 9436SOL    HW129207   2.888   0.681   3.216
 9436SOL    HW229208   3.043   0.732   3.232
 9437SOL     OW29209   5.357   0.893   4.756
 9437SOL    HW129210   5.415   0.826   4.708
 9437SOL    HW229211   5.407   0.930   4.834
 9438SOL     OW29212   4.475   0.221   2.849
 9438SOL    HW129213   4.567   0.207   2.884
 9438SOL    HW229214   4.444   0.314   2.872
 9439SOL     OW29215   2.061   4.240   0.806
 9439SOL    HW129216   2.017   4.307   0.745
 9439SOL    HW229217   2.135   4.284   0.856
 9440SOL     OW29218   1.458   5.442   4.109
 9440SOL    HW129219   1.509   5.356   4.111
 9440SOL    HW229220   1.360   5.423   4.112
 9441SOL     OW29221   0.540   6.517   4.568
 9441SOL    HW129222   0.487   6.602   4.571
 9441SOL    HW229223   0.554   6.489   4.473
 9442SOL     OW29224   5.715   3.156   0.962
 9442SOL    HW129225   5.812   3.165   0.981
 9442SOL    HW229226   5.666   3.237   0.995
 9443SOL     OW29227   2.305   4.295   1.340
 9443SOL    HW129228   2.373   4.222   1.343
 9443SOL    HW229229   2.352   4.384   1.342
 9444SOL     OW29230   1.925   5.272   6.802
 9444SOL    HW129231   1.933   5.219   6.718
 9444SOL    HW229232   1.891   5.364   6.781
 9445SOL     OW29233   0.378   1.091   4.060
 9445SOL    HW129234   0.302   1.151   4.034
 9445SOL    HW229235   0.342   1.001   4.084
 9446SOL     OW29236   6.173   4.207   4.454
 9446SOL    HW129237   6.239   4.245   4.518
 9446SOL    HW229238   6.222   4.168   4.376
 9447SOL     OW29239   5.204   5.153   1.887
 9447SOL    HW129240   5.127   5.143   1.949
 9447SOL    HW229241   5.284   5.105   1.924
 9448SOL     OW29242   5.523   2.132   6.886
 9448SOL    HW129243   5.435   2.108   6.927
 9448SOL    HW229244   5.565   2.051   6.845
 9449SOL     OW29245   5.409   0.033   1.956
 9449SOL    HW129246   5.337   0.001   1.894
 9449SOL    HW229247   5.493   7.002   1.938
 9450SOL     OW29248   1.141   6.749   3.175
 9450SOL    HW129249   1.109   6.834   3.133
 9450SOL    HW229250   1.187   6.769   3.262
 9451SOL     OW29251   4.121   5.054   0.159
 9451SOL    HW129252   4.184   4.977   0.150
 9451SOL    HW229253   4.041   5.026   0.212
 9452SOL     OW29254   5.978   3.951   6.226
 9452SOL    HW129255   6.053   4.015   6.207
 9452SOL    HW229256   5.912   3.955   6.151
 9453SOL     OW29257   5.877   4.685   1.913
 9453SOL    HW129258   5.901   4.675   1.816
 9453SOL    HW229259   5.885   4.597   1.958
 9454SOL     OW29260   6.086   4.918   0.509
 9454SOL    HW129261   6.149   4.994   0.492
 9454SOL    HW229262   6.008   4.952   0.563
 9455SOL     OW29263   4.109   0.511   1.269
 9455SOL    HW129264   4.128   0.501   1.172
 9455SOL    HW229265   4.196   0.523   1.318
 9456SOL     OW29266   6.749   2.160   3.103
 9456SOL    HW129267   6.651   2.146   3.114
 9456SOL    HW229268   6.787   2.091   3.041
 9457SOL     OW29269   6.598   6.352   4.125
 9457SOL    HW129270   6.646   6.269   4.097
 9457SOL    HW229271   6.510   6.358   4.077
 9458SOL     OW29272   5.834   4.157   0.353
 9458SOL    HW129273   5.849   4.151   0.452
 9458SOL    HW229274   5.915   4.125   0.305
 9459SOL     OW29275   4.725   4.221   4.916
 9459SOL    HW129276   4.735   4.176   5.005
 9459SOL    HW229277   4.638   4.269   4.912
 9460SOL     OW29278   1.026   2.685   2.118
 9460SOL    HW129279   1.050   2.759   2.056
 9460SOL    HW229280   0.926   2.673   2.118
 9461SOL     OW29281   1.884   1.298   1.712
 9461SOL    HW129282   1.928   1.387   1.700
 9461SOL    HW229283   1.926   1.250   1.789
 9462SOL     OW29284   6.781   1.311   5.608
 9462SOL    HW129285   6.877   1.321   5.581
 9462SOL    HW229286   6.738   1.241   5.550
 9463SOL     OW29287   6.449   4.115   0.202
 9463SOL    HW129288   6.507   4.196   0.185
 9463SOL    HW229289   6.360   4.145   0.236
 9464SOL     OW29290   1.281   0.653   1.486
 9464SOL    HW129291   1.297   0.721   1.558
 9464SOL    HW229292   1.254   0.566   1.528
 9465SOL     OW29293   6.503   5.526   0.301
 9465SOL    HW129294   6.494   5.578   0.215
 9465SOL    HW229295   6.544   5.584   0.371
 9466SOL     OW29296   4.567   3.961   5.662
 9466SOL    HW129297   4.543   3.891   5.730
 9466SOL    HW229298   4.527   3.937   5.574
 9467SOL     OW29299   1.459   3.754   0.613
 9467SOL    HW129300   1.507   3.724   0.531
 9467SOL    HW229301   1.517   3.741   0.693
 9468SOL     OW29302   6.037   1.538   0.948
 9468SOL    HW129303   5.951   1.495   0.920
 9468SOL    HW229304   6.101   1.468   0.977
 9469SOL     OW29305   6.595   6.867   1.327
 9469SOL    HW129306   6.495   6.872   1.314
 9469SOL    HW229307   6.631   6.960   1.337
 9470SOL     OW29308   3.998   2.989   0.463
 9470SOL    HW129309   4.088   2.979   0.505
 9470SOL    HW229310   3.939   3.045   0.522
 9471SOL     OW29311   6.256   2.697   5.030
 9471SOL    HW129312   6.264   2.732   5.123
 9471SOL    HW229313   6.281   2.769   4.965
 9472SOL     OW29314   1.349   3.282   5.380
 9472SOL    HW129315   1.385   3.258   5.470
 9472SOL    HW229316   1.306   3.372   5.384
 9473SOL     OW29317   3.348   3.376   1.316
 9473SOL    HW129318   3.445   3.376   1.341
 9473SOL    HW229319   3.330   3.450   1.252
 9474SOL     OW29320   5.824   4.451   0.770
 9474SOL    HW129321   5.783   4.419   0.684
 9474SOL    HW229322   5.756   4.502   0.822
 9475SOL     OW29323   5.251   3.891   5.996
 9475SOL    HW129324   5.152   3.901   6.005
 9475SOL    HW229325   5.283   3.819   6.057
 9476SOL     OW29326   4.231   4.153   1.200
 9476SOL    HW129327   4.216   4.217   1.124
 9476SOL    HW229328   4.255   4.204   1.283
 9477SOL     OW29329   1.991   4.659   1.035
 9477SOL    HW129330   2.078   4.643   1.082
 9477SOL    HW229331   1.943   4.573   1.022
 9478SOL     OW29332   5.512   3.962   5.907
 9478SOL    HW129333   5.422   3.925   5.929
 9478SOL    HW229334   5.581   3.891   5.920
 9479SOL     OW29335   4.026   0.898   2.432
 9479SOL    HW129336   3.998   0.982   2.479
 9479SOL    HW229337   4.121   0.877   2.455
 9480SOL     OW29338   5.909   0.472   0.466
 9480SOL    HW129339   5.863   0.511   0.386
 9480SOL    HW229340   5.950   0.545   0.520
 9481SOL     OW29341   4.803   0.539   3.401
 9481SOL    HW129342   4.816   0.617   3.462
 9481SOL    HW229343   4.832   0.455   3.447
 9482SOL     OW29344   6.592   4.944   5.179
 9482SOL    HW129345   6.670   4.956   5.240
 9482SOL    HW229346   6.508   4.938   5.233
 9483SOL     OW29347   6.072   5.703   6.406
 9483SOL    HW129348   6.132   5.629   6.437
 9483SOL    HW229349   6.037   5.680   6.315
 9484SOL     OW29350   2.495   5.989   5.010
 9484SOL    HW129351   2.572   5.974   4.948
 9484SOL    HW229352   2.417   5.934   4.981
 9485SOL     OW29353   0.577   1.530   5.397
 9485SOL    HW129354   0.617   1.500   5.310
 9485SOL    HW229355   0.527   1.454   5.439
 9486SOL     OW29356   6.422   5.872   6.467
 9486SOL    HW129357   6.351   5.924   6.515
 9486SOL    HW229358   6.502   5.863   6.526
 9487SOL     OW29359   3.447   3.892   3.726
 9487SOL    HW129360   3.400   3.964   3.777
 9487SOL    HW229361   3.380   3.823   3.696
 9488SOL     OW29362   2.159   1.147   1.696
 9488SOL    HW129363   2.094   1.166   1.622
 9488SOL    HW229364   2.120   1.079   1.758
 9489SOL     OW29365   6.090   4.030   6.975
 9489SOL    HW129366   6.110   3.987   0.042
 9489SOL    HW229367   6.129   3.974   6.901
 9490SOL     OW29368   6.011   3.210   4.785
 9490SOL    HW129369   6.007   3.304   4.751
 9490SOL    HW229370   6.090   3.164   4.745
 9491SOL     OW29371   5.618   0.095   2.855
 9491SOL    HW129372   5.682   0.018   2.851
 9491SOL    HW229373   5.525   0.061   2.861
 9492SOL     OW29374   4.732   2.310   3.701
 9492SOL    HW129375   4.699   2.281   3.791
 9492SOL    HW229376   4.740   2.410   3.699
 9493SOL     OW29377   3.615   5.928   2.150
 9493SOL    HW129378   3.573   5.977   2.226
 9493SOL    HW229379   3.581   5.834   2.148
 9494SOL     OW29380   5.268   2.734   2.177
 9494SOL    HW129381   5.257   2.744   2.275
 9494SOL    HW229382   5.341   2.669   2.158
 9495SOL     OW29383   5.389   2.809   1.059
 9495SOL    HW129384   5.334   2.827   0.977
 9495SOL    HW229385   5.387   2.889   1.119
 9496SOL     OW29386   5.909   2.773   0.936
 9496SOL    HW129387   5.936   2.788   1.031
 9496SOL    HW229388   5.866   2.856   0.901
 9497SOL     OW29389   4.988   5.119   5.050
 9497SOL    HW129390   4.923   5.136   5.125
 9497SOL    HW229391   4.956   5.165   4.968
 9498SOL     OW29392   0.988   6.120   5.425
 9498SOL    HW129393   1.081   6.094   5.449
 9498SOL    HW229394   0.936   6.137   5.509
 9499SOL     OW29395   5.897   6.289   4.208
 9499SOL    HW129396   5.876   6.193   4.191
 9499SOL    HW229397   5.879   6.343   4.126
 9500SOL     OW29398   3.069   1.840   0.450
 9500SOL    HW129399   2.978   1.862   0.414
 9500SOL    HW229400   3.062   1.762   0.511
 9501SOL     OW29401   2.112   3.995   5.233
 9501SOL    HW129402   2.170   3.976   5.312
 9501SOL    HW229403   2.169   4.002   5.150
 9502SOL     OW29404   5.787   4.724   3.874
 9502SOL    HW129405   5.847   4.665   3.820
 9502SOL    HW229406   5.839   4.763   3.950
 9503SOL     OW29407   6.119   0.820   0.361
 9503SOL    HW129408   6.029   0.844   0.398
 9503SOL    HW229409   6.172   0.770   0.429
 9504SOL     OW29410   6.477   5.834   2.241
 9504SOL    HW129411   6.573   5.861   2.232
 9504SOL    HW229412   6.419   5.915   2.242
 9505SOL     OW29413   4.470   3.993   6.538
 9505SOL    HW129414   4.500   4.087   6.523
 9505SOL    HW229415   4.512   3.958   6.622
 9506SOL     OW29416   2.725   1.105   1.131
 9506SOL    HW129417   2.636   1.089   1.174
 9506SOL    HW229418   2.797   1.072   1.193
 9507SOL     OW29419   6.336   6.873   1.590
 9507SOL    HW129420   6.370   6.962   1.559
 9507SOL    HW229421   6.343   6.807   1.515
 9508SOL     OW29422   4.251   0.820   2.580
 9508SOL    HW129423   4.199   0.737   2.600
 9508SOL    HW229424   4.333   0.797   2.529
 9509SOL     OW29425   5.473   1.533   3.517
 9509SOL    HW129426   5.401   1.603   3.514
 9509SOL    HW229427   5.510   1.519   3.426
 9510SOL     OW29428   1.738   2.773   2.765
 9510SOL    HW129429   1.773   2.757   2.858
 9510SOL    HW229430   1.789   2.716   2.701
 9511SOL     OW29431   0.701   1.554   1.027
 9511SOL    HW129432   0.760   1.623   1.069
 9511SOL    HW229433   0.671   1.489   1.096
 9512SOL     OW29434   6.509   1.557   1.977
 9512SOL    HW129435   6.429   1.615   1.960
 9512SOL    HW229436   6.558   1.543   1.891
 9513SOL     OW29437   4.682   3.912   5.306
 9513SOL    HW129438   4.736   3.836   5.341
 9513SOL    HW229439   4.586   3.899   5.329
 9514SOL     OW29440   3.599   3.170   0.706
 9514SOL    HW129441   3.508   3.137   0.682
 9514SOL    HW229442   3.608   3.172   0.806
 9515SOL     OW29443   0.292   5.561   2.916
 9515SOL    HW129444   0.382   5.581   2.953
 9515SOL    HW229445   0.222   5.593   2.980
 9516SOL     OW29446   0.457   3.778   5.887
 9516SOL    HW129447   0.501   3.868   5.878
 9516SOL    HW229448   0.520   3.707   5.855
 9517SOL     OW29449   6.908   0.012   1.261
 9517SOL    HW129450   6.916   7.016   1.359
 9517SOL    HW229451   6.998   0.033   1.223
 9518SOL     OW29452   0.570   1.112   1.357
 9518SOL    HW129453   0.629   1.188   1.382
 9518SOL    HW229454   0.625   1.031   1.338
 9519SOL     OW29455   1.213   2.882   5.265
 9519SOL    HW129456   1.237   2.956   5.328
 9519SOL    HW229457   1.114   2.882   5.251
 9520SOL     OW29458   3.782   6.404   1.829
 9520SOL    HW129459   3.761   6.311   1.800
 9520SOL    HW229460   3.816   6.456   1.751
 9521SOL     OW29461   5.387   4.753   3.392
 9521SOL    HW129462   5.340   4.688   3.452
 9521SOL    HW229463   5.395   4.714   3.300
 9522SOL     OW29464   2.987   5.138   6.754
 9522SOL    HW129465   2.982   5.216   6.817
 9522SOL    HW229466   3.000   5.172   6.661
 9523SOL     OW29467   2.125   6.447   5.427
 9523SOL    HW129468   2.193   6.511   5.390
 9523SOL    HW229469   2.074   6.405   5.352
 9524SOL     OW29470   5.026   3.070   0.352
 9524SOL    HW129471   5.081   2.986   0.358
 9524SOL    HW229472   5.037   3.109   0.260
 9525SOL     OW29473   4.141   6.954   4.529
 9525SOL    HW129474   4.161   7.015   4.606
 9525SOL    HW229475   4.197   6.979   4.451
 9526SOL     OW29476   4.957   6.124   1.563
 9526SOL    HW129477   4.878   6.093   1.508
 9526SOL    HW229478   4.996   6.046   1.611
 9527SOL     OW29479   0.277   2.315   0.721
 9527SOL    HW129480   0.331   2.398   0.713
 9527SOL    HW229481   0.212   2.310   0.645
 9528SOL     OW29482   6.798   1.194   1.504
 9528SOL    HW129483   6.757   1.105   1.524
 9528SOL    HW229484   6.871   1.183   1.437
 9529SOL     OW29485   1.623   3.180   4.900
 9529SOL    HW129486   1.655   3.116   4.970
 9529SOL    HW229487   1.650   3.273   4.925
 9530SOL     OW29488   2.077   1.239   3.917
 9530SOL    HW129489   2.016   1.306   3.959
 9530SOL    HW229490   2.172   1.267   3.929
 9531SOL     OW29491   2.707   6.752   4.190
 9531SOL    HW129492   2.607   6.750   4.179
 9531SOL    HW229493   2.729   6.777   4.284
 9532SOL     OW29494   2.963   1.244   2.026
 9532SOL    HW129495   2.982   1.269   1.931
 9532SOL    HW229496   2.977   1.146   2.038
 9533SOL     OW29497   1.025   1.579   4.864
 9533SOL    HW129498   1.071   1.568   4.952
 9533SOL    HW229499   0.961   1.655   4.870
 9534SOL     OW29500   5.546   1.868   4.589
 9534SOL    HW129501   5.582   1.777   4.609
 9534SOL    HW229502   5.553   1.926   4.671
 9535SOL     OW29503   3.468   1.705   4.444
 9535SOL    HW129504   3.377   1.670   4.420
 9535SOL    HW229505   3.512   1.742   4.363
 9536SOL     OW29506   2.433   6.798   6.428
 9536SOL    HW129507   2.375   6.878   6.445
 9536SOL    HW229508   2.389   6.716   6.467
 9537SOL     OW29509   2.232   0.243   0.447
 9537SOL    HW129510   2.190   0.152   0.445
 9537SOL    HW229511   2.315   0.241   0.503
 9538SOL     OW29512   5.922   3.654   2.755
 9538SOL    HW129513   5.844   3.592   2.767
 9538SOL    HW229514   5.935   3.707   2.839
 9539SOL     OW29515   6.969   3.667   6.877
 9539SOL    HW129516   6.890   3.693   6.932
 9539SOL    HW229517   6.963   3.710   6.787
 9540SOL     OW29518   5.350   3.014   5.619
 9540SOL    HW129519   5.443   3.047   5.634
 9540SOL    HW229520   5.319   2.964   5.700
 9541SOL     OW29521   6.783   1.874   3.426
 9541SOL    HW129522   6.697   1.825   3.409
 9541SOL    HW229523   6.849   1.852   3.354
 9542SOL     OW29524   4.682   4.351   4.625
 9542SOL    HW129525   4.753   4.287   4.655
 9542SOL    HW229526   4.619   4.369   4.700
 9543SOL     OW29527   4.465   2.761   1.152
 9543SOL    HW129528   4.531   2.745   1.225
 9543SOL    HW229529   4.503   2.827   1.087
 9544SOL     OW29530   4.559   1.054   1.227
 9544SOL    HW129531   4.555   1.145   1.184
 9544SOL    HW229532   4.467   1.022   1.246
 9545SOL     OW29533   1.348   0.084   4.765
 9545SOL    HW129534   1.283   0.020   4.724
 9545SOL    HW229535   1.299   0.160   4.807
 9546SOL     OW29536   2.443   4.429   1.729
 9546SOL    HW129537   2.506   4.495   1.770
 9546SOL    HW229538   2.366   4.477   1.688
 9547SOL     OW29539   5.697   5.429   3.487
 9547SOL    HW129540   5.648   5.475   3.413
 9547SOL    HW229541   5.728   5.497   3.554
 9548SOL     OW29542   5.669   6.962   2.395
 9548SOL    HW129543   5.715   0.012   2.342
 9548SOL    HW229544   5.575   6.990   2.415
 9549SOL     OW29545   2.352   5.802   0.498
 9549SOL    HW129546   2.269   5.750   0.517
 9549SOL    HW229547   2.427   5.766   0.553
 9550SOL     OW29548   1.884   1.242   0.112
 9550SOL    HW129549   1.921   1.244   0.205
 9550SOL    HW229550   1.942   1.185   0.054
 9551SOL     OW29551   1.665   5.673   4.935
 9551SOL    HW129552   1.585   5.719   4.899
 9551SOL    HW229553   1.745   5.696   4.879
 9552SOL     OW29554   0.523   4.869   3.269
 9552SOL    HW129555   0.440   4.854   3.215
 9552SOL    HW229556   0.506   4.843   3.364
 9553SOL     OW29557   5.535   4.927   6.286
 9553SOL    HW129558   5.463   4.957   6.223
 9553SOL    HW229559   5.586   5.006   6.318
 9554SOL     OW29560   1.674   1.792   1.581
 9554SOL    HW129561   1.772   1.808   1.575
 9554SOL    HW229562   1.653   1.738   1.663
 9555SOL     OW29563   6.859   2.979   6.305
 9555SOL    HW129564   6.830   2.911   6.373
 9555SOL    HW229565   6.779   3.014   6.256
 9556SOL     OW29566   6.742   0.998   1.254
 9556SOL    HW129567   6.661   1.037   1.298
 9556SOL    HW229568   6.752   1.038   1.162
 9557SOL     OW29569   4.698   1.551   2.192
 9557SOL    HW129570   4.702   1.562   2.093
 9557SOL    HW229571   4.669   1.637   2.234
 9558SOL     OW29572   6.529   3.597   1.332
 9558SOL    HW129573   6.472   3.602   1.413
 9558SOL    HW229574   6.599   3.527   1.344
 9559SOL     OW29575   0.581   4.010   2.728
 9559SOL    HW129576   0.678   3.992   2.737
 9559SOL    HW229577   0.532   3.923   2.717
 9560SOL     OW29578   4.116   2.247   5.670
 9560SOL    HW129579   4.080   2.202   5.752
 9560SOL    HW229580   4.056   2.228   5.592
 9561SOL     OW29581   3.020   5.736   6.259
 9561SOL    HW129582   3.066   5.825   6.254
 9561SOL    HW229583   3.085   5.666   6.290
 9562SOL     OW29584   5.769   5.059   4.083
 9562SOL    HW129585   5.866   5.055   4.057
 9562SOL    HW229586   5.714   5.015   4.013
 9563SOL     OW29587   0.342   6.333   6.836
 9563SOL    HW129588   0.300   6.384   6.761
 9563SOL    HW229589   0.302   6.241   6.840
 9564SOL     OW29590   1.459   0.808   5.877
 9564SOL    HW129591   1.485   0.823   5.781
 9564SOL    HW229592   1.406   0.886   5.910
 9565SOL     OW29593   3.053   5.692   5.178
 9565SOL    HW129594   2.977   5.756   5.187
 9565SOL    HW229595   3.053   5.629   5.257
 9566SOL     OW29596   3.165   4.581   5.808
 9566SOL    HW129597   3.077   4.622   5.832
 9566SOL    HW229598   3.151   4.509   5.740
 9567SOL     OW29599   6.116   4.990   4.681
 9567SOL    HW129600   6.068   5.016   4.765
 9567SOL    HW229601   6.152   5.072   4.637
 9568SOL     OW29602   5.705   3.689   5.650
 9568SOL    HW129603   5.775   3.671   5.719
 9568SOL    HW229604   5.701   3.788   5.632
 9569SOL     OW29605   6.029   6.972   1.641
 9569SOL    HW129606   5.944   7.000   1.686
 9569SOL    HW229607   6.096   6.945   1.710
 9570SOL     OW29608   1.246   1.932   6.615
 9570SOL    HW129609   1.311   1.957   6.543
 9570SOL    HW229610   1.261   1.991   6.694
 9571SOL     OW29611   3.271   1.993   0.539
 9571SOL    HW129612   3.193   1.969   0.482
 9571SOL    HW229613   3.319   1.910   0.568
 9572SOL     OW29614   0.355   4.037   0.925
 9572SOL    HW129615   0.263   4.018   0.892
 9572SOL    HW229616   0.422   3.998   0.862
 9573SOL     OW29617   4.668   1.357   3.110
 9573SOL    HW129618   4.639   1.277   3.058
 9573SOL    HW229619   4.712   1.422   3.048
 9574SOL     OW29620   2.657   2.397   3.325
 9574SOL    HW129621   2.583   2.381   3.260
 9574SOL    HW229622   2.639   2.481   3.376
 9575SOL     OW29623   3.976   1.529   3.067
 9575SOL    HW129624   3.982   1.600   3.137
 9575SOL    HW229625   4.005   1.567   2.979
 9576SOL     OW29626   3.620   3.602   5.615
 9576SOL    HW129627   3.617   3.574   5.711
 9576SOL    HW229628   3.625   3.702   5.610
 9577SOL     OW29629   0.930   5.705   3.763
 9577SOL    HW129630   0.873   5.705   3.680
 9577SOL    HW229631   1.024   5.683   3.738
 9578SOL     OW29632   0.011   3.932   1.080
 9578SOL    HW129633   0.036   3.914   0.985
 9578SOL    HW229634   6.932   3.927   1.089
 9579SOL     OW29635   1.937   4.637   2.926
 9579SOL    HW129636   1.845   4.621   2.963
 9579SOL    HW229637   1.930   4.690   2.842
 9580SOL     OW29638   4.232   3.707   5.952
 9580SOL    HW129639   4.248   3.798   5.914
 9580SOL    HW229640   4.161   3.661   5.899
 9581SOL     OW29641   1.160   5.953   5.831
 9581SOL    HW129642   1.065   5.952   5.860
 9581SOL    HW229643   1.179   5.869   5.779
 9582SOL     OW29644   4.475   5.544   2.894
 9582SOL    HW129645   4.496   5.578   2.802
 9582SOL    HW229646   4.413   5.608   2.940
 9583SOL     OW29647   1.482   5.070   1.513
 9583SOL    HW129648   1.564   5.038   1.465
 9583SOL    HW229649   1.403   5.061   1.452
 9584SOL     OW29650   4.804   4.692   0.145
 9584SOL    HW129651   4.819   4.607   0.195
 9584SOL    HW229652   4.727   4.682   0.082
 9585SOL     OW29653   6.531   0.987   2.941
 9585SOL    HW129654   6.447   1.001   2.994
 9585SOL    HW229655   6.605   0.964   3.004
 9586SOL     OW29656   5.302   3.986   2.481
 9586SOL    HW129657   5.262   3.917   2.421
 9586SOL    HW229658   5.248   3.994   2.564
 9587SOL     OW29659   4.299   6.449   1.499
 9587SOL    HW129660   4.214   6.399   1.479
 9587SOL    HW229661   4.377   6.387   1.490
 9588SOL     OW29662   6.117   0.898   3.567
 9588SOL    HW129663   6.097   0.939   3.478
 9588SOL    HW229664   6.156   0.967   3.628
 9589SOL     OW29665   3.473   2.142   4.734
 9589SOL    HW129666   3.385   2.169   4.694
 9589SOL    HW229667   3.504   2.214   4.796
 9590SOL     OW29668   0.274   4.770   4.489
 9590SOL    HW129669   0.369   4.803   4.495
 9590SOL    HW229670   0.232   4.805   4.405
 9591SOL     OW29671   0.889   4.488   2.240
 9591SOL    HW129672   0.919   4.395   2.263
 9591SOL    HW229673   0.789   4.493   2.243
 9592SOL     OW29674   4.135   5.833   0.365
 9592SOL    HW129675   4.087   5.909   0.409
 9592SOL    HW229676   4.176   5.774   0.435
 9593SOL     OW29677   2.174   1.794   3.453
 9593SOL    HW129678   2.144   1.758   3.365
 9593SOL    HW229679   2.263   1.755   3.477
 9594SOL     OW29680   5.970   0.183   1.214
 9594SOL    HW129681   5.925   0.266   1.180
 9594SOL    HW229682   5.994   0.195   1.310
 9595SOL     OW29683   1.336   5.610   5.177
 9595SOL    HW129684   1.258   5.578   5.124
 9595SOL    HW229685   1.303   5.670   5.250
 9596SOL     OW29686   5.387   6.050   2.177
 9596SOL    HW129687   5.385   6.119   2.250
 9596SOL    HW229688   5.450   6.080   2.105
 9597SOL     OW29689   2.533   4.778   1.452
 9597SOL    HW129690   2.454   4.754   1.508
 9597SOL    HW229691   2.547   4.877   1.455
 9598SOL     OW29692   0.052   6.065   6.311
 9598SOL    HW129693   0.108   6.063   6.394
 9598SOL    HW229694   7.000   6.134   6.322
 9599SOL     OW29695   3.844   2.184   5.116
 9599SOL    HW129696   3.782   2.227   5.182
 9599SOL    HW229697   3.792   2.121   5.058
 9600SOL     OW29698   1.571   6.359   6.767
 9600SOL    HW129699   1.621   6.438   6.802
 9600SOL    HW229700   1.545   6.375   6.672
 9601SOL     OW29701   1.008   6.819   5.021
 9601SOL    HW129702   0.985   6.894   4.959
 9601SOL    HW229703   0.985   6.845   5.115
 9602SOL     OW29704   1.134   5.457   6.225
 9602SOL    HW129705   1.109   5.411   6.310
 9602SOL    HW229706   1.100   5.551   6.226
 9603SOL     OW29707   0.866   4.752   2.358
 9603SOL    HW129708   0.844   4.761   2.260
 9603SOL    HW229709   0.781   4.759   2.411
 9604SOL     OW29710   0.272   0.303   6.491
 9604SOL    HW129711   0.190   0.252   6.516
 9604SOL    HW229712   0.255   0.401   6.497
 9605SOL     OW29713   3.411   4.859   1.436
 9605SOL    HW129714   3.498   4.886   1.478
 9605SOL    HW229715   3.343   4.843   1.508
 9606SOL     OW29716   6.927   0.282   5.294
 9606SOL    HW129717   6.910   0.244   5.385
 9606SOL    HW229718   7.013   0.245   5.258
 9607SOL     OW29719   7.014   2.215   2.944
 9607SOL    HW129720   6.956   2.133   2.936
 9607SOL    HW229721   0.081   2.189   2.984
 9608SOL     OW29722   6.212   1.088   1.893
 9608SOL    HW129723   6.139   1.103   1.827
 9608SOL    HW229724   6.299   1.120   1.855
 9609SOL     OW29725   1.400   2.198   3.630
 9609SOL    HW129726   1.388   2.200   3.530
 9609SOL    HW229727   1.495   2.222   3.652
 9610SOL     OW29728   4.305   0.918   5.310
 9610SOL    HW129729   4.339   0.912   5.404
 9610SOL    HW229730   4.310   1.013   5.279
 9611SOL     OW29731   4.903   5.556   0.967
 9611SOL    HW129732   4.817   5.561   0.916
 9611SOL    HW229733   4.980   5.563   0.904
 9612SOL     OW29734   5.572   3.077   3.710
 9612SOL    HW129735   5.479   3.114   3.714
 9612SOL    HW229736   5.625   3.111   3.788
 9613SOL     OW29737   5.498   0.662   4.632
 9613SOL    HW129738   5.576   0.605   4.658
 9613SOL    HW229739   5.475   0.645   4.536
 9614SOL     OW29740   2.824   2.574   0.740
 9614SOL    HW129741   2.876   2.510   0.684
 9614SOL    HW229742   2.869   2.663   0.740
 9615SOL     OW29743   0.619   5.629   3.827
 9615SOL    HW129744   0.705   5.643   3.875
 9615SOL    HW229745   0.597   5.532   3.825
 9616SOL     OW29746   1.188   2.403   1.084
 9616SOL    HW129747   1.249   2.394   1.005
 9616SOL    HW229748   1.141   2.491   1.080
 9617SOL     OW29749   0.471   2.331   2.923
 9617SOL    HW129750   0.563   2.354   2.955
 9617SOL    HW229751   0.439   2.402   2.859
 9618SOL     OW29752   4.714   3.961   1.814
 9618SOL    HW129753   4.786   3.961   1.745
 9618SOL    HW229754   4.733   4.031   1.883
 9619SOL     OW29755   0.364   7.012   1.140
 9619SOL    HW129756   0.345   6.965   1.054
 9619SOL    HW229757   0.460   0.020   1.142
 9620SOL     OW29758   4.253   1.198   0.034
 9620SOL    HW129759   4.165   1.154   0.051
 9620SOL    HW229760   4.291   1.232   0.120
 9621SOL     OW29761   0.386   0.989   1.551
 9621SOL    HW129762   0.288   0.997   1.532
 9621SOL    HW229763   0.438   1.039   1.482
 9622SOL     OW29764   6.538   5.973   5.533
 9622SOL    HW129765   6.497   6.064   5.523
 9622SOL    HW229766   6.482   5.906   5.484
 9623SOL     OW29767   2.877   6.114   5.980
 9623SOL    HW129768   2.946   6.042   5.974
 9623SOL    HW229769   2.792   6.082   5.937
 9624SOL     OW29770   4.604   5.727   5.960
 9624SOL    HW129771   4.659   5.810   5.971
 9624SOL    HW229772   4.598   5.703   5.864
 9625SOL     OW29773   4.789   4.413   6.344
 9625SOL    HW129774   4.882   4.426   6.309
 9625SOL    HW229775   4.793   4.354   6.425
 9626SOL     OW29776   2.678   2.657   6.248
 9626SOL    HW129777   2.737   2.733   6.276
 9626SOL    HW229778   2.730   2.572   6.254
 9627SOL     OW29779   0.149   5.799   0.522
 9627SOL    HW129780   0.180   5.739   0.449
 9627SOL    HW229781   0.122   5.887   0.484
 9628SOL     OW29782   5.912   1.148   6.062
 9628SOL    HW129783   5.898   1.053   6.035
 9628SOL    HW229784   5.823   1.192   6.078
 9629SOL     OW29785   0.886   5.794   4.018
 9629SOL    HW129786   0.973   5.760   4.054
 9629SOL    HW229787   0.877   5.767   3.923
 9630SOL     OW29788   5.404   0.719   6.438
 9630SOL    HW129789   5.393   0.702   6.340
 9630SOL    HW229790   5.326   0.773   6.471
 9631SOL     OW29791   4.530   6.457   0.573
 9631SOL    HW129792   4.586   6.375   0.566
 9631SOL    HW229793   4.448   6.447   0.516
 9632SOL     OW29794   2.596   4.985   3.313
 9632SOL    HW129795   2.694   4.968   3.327
 9632SOL    HW229796   2.544   4.902   3.333
 9633SOL     OW29797   3.550   2.783   5.159
 9633SOL    HW129798   3.489   2.725   5.106
 9633SOL    HW229799   3.552   2.753   5.254
 9634SOL     OW29800   5.629   4.467   2.784
 9634SOL    HW129801   5.720   4.479   2.743
 9634SOL    HW229802   5.559   4.490   2.718
 9635SOL     OW29803   0.533   4.682   4.282
 9635SOL    HW129804   0.632   4.670   4.290
 9635SOL    HW229805   0.487   4.594   4.293
 9636SOL     OW29806   5.583   3.883   3.854
 9636SOL    HW129807   5.542   3.793   3.871
 9636SOL    HW229808   5.549   3.920   3.768
 9637SOL     OW29809   1.705   3.423   6.918
 9637SOL    HW129810   1.676   3.509   6.961
 9637SOL    HW229811   1.763   3.443   6.839
 9638SOL     OW29812   6.632   4.597   5.553
 9638SOL    HW129813   6.624   4.697   5.555
 9638SOL    HW229814   6.703   4.571   5.488
 9639SOL     OW29815   5.179   2.646   1.202
 9639SOL    HW129816   5.184   2.594   1.116
 9639SOL    HW229817   5.124   2.728   1.189
 9640SOL     OW29818   3.518   0.006   3.106
 9640SOL    HW129819   3.497   0.076   3.174
 9640SOL    HW229820   3.435   7.003   3.056
 9641SOL     OW29821   0.334   3.266   4.523
 9641SOL    HW129822   0.416   3.299   4.569
 9641SOL    HW229823   0.266   3.339   4.517
 9642SOL     OW29824   0.533   2.857   4.740
 9642SOL    HW129825   0.599   2.822   4.673
 9642SOL    HW229826   0.574   2.932   4.792
 9643SOL     OW29827   5.343   4.936   4.222
 9643SOL    HW129828   5.288   4.959   4.302
 9643SOL    HW229829   5.383   4.846   4.233
 9644SOL     OW29830   0.912   4.849   3.861
 9644SOL    HW129831   0.864   4.928   3.898
 9644SOL    HW229832   1.006   4.847   3.897
 9645SOL     OW29833   1.198   5.022   6.664
 9645SOL    HW129834   1.115   5.003   6.716
 9645SOL    HW229835   1.263   5.071   6.722
 9646SOL     OW29836   3.046   5.209   1.097
 9646SOL    HW129837   2.975   5.259   1.048
 9646SOL    HW229838   3.049   5.241   1.192
 9647SOL     OW29839   5.808   6.808   3.184
 9647SOL    HW129840   5.724   6.763   3.213
 9647SOL    HW229841   5.792   6.906   3.174
 9648SOL     OW29842   3.112   2.133   1.233
 9648SOL    HW129843   3.181   2.158   1.164
 9648SOL    HW229844   3.148   2.152   1.324
 9649SOL     OW29845   6.936   5.870   1.240
 9649SOL    HW129846   6.960   5.777   1.209
 9649SOL    HW229847   6.926   5.929   1.160
 9650SOL     OW29848   0.707   4.983   5.078
 9650SOL    HW129849   0.724   4.906   5.016
 9650SOL    HW229850   0.793   5.032   5.094
 9651SOL     OW29851   4.095   1.918   0.155
 9651SOL    HW129852   4.180   1.864   0.149
 9651SOL    HW229853   4.113   2.002   0.207
 9652SOL     OW29854   0.088   3.541   0.310
 9652SOL    HW129855   0.046   3.524   0.399
 9652SOL    HW229856   0.046   3.622   0.268
 9653SOL     OW29857   5.202   4.543   5.377
 9653SOL    HW129858   5.264   4.507   5.446
 9653SOL    HW229859   5.167   4.632   5.406
 9654SOL     OW29860   3.771   4.125   3.718
 9654SOL    HW129861   3.749   4.084   3.629
 9654SOL    HW229862   3.694   4.183   3.747
 9655SOL     OW29863   4.986   0.914   1.206
 9655SOL    HW129864   4.909   0.923   1.143
 9655SOL    HW229865   5.064   0.874   1.159
 9656SOL     OW29866   4.819   4.254   6.579
 9656SOL    HW129867   4.725   4.246   6.546
 9656SOL    HW229868   4.819   4.274   6.677
 9657SOL     OW29869   5.221   4.593   2.773
 9657SOL    HW129870   5.237   4.674   2.717
 9657SOL    HW229871   5.124   4.566   2.765
 9658SOL     OW29872   5.556   1.111   2.767
 9658SOL    HW129873   5.531   1.051   2.692
 9658SOL    HW229874   5.592   1.197   2.731
 9659SOL     OW29875   3.353   3.195   6.806
 9659SOL    HW129876   3.305   3.154   6.884
 9659SOL    HW229877   3.448   3.165   6.807
 9660SOL     OW29878   1.710   6.681   1.282
 9660SOL    HW129879   1.808   6.701   1.280
 9660SOL    HW229880   1.692   6.611   1.351
 9661SOL     OW29881   4.064   3.712   2.124
 9661SOL    HW129882   4.104   3.765   2.049
 9661SOL    HW229883   4.029   3.775   2.194
 9662SOL     OW29884   5.000   0.091   5.630
 9662SOL    HW129885   4.902   0.112   5.631
 9662SOL    HW229886   5.024   0.044   5.715
 9663SOL     OW29887   0.999   5.604   2.695
 9663SOL    HW129888   0.929   5.533   2.704
 9663SOL    HW229889   0.964   5.677   2.636
 9664SOL     OW29890   2.737   4.707   2.741
 9664SOL    HW129891   2.806   4.694   2.670
 9664SOL    HW229892   2.734   4.804   2.768
 9665SOL     OW29893   6.312   4.705   6.343
 9665SOL    HW129894   6.259   4.620   6.350
 9665SOL    HW229895   6.277   4.771   6.409
 9666SOL     OW29896   5.049   4.090   0.997
 9666SOL    HW129897   5.092   4.175   0.965
 9666SOL    HW229898   5.120   4.022   1.014
 9667SOL     OW29899   5.515   6.382   6.932
 9667SOL    HW129900   5.605   6.366   6.973
 9667SOL    HW229901   5.526   6.416   6.839
 9668SOL     OW29902   1.757   1.123   6.536
 9668SOL    HW129903   1.843   1.155   6.577
 9668SOL    HW229904   1.701   1.202   6.512
 9669SOL     OW29905   3.211   0.463   0.007
 9669SOL    HW129906   3.283   0.419   0.060
 9669SOL    HW229907   3.127   0.409   0.013
 9670SOL     OW29908   0.375   1.135   1.171
 9670SOL    HW129909   0.453   1.142   1.232
 9670SOL    HW229910   0.407   1.111   1.079
 9671SOL     OW29911   0.886   5.380   6.653
 9671SOL    HW129912   0.875   5.449   6.725
 9671SOL    HW229913   0.981   5.378   6.623
 9672SOL     OW29914   0.747   3.033   4.168
 9672SOL    HW129915   0.730   3.112   4.111
 9672SOL    HW229916   0.694   3.040   4.253
 9673SOL     OW29917   2.456   2.678   6.446
 9673SOL    HW129918   2.537   2.669   6.388
 9673SOL    HW229919   2.445   2.774   6.473
 9674SOL     OW29920   1.852   0.019   4.175
 9674SOL    HW129921   1.906   0.104   4.170
 9674SOL    HW229922   1.846   6.998   4.085
 9675SOL     OW29923   6.236   4.447   5.694
 9675SOL    HW129924   6.206   4.519   5.630
 9675SOL    HW229925   6.328   4.468   5.726
 9676SOL     OW29926   0.757   3.470   5.438
 9676SOL    HW129927   0.833   3.516   5.485
 9676SOL    HW229928   0.774   3.472   5.339
 9677SOL     OW29929   0.064   4.920   2.515
 9677SOL    HW129930   0.033   4.968   2.434
 9677SOL    HW229931   0.132   4.851   2.489
 9678SOL     OW29932   3.784   3.190   5.454
 9678SOL    HW129933   3.738   3.194   5.544
 9678SOL    HW229934   3.838   3.106   5.449
 9679SOL     OW29935   1.439   0.706   3.911
 9679SOL    HW129936   1.389   0.758   3.980
 9679SOL    HW229937   1.376   0.681   3.837
 9680SOL     OW29938   4.389   0.564   2.460
 9680SOL    HW129939   4.449   0.625   2.512
 9680SOL    HW229940   4.409   0.574   2.362
 9681SOL     OW29941   0.999   3.434   1.229
 9681SOL    HW129942   1.061   3.508   1.253
 9681SOL    HW229943   0.985   3.374   1.308
 9682SOL     OW29944   4.638   0.032   5.751
 9682SOL    HW129945   4.679   0.108   5.801
 9682SOL    HW229946   4.703   6.976   5.748
 9683SOL     OW29947   3.723   5.837   4.664
 9683SOL    HW129948   3.805   5.893   4.669
 9683SOL    HW229949   3.744   5.749   4.621
 9684SOL     OW29950   6.845   3.162   5.792
 9684SOL    HW129951   6.862   3.128   5.700
 9684SOL    HW229952   6.748   3.182   5.803
 9685SOL     OW29953   3.420   4.504   1.637
 9685SOL    HW129954   3.489   4.558   1.684
 9685SOL    HW229955   3.410   4.416   1.683
 9686SOL     OW29956   0.138   1.549   5.403
 9686SOL    HW129957   0.202   1.608   5.353
 9686SOL    HW229958   0.045   1.567   5.374
 9687SOL     OW29959   5.696   1.420   3.633
 9687SOL    HW129960   5.762   1.495   3.630
 9687SOL    HW229961   5.608   1.451   3.598
 9688SOL     OW29962   0.180   5.217   1.718
 9688SOL    HW129963   0.250   5.157   1.678
 9688SOL    HW229964   0.127   5.259   1.645
 9689SOL     OW29965   1.688   5.528   1.340
 9689SOL    HW129966   1.620   5.526   1.267
 9689SOL    HW229967   1.650   5.488   1.423
 9690SOL     OW29968   0.058   4.932   4.965
 9690SOL    HW129969   0.099   4.936   4.874
 9690SOL    HW229970   6.979   4.927   4.957
 9691SOL     OW29971   4.047   3.483   2.272
 9691SOL    HW129972   4.126   3.429   2.243
 9691SOL    HW229973   4.047   3.571   2.225
 9692SOL     OW29974   4.851   4.686   0.769
 9692SOL    HW129975   4.940   4.699   0.812
 9692SOL    HW229976   4.843   4.748   0.690
 9693SOL     OW29977   4.664   3.687   6.401
 9693SOL    HW129978   4.663   3.686   6.501
 9693SOL    HW229979   4.605   3.760   6.368
 9694SOL     OW29980   2.511   6.033   0.901
 9694SOL    HW129981   2.504   6.088   0.817
 9694SOL    HW229982   2.439   5.964   0.901
 9695SOL     OW29983   1.539   2.721   4.024
 9695SOL    HW129984   1.583   2.752   4.108
 9695SOL    HW229985   1.560   2.785   3.950
 9696SOL     OW29986   4.799   2.817   3.456
 9696SOL    HW129987   4.746   2.738   3.488
 9696SOL    HW229988   4.819   2.877   3.533
 9697SOL     OW29989   0.110   0.440   1.623
 9697SOL    HW129990   0.075   0.364   1.678
 9697SOL    HW229991   0.147   0.406   1.537
 9698SOL     OW29992   0.032   3.073   1.867
 9698SOL    HW129993   6.965   3.026   1.869
 9698SOL    HW229994   0.084   3.042   1.787
 9699SOL     OW29995   0.815   6.485   2.060
 9699SOL    HW129996   0.846   6.578   2.080
 9699SOL    HW229997   0.892   6.430   2.030
 9700SOL     OW29998   5.705   0.682   6.605
 9700SOL    HW129999   5.731   0.716   6.515
 9700SOL    HW230000   5.713   0.582   6.607
 9701SOL     OW30001   5.496   4.112   0.186
 9701SOL    HW130002   5.524   4.202   0.155
 9701SOL    HW230003   5.473   4.116   0.283
 9702SOL     OW30004   3.395   3.914   1.793
 9702SOL    HW130005   3.449   3.830   1.801
 9702SOL    HW230006   3.374   3.949   1.885
 9703SOL     OW30007   6.203   4.996   3.071
 9703SOL    HW130008   6.232   5.030   3.161
 9703SOL    HW230009   6.275   4.941   3.031
 9704SOL     OW30010   0.814   4.739   2.067
 9704SOL    HW130011   0.877   4.807   2.029
 9704SOL    HW230012   0.781   4.680   1.993
 9705SOL     OW30013   0.208   3.849   5.794
 9705SOL    HW130014   0.284   3.803   5.842
 9705SOL    HW230015   0.190   3.936   5.839
 9706SOL     OW30016   0.885   0.329   1.926
 9706SOL    HW130017   0.955   0.258   1.920
 9706SOL    HW230018   0.922   0.415   1.891
 9707SOL     OW30019   1.058   5.241   2.130
 9707SOL    HW130020   0.993   5.304   2.173
 9707SOL    HW230021   1.031   5.146   2.151
 9708SOL     OW30022   2.995   1.223   1.710
 9708SOL    HW130023   3.089   1.215   1.678
 9708SOL    HW230024   2.942   1.143   1.680
 9709SOL     OW30025   5.279   1.908   2.151
 9709SOL    HW130026   5.283   1.809   2.168
 9709SOL    HW230027   5.222   1.926   2.071
 9710SOL     OW30028   4.864   4.880   4.492
 9710SOL    HW130029   4.949   4.840   4.524
 9710SOL    HW230030   4.798   4.808   4.471
 9711SOL     OW30031   2.731   0.735   6.786
 9711SOL    HW130032   2.823   0.696   6.797
 9711SOL    HW230033   2.738   0.820   6.733
 9712SOL     OW30034   5.506   0.232   5.558
 9712SOL    HW130035   5.508   0.212   5.460
 9712SOL    HW230036   5.412   0.250   5.587
 9713SOL     OW30037   2.059   0.354   2.646
 9713SOL    HW130038   1.995   0.288   2.607
 9713SOL    HW230039   2.029   0.447   2.624
 9714SOL     OW30040   2.250   3.007   4.052
 9714SOL    HW130041   2.260   2.992   3.954
 9714SOL    HW230042   2.225   3.102   4.070
 9715SOL     OW30043   0.048   2.584   6.499
 9715SOL    HW130044   0.111   2.662   6.506
 9715SOL    HW230045   0.034   2.544   6.589
 9716SOL     OW30046   2.349   6.656   0.663
 9716SOL    HW130047   2.301   6.578   0.703
 9716SOL    HW230048   2.444   6.657   0.694
 9717SOL     OW30049   3.629   2.994   6.008
 9717SOL    HW130050   3.662   2.953   6.093
 9717SOL    HW230051   3.701   3.052   5.969
 9718SOL     OW30052   3.688   2.778   0.160
 9718SOL    HW130053   3.647   2.690   0.184
 9718SOL    HW230054   3.776   2.788   0.208
 9719SOL     OW30055   4.521   0.669   5.958
 9719SOL    HW130056   4.469   0.585   5.977
 9719SOL    HW230057   4.483   0.744   6.012
 9720SOL     OW30058   2.198   2.360   2.475
 9720SOL    HW130059   2.263   2.287   2.452
 9720SOL    HW230060   2.231   2.447   2.440
 9721SOL     OW30061   0.900   1.704   1.160
 9721SOL    HW130062   0.905   1.755   1.075
 9721SOL    HW230063   0.960   1.746   1.228
 9722SOL     OW30064   4.029   2.633   5.443
 9722SOL    HW130065   4.095   2.583   5.386
 9722SOL    HW230066   3.960   2.675   5.384
 9723SOL     OW30067   5.873   0.620   4.941
 9723SOL    HW130068   5.808   0.694   4.956
 9723SOL    HW230069   5.961   0.645   4.982
 9724SOL     OW30070   1.400   4.662   1.547
 9724SOL    HW130071   1.370   4.567   1.552
 9724SOL    HW230072   1.498   4.664   1.527
 9725SOL     OW30073   5.356   5.624   3.719
 9725SOL    HW130074   5.393   5.697   3.662
 9725SOL    HW230075   5.379   5.535   3.679
 9726SOL     OW30076   0.005   0.164   3.166
 9726SOL    HW130077   0.017   0.141   3.070
 9726SOL    HW230078   6.935   0.135   3.197
 9727SOL     OW30079   6.000   2.638   1.410
 9727SOL    HW130080   6.049   2.553   1.392
 9727SOL    HW230081   5.902   2.619   1.417
 9728SOL     OW30082   4.992   2.342   4.646
 9728SOL    HW130083   4.899   2.374   4.628
 9728SOL    HW230084   5.037   2.317   4.560
 9729SOL     OW30085   0.323   3.857   2.848
 9729SOL    HW130086   0.355   3.833   2.757
 9729SOL    HW230087   0.373   3.804   2.917
 9730SOL     OW30088   1.356   5.506   3.706
 9730SOL    HW130089   1.398   5.423   3.740
 9730SOL    HW230090   1.404   5.537   3.623
 9731SOL     OW30091   6.574   2.256   1.680
 9731SOL    HW130092   6.538   2.162   1.687
 9731SOL    HW230093   6.500   2.317   1.652
 9732SOL     OW30094   1.450   3.353   2.572
 9732SOL    HW130095   1.388   3.309   2.507
 9732SOL    HW230096   1.497   3.283   2.626
 9733SOL     OW30097   6.234   5.390   1.934
 9733SOL    HW130098   6.142   5.361   1.908
 9733SOL    HW230099   6.264   5.465   1.874
 9734SOL     OW30100   3.981   4.626   6.625
 9734SOL    HW130101   3.932   4.705   6.589
 9734SOL    HW230102   4.051   4.656   6.690
 9735SOL     OW30103   0.584   1.450   0.199
 9735SOL    HW130104   0.495   1.488   0.174
 9735SOL    HW230105   0.651   1.473   0.129
 9736SOL     OW30106   5.198   2.228   5.234
 9736SOL    HW130107   5.156   2.183   5.313
 9736SOL    HW230108   5.191   2.168   5.154
 9737SOL     OW30109   5.521   3.260   4.812
 9737SOL    HW130110   5.423   3.279   4.814
 9737SOL    HW230111   5.570   3.344   4.788
 9738SOL     OW30112   2.329   6.337   1.698
 9738SOL    HW130113   2.365   6.423   1.661
 9738SOL    HW230114   2.348   6.263   1.633
 9739SOL     OW30115   5.704   6.930   0.557
 9739SOL    HW130116   5.699   6.977   0.645
 9739SOL    HW230117   5.800   6.919   0.531
 9740SOL     OW30118   6.158   0.785   1.776
 9740SOL    HW130119   6.215   0.734   1.840
 9740SOL    HW230120   6.214   0.817   1.700
 9741SOL     OW30121   2.452   2.365   3.129
 9741SOL    HW130122   2.515   2.368   3.051
 9741SOL    HW230123   2.388   2.442   3.124
 9742SOL     OW30124   4.033   1.835   6.604
 9742SOL    HW130125   4.062   1.915   6.553
 9742SOL    HW230126   4.106   1.806   6.666
 9743SOL     OW30127   6.461   3.495   4.215
 9743SOL    HW130128   6.438   3.431   4.288
 9743SOL    HW230129   6.433   3.588   4.242
 9744SOL     OW30130   1.800   1.696   2.528
 9744SOL    HW130131   1.821   1.776   2.585
 9744SOL    HW230132   1.795   1.724   2.432
 9745SOL     OW30133   0.644   6.636   5.801
 9745SOL    HW130134   0.707   6.673   5.733
 9745SOL    HW230135   0.606   6.711   5.855
 9746SOL     OW30136   2.993   6.538   6.077
 9746SOL    HW130137   3.047   6.477   6.018
 9746SOL    HW230138   2.914   6.571   6.026
 9747SOL     OW30139   3.725   1.630   3.425
 9747SOL    HW130140   3.811   1.593   3.461
 9747SOL    HW230141   3.702   1.714   3.475
 9748SOL     OW30142   0.410   1.756   2.132
 9748SOL    HW130143   0.483   1.795   2.076
 9748SOL    HW230144   0.347   1.828   2.160
 9749SOL     OW30145   6.377   0.617   1.557
 9749SOL    HW130146   6.337   0.548   1.617
 9749SOL    HW230147   6.450   0.576   1.502
 9750SOL     OW30148   5.352   2.378   5.475
 9750SOL    HW130149   5.404   2.294   5.455
 9750SOL    HW230150   5.278   2.388   5.410
 9751SOL     OW30151   2.980   6.365   1.181
 9751SOL    HW130152   2.892   6.400   1.150
 9751SOL    HW230153   2.989   6.377   1.280
 9752SOL     OW30154   3.354   3.134   0.462
 9752SOL    HW130155   3.364   3.224   0.504
 9752SOL    HW230156   3.377   3.139   0.365
 9753SOL     OW30157   6.516   5.935   3.674
 9753SOL    HW130158   6.465   5.854   3.645
 9753SOL    HW230159   6.463   5.986   3.741
 9754SOL     OW30160   3.244   1.017   1.997
 9754SOL    HW130161   3.264   1.066   2.083
 9754SOL    HW230162   3.291   0.929   1.997
 9755SOL     OW30163   3.692   3.756   0.013
 9755SOL    HW130164   3.635   3.838   0.014
 9755SOL    HW230165   3.761   3.762   0.085
 9756SOL     OW30166   5.706   0.183   6.826
 9756SOL    HW130167   5.701   0.195   6.925
 9756SOL    HW230168   5.790   0.133   6.802
 9757SOL     OW30169   5.418   3.801   4.236
 9757SOL    HW130170   5.381   3.841   4.152
 9757SOL    HW230171   5.345   3.797   4.305
 9758SOL     OW30172   2.703   0.263   2.091
 9758SOL    HW130173   2.640   0.269   2.013
 9758SOL    HW230174   2.678   0.332   2.159
 9759SOL     OW30175   6.586   2.211   1.176
 9759SOL    HW130176   6.526   2.152   1.230
 9759SOL    HW230177   6.658   2.156   1.134
 9760SOL     OW30178   4.692   0.597   6.291
 9760SOL    HW130179   4.606   0.638   6.260
 9760SOL    HW230180   4.743   0.564   6.212
 9761SOL     OW30181   0.969   2.231   1.145
 9761SOL    HW130182   1.039   2.303   1.146
 9761SOL    HW230183   0.935   2.219   1.052
 9762SOL     OW30184   3.161   0.881   6.290
 9762SOL    HW130185   3.219   0.826   6.350
 9762SOL    HW230186   3.204   0.891   6.201
 9763SOL     OW30187   6.298   2.555   1.019
 9763SOL    HW130188   6.254   2.640   1.047
 9763SOL    HW230189   6.368   2.530   1.087
 9764SOL     OW30190   0.933   2.687   2.842
 9764SOL    HW130191   0.972   2.652   2.756
 9764SOL    HW230192   1.000   2.744   2.889
 9765SOL     OW30193   6.643   1.833   1.455
 9765SOL    HW130194   6.686   1.872   1.536
 9765SOL    HW230195   6.699   1.852   1.375
 9766SOL     OW30196   0.535   3.059   2.971
 9766SOL    HW130197   0.615   3.007   2.941
 9766SOL    HW230198   0.453   3.003   2.959
 9767SOL     OW30199   3.524   1.711   5.135
 9767SOL    HW130200   3.444   1.651   5.131
 9767SOL    HW230201   3.578   1.699   5.052
 9768SOL     OW30202   4.825   2.300   6.952
 9768SOL    HW130203   4.726   2.313   6.954
 9768SOL    HW230204   4.866   2.341   0.013
 9769SOL     OW30205   3.602   1.402   5.506
 9769SOL    HW130206   3.666   1.418   5.581
 9769SOL    HW230207   3.594   1.484   5.450
 9770SOL     OW30208   1.754   3.304   5.212
 9770SOL    HW130209   1.696   3.359   5.271
 9770SOL    HW230210   1.748   3.337   5.118
 9771SOL     OW30211   3.227   0.943   1.717
 9771SOL    HW130212   3.223   0.846   1.739
 9771SOL    HW230213   3.253   0.995   1.799
 9772SOL     OW30214   0.783   0.910   1.302
 9772SOL    HW130215   0.720   0.833   1.294
 9772SOL    HW230216   0.843   0.895   1.381
 9773SOL     OW30217   5.896   6.244   2.376
 9773SOL    HW130218   5.844   6.206   2.300
 9773SOL    HW230219   5.978   6.289   2.341
 9774SOL     OW30220   1.835   5.098   4.537
 9774SOL    HW130221   1.794   5.186   4.560
 9774SOL    HW230222   1.933   5.101   4.553
 9775SOL     OW30223   1.324   1.259   2.409
 9775SOL    HW130224   1.247   1.316   2.380
 9775SOL    HW230225   1.398   1.318   2.442
 9776SOL     OW30226   2.217   5.552   1.229
 9776SOL    HW130227   2.129   5.601   1.227
 9776SOL    HW230228   2.284   5.602   1.174
 9777SOL     OW30229   4.452   2.194   5.134
 9777SOL    HW130230   4.452   2.118   5.199
 9777SOL    HW230231   4.420   2.162   5.045
 9778SOL     OW30232   1.523   4.133   2.746
 9778SOL    HW130233   1.619   4.106   2.736
 9778SOL    HW230234   1.519   4.228   2.777
 9779SOL     OW30235   3.330   0.138   3.607
 9779SOL    HW130236   3.327   0.231   3.641
 9779SOL    HW230237   3.248   0.089   3.635
 9780SOL     OW30238   0.741   1.381   0.477
 9780SOL    HW130239   0.770   1.342   0.564
 9780SOL    HW230240   0.648   1.419   0.487
 9781SOL     OW30241   1.268   1.436   2.090
 9781SOL    HW130242   1.224   1.483   2.014
 9781SOL    HW230243   1.301   1.347   2.060
 9782SOL     OW30244   0.560   2.392   0.394
 9782SOL    HW130245   0.574   2.363   0.489
 9782SOL    HW230246   0.475   2.444   0.388
 9783SOL     OW30247   4.300   1.070   2.644
 9783SOL    HW130248   4.236   1.116   2.582
 9783SOL    HW230249   4.299   0.972   2.626
 9784SOL     OW30250   1.722   1.363   6.772
 9784SOL    HW130251   1.791   1.423   6.812
 9784SOL    HW230252   1.637   1.414   6.759
 9785SOL     OW30253   0.682   3.655   4.813
 9785SOL    HW130254   0.685   3.755   4.810
 9785SOL    HW230255   0.709   3.618   4.724
 9786SOL     OW30256   2.156   4.357   6.727
 9786SOL    HW130257   2.230   4.291   6.716
 9786SOL    HW230258   2.069   4.313   6.705
 9787SOL     OW30259   2.868   3.691   1.802
 9787SOL    HW130260   2.889   3.765   1.866
 9787SOL    HW230261   2.837   3.611   1.853
 9788SOL     OW30262   2.972   6.998   2.904
 9788SOL    HW130263   3.029   0.015   2.831
 9788SOL    HW230264   2.891   6.955   2.864
 9789SOL     OW30265   4.013   1.304   0.308
 9789SOL    HW130266   3.970   1.301   0.218
 9789SOL    HW230267   4.093   1.363   0.304
 9790SOL     OW30268   4.211   5.232   5.056
 9790SOL    HW130269   4.245   5.147   5.096
 9790SOL    HW230270   4.184   5.295   5.129
 9791SOL     OW30271   0.219   0.623   1.369
 9791SOL    HW130272   0.126   0.586   1.376
 9791SOL    HW230273   0.255   0.639   1.461
 9792SOL     OW30274   3.751   4.602   0.775
 9792SOL    HW130275   3.757   4.646   0.685
 9792SOL    HW230276   3.655   4.595   0.802
 9793SOL     OW30277   6.078   0.810   3.013
 9793SOL    HW130278   6.020   0.765   3.081
 9793SOL    HW230279   6.137   0.742   2.968
 9794SOL     OW30280   3.791   5.526   4.247
 9794SOL    HW130281   3.738   5.441   4.251
 9794SOL    HW230282   3.743   5.597   4.298
 9795SOL     OW30283   1.254   3.383   3.713
 9795SOL    HW130284   1.335   3.430   3.748
 9795SOL    HW230285   1.257   3.287   3.740
 9796SOL     OW30286   3.114   3.662   4.304
 9796SOL    HW130287   3.099   3.759   4.320
 9796SOL    HW230288   3.147   3.648   4.211
 9797SOL     OW30289   3.483   5.417   6.956
 9797SOL    HW130290   3.568   5.375   6.924
 9797SOL    HW230291   3.427   5.442   6.876
 9798SOL     OW30292   6.922   4.219   6.851
 9798SOL    HW130293   6.957   4.249   6.940
 9798SOL    HW230294   6.997   4.182   6.797
 9799SOL     OW30295   3.652   6.527   6.940
 9799SOL    HW130296   3.728   6.570   6.892
 9799SOL    HW230297   3.612   6.593   7.005
 9800SOL     OW30298   6.493   4.434   4.465
 9800SOL    HW130299   6.462   4.527   4.447
 9800SOL    HW230300   6.450   4.400   4.549
 9801SOL     OW30301   4.159   6.557   1.122
 9801SOL    HW130302   4.163   6.466   1.162
 9801SOL    HW230303   4.251   6.595   1.117
 9802SOL     OW30304   3.591   3.935   0.247
 9802SOL    HW130305   3.684   3.899   0.248
 9802SOL    HW230306   3.581   4.004   0.319
 9803SOL     OW30307   1.268   3.539   6.110
 9803SOL    HW130308   1.298   3.512   6.018
 9803SOL    HW230309   1.347   3.548   6.170
 9804SOL     OW30310   0.932   4.338   3.421
 9804SOL    HW130311   0.969   4.311   3.332
 9804SOL    HW230312   0.919   4.437   3.423
 9805SOL     OW30313   0.043   5.560   4.253
 9805SOL    HW130314   0.132   5.532   4.287
 9805SOL    HW230315   0.008   5.637   4.307
 9806SOL     OW30316   3.797   1.687   0.068
 9806SOL    HW130317   3.844   1.736   0.142
 9806SOL    HW230318   3.706   1.727   0.054
 9807SOL     OW30319   3.900   3.506   3.516
 9807SOL    HW130320   3.993   3.508   3.480
 9807SOL    HW230321   3.902   3.509   3.616
 9808SOL     OW30322   3.221   5.623   1.962
 9808SOL    HW130323   3.181   5.586   2.046
 9808SOL    HW230324   3.251   5.548   1.903
 9809SOL     OW30325   6.171   2.187   0.655
 9809SOL    HW130326   6.154   2.256   0.724
 9809SOL    HW230327   6.120   2.104   0.677
 9810SOL     OW30328   2.666   3.178   1.133
 9810SOL    HW130329   2.602   3.254   1.143
 9810SOL    HW230330   2.701   3.176   1.039
 9811SOL     OW30331   5.736   3.418   3.929
 9811SOL    HW130332   5.746   3.458   3.838
 9811SOL    HW230333   5.790   3.471   3.995
 9812SOL     OW30334   3.239   5.507   5.982
 9812SOL    HW130335   3.189   5.572   5.925
 9812SOL    HW230336   3.306   5.556   6.037
 9813SOL     OW30337   3.990   0.767   1.902
 9813SOL    HW130338   4.076   0.746   1.948
 9813SOL    HW230339   3.976   0.703   1.826
 9814SOL     OW30340   0.314   1.831   5.871
 9814SOL    HW130341   0.293   1.761   5.803
 9814SOL    HW230342   0.239   1.835   5.938
 9815SOL     OW30343   4.326   2.160   4.375
 9815SOL    HW130344   4.394   2.221   4.335
 9815SOL    HW230345   4.304   2.088   4.310
 9816SOL     OW30346   2.848   1.426   0.625
 9816SOL    HW130347   2.755   1.390   0.627
 9816SOL    HW230348   2.902   1.381   0.696
 9817SOL     OW30349   6.225   0.230   1.908
 9817SOL    HW130350   6.133   0.196   1.928
 9817SOL    HW230351   6.283   0.220   1.989
 9818SOL     OW30352   4.108   3.072   5.313
 9818SOL    HW130353   4.070   3.085   5.221
 9818SOL    HW230354   4.110   3.160   5.360
 9819SOL     OW30355   3.345   0.535   1.699
 9819SOL    HW130356   3.258   0.578   1.720
 9819SOL    HW230357   3.336   0.479   1.617
 9820SOL     OW30358   3.861   2.535   0.403
 9820SOL    HW130359   3.960   2.545   0.410
 9820SOL    HW230360   3.819   2.625   0.395
 9821SOL     OW30361   0.139   5.268   0.178
 9821SOL    HW130362   0.060   5.313   0.219
 9821SOL    HW230363   0.108   5.197   0.115
 9822SOL     OW30364   0.458   0.126   2.711
 9822SOL    HW130365   0.453   0.201   2.777
 9822SOL    HW230366   0.508   0.049   2.752
 9823SOL     OW30367   3.272   6.573   1.577
 9823SOL    HW130368   3.182   6.608   1.550
 9823SOL    HW230369   3.264   6.526   1.665
 9824SOL     OW30370   1.786   3.968   6.272
 9824SOL    HW130371   1.851   4.016   6.214
 9824SOL    HW230372   1.695   3.973   6.231
 9825SOL     OW30373   4.178   5.069   5.411
 9825SOL    HW130374   4.118   5.141   5.448
 9825SOL    HW230375   4.199   5.004   5.483
 9826SOL     OW30376   5.409   6.944   5.597
 9826SOL    HW130377   5.334   6.911   5.655
 9826SOL    HW230378   5.462   7.011   5.648
 9827SOL     OW30379   0.712   4.229   4.336
 9827SOL    HW130380   0.632   4.262   4.287
 9827SOL    HW230381   0.782   4.199   4.270
 9828SOL     OW30382   2.984   2.662   6.609
 9828SOL    HW130383   2.904   2.722   6.622
 9828SOL    HW230384   3.030   2.686   6.524
 9829SOL     OW30385   2.714   4.345   1.311
 9829SOL    HW130386   2.732   4.357   1.213
 9829SOL    HW230387   2.766   4.413   1.363
 9830SOL     OW30388   6.859   1.326   0.395
 9830SOL    HW130389   6.909   1.368   0.319
 9830SOL    HW230390   6.911   1.338   0.480
 9831SOL     OW30391   5.625   6.717   1.183
 9831SOL    HW130392   5.638   6.807   1.226
 9831SOL    HW230393   5.678   6.649   1.233
 9832SOL     OW30394   3.861   4.955   1.466
 9832SOL    HW130395   3.842   4.909   1.380
 9832SOL    HW230396   3.776   4.991   1.505
 9833SOL     OW30397   4.520   4.168   5.951
 9833SOL    HW130398   4.516   4.240   6.021
 9833SOL    HW230399   4.581   4.095   5.983
 9834SOL     OW30400   2.212   2.294   3.961
 9834SOL    HW130401   2.189   2.310   4.057
 9834SOL    HW230402   2.218   2.195   3.945
 9835SOL     OW30403   4.915   1.941   4.421
 9835SOL    HW130404   4.875   1.863   4.373
 9835SOL    HW230405   4.848   2.016   4.423
 9836SOL     OW30406   5.372   5.481   2.323
 9836SOL    HW130407   5.313   5.406   2.293
 9836SOL    HW230408   5.338   5.519   2.408
 9837SOL     OW30409   1.520   6.383   4.884
 9837SOL    HW130410   1.551   6.314   4.950
 9837SOL    HW230411   1.543   6.474   4.918
 9838SOL     OW30412   6.596   5.419   5.125
 9838SOL    HW130413   6.499   5.439   5.134
 9838SOL    HW230414   6.640   5.490   5.070
 9839SOL     OW30415   6.693   2.309   2.580
 9839SOL    HW130416   6.664   2.261   2.498
 9839SOL    HW230417   6.668   2.256   2.661
 9840SOL     OW30418   6.219   0.699   1.116
 9840SOL    HW130419   6.243   0.718   1.020
 9840SOL    HW230420   6.149   0.629   1.119
 9841SOL     OW30421   1.987   3.621   3.932
 9841SOL    HW130422   2.051   3.698   3.933
 9841SOL    HW230423   1.925   3.628   4.010
 9842SOL     OW30424   2.911   3.434   3.470
 9842SOL    HW130425   2.953   3.522   3.445
 9842SOL    HW230426   2.874   3.391   3.388
 9843SOL     OW30427   5.988   3.726   3.024
 9843SOL    HW130428   5.954   3.820   3.030
 9843SOL    HW230429   5.947   3.671   3.097
 9844SOL     OW30430   5.146   0.405   2.651
 9844SOL    HW130431   5.232   0.433   2.609
 9844SOL    HW230432   5.161   0.384   2.747
 9845SOL     OW30433   1.444   1.763   3.346
 9845SOL    HW130434   1.464   1.816   3.429
 9845SOL    HW230435   1.345   1.762   3.331
 9846SOL     OW30436   3.126   3.213   3.229
 9846SOL    HW130437   3.108   3.235   3.325
 9846SOL    HW230438   3.141   3.114   3.220
 9847SOL     OW30439   2.167   4.550   4.826
 9847SOL    HW130440   2.080   4.577   4.787
 9847SOL    HW230441   2.179   4.593   4.915
 9848SOL     OW30442   5.352   3.559   0.562
 9848SOL    HW130443   5.297   3.534   0.483
 9848SOL    HW230444   5.391   3.476   0.603
 9849SOL     OW30445   0.187   6.928   5.612
 9849SOL    HW130446   0.239   6.978   5.681
 9849SOL    HW230447   0.237   6.928   5.525
 9850SOL     OW30448   4.342   6.951   2.806
 9850SOL    HW130449   4.404   6.995   2.742
 9850SOL    HW230450   4.249   6.954   2.770
 9851SOL     OW30451   5.521   3.246   5.116
 9851SOL    HW130452   5.539   3.293   5.029
 9851SOL    HW230453   5.569   3.293   5.189
 9852SOL     OW30454   4.621   1.895   4.276
 9852SOL    HW130455   4.611   1.990   4.306
 9852SOL    HW230456   4.583   1.834   4.345
 9853SOL     OW30457   0.407   4.005   1.185
 9853SOL    HW130458   0.423   4.009   1.086
 9853SOL    HW230459   0.489   3.969   1.230
 9854SOL     OW30460   4.366   5.996   3.669
 9854SOL    HW130461   4.273   5.999   3.632
 9854SOL    HW230462   4.430   5.967   3.597
 9855SOL     OW30463   1.770   3.387   0.694
 9855SOL    HW130464   1.821   3.366   0.610
 9855SOL    HW230465   1.834   3.410   0.767
 9856SOL     OW30466   4.109   2.695   0.789
 9856SOL    HW130467   4.150   2.612   0.751
 9856SOL    HW230468   4.084   2.678   0.885
 9857SOL     OW30469   6.156   4.194   2.816
 9857SOL    HW130470   6.136   4.223   2.909
 9857SOL    HW230471   6.217   4.260   2.773
 9858SOL     OW30472   4.255   1.531   1.140
 9858SOL    HW130473   4.190   1.462   1.172
 9858SOL    HW230474   4.337   1.530   1.197
 9859SOL     OW30475   6.247   0.419   1.710
 9859SOL    HW130476   6.159   0.412   1.661
 9859SOL    HW230477   6.245   0.361   1.791
 9860SOL     OW30478   0.542   0.967   2.407
 9860SOL    HW130479   0.495   0.879   2.418
 9860SOL    HW230480   0.581   0.995   2.495
 9861SOL     OW30481   3.433   6.615   5.002
 9861SOL    HW130482   3.521   6.644   5.039
 9861SOL    HW230483   3.395   6.543   5.060
 9862SOL     OW30484   0.980   2.246   0.874
 9862SOL    HW130485   0.913   2.228   0.802
 9862SOL    HW230486   0.988   2.344   0.889
 9863SOL     OW30487   2.798   0.077   0.958
 9863SOL    HW130488   2.822   0.160   0.908
 9863SOL    HW230489   2.865   0.062   1.031
 9864SOL     OW30490   4.270   6.330   3.034
 9864SOL    HW130491   4.192   6.285   2.990
 9864SOL    HW230492   4.335   6.359   2.963
 9865SOL     OW30493   1.464   2.690   4.918
 9865SOL    HW130494   1.552   2.737   4.912
 9865SOL    HW230495   1.391   2.758   4.930
 9866SOL     OW30496   3.967   4.795   2.856
 9866SOL    HW130497   4.065   4.774   2.856
 9866SOL    HW230498   3.920   4.733   2.793
 9867SOL     OW30499   3.995   0.546   6.437
 9867SOL    HW130500   3.911   0.501   6.465
 9867SOL    HW230501   4.064   0.476   6.414
 9868SOL     OW30502   0.405   5.155   6.582
 9868SOL    HW130503   0.325   5.203   6.619
 9868SOL    HW230504   0.398   5.151   6.482
 9869SOL     OW30505   1.813   3.954   3.284
 9869SOL    HW130506   1.907   3.925   3.264
 9869SOL    HW230507   1.755   3.936   3.205
 9870SOL     OW30508   5.131   4.323   2.352
 9870SOL    HW130509   5.217   4.312   2.301
 9870SOL    HW230510   5.149   4.316   2.450
 9871SOL     OW30511   1.475   1.482   5.424
 9871SOL    HW130512   1.389   1.519   5.460
 9871SOL    HW230513   1.497   1.397   5.471
 9872SOL     OW30514   1.498   4.824   3.497
 9872SOL    HW130515   1.434   4.807   3.571
 9872SOL    HW230516   1.584   4.858   3.535
 9873SOL     OW30517   1.229   2.339   0.636
 9873SOL    HW130518   1.212   2.241   0.625
 9873SOL    HW230519   1.328   2.355   0.642
 9874SOL     OW30520   0.803   2.796   3.574
 9874SOL    HW130521   0.837   2.887   3.599
 9874SOL    HW230522   0.723   2.773   3.630
 9875SOL     OW30523   1.274   0.583   3.206
 9875SOL    HW130524   1.175   0.570   3.204
 9875SOL    HW230525   1.311   0.576   3.113
 9876SOL     OW30526   0.022   5.808   2.876
 9876SOL    HW130527   0.084   5.861   2.818
 9876SOL    HW230528   6.961   5.785   2.823
 9877SOL     OW30529   3.804   6.940   1.954
 9877SOL    HW130530   3.730   6.875   1.942
 9877SOL    HW230531   3.773   7.016   2.012
 9878SOL     OW30532   0.554   0.519   5.448
 9878SOL    HW130533   0.546   0.506   5.547
 9878SOL    HW230534   0.495   0.594   5.419
 9879SOL     OW30535   5.359   6.258   5.404
 9879SOL    HW130536   5.418   6.196   5.457
 9879SOL    HW230537   5.304   6.204   5.339
 9880SOL     OW30538   1.940   1.886   4.683
 9880SOL    HW130539   2.004   1.952   4.722
 9880SOL    HW230540   1.847   1.906   4.716
 9881SOL     OW30541   6.905   2.046   6.219
 9881SOL    HW130542   6.842   2.105   6.269
 9881SOL    HW230543   6.999   2.079   6.230
 9882SOL     OW30544   1.499   1.706   2.675
 9882SOL    HW130545   1.475   1.787   2.729
 9882SOL    HW230546   1.567   1.652   2.725
 9883SOL     OW30547   2.213   1.210   2.029
 9883SOL    HW130548   2.293   1.267   2.046
 9883SOL    HW230549   2.199   1.148   2.107
 9884SOL     OW30550   4.054   0.794   4.275
 9884SOL    HW130551   3.978   0.859   4.269
 9884SOL    HW230552   4.119   0.812   4.202
 9885SOL     OW30553   6.265   4.560   3.348
 9885SOL    HW130554   6.179   4.539   3.301
 9885SOL    HW230555   6.336   4.497   3.316
 9886SOL     OW30556   1.082   3.616   2.054
 9886SOL    HW130557   1.054   3.682   2.124
 9886SOL    HW230558   1.101   3.664   1.969
 9887SOL     OW30559   4.416   0.283   6.051
 9887SOL    HW130560   4.369   0.371   6.049
 9887SOL    HW230561   4.405   0.241   6.141
 9888SOL     OW30562   6.860   4.739   0.411
 9888SOL    HW130563   6.917   4.692   0.344
 9888SOL    HW230564   6.909   4.819   0.447
 9889SOL     OW30565   0.834   4.857   0.524
 9889SOL    HW130566   0.845   4.767   0.483
 9889SOL    HW230567   0.870   4.856   0.618
 9890SOL     OW30568   1.254   3.534   0.571
 9890SOL    HW130569   1.316   3.611   0.584
 9890SOL    HW230570   1.306   3.448   0.578
 9891SOL     OW30571   5.002   1.470   1.895
 9891SOL    HW130572   5.052   1.510   1.818
 9891SOL    HW230573   5.047   1.385   1.924
 9892SOL     OW30574   0.348   5.872   6.792
 9892SOL    HW130575   0.288   5.792   6.795
 9892SOL    HW230576   0.397   5.873   6.705
 9893SOL     OW30577   2.200   1.658   1.221
 9893SOL    HW130578   2.230   1.697   1.308
 9893SOL    HW230579   2.104   1.682   1.204
 9894SOL     OW30580   1.480   1.530   1.105
 9894SOL    HW130581   1.500   1.589   1.026
 9894SOL    HW230582   1.395   1.561   1.149
 9895SOL     OW30583   4.981   3.895   6.018
 9895SOL    HW130584   4.952   3.861   6.107
 9895SOL    HW230585   4.906   3.947   5.976
 9896SOL     OW30586   6.475   6.807   6.548
 9896SOL    HW130587   6.479   6.806   6.648
 9896SOL    HW230588   6.551   6.753   6.511
 9897SOL     OW30589   5.694   4.747   4.143
 9897SOL    HW130590   5.680   4.705   4.053
 9897SOL    HW230591   5.629   4.822   4.155
 9898SOL     OW30592   2.851   6.495   5.638
 9898SOL    HW130593   2.815   6.465   5.726
 9898SOL    HW230594   2.776   6.533   5.583
 9899SOL     OW30595   7.010   5.374   6.903
 9899SOL    HW130596   6.975   5.465   6.924
 9899SOL    HW230597   6.969   5.307   6.965
 9900SOL     OW30598   1.991   3.367   3.590
 9900SOL    HW130599   2.049   3.373   3.671
 9900SOL    HW230600   1.962   3.459   3.563
 9901SOL     OW30601   2.052   2.453   5.560
 9901SOL    HW130602   2.056   2.353   5.563
 9901SOL    HW230603   1.985   2.486   5.627
 9902SOL     OW30604   2.612   4.296   6.710
 9902SOL    HW130605   2.530   4.252   6.673
 9902SOL    HW230606   2.693   4.258   6.664
 9903SOL     OW30607   5.983   0.677   4.253
 9903SOL    HW130608   5.916   0.700   4.324
 9903SOL    HW230609   5.937   0.668   4.165
 9904SOL     OW30610   6.834   2.512   6.955
 9904SOL    HW130611   6.757   2.570   6.981
 9904SOL    HW230612   6.814   2.417   6.978
 9905SOL     OW30613   4.877   1.024   0.279
 9905SOL    HW130614   4.922   1.052   0.194
 9905SOL    HW230615   4.900   0.929   0.299
 9906SOL     OW30616   4.057   3.242   4.764
 9906SOL    HW130617   4.099   3.227   4.674
 9906SOL    HW230618   3.976   3.183   4.773
 9907SOL     OW30619   1.141   0.452   1.646
 9907SOL    HW130620   1.221   0.440   1.705
 9907SOL    HW230621   1.068   0.498   1.696
 9908SOL     OW30622   4.892   3.225   3.120
 9908SOL    HW130623   4.887   3.136   3.166
 9908SOL    HW230624   4.884   3.298   3.189
 9909SOL     OW30625   2.069   0.286   5.140
 9909SOL    HW130626   1.969   0.284   5.142
 9909SOL    HW230627   2.104   0.310   5.230
 9910SOL     OW30628   0.519   4.289   3.218
 9910SOL    HW130629   0.614   4.268   3.200
 9910SOL    HW230630   0.511   4.335   3.307
 9911SOL     OW30631   2.516   5.952   2.740
 9911SOL    HW130632   2.458   5.886   2.789
 9911SOL    HW230633   2.576   5.903   2.678
 9912SOL     OW30634   5.441   0.863   6.689
 9912SOL    HW130635   5.496   0.798   6.636
 9912SOL    HW230636   5.344   0.850   6.666
 9913SOL     OW30637   4.856   3.385   6.286
 9913SOL    HW130638   4.922   3.317   6.254
 9913SOL    HW230639   4.765   3.361   6.252
 9914SOL     OW30640   6.849   4.077   4.643
 9914SOL    HW130641   6.790   4.014   4.593
 9914SOL    HW230642   6.919   4.026   4.693
 9915SOL     OW30643   5.656   0.980   4.139
 9915SOL    HW130644   5.702   1.010   4.223
 9915SOL    HW230645   5.649   1.057   4.076
 9916SOL     OW30646   2.294   2.409   1.478
 9916SOL    HW130647   2.204   2.448   1.459
 9916SOL    HW230648   2.363   2.456   1.423
 9917SOL     OW30649   6.394   4.773   4.357
 9917SOL    HW130650   6.306   4.800   4.398
 9917SOL    HW230651   6.460   4.846   4.369
 9918SOL     OW30652   4.354   2.349   2.678
 9918SOL    HW130653   4.402   2.415   2.620
 9918SOL    HW230654   4.420   2.289   2.722
 9919SOL     OW30655   6.540   6.372   0.551
 9919SOL    HW130656   6.586   6.460   0.539
 9919SOL    HW230657   6.607   6.298   0.540
 9920SOL     OW30658   4.706   1.584   1.910
 9920SOL    HW130659   4.703   1.672   1.862
 9920SOL    HW230660   4.794   1.540   1.894
 9921SOL     OW30661   3.342   5.154   6.269
 9921SOL    HW130662   3.421   5.190   6.319
 9921SOL    HW230663   3.340   5.055   6.277
 9922SOL     OW30664   0.617   5.077   0.561
 9922SOL    HW130665   0.683   5.019   0.513
 9922SOL    HW230666   0.619   5.056   0.659
 9923SOL     OW30667   5.428   4.736   1.058
 9923SOL    HW130668   5.476   4.651   1.077
 9923SOL    HW230669   5.396   4.777   1.144
 9924SOL     OW30670   0.396   3.910   4.768
 9924SOL    HW130671   0.442   3.951   4.689
 9924SOL    HW230672   0.454   3.918   4.848
 9925SOL     OW30673   5.486   2.580   3.574
 9925SOL    HW130674   5.443   2.522   3.504
 9925SOL    HW230675   5.536   2.654   3.530
 9926SOL     OW30676   2.539   5.257   6.818
 9926SOL    HW130677   2.587   5.171   6.833
 9926SOL    HW230678   2.525   5.271   6.720
 9927SOL     OW30679   5.948   0.271   3.092
 9927SOL    HW130680   5.953   0.180   3.132
 9927SOL    HW230681   5.961   0.340   3.163
 9928SOL     OW30682   4.786   4.688   2.085
 9928SOL    HW130683   4.733   4.618   2.133
 9928SOL    HW230684   4.725   4.749   2.035
 9929SOL     OW30685   1.608   4.410   2.627
 9929SOL    HW130686   1.639   4.504   2.638
 9929SOL    HW230687   1.531   4.392   2.688
 9930SOL     OW30688   6.597   0.478   3.692
 9930SOL    HW130689   6.667   0.487   3.763
 9930SOL    HW230690   6.541   0.397   3.711
 9931SOL     OW30691   0.576   4.835   5.762
 9931SOL    HW130692   0.614   4.920   5.728
 9931SOL    HW230693   0.577   4.835   5.862
 9932SOL     OW30694   1.176   6.227   5.009
 9932SOL    HW130695   1.203   6.323   5.001
 9932SOL    HW230696   1.086   6.222   5.053
 9933SOL     OW30697   0.202   6.063   2.355
 9933SOL    HW130698   0.287   6.037   2.399
 9933SOL    HW230699   0.156   6.133   2.409
 9934SOL     OW30700   6.549   2.291   5.875
 9934SOL    HW130701   6.595   2.210   5.838
 9934SOL    HW230702   6.564   2.369   5.815
 9935SOL     OW30703   3.136   0.551   6.231
 9935SOL    HW130704   3.174   0.562   6.323
 9935SOL    HW230705   3.179   0.473   6.186
 9936SOL     OW30706   0.791   4.200   3.600
 9936SOL    HW130707   0.836   4.266   3.541
 9936SOL    HW230708   0.801   4.108   3.562
 9937SOL     OW30709   6.658   2.101   6.486
 9937SOL    HW130710   6.711   2.172   6.439
 9937SOL    HW230711   6.661   2.118   6.585
 9938SOL     OW30712   6.791   6.452   2.798
 9938SOL    HW130713   6.717   6.388   2.778
 9938SOL    HW230714   6.811   6.506   2.717
 9939SOL     OW30715   3.505   2.901   2.836
 9939SOL    HW130716   3.444   2.959   2.782
 9939SOL    HW230717   3.528   2.819   2.784
 9940SOL     OW30718   0.026   1.041   0.334
 9940SOL    HW130719   0.060   0.952   0.304
 9940SOL    HW230720   6.957   1.030   0.377
 9941SOL     OW30721   3.188   5.191   5.680
 9941SOL    HW130722   3.189   5.111   5.620
 9941SOL    HW230723   3.109   5.186   5.741
 9942SOL     OW30724   3.068   5.662   3.795
 9942SOL    HW130725   3.130   5.680   3.871
 9942SOL    HW230726   2.999   5.596   3.822
 9943SOL     OW30727   1.444   6.878   4.909
 9943SOL    HW130728   1.431   6.954   4.847
 9943SOL    HW230729   1.537   6.843   4.901
 9944SOL     OW30730   1.279   3.757   6.994
 9944SOL    HW130731   1.302   3.665   6.964
 9944SOL    HW230732   1.275   3.759   0.074
 9945SOL     OW30733   6.494   5.794   6.775
 9945SOL    HW130734   6.574   5.797   6.716
 9945SOL    HW230735   6.416   5.837   6.729
 9946SOL     OW30736   5.194   1.464   5.051
 9946SOL    HW130737   5.266   1.470   4.982
 9946SOL    HW230738   5.223   1.513   5.134
 9947SOL     OW30739   5.794   4.716   3.532
 9947SOL    HW130740   5.771   4.645   3.599
 9947SOL    HW230741   5.782   4.680   3.440
 9948SOL     OW30742   5.041   3.918   4.120
 9948SOL    HW130743   5.053   3.820   4.139
 9948SOL    HW230744   4.955   3.932   4.072
 9949SOL     OW30745   5.583   5.335   2.187
 9949SOL    HW130746   5.600   5.238   2.203
 9949SOL    HW230747   5.496   5.361   2.229
 9950SOL     OW30748   3.449   5.889   5.940
 9950SOL    HW130749   3.452   5.911   6.037
 9950SOL    HW230750   3.513   5.947   5.890
 9951SOL     OW30751   6.337   2.304   2.914
 9951SOL    HW130752   6.243   2.300   2.949
 9951SOL    HW230753   6.342   2.368   2.838
 9952SOL     OW30754   0.509   5.076   0.217
 9952SOL    HW130755   0.536   5.171   0.200
 9952SOL    HW230756   0.590   5.018   0.223
 9953SOL     OW30757   6.334   2.339   3.670
 9953SOL    HW130758   6.397   2.416   3.664
 9953SOL    HW230759   6.252   2.358   3.616
 9954SOL     OW30760   4.136   0.100   5.468
 9954SOL    HW130761   4.077   0.062   5.396
 9954SOL    HW230762   4.196   0.029   5.503
 9955SOL     OW30763   0.409   4.448   4.357
 9955SOL    HW130764   0.329   4.437   4.298
 9955SOL    HW230765   0.397   4.393   4.439
 9956SOL     OW30766   0.998   6.171   0.518
 9956SOL    HW130767   0.995   6.109   0.440
 9956SOL    HW230768   0.933   6.140   0.588
 9957SOL     OW30769   5.963   5.335   2.452
 9957SOL    HW130770   6.027   5.318   2.528
 9957SOL    HW230771   6.008   5.392   2.383
 9958SOL     OW30772   2.278   4.398   0.916
 9958SOL    HW130773   2.366   4.379   0.872
 9958SOL    HW230774   2.242   4.485   0.882
 9959SOL     OW30775   3.686   3.409   1.077
 9959SOL    HW130776   3.602   3.461   1.062
 9959SOL    HW230777   3.709   3.410   1.174
 9960SOL     OW30778   0.489   1.318   2.019
 9960SOL    HW130779   0.478   1.229   2.063
 9960SOL    HW230780   0.526   1.383   2.086
 9961SOL     OW30781   1.981   4.311   4.385
 9961SOL    HW130782   2.020   4.272   4.469
 9961SOL    HW230783   1.948   4.236   4.327
 9962SOL     OW30784   5.082   6.435   4.663
 9962SOL    HW130785   5.070   6.357   4.602
 9962SOL    HW230786   5.076   6.520   4.611
 9963SOL     OW30787   3.393   0.816   0.867
 9963SOL    HW130788   3.475   0.760   0.859
 9963SOL    HW230789   3.322   0.764   0.915
 9964SOL     OW30790   4.892   5.938   4.861
 9964SOL    HW130791   4.840   5.860   4.897
 9964SOL    HW230792   4.840   6.022   4.877
 9965SOL     OW30793   3.831   6.742   6.892
 9965SOL    HW130794   3.791   6.829   6.922
 9965SOL    HW230795   3.924   6.733   6.927
 9966SOL     OW30796   0.193   6.957   3.183
 9966SOL    HW130797   0.149   0.025   3.202
 9966SOL    HW230798   0.283   6.973   3.143
 9967SOL     OW30799   1.173   5.204   0.584
 9967SOL    HW130800   1.257   5.151   0.597
 9967SOL    HW230801   1.112   5.190   0.662
 9968SOL     OW30802   2.911   3.605   2.821
 9968SOL    HW130803   2.864   3.665   2.756
 9968SOL    HW230804   2.926   3.516   2.779
 9969SOL     OW30805   1.548   3.223   1.558
 9969SOL    HW130806   1.584   3.131   1.574
 9969SOL    HW230807   1.451   3.225   1.578
 9970SOL     OW30808   5.976   4.658   1.649
 9970SOL    HW130809   6.067   4.617   1.645
 9970SOL    HW230810   5.939   4.665   1.557
 9971SOL     OW30811   2.417   6.029   0.324
 9971SOL    HW130812   2.423   5.941   0.371
 9971SOL    HW230813   2.321   6.053   0.309
 9972SOL     OW30814   6.867   5.017   1.605
 9972SOL    HW130815   6.793   4.951   1.610
 9972SOL    HW230816   6.936   4.985   1.540
 9973SOL     OW30817   6.092   6.811   3.891
 9973SOL    HW130818   6.013   6.807   3.830
 9973SOL    HW230819   6.176   6.819   3.836
 9974SOL     OW30820   2.654   0.471   4.293
 9974SOL    HW130821   2.618   0.456   4.385
 9974SOL    HW230822   2.610   0.408   4.230
 9975SOL     OW30823   6.509   3.751   0.547
 9975SOL    HW130824   6.490   3.723   0.641
 9975SOL    HW230825   6.423   3.774   0.501
 9976SOL     OW30826   1.997   6.790   5.109
 9976SOL    HW130827   2.085   6.786   5.062
 9976SOL    HW230828   1.983   6.705   5.160
 9977SOL     OW30829   6.521   4.339   4.215
 9977SOL    HW130830   6.430   4.325   4.177
 9977SOL    HW230831   6.515   4.375   4.307
 9978SOL     OW30832   0.186   3.181   5.085
 9978SOL    HW130833   0.203   3.100   5.142
 9978SOL    HW230834   0.216   3.163   4.992
 9979SOL     OW30835   0.741   4.174   4.989
 9979SOL    HW130836   0.814   4.136   4.932
 9979SOL    HW230837   0.770   4.173   5.085
 9980SOL     OW30838   3.198   6.643   4.789
 9980SOL    HW130839   3.227   6.707   4.860
 9980SOL    HW230840   3.260   6.564   4.789
 9981SOL     OW30841   3.563   1.974   4.121
 9981SOL    HW130842   3.500   2.013   4.189
 9981SOL    HW230843   3.598   1.887   4.155
 9982SOL     OW30844   6.340   6.178   2.947
 9982SOL    HW130845   6.423   6.173   3.002
 9982SOL    HW230846   6.293   6.265   2.965
 9983SOL     OW30847   6.743   1.089   0.971
 9983SOL    HW130848   6.803   1.164   0.943
 9983SOL    HW230849   6.655   1.098   0.925
 9984SOL     OW30850   2.742   0.951   0.003
 9984SOL    HW130851   2.666   1.014   7.004
 9984SOL    HW230852   2.714   0.889   0.076
 9985SOL     OW30853   1.488   1.393   1.861
 9985SOL    HW130854   1.551   1.338   1.807
 9985SOL    HW230855   1.487   1.361   1.955
 9986SOL     OW30856   5.083   4.116   4.737
 9986SOL    HW130857   5.159   4.174   4.709
 9986SOL    HW230858   5.115   4.022   4.747
 9987SOL     OW30859   0.071   4.426   5.853
 9987SOL    HW130860   0.066   4.434   5.953
 9987SOL    HW230861   0.115   4.508   5.815
 9988SOL     OW30862   6.624   6.779   4.651
 9988SOL    HW130863   6.598   6.875   4.640
 9988SOL    HW230864   6.547   6.721   4.627
 9989SOL     OW30865   1.047   2.917   4.545
 9989SOL    HW130866   1.113   2.842   4.548
 9989SOL    HW230867   1.020   2.933   4.450
 9990SOL     OW30868   1.479   5.478   2.135
 9990SOL    HW130869   1.574   5.449   2.147
 9990SOL    HW230870   1.429   5.409   2.082
 9991SOL     OW30871   4.098   2.134   3.099
 9991SOL    HW130872   4.134   2.111   3.189
 9991SOL    HW230873   4.152   2.208   3.060
 9992SOL     OW30874   6.706   5.769   6.098
 9992SOL    HW130875   6.779   5.718   6.144
 9992SOL    HW230876   6.723   5.769   5.999
 9993SOL     OW30877   1.217   0.809   1.921
 9993SOL    HW130878   1.157   0.800   2.000
 9993SOL    HW230879   1.311   0.827   1.952
 9994SOL     OW30880   5.937   4.952   3.089
 9994SOL    HW130881   5.878   5.030   3.069
 9994SOL    HW230882   6.032   4.978   3.075
 9995SOL     OW30883   5.010   1.238   4.339
 9995SOL    HW130884   5.031   1.245   4.437
 9995SOL    HW230885   4.916   1.204   4.329
 9996SOL     OW30886   2.480   3.383   6.906
 9996SOL    HW130887   2.525   3.354   6.821
 9996SOL    HW230888   2.382   3.362   6.900
 9997SOL     OW30889   2.598   0.191   4.613
 9997SOL    HW130890   2.695   0.192   4.640
 9997SOL    HW230891   2.591   0.200   4.514
 9998SOL     OW30892   5.802   6.347   5.512
 9998SOL    HW130893   5.795   6.324   5.608
 9998SOL    HW230894   5.713   6.377   5.478
 9999SOL     OW30895   6.567   2.448   4.646
 9999SOL    HW130896   6.650   2.486   4.688
 9999SOL    HW230897   6.567   2.349   4.658
10000SOL     OW30898   6.866   4.571   0.153
10000SOL    HW130899   6.783   4.524   0.183
10000SOL    HW230900   6.871   4.569   0.053
10001SOL     OW30901   3.958   0.095   3.485
10001SOL    HW130902   3.872   0.047   3.464
10001SOL    HW230903   4.027   0.069   3.417
10002SOL     OW30904   1.331   1.590   1.778
10002SOL    HW130905   1.371   1.503   1.805
10002SOL    HW230906   1.240   1.600   1.820
10003SOL     OW30907   5.389   2.902   3.506
10003SOL    HW130908   5.413   2.997   3.485
10003SOL    HW230909   5.472   2.848   3.513
10004SOL     OW30910   0.373   2.565   2.825
10004SOL    HW130911   0.296   2.601   2.773
10004SOL    HW230912   0.352   2.566   2.923
10005SOL     OW30913   5.024   0.271   4.569
10005SOL    HW130914   4.959   0.276   4.645
10005SOL    HW230915   5.073   0.358   4.562
10006SOL     OW30916   4.806   1.762   4.957
10006SOL    HW130917   4.750   1.844   4.971
10006SOL    HW230918   4.874   1.779   4.886
10007SOL     OW30919   6.371   3.631   3.836
10007SOL    HW130920   6.470   3.624   3.826
10007SOL    HW230921   6.326   3.585   3.759
10008SOL     OW30922   3.934   6.662   4.391
10008SOL    HW130923   3.941   6.751   4.436
10008SOL    HW230924   3.840   6.628   4.398
10009SOL     OW30925   1.670   4.331   1.603
10009SOL    HW130926   1.738   4.262   1.628
10009SOL    HW230927   1.656   4.393   1.679
10010SOL     OW30928   6.187   1.449   6.341
10010SOL    HW130929   6.287   1.451   6.335
10010SOL    HW230930   6.149   1.446   6.249
10011SOL     OW30931   0.049   6.927   4.043
10011SOL    HW130932   0.045   6.841   4.094
10011SOL    HW230933   0.144   6.951   4.025
10012SOL     OW30934   5.965   0.584   4.652
10012SOL    HW130935   5.920   0.527   4.720
10012SOL    HW230936   5.933   0.559   4.561
10013SOL     OW30937   1.485   0.937   2.017
10013SOL    HW130938   1.549   0.975   1.950
10013SOL    HW230939   1.537   0.900   2.095
10014SOL     OW30940   1.416   4.890   5.922
10014SOL    HW130941   1.422   4.853   6.015
10014SOL    HW230942   1.321   4.886   5.891
10015SOL     OW30943   2.329   4.866   6.799
10015SOL    HW130944   2.266   4.910   6.863
10015SOL    HW230945   2.289   4.780   6.766
10016SOL     OW30946   2.444   0.453   5.271
10016SOL    HW130947   2.502   0.400   5.333
10016SOL    HW230948   2.455   0.419   5.178
10017SOL     OW30949   0.943   1.986   4.132
10017SOL    HW130950   0.896   1.898   4.139
10017SOL    HW230951   0.879   2.056   4.101
10018SOL     OW30952   5.055   6.619   5.934
10018SOL    HW130953   5.030   6.630   6.030
10018SOL    HW230954   4.986   6.564   5.888
10019SOL     OW30955   1.301   1.046   2.581
10019SOL    HW130956   1.358   1.072   2.660
10019SOL    HW230957   1.274   1.129   2.532
10020SOL     OW30958   0.177   3.152   0.009
10020SOL    HW130959   0.169   3.126   0.105
10020SOL    HW230960   0.185   3.252   0.002
10021SOL     OW30961   5.290   3.154   1.613
10021SOL    HW130962   5.308   3.056   1.627
10021SOL    HW230963   5.206   3.180   1.660
10022SOL     OW30964   1.764   0.491   6.639
10022SOL    HW130965   1.758   0.561   6.568
10022SOL    HW230966   1.804   0.530   6.721
10023SOL     OW30967   0.397   3.175   0.845
10023SOL    HW130968   0.452   3.097   0.815
10023SOL    HW230969   0.301   3.147   0.852
10024SOL     OW30970   1.222   4.636   3.527
10024SOL    HW130971   1.135   4.617   3.481
10024SOL    HW230972   1.297   4.598   3.473
10025SOL     OW30973   1.032   0.819   0.494
10025SOL    HW130974   1.001   0.732   0.457
10025SOL    HW230975   1.131   0.829   0.479
10026SOL     OW30976   6.760   0.431   3.919
10026SOL    HW130977   6.709   0.347   3.904
10026SOL    HW230978   6.846   0.411   3.967
10027SOL     OW30979   5.459   2.429   5.970
10027SOL    HW130980   5.484   2.344   6.016
10027SOL    HW230981   5.382   2.471   6.018
10028SOL     OW30982   2.061   0.725   1.635
10028SOL    HW130983   1.975   0.673   1.637
10028SOL    HW230984   2.048   0.812   1.682
10029SOL     OW30985   4.488   1.294   4.031
10029SOL    HW130986   4.558   1.243   4.082
10029SOL    HW230987   4.398   1.273   4.069
10030SOL     OW30988   1.421   0.606   2.964
10030SOL    HW130989   1.368   0.587   2.881
10030SOL    HW230990   1.435   0.705   2.972
10031SOL     OW30991   6.574   4.727   3.932
10031SOL    HW130992   6.527   4.692   4.013
10031SOL    HW230993   6.520   4.708   3.850
10032SOL     OW30994   3.307   1.282   5.192
10032SOL    HW130995   3.324   1.380   5.186
10032SOL    HW230996   3.209   1.265   5.184
10033SOL     OW30997   5.194   2.911   4.097
10033SOL    HW130998   5.192   2.984   4.166
10033SOL    HW230999   5.281   2.862   4.104
10034SOL     OW31000   4.265   0.514   5.999
10034SOL    HW131001   4.237   0.428   5.956
10034SOL    HW231002   4.193   0.545   6.062
10035SOL     OW31003   0.420   6.529   3.562
10035SOL    HW131004   0.471   6.586   3.626
10035SOL    HW231005   0.482   6.462   3.520
10036SOL     OW31006   6.734   0.115   0.359
10036SOL    HW131007   6.644   0.143   0.395
10036SOL    HW231008   6.758   0.172   0.281
10037SOL     OW31009   6.816   6.834   1.108
10037SOL    HW131010   6.841   6.923   1.147
10037SOL    HW231011   6.871   6.763   1.150
10038SOL     OW31012   6.212   0.130   1.005
10038SOL    HW131013   6.157   0.121   1.088
10038SOL    HW231014   6.284   0.061   1.005
10039SOL     OW31015   4.064   0.484   3.136
10039SOL    HW131016   4.076   0.572   3.181
10039SOL    HW231017   3.995   0.431   3.185
10040SOL     OW31018   0.369   2.040   0.719
10040SOL    HW131019   0.323   2.129   0.717
10040SOL    HW231020   0.453   2.048   0.773
10041SOL     OW31021   1.296   6.467   0.615
10041SOL    HW131022   1.215   6.513   0.578
10041SOL    HW231023   1.301   6.374   0.578
10042SOL     OW31024   6.207   2.078   3.445
10042SOL    HW131025   6.108   2.096   3.447
10042SOL    HW231026   6.239   2.054   3.536
10043SOL     OW31027   1.271   3.131   4.924
10043SOL    HW131028   1.216   3.200   4.877
10043SOL    HW231029   1.363   3.129   4.885
10044SOL     OW31030   4.546   1.968   6.437
10044SOL    HW131031   4.558   1.911   6.356
10044SOL    HW231032   4.465   1.937   6.487
10045SOL     OW31033   2.557   0.922   0.898
10045SOL    HW131034   2.498   0.872   0.962
10045SOL    HW231035   2.609   0.991   0.948
10046SOL     OW31036   0.774   5.223   1.189
10046SOL    HW131037   0.747   5.241   1.094
10046SOL    HW231038   0.697   5.183   1.238
10047SOL     OW31039   1.329   3.119   0.321
10047SOL    HW131040   1.333   3.133   0.222
10047SOL    HW231041   1.316   3.022   0.342
10048SOL     OW31042   5.791   4.702   2.251
10048SOL    HW131043   5.873   4.749   2.285
10048SOL    HW231044   5.811   4.660   2.162
10049SOL     OW31045   5.803   1.161   5.093
10049SOL    HW131046   5.865   1.240   5.094
10049SOL    HW231047   5.714   1.188   5.130
10050SOL     OW31048   6.892   2.878   5.411
10050SOL    HW131049   6.871   2.972   5.384
10050SOL    HW231050   6.973   2.878   5.471
10051SOL     OW31051   2.411   1.143   4.478
10051SOL    HW131052   2.426   1.047   4.502
10051SOL    HW231053   2.356   1.187   4.549
10052SOL     OW31054   1.007   0.361   3.863
10052SOL    HW131055   0.996   0.405   3.952
10052SOL    HW231056   1.078   0.408   3.811
10053SOL     OW31057   5.698   5.138   3.108
10053SOL    HW131058   5.759   5.217   3.105
10053SOL    HW231059   5.645   5.134   3.023
10054SOL     OW31060   6.533   3.857   4.069
10054SOL    HW131061   6.547   3.956   4.066
10054SOL    HW231062   6.578   3.815   3.990
10055SOL     OW31063   1.806   1.739   6.400
10055SOL    HW131064   1.720   1.777   6.435
10055SOL    HW231065   1.801   1.639   6.399
10056SOL     OW31066   5.795   2.352   4.408
10056SOL    HW131067   5.770   2.284   4.339
10056SOL    HW231068   5.777   2.315   4.499
10057SOL     OW31069   5.582   4.756   5.455
10057SOL    HW131070   5.559   4.660   5.441
10057SOL    HW231071   5.552   4.785   5.546
10058SOL     OW31072   6.568   4.101   4.362
10058SOL    HW131073   6.623   4.020   4.383
10058SOL    HW231074   6.629   4.176   4.335
10059SOL     OW31075   5.156   6.364   6.849
10059SOL    HW131076   5.153   6.463   6.861
10059SOL    HW231077   5.245   6.337   6.813
10060SOL     OW31078   2.947   1.700   2.040
10060SOL    HW131079   2.960   1.687   1.942
10060SOL    HW231080   3.033   1.726   2.082
10061SOL     OW31081   3.448   0.234   2.248
10061SOL    HW131082   3.362   0.211   2.203
10061SOL    HW231083   3.493   0.150   2.280
10062SOL     OW31084   6.928   6.806   4.680
10062SOL    HW131085   6.838   6.763   4.682
10062SOL    HW231086   6.958   6.819   4.586
10063SOL     OW31087   2.986   2.238   4.599
10063SOL    HW131088   2.961   2.171   4.668
10063SOL    HW231089   2.982   2.330   4.638
10064SOL     OW31090   2.916   0.181   2.237
10064SOL    HW131091   2.838   0.208   2.182
10064SOL    HW231092   2.908   0.084   2.262
10065SOL     OW31093   6.836   2.008   1.683
10065SOL    HW131094   6.799   2.075   1.619
10065SOL    HW231095   6.859   2.055   1.769
10066SOL     OW31096   6.425   4.374   3.211
10066SOL    HW131097   6.398   4.279   3.201
10066SOL    HW231098   6.511   4.380   3.262
10067SOL     OW31099   6.225   4.144   4.804
10067SOL    HW131100   6.155   4.120   4.737
10067SOL    HW231101   6.245   4.065   4.861
10068SOL     OW31102   1.850   2.910   2.159
10068SOL    HW131103   1.893   2.873   2.077
10068SOL    HW231104   1.916   2.965   2.210
10069SOL     OW31105   3.186   4.843   1.613
10069SOL    HW131106   3.232   4.870   1.697
10069SOL    HW231107   3.125   4.766   1.631
10070SOL     OW31108   5.317   0.456   0.829
10070SOL    HW131109   5.403   0.505   0.839
10070SOL    HW231110   5.251   0.489   0.897
10071SOL     OW31111   5.438   0.701   5.661
10071SOL    HW131112   5.532   0.674   5.683
10071SOL    HW231113   5.397   0.748   5.740
10072SOL     OW31114   5.970   2.632   1.860
10072SOL    HW131115   6.030   2.588   1.794
10072SOL    HW231116   5.986   2.730   1.860
10073SOL     OW31117   5.616   5.778   5.018
10073SOL    HW131118   5.682   5.795   4.944
10073SOL    HW231119   5.666   5.748   5.100
10074SOL     OW31120   2.002   4.745   0.599
10074SOL    HW131121   1.998   4.651   0.632
10074SOL    HW231122   2.058   4.749   0.516
10075SOL     OW31123   1.324   2.482   1.833
10075SOL    HW131124   1.267   2.530   1.766
10075SOL    HW231125   1.292   2.503   1.925
10076SOL     OW31126   5.973   3.878   3.754
10076SOL    HW131127   5.897   3.910   3.811
10076SOL    HW231128   5.975   3.931   3.669
10077SOL     OW31129   4.399   3.673   6.614
10077SOL    HW131130   4.468   3.604   6.634
10077SOL    HW231131   4.330   3.634   6.553
10078SOL     OW31132   5.979   5.424   4.553
10078SOL    HW131133   5.950   5.336   4.515
10078SOL    HW231134   5.967   5.496   4.484
10079SOL     OW31135   4.911   4.837   2.940
10079SOL    HW131136   4.872   4.816   2.850
10079SOL    HW231137   5.006   4.806   2.942
10080SOL     OW31138   5.199   1.898   5.724
10080SOL    HW131139   5.130   1.963   5.757
10080SOL    HW231140   5.193   1.890   5.624
10081SOL     OW31141   1.235   4.708   6.737
10081SOL    HW131142   1.137   4.727   6.732
10081SOL    HW231143   1.266   4.670   6.650
10082SOL     OW31144   1.141   4.411   1.042
10082SOL    HW131145   1.044   4.400   1.017
10082SOL    HW231146   1.198   4.384   0.964
10083SOL     OW31147   2.653   6.338   2.809
10083SOL    HW131148   2.673   6.435   2.808
10083SOL    HW231149   2.556   6.324   2.831
10084SOL     OW31150   1.846   2.539   3.995
10084SOL    HW131151   1.783   2.614   4.015
10084SOL    HW231152   1.838   2.469   4.066
10085SOL     OW31153   4.792   0.147   1.702
10085SOL    HW131154   4.769   0.161   1.798
10085SOL    HW231155   4.763   0.055   1.674
10086SOL     OW31156   3.775   0.071   3.146
10086SOL    HW131157   3.688   0.049   3.103
10086SOL    HW231158   3.766   0.062   3.246
10087SOL     OW31159   1.585   5.695   5.227
10087SOL    HW131160   1.638   5.683   5.143
10087SOL    HW231161   1.493   5.660   5.214
10088SOL     OW31162   6.351   2.396   1.300
10088SOL    HW131163   6.397   2.312   1.270
10088SOL    HW231164   6.377   2.417   1.394
10089SOL     OW31165   4.308   6.961   2.064
10089SOL    HW131166   4.235   6.905   2.025
10089SOL    HW231167   4.292   6.972   2.162
10090SOL     OW31168   1.983   5.872   2.532
10090SOL    HW131169   1.958   5.786   2.488
10090SOL    HW231170   2.051   5.919   2.476
10091SOL     OW31171   5.210   5.046   4.012
10091SOL    HW131172   5.267   5.001   4.080
10091SOL    HW231173   5.263   5.063   3.929
10092SOL     OW31174   0.669   1.274   2.755
10092SOL    HW131175   0.699   1.341   2.686
10092SOL    HW231176   0.677   1.315   2.846
10093SOL     OW31177   4.220   3.902   6.441
10093SOL    HW131178   4.227   3.822   6.382
10093SOL    HW231179   4.312   3.929   6.471
10094SOL     OW31180   4.058   2.079   0.495
10094SOL    HW131181   3.965   2.098   0.526
10094SOL    HW231182   4.069   2.111   0.401
10095SOL     OW31183   4.184   3.695   5.582
10095SOL    HW131184   4.183   3.670   5.486
10095SOL    HW231185   4.155   3.790   5.592
10096SOL     OW31186   6.666   4.083   2.309
10096SOL    HW131187   6.591   4.082   2.375
10096SOL    HW231188   6.737   4.147   2.340
10097SOL     OW31189   1.150   1.644   0.598
10097SOL    HW131190   1.128   1.549   0.617
10097SOL    HW231191   1.152   1.660   0.500
10098SOL     OW31192   3.712   6.309   5.771
10098SOL    HW131193   3.751   6.350   5.689
10098SOL    HW231194   3.622   6.349   5.789
10099SOL     OW31195   0.113   5.430   3.242
10099SOL    HW131196   0.124   5.508   3.180
10099SOL    HW231197   0.088   5.463   3.333
10100SOL     OW31198   5.235   4.595   4.063
10100SOL    HW131199   5.150   4.621   4.107
10100SOL    HW231200   5.230   4.615   3.965
10101SOL     OW31201   0.055   2.290   0.093
10101SOL    HW131202   0.124   2.237   0.142
10101SOL    HW231203   0.085   2.385   0.086
10102SOL     OW31204   6.482   4.637   3.078
10102SOL    HW131205   6.578   4.614   3.086
10102SOL    HW231206   6.450   4.677   3.165
10103SOL     OW31207   0.211   6.470   6.636
10103SOL    HW131208   0.208   6.417   6.551
10103SOL    HW231209   0.119   6.502   6.660
10104SOL     OW31210   2.939   0.939   4.773
10104SOL    HW131211   2.936   0.974   4.680
10104SOL    HW231212   2.863   0.876   4.788
10105SOL     OW31213   3.117   1.356   3.938
10105SOL    HW131214   3.039   1.336   3.878
10105SOL    HW231215   3.179   1.419   3.891
10106SOL     OW31216   6.208   4.114   1.568
10106SOL    HW131217   6.154   4.198   1.568
10106SOL    HW231218   6.163   4.045   1.624
10107SOL     OW31219   5.598   5.913   6.330
10107SOL    HW131220   5.681   5.913   6.386
10107SOL    HW231221   5.523   5.871   6.381
10108SOL     OW31222   2.471   2.560   5.027
10108SOL    HW131223   2.417   2.632   4.981
10108SOL    HW231224   2.513   2.598   5.109
10109SOL     OW31225   1.218   3.313   1.061
10109SOL    HW131226   1.136   3.340   1.112
10109SOL    HW231227   1.253   3.391   1.010
10110SOL     OW31228   6.534   6.150   2.517
10110SOL    HW131229   6.442   6.130   2.483
10110SOL    HW231230   6.594   6.175   2.440
10111SOL     OW31231   6.359   2.436   1.585
10111SOL    HW131232   6.283   2.443   1.650
10111SOL    HW231233   6.438   2.487   1.619
10112SOL     OW31234   6.868   2.791   3.892
10112SOL    HW131235   6.790   2.840   3.930
10112SOL    HW231236   6.838   2.700   3.861
10113SOL     OW31237   0.070   6.348   5.895
10113SOL    HW131238   6.995   6.330   5.869
10113SOL    HW231239   0.112   6.263   5.927
10114SOL     OW31240   5.123   3.995   1.757
10114SOL    HW131241   5.122   4.007   1.856
10114SOL    HW231242   5.038   4.030   1.719
10115SOL     OW31243   3.659   2.842   6.246
10115SOL    HW131244   3.702   2.880   6.327
10115SOL    HW231245   3.561   2.832   6.262
10116SOL     OW31246   0.347   6.802   6.528
10116SOL    HW131247   0.432   6.830   6.572
10116SOL    HW231248   0.338   6.702   6.533
10117SOL     OW31249   0.328   4.578   1.286
10117SOL    HW131250   0.298   4.483   1.293
10117SOL    HW231251   0.278   4.624   1.212
10118SOL     OW31252   4.134   4.790   3.674
10118SOL    HW131253   4.117   4.763   3.768
10118SOL    HW231254   4.046   4.809   3.629
10119SOL     OW31255   6.016   6.071   6.816
10119SOL    HW131256   5.982   6.115   6.733
10119SOL    HW231257   6.020   6.138   6.890
10120SOL     OW31258   2.677   2.376   2.610
10120SOL    HW131259   2.768   2.353   2.645
10120SOL    HW231260   2.671   2.350   2.513
10121SOL     OW31261   6.568   5.708   1.854
10121SOL    HW131262   6.520   5.794   1.872
10121SOL    HW231263   6.622   5.683   1.935
10122SOL     OW31264   1.941   0.366   3.207
10122SOL    HW131265   1.967   0.284   3.259
10122SOL    HW231266   1.964   0.353   3.111
10123SOL     OW31267   6.110   5.973   6.390
10123SOL    HW131268   6.074   5.999   6.300
10123SOL    HW231269   6.113   5.873   6.396
10124SOL     OW31270   2.578   5.113   2.273
10124SOL    HW131271   2.595   5.197   2.325
10124SOL    HW231272   2.587   5.132   2.175
10125SOL     OW31273   1.846   1.481   4.768
10125SOL    HW131274   1.771   1.417   4.749
10125SOL    HW231275   1.810   1.560   4.817
10126SOL     OW31276   6.517   6.154   4.674
10126SOL    HW131277   6.520   6.253   4.661
10126SOL    HW231278   6.553   6.131   4.764
10127SOL     OW31279   2.361   0.207   5.680
10127SOL    HW131280   2.333   0.143   5.609
10127SOL    HW231281   2.439   0.169   5.730
10128SOL     OW31282   2.267   2.004   0.103
10128SOL    HW131283   2.333   2.079   0.105
10128SOL    HW231284   2.312   1.920   0.074
10129SOL     OW31285   6.948   2.384   4.913
10129SOL    HW131286   6.939   2.443   4.993
10129SOL    HW231287   6.940   2.288   4.940
10130SOL     OW31288   1.552   1.901   3.143
10130SOL    HW131289   1.506   1.857   3.219
10130SOL    HW231290   1.492   1.970   3.102
10131SOL     OW31291   2.021   0.519   5.362
10131SOL    HW131292   2.108   0.563   5.341
10131SOL    HW231293   2.027   0.473   5.451
10132SOL     OW31294   5.929   0.523   2.450
10132SOL    HW131295   5.890   0.461   2.518
10132SOL    HW231296   6.025   0.541   2.474
10133SOL     OW31297   4.220   5.763   0.979
10133SOL    HW131298   4.292   5.730   1.040
10133SOL    HW231299   4.261   5.811   0.902
10134SOL     OW31300   0.287   6.240   3.258
10134SOL    HW131301   0.304   6.174   3.331
10134SOL    HW231302   0.237   6.196   3.184
10135SOL     OW31303   6.514   6.504   3.607
10135SOL    HW131304   6.509   6.571   3.681
10135SOL    HW231305   6.610   6.485   3.585
10136SOL     OW31306   4.794   0.811   3.583
10136SOL    HW131307   4.879   0.772   3.618
10136SOL    HW231308   4.781   0.903   3.622
10137SOL     OW31309   6.917   5.297   4.066
10137SOL    HW131310   6.975   5.224   4.032
10137SOL    HW231311   6.973   5.364   4.115
10138SOL     OW31312   0.085   1.906   1.898
10138SOL    HW131313   0.065   1.833   1.963
10138SOL    HW231314   0.135   1.979   1.944
10139SOL     OW31315   4.186   3.145   0.050
10139SOL    HW131316   4.257   3.147   0.121
10139SOL    HW231317   4.212   3.080   7.000
10140SOL     OW31318   6.541   5.906   5.164
10140SOL    HW131319   6.563   6.003   5.176
10140SOL    HW231320   6.589   5.871   5.083
10141SOL     OW31321   1.391   2.017   4.996
10141SOL    HW131322   1.445   1.958   5.056
10141SOL    HW231323   1.385   1.975   4.905
10142SOL     OW31324   4.734   5.817   2.210
10142SOL    HW131325   4.673   5.739   2.221
10142SOL    HW231326   4.683   5.894   2.172
10143SOL     OW31327   5.831   3.439   6.554
10143SOL    HW131328   5.790   3.460   6.643
10143SOL    HW231329   5.760   3.409   6.490
10144SOL     OW31330   3.605   0.242   0.993
10144SOL    HW131331   3.552   0.227   0.910
10144SOL    HW231332   3.543   0.254   1.071
10145SOL     OW31333   6.407   0.273   5.305
10145SOL    HW131334   6.431   0.358   5.354
10145SOL    HW231335   6.482   0.248   5.244
10146SOL     OW31336   1.498   2.670   5.568
10146SOL    HW131337   1.516   2.605   5.495
10146SOL    HW231338   1.536   2.635   5.654
10147SOL     OW31339   3.926   5.246   0.629
10147SOL    HW131340   3.931   5.151   0.600
10147SOL    HW231341   3.879   5.251   0.717
10148SOL     OW31342   0.484   5.452   6.391
10148SOL    HW131343   0.448   5.367   6.353
10148SOL    HW231344   0.527   5.434   6.479
10149SOL     OW31345   3.400   2.923   3.109
10149SOL    HW131346   3.359   3.014   3.108
10149SOL    HW231347   3.439   2.903   3.019
10150SOL     OW31348   5.061   4.388   1.545
10150SOL    HW131349   4.966   4.409   1.571
10150SOL    HW231350   5.119   4.467   1.564
10151SOL     OW31351   0.182   0.566   6.496
10151SOL    HW131352   0.087   0.543   6.518
10151SOL    HW231353   0.185   0.608   6.405
10152SOL     OW31354   4.058   6.136   3.980
10152SOL    HW131355   3.990   6.092   3.922
10152SOL    HW231356   4.013   6.173   4.062
10153SOL     OW31357   5.229   3.677   1.429
10153SOL    HW131358   5.177   3.593   1.414
10153SOL    HW231359   5.180   3.754   1.388
10154SOL     OW31360   4.469   5.144   5.427
10154SOL    HW131361   4.521   5.205   5.368
10154SOL    HW231362   4.388   5.111   5.377
10155SOL     OW31363   4.123   2.015   4.211
10155SOL    HW131364   4.043   2.025   4.270
10155SOL    HW231365   4.135   1.919   4.187
10156SOL     OW31366   3.441   2.288   6.504
10156SOL    HW131367   3.406   2.248   6.419
10156SOL    HW231368   3.445   2.218   6.575
10157SOL     OW31369   1.088   4.555   0.792
10157SOL    HW131370   1.096   4.634   0.853
10157SOL    HW231371   1.155   4.486   0.818
10158SOL     OW31372   5.425   5.166   6.968
10158SOL    HW131373   5.351   5.223   7.003
10158SOL    HW231374   5.391   5.106   6.896
10159SOL     OW31375   3.997   2.895   1.811
10159SOL    HW131376   4.018   2.825   1.742
10159SOL    HW231377   4.065   2.892   1.884
10160SOL     OW31378   0.091   4.063   2.481
10160SOL    HW131379   0.183   4.082   2.515
10160SOL    HW231380   0.096   4.011   2.396
10161SOL     OW31381   6.167   3.127   6.774
10161SOL    HW131382   6.090   3.137   6.710
10161SOL    HW231383   6.132   3.108   6.865
10162SOL     OW31384   1.834   2.132   2.289
10162SOL    HW131385   1.859   2.228   2.297
10162SOL    HW231386   1.756   2.112   2.348
10163SOL     OW31387   3.588   5.024   4.681
10163SOL    HW131388   3.686   5.041   4.689
10163SOL    HW231389   3.557   5.045   4.589
10164SOL     OW31390   0.346   0.826   4.157
10164SOL    HW131391   0.412   0.807   4.230
10164SOL    HW231392   0.258   0.851   4.198
10165SOL     OW31393   1.487   3.455   3.903
10165SOL    HW131394   1.393   3.484   3.925
10165SOL    HW231395   1.542   3.536   3.884
10166SOL     OW31396   3.606   6.331   3.187
10166SOL    HW131397   3.565   6.265   3.125
10166SOL    HW231398   3.700   6.349   3.159
10167SOL     OW31399   3.601   1.611   6.856
10167SOL    HW131400   3.695   1.613   6.822
10167SOL    HW231401   3.559   1.701   6.844
10168SOL     OW31402   1.135   1.414   6.253
10168SOL    HW131403   1.039   1.421   6.227
10168SOL    HW231404   1.185   1.363   6.183
10169SOL     OW31405   4.299   5.762   2.913
10169SOL    HW131406   4.319   5.789   3.007
10169SOL    HW231407   4.287   5.843   2.856
10170SOL     OW31408   4.779   6.990   0.607
10170SOL    HW131409   4.803   0.061   0.576
10170SOL    HW231410   4.861   6.933   0.609
10171SOL     OW31411   1.576   4.493   3.730
10171SOL    HW131412   1.495   4.471   3.785
10171SOL    HW231413   1.567   4.450   3.640
10172SOL     OW31414   0.810   0.487   2.767
10172SOL    HW131415   0.864   0.558   2.813
10172SOL    HW231416   0.829   0.489   2.669
10173SOL     OW31417   4.237   3.419   5.208
10173SOL    HW131418   4.165   3.427   5.139
10173SOL    HW231419   4.232   3.329   5.251
10174SOL     OW31420   5.115   4.775   1.882
10174SOL    HW131421   5.199   4.778   1.936
10174SOL    HW231422   5.036   4.774   1.943
10175SOL     OW31423   6.677   0.193   3.840
10175SOL    HW131424   6.751   0.147   3.889
10175SOL    HW231425   6.605   0.127   3.819
10176SOL     OW31426   0.267   1.140   4.496
10176SOL    HW131427   0.345   1.198   4.471
10176SOL    HW231428   0.238   1.086   4.417
10177SOL     OW31429   3.122   1.295   4.196
10177SOL    HW131430   3.086   1.202   4.207
10177SOL    HW231431   3.096   1.329   4.106
10178SOL     OW31432   6.935   0.964   2.062
10178SOL    HW131433   7.007   0.980   2.129
10178SOL    HW231434   6.845   0.970   2.106
10179SOL     OW31435   0.158   6.205   0.825
10179SOL    HW131436   0.069   6.224   0.783
10179SOL    HW231437   0.214   6.151   0.762
10180SOL     OW31438   2.918   6.896   6.078
10180SOL    HW131439   2.849   6.931   6.141
10180SOL    HW231440   3.009   6.921   6.112
10181SOL     OW31441   6.826   3.590   2.602
10181SOL    HW131442   6.729   3.576   2.579
10181SOL    HW231443   6.839   3.683   2.636
10182SOL     OW31444   4.114   0.032   0.164
10182SOL    HW131445   4.126   0.070   0.256
10182SOL    HW231446   4.045   0.084   0.115
10183SOL     OW31447   3.906   6.202   5.953
10183SOL    HW131448   3.893   6.223   6.050
10183SOL    HW231449   3.842   6.256   5.899
10184SOL     OW31450   5.495   2.758   5.034
10184SOL    HW131451   5.434   2.694   4.986
10184SOL    HW231452   5.555   2.707   5.096
10185SOL     OW31453   2.944   4.834   2.515
10185SOL    HW131454   2.902   4.845   2.425
10185SOL    HW231455   2.899   4.895   2.581
10186SOL     OW31456   3.286   2.919   0.886
10186SOL    HW131457   3.316   2.843   0.828
10186SOL    HW231458   3.195   2.899   0.922
10187SOL     OW31459   1.900   3.580   5.477
10187SOL    HW131460   1.957   3.507   5.439
10187SOL    HW231461   1.955   3.662   5.491
10188SOL     OW31462   2.110   6.670   6.856
10188SOL    HW131463   2.182   6.737   6.842
10188SOL    HW231464   2.040   6.680   6.785
10189SOL     OW31465   2.491   1.894   5.431
10189SOL    HW131466   2.521   1.983   5.396
10189SOL    HW231467   2.561   1.858   5.494
10190SOL     OW31468   3.906   3.747   0.895
10190SOL    HW131469   3.931   3.843   0.886
10190SOL    HW231470   3.873   3.713   0.807
10191SOL     OW31471   5.542   0.665   0.540
10191SOL    HW131472   5.542   0.740   0.474
10191SOL    HW231473   5.454   0.662   0.588
10192SOL     OW31474   2.307   0.429   3.995
10192SOL    HW131475   2.233   0.475   4.045
10192SOL    HW231476   2.388   0.422   4.054
10193SOL     OW31477   3.678   3.773   3.796
10193SOL    HW131478   3.591   3.808   3.763
10193SOL    HW231479   3.753   3.815   3.743
10194SOL     OW31480   3.470   5.893   3.881
10194SOL    HW131481   3.458   5.862   3.787
10194SOL    HW231482   3.488   5.991   3.882
10195SOL     OW31483   5.152   0.639   2.977
10195SOL    HW131484   5.134   0.542   2.965
10195SOL    HW231485   5.201   0.674   2.896
10196SOL     OW31486   4.809   3.950   3.969
10196SOL    HW131487   4.780   4.017   3.900
10196SOL    HW231488   4.769   3.973   4.057
10197SOL     OW31489   4.752   1.901   2.658
10197SOL    HW131490   4.750   1.927   2.755
10197SOL    HW231491   4.757   1.984   2.602
10198SOL     OW31492   2.833   1.483   2.165
10198SOL    HW131493   2.881   1.565   2.134
10198SOL    HW231494   2.865   1.403   2.115
10199SOL     OW31495   0.891   1.998   6.878
10199SOL    HW131496   0.883   2.028   6.973
10199SOL    HW231497   0.900   2.078   6.818
10200SOL     OW31498   5.973   6.550   3.981
10200SOL    HW131499   6.006   6.473   3.927
10200SOL    HW231500   5.996   6.636   3.936
10201SOL     OW31501   1.625   4.669   2.698
10201SOL    HW131502   1.636   4.757   2.651
10201SOL    HW231503   1.568   4.681   2.779
10202SOL     OW31504   1.075   2.119   3.492
10202SOL    HW131505   0.984   2.091   3.462
10202SOL    HW231506   1.139   2.042   3.484
10203SOL     OW31507   0.575   1.932   1.190
10203SOL    HW131508   0.642   1.864   1.221
10203SOL    HW231509   0.519   1.892   1.117
10204SOL     OW31510   2.890   5.787   4.160
10204SOL    HW131511   2.890   5.851   4.083
10204SOL    HW231512   2.827   5.820   4.230
10205SOL     OW31513   3.474   0.211   1.219
10205SOL    HW131514   3.535   0.256   1.284
10205SOL    HW231515   3.402   0.162   1.268
10206SOL     OW31516   5.578   6.234   0.645
10206SOL    HW131517   5.668   6.249   0.603
10206SOL    HW231518   5.584   6.250   0.744
10207SOL     OW31519   4.053   1.637   2.826
10207SOL    HW131520   4.101   1.658   2.742
10207SOL    HW231521   3.981   1.705   2.841
10208SOL     OW31522   6.994   3.498   6.221
10208SOL    HW131523   0.045   3.437   6.256
10208SOL    HW231524   0.016   3.578   6.180
10209SOL     OW31525   3.602   6.413   0.251
10209SOL    HW131526   3.624   6.327   0.205
10209SOL    HW231527   3.676   6.479   0.236
10210SOL     OW31528   5.393   5.505   6.922
10210SOL    HW131529   5.439   5.511   7.010
10210SOL    HW231530   5.295   5.493   6.935
10211SOL     OW31531   3.637   6.034   5.811
10211SOL    HW131532   3.726   6.008   5.773
10211SOL    HW231533   3.634   6.133   5.825
10212SOL     OW31534   6.064   6.638   6.192
10212SOL    HW131535   5.990   6.701   6.216
10212SOL    HW231536   6.051   6.551   6.239
10213SOL     OW31537   4.144   0.011   4.812
10213SOL    HW131538   4.204   0.088   4.789
10213SOL    HW231539   4.161   7.003   4.906
10214SOL     OW31540   0.422   0.377   0.370
10214SOL    HW131541   0.400   0.330   0.455
10214SOL    HW231542   0.366   0.460   0.362
10215SOL     OW31543   4.357   2.672   0.463
10215SOL    HW131544   4.372   2.752   0.405
10215SOL    HW231545   4.428   2.667   0.532
10216SOL     OW31546   4.811   0.315   2.663
10216SOL    HW131547   4.819   0.329   2.564
10216SOL    HW231548   4.901   0.292   2.701
10217SOL     OW31549   3.675   2.272   5.629
10217SOL    HW131550   3.770   2.242   5.636
10217SOL    HW231551   3.615   2.192   5.624
10218SOL     OW31552   3.653   1.207   6.551
10218SOL    HW131553   3.701   1.160   6.477
10218SOL    HW231554   3.717   1.224   6.626
10219SOL     OW31555   1.248   5.212   0.195
10219SOL    HW131556   1.330   5.191   0.249
10219SOL    HW231557   1.170   5.161   0.233
10220SOL     OW31558   4.070   2.340   7.001
10220SOL    HW131559   4.110   2.349   0.071
10220SOL    HW231560   4.015   2.421   6.980
10221SOL     OW31561   2.620   0.899   4.055
10221SOL    HW131562   2.562   0.822   4.080
10221SOL    HW231563   2.706   0.894   4.105
10222SOL     OW31564   1.703   4.237   5.134
10222SOL    HW131565   1.651   4.179   5.071
10222SOL    HW231566   1.639   4.290   5.190
10223SOL     OW31567   0.852   4.804   6.042
10223SOL    HW131568   0.832   4.706   6.034
10223SOL    HW231569   0.799   4.843   6.117
10224SOL     OW31570   2.670   6.679   4.891
10224SOL    HW131571   2.756   6.682   4.840
10224SOL    HW231572   2.598   6.643   4.831
10225SOL     OW31573   5.120   6.021   4.688
10225SOL    HW131574   5.174   5.940   4.708
10225SOL    HW231575   5.028   6.009   4.726
10226SOL     OW31576   6.463   2.652   5.793
10226SOL    HW131577   6.467   2.747   5.764
10226SOL    HW231578   6.514   2.595   5.728
10227SOL     OW31579   4.838   4.686   5.575
10227SOL    HW131580   4.807   4.767   5.624
10227SOL    HW231581   4.798   4.604   5.618
10228SOL     OW31582   0.733   2.977   1.904
10228SOL    HW131583   0.660   2.945   1.843
10228SOL    HW231584   0.744   2.913   1.979
10229SOL     OW31585   2.576   0.461   1.757
10229SOL    HW131586   2.583   0.509   1.670
10229SOL    HW231587   2.545   0.367   1.741
10230SOL     OW31588   5.964   6.617   3.290
10230SOL    HW131589   5.904   6.559   3.345
10230SOL    HW231590   5.912   6.693   3.252
10231SOL     OW31591   4.561   6.133   4.400
10231SOL    HW131592   4.612   6.075   4.465
10231SOL    HW231593   4.598   6.121   4.309
10232SOL     OW31594   3.704   2.076   3.292
10232SOL    HW131595   3.604   2.073   3.296
10232SOL    HW231596   3.741   2.088   3.383
10233SOL     OW31597   4.981   6.977   5.377
10233SOL    HW131598   5.011   0.018   5.450
10233SOL    HW231599   5.015   6.885   5.395
10234SOL     OW31600   4.402   5.249   1.346
10234SOL    HW131601   4.307   5.235   1.318
10234SOL    HW231602   4.410   5.336   1.394
10235SOL     OW31603   5.205   1.011   0.332
10235SOL    HW131604   5.155   1.097   0.335
10235SOL    HW231605   5.287   1.022   0.277
10236SOL     OW31606   1.548   5.835   1.295
10236SOL    HW131607   1.648   5.840   1.294
10236SOL    HW231608   1.517   5.789   1.378
10237SOL     OW31609   6.036   2.305   3.014
10237SOL    HW131610   5.971   2.358   3.069
10237SOL    HW231611   6.011   2.312   2.918
10238SOL     OW31612   4.610   5.843   5.063
10238SOL    HW131613   4.644   5.761   5.017
10238SOL    HW231614   4.559   5.899   4.998
10239SOL     OW31615   5.809   3.025   4.613
10239SOL    HW131616   5.793   2.996   4.707
10239SOL    HW231617   5.862   3.110   4.613
10240SOL     OW31618   4.953   3.578   3.542
10240SOL    HW131619   4.936   3.645   3.470
10240SOL    HW231620   4.932   3.618   3.631
10241SOL     OW31621   1.507   2.458   2.667
10241SOL    HW131622   1.596   2.422   2.641
10241SOL    HW231623   1.465   2.504   2.588
10242SOL     OW31624   0.929   5.248   5.960
10242SOL    HW131625   0.892   5.168   5.913
10242SOL    HW231626   1.024   5.231   5.987
10243SOL     OW31627   0.648   5.742   2.947
10243SOL    HW131628   0.589   5.798   2.889
10243SOL    HW231629   0.739   5.784   2.952
10244SOL     OW31630   1.188   5.421   0.445
10244SOL    HW131631   1.208   5.336   0.495
10244SOL    HW231632   1.204   5.406   0.347
10245SOL     OW31633   2.386   2.910   0.782
10245SOL    HW131634   2.343   2.931   0.870
10245SOL    HW231635   2.441   2.828   0.790
10246SOL     OW31636   3.085   3.936   4.419
10246SOL    HW131637   3.035   3.908   4.501
10246SOL    HW231638   3.158   4.000   4.444
10247SOL     OW31639   0.655   6.226   6.028
10247SOL    HW131640   0.635   6.251   6.123
10247SOL    HW231641   0.737   6.169   6.026
10248SOL     OW31642   5.955   0.663   3.604
10248SOL    HW131643   6.012   0.582   3.621
10248SOL    HW231644   6.013   0.744   3.599
10249SOL     OW31645   5.061   0.581   6.247
10249SOL    HW131646   4.993   0.543   6.184
10249SOL    HW231647   5.016   0.611   6.330
10250SOL     OW31648   4.668   6.187   0.579
10250SOL    HW131649   4.608   6.158   0.504
10250SOL    HW231650   4.646   6.134   0.661
10251SOL     OW31651   4.099   4.517   1.373
10251SOL    HW131652   4.035   4.529   1.297
10251SOL    HW231653   4.143   4.427   1.366
10252SOL     OW31654   0.361   4.305   1.009
10252SOL    HW131655   0.313   4.385   0.973
10252SOL    HW231656   0.348   4.227   0.947
10253SOL     OW31657   3.873   4.956   0.290
10253SOL    HW131658   3.790   5.009   0.310
10253SOL    HW231659   3.852   4.859   0.291
10254SOL     OW31660   2.409   1.774   4.769
10254SOL    HW131661   2.312   1.749   4.771
10254SOL    HW231662   2.448   1.763   4.860
10255SOL     OW31663   3.510   5.771   3.634
10255SOL    HW131664   3.590   5.820   3.599
10255SOL    HW231665   3.532   5.675   3.647
10256SOL     OW31666   5.282   6.409   0.814
10256SOL    HW131667   5.184   6.392   0.810
10256SOL    HW231668   5.308   6.472   0.740
10257SOL     OW31669   1.269   5.666   5.697
10257SOL    HW131670   1.347   5.727   5.710
10257SOL    HW231671   1.266   5.599   5.771
10258SOL     OW31672   4.401   0.842   3.046
10258SOL    HW131673   4.334   0.860   2.974
10258SOL    HW231674   4.493   0.858   3.011
10259SOL     OW31675   0.231   2.993   3.862
10259SOL    HW131676   0.326   2.967   3.880
10259SOL    HW231677   0.178   2.911   3.843
10260SOL     OW31678   0.154   5.801   2.314
10260SOL    HW131679   0.165   5.901   2.319
10260SOL    HW231680   0.179   5.761   2.402
10261SOL     OW31681   2.271   0.112   2.043
10261SOL    HW131682   2.364   0.075   2.042
10261SOL    HW231683   2.225   0.089   1.957
10262SOL     OW31684   1.502   6.552   3.940
10262SOL    HW131685   1.547   6.514   4.021
10262SOL    HW231686   1.529   6.500   3.859
10263SOL     OW31687   6.650   3.446   5.069
10263SOL    HW131688   6.594   3.433   5.150
10263SOL    HW231689   6.601   3.504   5.004
10264SOL     OW31690   0.487   6.492   0.209
10264SOL    HW131691   0.546   6.459   0.136
10264SOL    HW231692   0.408   6.539   0.170
10265SOL     OW31693   4.286   1.856   2.968
10265SOL    HW131694   4.210   1.903   3.013
10265SOL    HW231695   4.259   1.830   2.876
10266SOL     OW31696   3.926   3.707   6.856
10266SOL    HW131697   3.955   3.802   6.842
10266SOL    HW231698   3.844   3.706   6.913
10267SOL     OW31699   6.115   1.022   6.522
10267SOL    HW131700   6.063   1.087   6.467
10267SOL    HW231701   6.211   1.050   6.525
10268SOL     OW31702   6.759   3.891   1.073
10268SOL    HW131703   6.680   3.862   1.128
10268SOL    HW231704   6.731   3.901   0.978
10269SOL     OW31705   4.059   1.827   6.256
10269SOL    HW131706   4.054   1.740   6.306
10269SOL    HW231707   4.057   1.903   6.321
10270SOL     OW31708   2.755   5.823   2.535
10270SOL    HW131709   2.816   5.896   2.504
10270SOL    HW231710   2.783   5.791   2.625
10271SOL     OW31711   1.908   5.259   1.443
10271SOL    HW131712   2.003   5.229   1.456
10271SOL    HW231713   1.868   5.280   1.532
10272SOL     OW31714   1.765   2.294   4.161
10272SOL    HW131715   1.785   2.240   4.243
10272SOL    HW231716   1.819   2.260   4.085
10273SOL     OW31717   4.516   6.579   4.037
10273SOL    HW131718   4.557   6.567   4.128
10273SOL    HW231719   4.417   6.571   4.043
10274SOL     OW31720   2.733   4.800   6.458
10274SOL    HW131721   2.737   4.899   6.465
10274SOL    HW231722   2.801   4.769   6.392
10275SOL     OW31723   0.697   6.401   1.634
10275SOL    HW131724   0.769   6.332   1.632
10275SOL    HW231725   0.738   6.492   1.636
10276SOL     OW31726   0.978   6.923   0.147
10276SOL    HW131727   1.053   6.964   0.199
10276SOL    HW231728   0.956   6.833   0.184
10277SOL     OW31729   0.337   6.222   1.892
10277SOL    HW131730   0.407   6.292   1.901
10277SOL    HW231731   0.247   6.260   1.916
10278SOL     OW31732   6.573   0.781   5.423
10278SOL    HW131733   6.528   0.863   5.458
10278SOL    HW231734   6.640   0.748   5.490
10279SOL     OW31735   3.653   5.889   5.371
10279SOL    HW131736   3.636   5.958   5.300
10279SOL    HW231737   3.581   5.893   5.440
10280SOL     OW31738   3.164   2.793   0.303
10280SOL    HW131739   3.245   2.808   0.246
10280SOL    HW231740   3.171   2.849   0.385
10281SOL     OW31741   4.934   0.473   4.261
10281SOL    HW131742   4.978   0.384   4.247
10281SOL    HW231743   4.969   0.515   4.344
10282SOL     OW31744   1.272   2.606   4.291
10282SOL    HW131745   1.346   2.636   4.230
10282SOL    HW231746   1.259   2.507   4.281
10283SOL     OW31747   1.730   4.375   5.641
10283SOL    HW131748   1.736   4.441   5.566
10283SOL    HW231749   1.733   4.282   5.605
10284SOL     OW31750   5.008   3.503   0.067
10284SOL    HW131751   5.102   3.520   0.036
10284SOL    HW231752   4.947   3.570   0.026
10285SOL     OW31753   5.089   1.456   1.027
10285SOL    HW131754   5.117   1.399   1.104
10285SOL    HW231755   5.145   1.434   0.947
10286SOL     OW31756   4.140   0.529   4.202
10286SOL    HW131757   4.077   0.604   4.221
10286SOL    HW231758   4.102   0.444   4.238
10287SOL     OW31759   1.198   4.753   1.796
10287SOL    HW131760   1.267   4.815   1.760
10287SOL    HW231761   1.233   4.707   1.877
10288SOL     OW31762   4.102   6.233   4.689
10288SOL    HW131763   4.100   6.324   4.646
10288SOL    HW231764   4.181   6.226   4.749
10289SOL     OW31765   2.843   1.619   1.586
10289SOL    HW131766   2.876   1.597   1.494
10289SOL    HW231767   2.822   1.534   1.635
10290SOL     OW31768   3.154   2.963   3.355
10290SOL    HW131769   3.243   2.952   3.400
10290SOL    HW231770   3.088   2.999   3.421
10291SOL     OW31771   4.239   0.653   5.245
10291SOL    HW131772   4.149   0.629   5.283
10291SOL    HW231773   4.269   0.740   5.283
10292SOL     OW31774   0.371   2.189   4.438
10292SOL    HW131775   0.391   2.252   4.364
10292SOL    HW231776   0.273   2.188   4.457
10293SOL     OW31777   3.168   5.163   2.838
10293SOL    HW131778   3.226   5.169   2.919
10293SOL    HW231779   3.225   5.159   2.756
10294SOL     OW31780   6.602   1.210   3.556
10294SOL    HW131781   6.689   1.213   3.506
10294SOL    HW231782   6.527   1.211   3.490
10295SOL     OW31783   1.547   4.148   4.243
10295SOL    HW131784   1.470   4.175   4.302
10295SOL    HW231785   1.588   4.229   4.202
10296SOL     OW31786   6.334   3.178   1.605
10296SOL    HW131787   6.321   3.088   1.645
10296SOL    HW231788   6.384   3.236   1.669
10297SOL     OW31789   3.139   5.136   5.252
10297SOL    HW131790   3.167   5.115   5.346
10297SOL    HW231791   3.106   5.053   5.207
10298SOL     OW31792   5.920   3.305   3.246
10298SOL    HW131793   5.894   3.209   3.233
10298SOL    HW231794   6.019   3.311   3.259
10299SOL     OW31795   4.761   4.190   2.503
10299SOL    HW131796   4.725   4.108   2.549
10299SOL    HW231797   4.777   4.169   2.407
10300SOL     OW31798   0.841   6.054   1.900
10300SOL    HW131799   0.930   6.075   1.940
10300SOL    HW231800   0.828   5.955   1.897
10301SOL     OW31801   4.515   0.747   1.870
10301SOL    HW131802   4.516   0.792   1.959
10301SOL    HW231803   4.578   0.669   1.872
10302SOL     OW31804   1.961   4.243   3.543
10302SOL    HW131805   1.883   4.276   3.490
10302SOL    HW231806   1.952   4.275   3.638
10303SOL     OW31807   4.411   3.058   1.415
10303SOL    HW131808   4.418   3.150   1.454
10303SOL    HW231809   4.315   3.031   1.411
10304SOL     OW31810   5.989   6.644   3.676
10304SOL    HW131811   6.046   6.705   3.621
10304SOL    HW231812   6.041   6.561   3.697
10305SOL     OW31813   1.672   5.320   1.056
10305SOL    HW131814   1.752   5.267   1.083
10305SOL    HW231815   1.611   5.332   1.135
10306SOL     OW31816   4.150   4.234   0.752
10306SOL    HW131817   4.222   4.170   0.777
10306SOL    HW231818   4.163   4.265   0.658
10307SOL     OW31819   2.764   1.942   5.539
10307SOL    HW131820   2.842   1.974   5.593
10307SOL    HW231821   2.796   1.898   5.455
10308SOL     OW31822   2.596   5.091   3.721
10308SOL    HW131823   2.638   5.004   3.748
10308SOL    HW231824   2.515   5.072   3.665
10309SOL     OW31825   0.353   6.077   3.485
10309SOL    HW131826   0.447   6.076   3.449
10309SOL    HW231827   0.336   6.164   3.531
10310SOL     OW31828   2.954   3.363   4.516
10310SOL    HW131829   3.043   3.408   4.524
10310SOL    HW231830   2.957   3.274   4.561
10311SOL     OW31831   1.015   0.806   1.114
10311SOL    HW131832   1.053   0.763   1.196
10311SOL    HW231833   0.919   0.829   1.131
10312SOL     OW31834   2.616   4.862   0.740
10312SOL    HW131835   2.591   4.924   0.666
10312SOL    HW231836   2.682   4.906   0.800
10313SOL     OW31837   6.833   5.734   4.172
10313SOL    HW131838   6.801   5.800   4.104
10313SOL    HW231839   6.910   5.773   4.222
10314SOL     OW31840   6.906   5.659   5.235
10314SOL    HW131841   6.873   5.718   5.308
10314SOL    HW231842   6.868   5.567   5.247
10315SOL     OW31843   4.446   6.948   5.930
10315SOL    HW131844   4.429   6.850   5.937
10315SOL    HW231845   4.512   6.967   5.858
10316SOL     OW31846   0.184   4.088   2.850
10316SOL    HW131847   0.224   3.997   2.839
10316SOL    HW231848   0.207   4.125   2.940
10317SOL     OW31849   4.795   4.417   0.040
10317SOL    HW131850   4.880   4.406   7.009
10317SOL    HW231851   4.720   4.373   7.011
10318SOL     OW31852   5.663   5.183   2.828
10318SOL    HW131853   5.705   5.092   2.822
10318SOL    HW231854   5.667   5.227   2.739
10319SOL     OW31855   5.293   6.723   4.291
10319SOL    HW131856   5.219   6.755   4.350
10319SOL    HW231857   5.321   6.631   4.318
10320SOL     OW31858   4.493   6.251   2.181
10320SOL    HW131859   4.500   6.155   2.156
10320SOL    HW231860   4.397   6.279   2.183
10321SOL     OW31861   4.496   6.759   4.540
10321SOL    HW131862   4.432   6.748   4.616
10321SOL    HW231863   4.466   6.835   4.482
10322SOL     OW31864   0.490   2.143   0.015
10322SOL    HW131865   0.441   2.096   0.089
10322SOL    HW231866   0.475   2.094   6.950
10323SOL     OW31867   0.855   2.329   5.342
10323SOL    HW131868   0.808   2.242   5.323
10323SOL    HW231869   0.924   2.314   5.413
10324SOL     OW31870   3.708   2.938   4.160
10324SOL    HW131871   3.626   2.983   4.194
10324SOL    HW231872   3.683   2.870   4.092
10325SOL     OW31873   6.708   3.543   3.481
10325SOL    HW131874   6.716   3.474   3.408
10325SOL    HW231875   6.784   3.607   3.475
10326SOL     OW31876   5.870   1.948   1.167
10326SOL    HW131877   5.848   2.003   1.086
10326SOL    HW231878   5.966   1.920   1.162
10327SOL     OW31879   5.903   1.245   3.445
10327SOL    HW131880   5.914   1.284   3.536
10327SOL    HW231881   5.808   1.217   3.432
10328SOL     OW31882   6.218   3.667   2.173
10328SOL    HW131883   6.157   3.746   2.176
10328SOL    HW231884   6.165   3.583   2.171
10329SOL     OW31885   3.396   6.139   3.106
10329SOL    HW131886   3.364   6.071   3.172
10329SOL    HW231887   3.459   6.095   3.041
10330SOL     OW31888   3.285   3.917   0.998
10330SOL    HW131889   3.292   4.002   1.050
10330SOL    HW231890   3.376   3.882   0.978
10331SOL     OW31891   5.256   1.357   4.180
10331SOL    HW131892   5.287   1.317   4.266
10331SOL    HW231893   5.156   1.362   4.179
10332SOL     OW31894   1.311   1.962   6.122
10332SOL    HW131895   1.309   1.866   6.151
10332SOL    HW231896   1.403   1.986   6.093
10333SOL     OW31897   6.779   4.710   5.094
10333SOL    HW131898   6.856   4.712   5.157
10333SOL    HW231899   6.695   4.731   5.144
10334SOL     OW31900   0.549   5.338   5.341
10334SOL    HW131901   0.554   5.293   5.252
10334SOL    HW231902   0.458   5.379   5.353
10335SOL     OW31903   3.435   5.154   2.965
10335SOL    HW131904   3.527   5.130   2.995
10335SOL    HW231905   3.409   5.243   3.004
10336SOL     OW31906   5.009   0.013   2.855
10336SOL    HW131907   4.925   7.017   2.804
10336SOL    HW231908   4.987   0.046   2.946
10337SOL     OW31909   0.645   4.115   6.129
10337SOL    HW131910   0.728   4.059   6.121
10337SOL    HW231911   0.601   4.097   6.216
10338SOL     OW31912   2.822   5.014   2.684
10338SOL    HW131913   2.761   5.037   2.608
10338SOL    HW231914   2.818   5.087   2.752
10339SOL     OW31915   2.702   5.333   0.440
10339SOL    HW131916   2.671   5.255   0.494
10339SOL    HW231917   2.802   5.338   0.444
10340SOL     OW31918   1.728   6.496   0.740
10340SOL    HW131919   1.782   6.573   0.707
10340SOL    HW231920   1.692   6.517   0.831
10341SOL     OW31921   0.365   2.368   1.751
10341SOL    HW131922   0.397   2.460   1.773
10341SOL    HW231923   0.440   2.303   1.759
10342SOL     OW31924   3.456   6.125   4.632
10342SOL    HW131925   3.488   6.035   4.602
10342SOL    HW231926   3.430   6.179   4.553
10343SOL     OW31927   2.440   2.678   4.351
10343SOL    HW131928   2.481   2.691   4.261
10343SOL    HW231929   2.431   2.580   4.369
10344SOL     OW31930   4.514   3.721   1.695
10344SOL    HW131931   4.492   3.818   1.711
10344SOL    HW231932   4.606   3.714   1.657
10345SOL     OW31933   3.358   2.533   6.466
10345SOL    HW131934   3.381   2.441   6.494
10345SOL    HW231935   3.383   2.598   6.538
10346SOL     OW31936   6.320   5.373   0.457
10346SOL    HW131937   6.389   5.420   0.403
10346SOL    HW231938   6.253   5.439   0.492
10347SOL     OW31939   4.307   6.932   1.489
10347SOL    HW131940   4.337   6.837   1.495
10347SOL    HW231941   4.384   6.992   1.512
10348SOL     OW31942   6.749   5.084   5.634
10348SOL    HW131943   6.832   5.139   5.627
10348SOL    HW231944   6.772   4.987   5.626
10349SOL     OW31945   6.503   2.444   7.004
10349SOL    HW131946   6.546   2.354   6.993
10349SOL    HW231947   6.448   2.464   6.923
10350SOL     OW31948   1.936   4.617   4.719
10350SOL    HW131949   1.910   4.656   4.630
10350SOL    HW231950   1.854   4.590   4.769
10351SOL     OW31951   3.982   5.029   5.011
10351SOL    HW131952   3.954   5.121   5.036
10351SOL    HW231953   4.077   5.014   5.039
10352SOL     OW31954   6.946   0.638   0.820
10352SOL    HW131955   6.891   0.672   0.896
10352SOL    HW231956   0.022   0.644   0.843
10353SOL     OW31957   6.126   2.398   4.173
10353SOL    HW131958   6.039   2.356   4.197
10353SOL    HW231959   6.161   2.357   4.088
10354SOL     OW31960   6.794   2.765   1.238
10354SOL    HW131961   6.761   2.764   1.332
10354SOL    HW231962   6.891   2.788   1.237
10355SOL     OW31963   0.901   1.847   0.936
10355SOL    HW131964   0.916   1.823   0.840
10355SOL    HW231965   0.882   1.945   0.943
10356SOL     OW31966   5.944   2.784   0.091
10356SOL    HW131967   5.916   2.731   0.170
10356SOL    HW231968   6.044   2.793   0.091
10357SOL     OW31969   0.968   0.331   6.183
10357SOL    HW131970   1.062   0.364   6.194
10357SOL    HW231971   0.910   0.406   6.153
10358SOL     OW31972   0.787   2.496   2.982
10358SOL    HW131973   0.822   2.578   2.936
10358SOL    HW231974   0.831   2.415   2.943
10359SOL     OW31975   0.698   2.312   2.101
10359SOL    HW131976   0.605   2.308   2.137
10359SOL    HW231977   0.705   2.252   2.021
10360SOL     OW31978   5.872   4.054   1.076
10360SOL    HW131979   5.874   4.149   1.043
10360SOL    HW231980   5.785   4.038   1.123
10361SOL     OW31981   6.370   1.414   2.364
10361SOL    HW131982   6.279   1.383   2.335
10361SOL    HW231983   6.440   1.374   2.304
10362SOL     OW31984   0.949   5.916   1.556
10362SOL    HW131985   0.958   6.013   1.536
10362SOL    HW231986   0.862   5.898   1.601
10363SOL     OW31987   5.430   4.812   6.541
10363SOL    HW131988   5.486   4.746   6.591
10363SOL    HW231989   5.487   4.860   6.475
10364SOL     OW31990   5.969   5.642   2.331
10364SOL    HW131991   6.052   5.642   2.386
10364SOL    HW231992   5.890   5.630   2.392
10365SOL     OW31993   6.118   5.352   0.208
10365SOL    HW131994   6.198   5.293   0.199
10365SOL    HW231995   6.146   5.442   0.240
10366SOL     OW31996   3.127   0.210   4.115
10366SOL    HW131997   3.036   0.238   4.147
10366SOL    HW231998   3.127   0.111   4.101
10367SOL     OW31999   5.162   6.462   2.015
10367SOL    HW132000   5.095   6.532   2.040
10367SOL    HW232001   5.245   6.476   2.068
10368SOL     OW32002   0.933   6.306   1.830
10368SOL    HW132003   1.015   6.321   1.885
10368SOL    HW232004   0.867   6.253   1.884
10369SOL     OW32005   2.653   0.454   5.873
10369SOL    HW132006   2.647   0.522   5.800
10369SOL    HW232007   2.569   0.456   5.927
10370SOL     OW32008   2.264   1.919   5.604
10370SOL    HW132009   2.324   1.942   5.527
10370SOL    HW232010   2.232   1.825   5.594
10371SOL     OW32011   4.116   5.976   3.302
10371SOL    HW132012   4.169   6.060   3.297
10371SOL    HW232013   4.161   5.904   3.249
10372SOL     OW32014   2.199   6.445   0.770
10372SOL    HW132015   2.214   6.366   0.711
10372SOL    HW232016   2.104   6.445   0.802
10373SOL     OW32017   6.193   0.634   0.135
10373SOL    HW132018   6.153   0.681   0.213
10373SOL    HW232019   6.183   0.690   0.053
10374SOL     OW32020   2.844   4.843   3.093
10374SOL    HW132021   2.758   4.869   3.049
10374SOL    HW232022   2.919   4.852   3.027
10375SOL     OW32023   2.497   5.229   0.230
10375SOL    HW132024   2.543   5.151   0.188
10375SOL    HW232025   2.563   5.281   0.284
10376SOL     OW32026   2.186   4.784   3.527
10376SOL    HW132027   2.155   4.691   3.547
10376SOL    HW232028   2.185   4.838   3.612
10377SOL     OW32029   2.364   1.021   2.880
10377SOL    HW132030   2.286   1.017   2.943
10377SOL    HW232031   2.347   1.092   2.811
10378SOL     OW32032   0.574   6.455   4.978
10378SOL    HW132033   0.659   6.462   5.030
10378SOL    HW232034   0.555   6.359   4.957
10379SOL     OW32035   2.140   6.575   3.651
10379SOL    HW132036   2.067   6.552   3.717
10379SOL    HW232037   2.166   6.492   3.601
10380SOL     OW32038   3.348   0.941   3.888
10380SOL    HW132039   3.391   1.011   3.830
10380SOL    HW232040   3.259   0.974   3.919
10381SOL     OW32041   3.986   6.646   2.968
10381SOL    HW132042   3.975   6.686   2.877
10381SOL    HW232043   4.075   6.672   3.005
10382SOL     OW32044   4.203   5.492   1.927
10382SOL    HW132045   4.190   5.395   1.908
10382SOL    HW232046   4.159   5.515   2.014
10383SOL     OW32047   0.518   5.582   6.797
10383SOL    HW132048   0.524   5.507   6.731
10383SOL    HW232049   0.423   5.611   6.806
10384SOL     OW32050   4.772   5.722   1.651
10384SOL    HW132051   4.762   5.640   1.596
10384SOL    HW232052   4.820   5.700   1.736
10385SOL     OW32053   4.134   4.669   0.035
10385SOL    HW132054   4.174   4.704   0.119
10385SOL    HW232055   4.103   4.575   0.049
10386SOL     OW32056   0.328   0.615   1.621
10386SOL    HW132057   0.364   0.675   1.691
10386SOL    HW232058   0.272   0.544   1.664
10387SOL     OW32059   5.194   3.258   2.391
10387SOL    HW132060   5.193   3.248   2.292
10387SOL    HW232061   5.108   3.226   2.429
10388SOL     OW32062   2.011   0.305   4.633
10388SOL    HW132063   1.950   0.336   4.707
10388SOL    HW232064   2.064   0.382   4.599
10389SOL     OW32065   0.608   3.955   0.009
10389SOL    HW132066   0.690   3.963   6.972
10389SOL    HW232067   0.617   4.015   0.088
10390SOL     OW32068   1.993   2.379   1.705
10390SOL    HW132069   2.060   2.323   1.657
10390SOL    HW232070   1.980   2.344   1.798
10391SOL     OW32071   6.575   0.219   3.484
10391SOL    HW132072   6.546   0.216   3.579
10391SOL    HW232073   6.526   0.151   3.431
10392SOL     OW32074   6.284   4.308   4.102
10392SOL    HW132075   6.259   4.222   4.146
10392SOL    HW232076   6.206   4.372   4.109
10393SOL     OW32077   2.103   2.543   2.147
10393SOL    HW132078   2.143   2.581   2.230
10393SOL    HW232079   2.175   2.497   2.094
10394SOL     OW32080   3.159   6.469   4.367
10394SOL    HW132081   3.181   6.531   4.291
10394SOL    HW232082   3.230   6.399   4.374
10395SOL     OW32083   1.138   0.500   1.119
10395SOL    HW132084   1.206   0.558   1.077
10395SOL    HW232085   1.099   0.546   1.199
10396SOL     OW32086   3.421   2.116   5.040
10396SOL    HW132087   3.411   2.162   5.129
10396SOL    HW232088   3.343   2.140   4.982
10397SOL     OW32089   4.972   1.713   4.031
10397SOL    HW132090   5.065   1.732   3.998
10397SOL    HW232091   4.974   1.634   4.092
10398SOL     OW32092   5.831   2.139   2.471
10398SOL    HW132093   5.856   2.108   2.379
10398SOL    HW232094   5.733   2.161   2.473
10399SOL     OW32095   0.722   3.832   2.266
10399SOL    HW132096   0.781   3.847   2.186
10399SOL    HW232097   0.728   3.912   2.327
10400SOL     OW32098   2.134   5.995   0.874
10400SOL    HW132099   2.068   6.014   0.801
10400SOL    HW232100   2.223   6.033   0.850
10401SOL     OW32101   0.441   0.775   5.715
10401SOL    HW132102   0.470   0.698   5.772
10401SOL    HW232103   0.363   0.747   5.658
10402SOL     OW32104   6.503   4.081   5.065
10402SOL    HW132105   6.581   4.070   5.004
10402SOL    HW232106   6.497   4.176   5.095
10403SOL     OW32107   3.044   0.048   1.096
10403SOL    HW132108   3.071   6.973   1.096
10403SOL    HW232109   3.119   0.104   1.061
10404SOL     OW32110   6.895   6.645   6.209
10404SOL    HW132111   6.827   6.629   6.138
10404SOL    HW232112   6.929   6.739   6.202
10405SOL     OW32113   0.486   2.767   6.667
10405SOL    HW132114   0.571   2.765   6.719
10405SOL    HW232115   0.415   2.719   6.718
10406SOL     OW32116   1.469   5.385   1.232
10406SOL    HW132117   1.428   5.332   1.307
10406SOL    HW232118   1.396   5.424   1.176
10407SOL     OW32119   2.091   5.823   5.565
10407SOL    HW132120   2.010   5.836   5.507
10407SOL    HW232121   2.116   5.909   5.609
10408SOL     OW32122   4.569   1.011   0.275
10408SOL    HW132123   4.656   1.058   0.293
10408SOL    HW232124   4.547   1.017   0.177
10409SOL     OW32125   6.354   4.249   1.019
10409SOL    HW132126   6.381   4.294   1.104
10409SOL    HW232127   6.338   4.152   1.037
10410SOL     OW32128   4.132   0.175   0.402
10410SOL    HW132129   4.162   0.268   0.381
10410SOL    HW232130   4.150   0.155   0.499
10411SOL     OW32131   1.848   4.680   4.445
10411SOL    HW132132   1.924   4.745   4.447
10411SOL    HW232133   1.832   4.650   4.351
10412SOL     OW32134   5.256   7.016   0.715
10412SOL    HW132135   5.317   6.953   0.667
10412SOL    HW232136   5.284   0.090   0.695
10413SOL     OW32137   6.092   2.949   2.183
10413SOL    HW132138   6.040   2.948   2.268
10413SOL    HW232139   6.183   2.912   2.199
10414SOL     OW32140   4.845   2.638   4.408
10414SOL    HW132141   4.913   2.585   4.358
10414SOL    HW232142   4.857   2.736   4.388
10415SOL     OW32143   0.384   0.798   6.634
10415SOL    HW132144   0.321   0.763   6.565
10415SOL    HW232145   0.446   0.725   6.662
10416SOL     OW32146   5.462   3.067   4.013
10416SOL    HW132147   5.433   3.137   3.948
10416SOL    HW232148   5.557   3.041   3.995
10417SOL     OW32149   2.248   4.173   3.020
10417SOL    HW132150   2.233   4.090   2.967
10417SOL    HW232151   2.169   4.234   3.009
10418SOL     OW32152   1.450   5.852   5.761
10418SOL    HW132153   1.495   5.835   5.673
10418SOL    HW232154   1.469   5.945   5.790
10419SOL     OW32155   1.182   1.148   0.338
10419SOL    HW132156   1.091   1.178   0.366
10419SOL    HW232157   1.196   1.169   0.241
10420SOL     OW32158   0.696   3.092   3.182
10420SOL    HW132159   0.624   3.078   3.115
10420SOL    HW232160   0.779   3.044   3.153
10421SOL     OW32161   0.276   1.446   3.193
10421SOL    HW132162   0.294   1.413   3.286
10421SOL    HW232163   0.205   1.390   3.151
10422SOL     OW32164   5.530   3.470   5.643
10422SOL    HW132165   5.585   3.554   5.637
10422SOL    HW232166   5.434   3.493   5.651
10423SOL     OW32167   5.129   3.964   2.913
10423SOL    HW132168   5.218   3.975   2.868
10423SOL    HW232169   5.066   3.916   2.851
10424SOL     OW32170   5.298   1.406   6.360
10424SOL    HW132171   5.358   1.361   6.427
10424SOL    HW232172   5.242   1.337   6.314
10425SOL     OW32173   2.042   6.432   1.702
10425SOL    HW132174   1.974   6.360   1.690
10425SOL    HW232175   2.132   6.391   1.719
10426SOL     OW32176   6.074   3.876   0.224
10426SOL    HW132177   6.113   3.968   0.228
10426SOL    HW232178   6.139   3.810   0.260
10427SOL     OW32179   4.622   0.653   1.147
10427SOL    HW132180   4.618   0.679   1.243
10427SOL    HW232181   4.667   0.564   1.139
10428SOL     OW32182   4.387   0.846   3.673
10428SOL    HW132183   4.364   0.890   3.760
10428SOL    HW232184   4.460   0.779   3.688
10429SOL     OW32185   5.797   6.107   1.847
10429SOL    HW132186   5.806   6.074   1.753
10429SOL    HW232187   5.856   6.187   1.860
10430SOL     OW32188   4.070   6.493   3.253
10430SOL    HW132189   4.127   6.516   3.173
10430SOL    HW232190   4.068   6.570   3.316
10431SOL     OW32191   2.046   1.135   5.117
10431SOL    HW132192   2.047   1.166   5.211
10431SOL    HW232193   2.070   1.211   5.056
10432SOL     OW32194   4.914   1.545   5.059
10432SOL    HW132195   4.879   1.617   5.000
10432SOL    HW232196   5.012   1.533   5.043
10433SOL     OW32197   2.983   6.746   1.208
10433SOL    HW132198   2.913   6.781   1.271
10433SOL    HW232199   2.939   6.715   1.124
10434SOL     OW32200   2.224   2.389   4.557
10434SOL    HW132201   2.203   2.294   4.533
10434SOL    HW232202   2.307   2.392   4.612
10435SOL     OW32203   5.725   5.668   6.649
10435SOL    HW132204   5.701   5.587   6.701
10435SOL    HW232205   5.746   5.743   6.711
10436SOL     OW32206   1.405   0.272   2.041
10436SOL    HW132207   1.339   0.198   2.046
10436SOL    HW232208   1.498   0.235   2.035
10437SOL     OW32209   6.794   4.660   5.838
10437SOL    HW132210   6.805   4.633   5.934
10437SOL    HW232211   6.716   4.721   5.830
10438SOL     OW32212   3.658   0.069   6.214
10438SOL    HW132213   3.646   0.012   6.133
10438SOL    HW232214   3.697   0.157   6.186
10439SOL     OW32215   4.185   0.997   5.614
10439SOL    HW132216   4.139   0.943   5.684
10439SOL    HW232217   4.271   0.952   5.588
10440SOL     OW32218   1.959   6.075   0.680
10440SOL    HW132219   1.875   6.112   0.718
10440SOL    HW232220   1.975   6.114   0.590
10441SOL     OW32221   3.925   0.713   6.985
10441SOL    HW132222   3.994   0.721   6.914
10441SOL    HW232223   3.945   0.634   0.022
10442SOL     OW32224   4.736   6.122   5.476
10442SOL    HW132225   4.702   6.182   5.404
10442SOL    HW232226   4.756   6.032   5.438
10443SOL     OW32227   6.146   3.039   5.194
10443SOL    HW132228   6.056   3.053   5.154
10443SOL    HW232229   6.152   2.947   5.233
10444SOL     OW32230   3.564   5.049   4.383
10444SOL    HW132231   3.564   5.141   4.421
10444SOL    HW232232   3.481   5.001   4.411
10445SOL     OW32233   6.140   5.900   3.190
10445SOL    HW132234   6.188   5.910   3.102
10445SOL    HW232235   6.183   5.828   3.243
10446SOL     OW32236   0.983   6.227   6.601
10446SOL    HW132237   0.995   6.326   6.594
10446SOL    HW232238   0.913   6.207   6.670
10447SOL     OW32239   6.421   1.936   0.510
10447SOL    HW132240   6.335   1.886   0.523
10447SOL    HW232241   6.443   1.939   0.413
10448SOL     OW32242   3.729   3.982   2.338
10448SOL    HW132243   3.706   3.884   2.336
10448SOL    HW232244   3.730   4.013   2.433
10449SOL     OW32245   1.860   5.399   4.275
10449SOL    HW132246   1.833   5.427   4.367
10449SOL    HW232247   1.788   5.342   4.235
10450SOL     OW32248   0.085   2.858   0.652
10450SOL    HW132249   0.018   2.848   0.579
10450SOL    HW232250   0.158   2.790   0.640
10451SOL     OW32251   2.353   4.398   2.652
10451SOL    HW132252   2.395   4.485   2.627
10451SOL    HW232253   2.383   4.373   2.744
10452SOL     OW32254   1.082   3.321   4.836
10452SOL    HW132255   1.039   3.383   4.901
10452SOL    HW232256   1.121   3.374   4.761
10453SOL     OW32257   5.418   0.512   1.483
10453SOL    HW132258   5.392   0.521   1.387
10453SOL    HW232259   5.345   0.465   1.533
10454SOL     OW32260   4.888   3.918   2.339
10454SOL    HW132261   4.860   4.014   2.341
10454SOL    HW232262   4.908   3.892   2.245
10455SOL     OW32263   0.061   4.614   2.807
10455SOL    HW132264   0.040   4.550   2.881
10455SOL    HW232265   6.999   4.632   2.753
10456SOL     OW32266   3.857   5.833   1.667
10456SOL    HW132267   3.762   5.810   1.689
10456SOL    HW232268   3.918   5.766   1.709
10457SOL     OW32269   3.763   3.247   4.043
10457SOL    HW132270   3.832   3.194   4.092
10457SOL    HW232271   3.801   3.281   3.957
10458SOL     OW32272   6.335   6.434   1.740
10458SOL    HW132273   6.273   6.357   1.747
10458SOL    HW232274   6.296   6.503   1.679
10459SOL     OW32275   6.610   4.951   2.290
10459SOL    HW132276   6.597   4.997   2.202
10459SOL    HW232277   6.675   5.003   2.345
10460SOL     OW32278   1.634   4.754   1.733
10460SOL    HW132279   1.538   4.781   1.730
10460SOL    HW232280   1.662   4.716   1.645
10461SOL     OW32281   2.632   1.532   6.182
10461SOL    HW132282   2.579   1.514   6.264
10461SOL    HW232283   2.579   1.505   6.101
10462SOL     OW32284   5.124   6.911   1.051
10462SOL    HW132285   5.084   6.970   0.982
10462SOL    HW232286   5.144   6.821   1.011
10463SOL     OW32287   3.259   3.476   1.683
10463SOL    HW132288   3.183   3.538   1.664
10463SOL    HW232289   3.251   3.395   1.625
10464SOL     OW32290   5.462   6.678   1.443
10464SOL    HW132291   5.387   6.698   1.378
10464SOL    HW232292   5.547   6.667   1.392
10465SOL     OW32293   6.734   5.220   4.834
10465SOL    HW132294   6.659   5.159   4.812
10465SOL    HW232295   6.700   5.296   4.890
10466SOL     OW32296   4.904   6.147   6.183
10466SOL    HW132297   4.825   6.107   6.230
10466SOL    HW232298   4.960   6.074   6.144
10467SOL     OW32299   4.332   1.324   3.566
10467SOL    HW132300   4.379   1.343   3.479
10467SOL    HW232301   4.383   1.367   3.641
10468SOL     OW32302   3.571   5.424   3.318
10468SOL    HW132303   3.660   5.460   3.289
10468SOL    HW232304   3.499   5.488   3.288
10469SOL     OW32305   1.301   5.538   6.974
10469SOL    HW132306   1.234   5.468   6.997
10469SOL    HW232307   1.375   5.498   6.920
10470SOL     OW32308   2.852   1.939   4.531
10470SOL    HW132309   2.766   1.912   4.488
10470SOL    HW232310   2.914   1.976   4.462
10471SOL     OW32311   4.129   4.019   0.122
10471SOL    HW132312   4.220   4.057   0.141
10471SOL    HW232313   4.137   3.921   0.103
10472SOL     OW32314   4.359   1.551   3.345
10472SOL    HW132315   4.366   1.580   3.249
10472SOL    HW232316   4.382   1.627   3.405
10473SOL     OW32317   4.780   5.417   0.222
10473SOL    HW132318   4.785   5.333   0.274
10473SOL    HW232319   4.736   5.399   0.134
10474SOL     OW32320   5.160   1.179   3.641
10474SOL    HW132321   5.193   1.253   3.699
10474SOL    HW232322   5.111   1.217   3.562
10475SOL     OW32323   4.676   6.381   1.776
10475SOL    HW132324   4.583   6.414   1.790
10475SOL    HW232325   4.735   6.417   1.848
10476SOL     OW32326   0.512   4.770   6.689
10476SOL    HW132327   0.422   4.757   6.647
10476SOL    HW232328   0.513   4.857   6.739
10477SOL     OW32329   4.651   4.643   5.072
10477SOL    HW132330   4.745   4.607   5.069
10477SOL    HW232331   4.620   4.659   4.978
10478SOL     OW32332   0.381   6.052   3.003
10478SOL    HW132333   0.405   6.143   2.971
10478SOL    HW232334   0.291   6.054   3.046
10479SOL     OW32335   1.379   4.511   2.256
10479SOL    HW132336   1.383   4.425   2.307
10479SOL    HW232337   1.411   4.586   2.314
10480SOL     OW32338   5.690   0.543   1.566
10480SOL    HW132339   5.607   0.491   1.545
10480SOL    HW232340   5.769   0.499   1.522
10481SOL     OW32341   2.731   1.285   4.675
10481SOL    HW132342   2.803   1.273   4.742
10481SOL    HW232343   2.707   1.382   4.669
10482SOL     OW32344   1.147   5.866   6.402
10482SOL    HW132345   1.079   5.821   6.460
10482SOL    HW232346   1.108   5.951   6.366
10483SOL     OW32347   6.274   5.186   0.974
10483SOL    HW132348   6.368   5.220   0.974
10483SOL    HW232349   6.248   5.161   1.067
10484SOL     OW32350   6.022   2.127   1.444
10484SOL    HW132351   6.043   2.104   1.539
10484SOL    HW232352   6.040   2.049   1.385
10485SOL     OW32353   3.307   4.098   3.900
10485SOL    HW132354   3.300   4.054   3.989
10485SOL    HW232355   3.402   4.126   3.885
10486SOL     OW32356   6.027   5.425   5.522
10486SOL    HW132357   5.995   5.512   5.561
10486SOL    HW232358   6.111   5.397   5.569
10487SOL     OW32359   5.189   2.951   3.185
10487SOL    HW132360   5.144   2.943   3.275
10487SOL    HW232361   5.248   2.872   3.171
10488SOL     OW32362   0.494   2.638   4.436
10488SOL    HW132363   0.413   2.586   4.464
10488SOL    HW232364   0.466   2.724   4.393
10489SOL     OW32365   5.717   4.527   4.305
10489SOL    HW132366   5.706   4.613   4.256
10489SOL    HW232367   5.814   4.503   4.309
10490SOL     OW32368   6.023   6.583   6.760
10490SOL    HW132369   6.024   6.680   6.734
10490SOL    HW232370   6.116   6.549   6.765
10491SOL     OW32371   1.919   3.008   5.815
10491SOL    HW132372   1.976   2.926   5.808
10491SOL    HW232373   1.914   3.053   5.726
10492SOL     OW32374   2.837   6.284   0.514
10492SOL    HW132375   2.742   6.251   0.510
10492SOL    HW232376   2.850   6.339   0.596
10493SOL     OW32377   4.133   5.515   1.302
10493SOL    HW132378   4.104   5.553   1.390
10493SOL    HW232379   4.078   5.555   1.229
10494SOL     OW32380   0.550   4.702   3.985
10494SOL    HW132381   0.610   4.680   3.908
10494SOL    HW232382   0.592   4.670   4.070
10495SOL     OW32383   0.218   6.954   0.357
10495SOL    HW132384   0.275   6.996   0.287
10495SOL    HW232385   0.216   7.013   0.438
10496SOL     OW32386   0.389   4.787   6.319
10496SOL    HW132387   0.382   4.702   6.267
10496SOL    HW232388   0.346   4.774   6.409
10497SOL     OW32389   3.102   7.016   1.571
10497SOL    HW132390   3.025   6.987   1.514
10497SOL    HW232391   3.105   6.959   1.654
10498SOL     OW32392   3.979   3.428   6.802
10498SOL    HW132393   3.932   3.513   6.777
10498SOL    HW232394   4.076   3.448   6.821
10499SOL     OW32395   4.950   3.975   2.680
10499SOL    HW132396   4.955   3.883   2.640
10499SOL    HW232397   4.856   3.993   2.710
10500SOL     OW32398   1.168   3.236   5.168
10500SOL    HW132399   1.231   3.235   5.245
10500SOL    HW232400   1.206   3.183   5.092
10501SOL     OW32401   4.005   4.849   3.145
10501SOL    HW132402   3.933   4.781   3.137
10501SOL    HW232403   4.062   4.848   3.063
10502SOL     OW32404   2.936   3.690   2.498
10502SOL    HW132405   2.881   3.701   2.415
10502SOL    HW232406   3.017   3.636   2.478
10503SOL     OW32407   6.941   0.990   6.502
10503SOL    HW132408   6.993   1.073   6.483
10503SOL    HW232409   6.963   0.959   6.595
10504SOL     OW32410   1.139   3.911   5.936
10504SOL    HW132411   1.184   3.903   6.025
10504SOL    HW232412   1.170   3.836   5.876
10505SOL     OW32413   6.405   6.618   0.683
10505SOL    HW132414   6.437   6.712   0.695
10505SOL    HW232415   6.424   6.589   0.589
10506SOL     OW32416   1.594   4.773   5.755
10506SOL    HW132417   1.553   4.700   5.701
10506SOL    HW232418   1.523   4.817   5.811
10507SOL     OW32419   1.048   6.357   5.999
10507SOL    HW132420   0.985   6.316   5.933
10507SOL    HW232421   0.999   6.379   6.083
10508SOL     OW32422   1.303   6.012   0.292
10508SOL    HW132423   1.236   6.014   0.218
10508SOL    HW232424   1.305   5.921   0.334
10509SOL     OW32425   4.590   2.649   3.015
10509SOL    HW132426   4.585   2.646   3.115
10509SOL    HW232427   4.537   2.574   2.977
10510SOL     OW32428   5.459   5.788   3.305
10510SOL    HW132429   5.472   5.810   3.208
10510SOL    HW232430   5.377   5.731   3.315
10511SOL     OW32431   4.380   1.852   1.170
10511SOL    HW132432   4.302   1.811   1.218
10511SOL    HW232433   4.385   1.815   1.078
10512SOL     OW32434   4.162   1.432   6.211
10512SOL    HW132435   4.215   1.395   6.287
10512SOL    HW232436   4.223   1.448   6.133
10513SOL     OW32437   3.489   3.578   1.018
10513SOL    HW132438   3.453   3.551   0.929
10513SOL    HW232439   3.416   3.618   1.073
10514SOL     OW32440   1.298   5.307   1.545
10514SOL    HW132441   1.228   5.356   1.492
10514SOL    HW232442   1.330   5.229   1.492
10515SOL     OW32443   1.963   3.335   4.439
10515SOL    HW132444   1.909   3.327   4.354
10515SOL    HW232445   2.007   3.248   4.459
10516SOL     OW32446   5.572   1.844   1.955
10516SOL    HW132447   5.617   1.761   1.923
10516SOL    HW232448   5.587   1.854   2.053
10517SOL     OW32449   0.499   2.691   1.808
10517SOL    HW132450   0.464   2.652   1.894
10517SOL    HW232451   0.491   2.790   1.811
10518SOL     OW32452   0.559   6.058   1.878
10518SOL    HW132453   0.644   6.110   1.870
10518SOL    HW232454   0.481   6.120   1.876
10519SOL     OW32455   3.256   6.826   1.247
10519SOL    HW132456   3.159   6.801   1.245
10519SOL    HW232457   3.287   6.829   1.342
10520SOL     OW32458   1.786   2.179   6.278
10520SOL    HW132459   1.691   2.175   6.246
10520SOL    HW232460   1.847   2.161   6.201
10521SOL     OW32461   6.417   2.593   2.973
10521SOL    HW132462   6.417   2.693   2.980
10521SOL    HW232463   6.511   2.560   2.968
10522SOL     OW32464   5.323   1.407   3.694
10522SOL    HW132465   5.375   1.448   3.618
10522SOL    HW232466   5.234   1.452   3.701
10523SOL     OW32467   0.692   4.232   1.690
10523SOL    HW132468   0.724   4.320   1.655
10523SOL    HW232469   0.732   4.158   1.636
10524SOL     OW32470   6.692   5.901   4.725
10524SOL    HW132471   6.733   5.970   4.785
10524SOL    HW232472   6.750   5.820   4.724
10525SOL     OW32473   4.779   1.236   4.058
10525SOL    HW132474   4.779   1.300   3.981
10525SOL    HW232475   4.824   1.151   4.032
10526SOL     OW32476   1.420   5.482   6.229
10526SOL    HW132477   1.328   5.448   6.246
10526SOL    HW232478   1.446   5.546   6.301
10527SOL     OW32479   0.007   6.283   5.579
10527SOL    HW132480   6.965   6.289   5.657
10527SOL    HW232481   6.975   6.265   5.496
10528SOL     OW32482   1.556   4.898   4.823
10528SOL    HW132483   1.475   4.871   4.772
10528SOL    HW232484   1.571   4.997   4.813
10529SOL     OW32485   0.259   4.922   0.980
10529SOL    HW132486   0.185   4.976   1.020
10529SOL    HW232487   0.251   4.827   1.008
10530SOL     OW32488   0.029   0.080   0.918
10530SOL    HW132489   0.034   0.085   1.018
10530SOL    HW232490   0.047   0.170   0.879
10531SOL     OW32491   3.626   2.162   6.021
10531SOL    HW132492   3.686   2.152   6.101
10531SOL    HW232493   3.586   2.254   6.021
10532SOL     OW32494   4.744   5.943   5.953
10532SOL    HW132495   4.707   5.968   5.864
10532SOL    HW232496   4.832   5.896   5.942
10533SOL     OW32497   3.867   6.738   3.293
10533SOL    HW132498   3.940   6.739   3.360
10533SOL    HW232499   3.888   6.802   3.219
10534SOL     OW32500   1.577   6.228   3.857
10534SOL    HW132501   1.503   6.218   3.923
10534SOL    HW232502   1.624   6.141   3.844
10535SOL     OW32503   3.952   2.127   2.410
10535SOL    HW132504   3.971   2.137   2.312
10535SOL    HW232505   3.892   2.049   2.425
10536SOL     OW32506   5.664   3.969   5.055
10536SOL    HW132507   5.764   3.960   5.063
10536SOL    HW232508   5.642   4.054   5.008
10537SOL     OW32509   4.009   1.558   3.495
10537SOL    HW132510   4.026   1.465   3.463
10537SOL    HW232511   4.037   1.565   3.591
10538SOL     OW32512   7.009   2.688   3.523
10538SOL    HW132513   0.028   2.617   3.581
10538SOL    HW232514   6.937   2.649   3.466
10539SOL     OW32515   6.746   6.388   3.204
10539SOL    HW132516   6.661   6.398   3.256
10539SOL    HW232517   6.761   6.471   3.150
10540SOL     OW32518   1.501   3.901   6.756
10540SOL    HW132519   1.460   3.939   6.839
10540SOL    HW232520   1.586   3.950   6.735
10541SOL     OW32521   3.507   2.843   5.785
10541SOL    HW132522   3.538   2.892   5.866
10541SOL    HW232523   3.568   2.765   5.768
10542SOL     OW32524   4.454   6.414   2.855
10542SOL    HW132525   4.461   6.512   2.837
10542SOL    HW232526   4.525   6.365   2.804
10543SOL     OW32527   2.345   2.730   4.034
10543SOL    HW132528   2.274   2.677   4.081
10543SOL    HW232529   2.326   2.828   4.045
10544SOL     OW32530   2.919   1.597   2.710
10544SOL    HW132531   2.883   1.619   2.619
10544SOL    HW232532   2.843   1.582   2.773
10545SOL     OW32533   1.886   3.192   2.076
10545SOL    HW132534   1.832   3.155   2.152
10545SOL    HW232535   1.841   3.171   1.990
10546SOL     OW32536   2.709   6.923   6.352
10546SOL    HW132537   2.797   6.925   6.398
10546SOL    HW232538   2.657   6.843   6.383
10547SOL     OW32539   3.611   6.570   5.995
10547SOL    HW132540   3.619   6.473   6.019
10547SOL    HW232541   3.567   6.619   6.070
10548SOL     OW32542   1.124   5.976   2.975
10548SOL    HW132543   1.170   5.891   2.998
10548SOL    HW232544   1.154   6.048   3.038
10549SOL     OW32545   0.081   0.915   2.645
10549SOL    HW132546   0.075   0.844   2.714
10549SOL    HW232547   0.001   0.912   2.586
10550SOL     OW32548   5.049   5.997   3.206
10550SOL    HW132549   5.036   5.908   3.249
10550SOL    HW232550   4.998   6.000   3.120
10551SOL     OW32551   3.956   0.885   4.880
10551SOL    HW132552   3.876   0.827   4.896
10551SOL    HW232553   4.038   0.838   4.911
10552SOL     OW32554   3.105   0.000   3.632
10552SOL    HW132555   3.039   0.075   3.625
10552SOL    HW232556   3.071   6.942   3.582
10553SOL     OW32557   5.722   5.870   1.298
10553SOL    HW132558   5.728   5.906   1.391
10553SOL    HW232559   5.683   5.778   1.300
10554SOL     OW32560   6.115   6.354   2.283
10554SOL    HW132561   6.176   6.376   2.206
10554SOL    HW232562   6.135   6.414   2.360
10555SOL     OW32563   3.441   3.140   1.683
10555SOL    HW132564   3.387   3.192   1.617
10555SOL    HW232565   3.410   3.162   1.776
10556SOL     OW32566   2.411   1.840   1.828
10556SOL    HW132567   2.351   1.771   1.869
10556SOL    HW232568   2.474   1.795   1.764
10557SOL     OW32569   1.733   4.244   2.484
10557SOL    HW132570   1.754   4.169   2.547
10557SOL    HW232571   1.682   4.315   2.531
10558SOL     OW32572   4.037   4.901   4.527
10558SOL    HW132573   4.017   4.998   4.511
10558SOL    HW232574   4.056   4.855   4.440
10559SOL     OW32575   3.588   5.885   1.845
10559SOL    HW132576   3.589   5.827   1.926
10559SOL    HW232577   3.507   5.943   1.846
10560SOL     OW32578   6.193   0.204   3.416
10560SOL    HW132579   6.233   0.293   3.437
10560SOL    HW232580   6.189   0.148   3.499
10561SOL     OW32581   0.738   5.204   6.173
10561SOL    HW132582   0.808   5.214   6.102
10561SOL    HW232583   0.675   5.281   6.169
10562SOL     OW32584   4.067   6.049   2.330
10562SOL    HW132585   4.150   6.103   2.326
10562SOL    HW232586   4.057   6.008   2.420
10563SOL     OW32587   1.459   6.594   2.424
10563SOL    HW132588   1.375   6.564   2.471
10563SOL    HW232589   1.479   6.530   2.350
10564SOL     OW32590   5.533   4.247   3.184
10564SOL    HW132591   5.475   4.256   3.103
10564SOL    HW232592   5.504   4.166   3.236
10565SOL     OW32593   0.242   1.360   5.168
10565SOL    HW132594   0.264   1.293   5.239
10565SOL    HW232595   0.252   1.452   5.205
10566SOL     OW32596   3.566   1.904   0.947
10566SOL    HW132597   3.467   1.913   0.955
10566SOL    HW232598   3.590   1.871   0.855
10567SOL     OW32599   2.508   2.280   6.102
10567SOL    HW132600   2.491   2.336   6.183
10567SOL    HW232601   2.565   2.331   6.038
10568SOL     OW32602   4.853   2.357   5.987
10568SOL    HW132603   4.821   2.263   5.990
10568SOL    HW232604   4.918   2.368   5.912
10569SOL     OW32605   5.732   0.760   0.718
10569SOL    HW132606   5.693   0.698   0.649
10569SOL    HW232607   5.814   0.719   0.757
10570SOL     OW32608   1.630   3.905   2.978
10570SOL    HW132609   1.532   3.887   2.970
10570SOL    HW232610   1.680   3.834   2.929
10571SOL     OW32611   6.818   4.357   5.767
10571SOL    HW132612   6.791   4.446   5.805
10571SOL    HW232613   6.914   4.341   5.787
10572SOL     OW32614   6.596   4.274   0.859
10572SOL    HW132615   6.573   4.370   0.844
10572SOL    HW232616   6.518   4.227   0.900
10573SOL     OW32617   0.014   2.001   3.536
10573SOL    HW132618   6.967   1.927   3.532
10573SOL    HW232619   7.011   2.071   3.468
10574SOL     OW32620   6.061   2.313   2.735
10574SOL    HW132621   6.042   2.216   2.716
10574SOL    HW232622   5.998   2.370   2.682
10575SOL     OW32623   5.462   6.786   3.001
10575SOL    HW132624   5.425   6.703   3.042
10575SOL    HW232625   5.545   6.763   2.949
10576SOL     OW32626   1.140   3.459   4.588
10576SOL    HW132627   1.226   3.485   4.544
10576SOL    HW232628   1.083   3.409   4.523
10577SOL     OW32629   4.153   4.283   0.469
10577SOL    HW132630   4.096   4.340   0.410
10577SOL    HW232631   4.214   4.228   0.413
10578SOL     OW32632   0.785   3.438   2.374
10578SOL    HW132633   0.785   3.433   2.274
10578SOL    HW232634   0.864   3.387   2.410
10579SOL     OW32635   0.436   3.228   0.166
10579SOL    HW132636   0.409   3.295   0.235
10579SOL    HW232637   0.434   3.270   0.075
10580SOL     OW32638   5.723   6.281   0.041
10580SOL    HW132639   5.795   6.265   6.994
10580SOL    HW232640   5.732   6.214   0.115
10581SOL     OW32641   4.529   0.536   3.554
10581SOL    HW132642   4.523   0.618   3.497
10581SOL    HW232643   4.555   0.562   3.647
10582SOL     OW32644   6.480   3.415   6.683
10582SOL    HW132645   6.487   3.427   6.782
10582SOL    HW232646   6.433   3.329   6.663
10583SOL     OW32647   3.920   2.164   5.836
10583SOL    HW132648   3.899   2.236   5.902
10583SOL    HW232649   3.848   2.094   5.838
10584SOL     OW32650   0.458   0.376   3.448
10584SOL    HW132651   0.544   0.357   3.402
10584SOL    HW232652   0.474   0.383   3.547
10585SOL     OW32653   1.553   1.264   5.582
10585SOL    HW132654   1.575   1.235   5.675
10585SOL    HW232655   1.571   1.189   5.519
10586SOL     OW32656   4.485   4.222   5.687
10586SOL    HW132657   4.511   4.133   5.651
10586SOL    HW232658   4.501   4.225   5.785
10587SOL     OW32659   1.988   4.979   5.332
10587SOL    HW132660   1.961   5.040   5.406
10587SOL    HW232661   1.967   5.021   5.244
10588SOL     OW32662   1.662   4.151   3.752
10588SOL    HW132663   1.565   4.168   3.737
10588SOL    HW232664   1.697   4.095   3.677
10589SOL     OW32665   6.514   7.006   3.795
10589SOL    HW132666   6.483   6.985   3.888
10589SOL    HW232667   6.440   6.987   3.730
10590SOL     OW32668   0.793   5.162   2.738
10590SOL    HW132669   0.762   5.070   2.759
10590SOL    HW232670   0.893   5.164   2.736
10591SOL     OW32671   6.974   3.522   2.362
10591SOL    HW132672   6.927   3.534   2.449
10591SOL    HW232673   0.045   3.562   2.369
10592SOL     OW32674   0.197   2.604   4.314
10592SOL    HW132675   0.119   2.554   4.279
10592SOL    HW232676   0.201   2.695   4.272
10593SOL     OW32677   3.326   5.921   3.508
10593SOL    HW132678   3.375   5.848   3.555
10593SOL    HW232679   3.390   5.994   3.484
10594SOL     OW32680   3.696   5.731   4.024
10594SOL    HW132681   3.628   5.780   3.970
10594SOL    HW232682   3.720   5.646   3.978
10595SOL     OW32683   4.768   6.768   1.076
10595SOL    HW132684   4.764   6.841   1.008
10595SOL    HW232685   4.699   6.699   1.055
10596SOL     OW32686   4.963   4.002   0.731
10596SOL    HW132687   4.988   3.999   0.828
10596SOL    HW232688   4.903   3.925   0.710
10597SOL     OW32689   2.083   0.040   4.994
10597SOL    HW132690   2.106   0.126   5.039
10597SOL    HW232691   1.992   0.011   5.024
10598SOL     OW32692   3.121   0.640   0.407
10598SOL    HW132693   3.023   0.657   0.414
10598SOL    HW232694   3.153   0.662   0.315
10599SOL     OW32695   0.948   2.325   0.609
10599SOL    HW132696   1.040   2.333   0.646
10599SOL    HW232697   0.902   2.414   0.613
10600SOL     OW32698   4.238   1.032   1.903
10600SOL    HW132699   4.332   1.067   1.903
10600SOL    HW232700   4.225   0.970   1.826
10601SOL     OW32701   2.045   1.507   4.559
10601SOL    HW132702   1.980   1.492   4.633
10601SOL    HW232703   2.069   1.419   4.517
10602SOL     OW32704   6.314   6.743   1.337
10602SOL    HW132705   6.219   6.768   1.356
10602SOL    HW232706   6.316   6.657   1.286
10603SOL     OW32707   5.979   0.359   2.823
10603SOL    HW132708   6.034   0.295   2.769
10603SOL    HW232709   5.956   0.317   2.911
10604SOL     OW32710   4.453   1.823   5.006
10604SOL    HW132711   4.503   1.857   5.085
10604SOL    HW232712   4.363   1.866   5.001
10605SOL     OW32713   3.711   1.905   1.245
10605SOL    HW132714   3.668   1.928   1.332
10605SOL    HW232715   3.643   1.912   1.172
10606SOL     OW32716   6.694   1.455   0.099
10606SOL    HW132717   6.622   1.389   0.080
10606SOL    HW232718   6.687   1.486   0.193
10607SOL     OW32719   3.186   4.230   0.922
10607SOL    HW132720   3.174   4.329   0.914
10607SOL    HW232721   3.266   4.210   0.977
10608SOL     OW32722   5.532   3.794   3.462
10608SOL    HW132723   5.457   3.729   3.451
10608SOL    HW232724   5.619   3.746   3.464
10609SOL     OW32725   5.888   7.010   6.694
10609SOL    HW132726   5.956   6.946   6.658
10609SOL    HW232727   5.796   6.975   6.677
10610SOL     OW32728   0.639   1.133   3.130
10610SOL    HW132729   0.690   1.055   3.094
10610SOL    HW232730   0.647   1.135   3.229
10611SOL     OW32731   4.511   5.065   4.947
10611SOL    HW132732   4.501   5.055   4.848
10611SOL    HW232733   4.422   5.088   4.987
10612SOL     OW32734   6.482   2.525   3.252
10612SOL    HW132735   6.430   2.447   3.287
10612SOL    HW232736   6.474   2.530   3.153
10613SOL     OW32737   4.975   5.511   4.497
10613SOL    HW132738   5.027   5.451   4.436
10613SOL    HW232739   5.023   5.519   4.584
10614SOL     OW32740   3.887   2.204   6.715
10614SOL    HW132741   3.836   2.240   6.637
10614SOL    HW232742   3.835   2.221   6.800
10615SOL     OW32743   2.681   2.624   5.299
10615SOL    HW132744   2.752   2.684   5.337
10615SOL    HW232745   2.601   2.679   5.275
10616SOL     OW32746   1.348   5.766   0.415
10616SOL    HW132747   1.350   5.666   0.407
10616SOL    HW232748   1.430   5.797   0.464
10617SOL     OW32749   1.560   3.000   0.934
10617SOL    HW132750   1.485   3.065   0.923
10617SOL    HW232751   1.638   3.046   0.977
10618SOL     OW32752   0.880   5.470   4.223
10618SOL    HW132753   0.928   5.547   4.265
10618SOL    HW232754   0.902   5.386   4.274
10619SOL     OW32755   0.734   2.762   1.179
10619SOL    HW132756   0.704   2.718   1.264
10619SOL    HW232757   0.828   2.736   1.159
10620SOL     OW32758   3.561   1.212   5.806
10620SOL    HW132759   3.630   1.184   5.873
10620SOL    HW232760   3.578   1.306   5.777
10621SOL     OW32761   0.947   3.966   3.191
10621SOL    HW132762   0.911   4.022   3.116
10621SOL    HW232763   1.041   3.940   3.170
10622SOL     OW32764   4.363   2.327   6.571
10622SOL    HW132765   4.390   2.262   6.500
10622SOL    HW232766   4.303   2.281   6.637
10623SOL     OW32767   4.993   5.407   5.680
10623SOL    HW132768   4.949   5.452   5.757
10623SOL    HW232769   4.947   5.432   5.595
10624SOL     OW32770   0.657   1.852   6.556
10624SOL    HW132771   0.616   1.925   6.501
10624SOL    HW232772   0.746   1.826   6.518
10625SOL     OW32773   6.763   5.775   0.987
10625SOL    HW132774   6.788   5.705   0.921
10625SOL    HW232775   6.832   5.846   0.988
10626SOL     OW32776   6.006   2.898   1.927
10626SOL    HW132777   6.030   2.908   2.024
10626SOL    HW232778   6.037   2.979   1.877
10627SOL     OW32779   5.578   4.510   5.353
10627SOL    HW132780   5.561   4.420   5.313
10627SOL    HW232781   5.616   4.571   5.282
10628SOL     OW32782   2.950   6.442   0.708
10628SOL    HW132783   3.018   6.446   0.781
10628SOL    HW232784   2.956   6.525   0.652
10629SOL     OW32785   4.717   4.849   4.023
10629SOL    HW132786   4.760   4.796   4.096
10629SOL    HW232787   4.619   4.827   4.020
10630SOL     OW32788   3.943   1.092   1.180
10630SOL    HW132789   3.927   1.008   1.127
10630SOL    HW232790   3.920   1.075   1.276
10631SOL     OW32791   3.348   5.429   1.778
10631SOL    HW132792   3.362   5.527   1.762
10631SOL    HW232793   3.334   5.383   1.690
10632SOL     OW32794   5.765   6.613   4.366
10632SOL    HW132795   5.779   6.712   4.368
10632SOL    HW232796   5.728   6.587   4.276
10633SOL     OW32797   2.530   3.459   0.131
10633SOL    HW132798   2.623   3.437   0.159
10633SOL    HW232799   2.521   3.446   0.032
10634SOL     OW32800   0.612   4.538   6.555
10634SOL    HW132801   0.696   4.513   6.603
10634SOL    HW232802   0.578   4.625   6.590
10635SOL     OW32803   3.009   5.470   6.571
10635SOL    HW132804   3.084   5.503   6.515
10635SOL    HW232805   2.974   5.384   6.534
10636SOL     OW32806   6.063   2.806   0.611
10636SOL    HW132807   6.113   2.828   0.695
10636SOL    HW232808   6.101   2.723   0.570
10637SOL     OW32809   2.593   0.636   6.507
10637SOL    HW132810   2.671   0.578   6.482
10637SOL    HW232811   2.621   0.700   6.578
10638SOL     OW32812   4.760   5.193   0.868
10638SOL    HW132813   4.798   5.127   0.932
10638SOL    HW232814   4.682   5.239   0.910
10639SOL     OW32815   6.610   4.932   0.834
10639SOL    HW132816   6.511   4.943   0.846
10639SOL    HW232817   6.652   4.909   0.921
10640SOL     OW32818   4.006   6.387   4.259
10640SOL    HW132819   3.958   6.414   4.176
10640SOL    HW232820   3.993   6.457   4.329
10641SOL     OW32821   1.110   1.484   2.999
10641SOL    HW132822   1.161   1.509   3.081
10641SOL    HW232823   1.173   1.479   2.921
10642SOL     OW32824   6.800   2.278   6.332
10642SOL    HW132825   6.878   2.336   6.355
10642SOL    HW232826   6.750   2.317   6.255
10643SOL     OW32827   2.556   5.202   5.842
10643SOL    HW132828   2.567   5.242   5.933
10643SOL    HW232829   2.572   5.272   5.773
10644SOL     OW32830   0.201   3.384   3.226
10644SOL    HW132831   0.174   3.293   3.257
10644SOL    HW232832   0.173   3.452   3.294
10645SOL     OW32833   2.361   2.560   2.878
10645SOL    HW132834   2.327   2.641   2.926
10645SOL    HW232835   2.460   2.551   2.894
10646SOL     OW32836   4.928   0.449   3.834
10646SOL    HW132837   4.917   0.394   3.751
10646SOL    HW232838   4.966   0.391   3.906
10647SOL     OW32839   3.889   5.266   5.115
10647SOL    HW132840   3.869   5.286   5.211
10647SOL    HW232841   3.885   5.350   5.062
10648SOL     OW32842   4.859   4.312   5.321
10648SOL    HW132843   4.941   4.344   5.273
10648SOL    HW232844   4.787   4.380   5.313
10649SOL     OW32845   6.233   3.346   2.918
10649SOL    HW132846   6.235   3.366   2.820
10649SOL    HW232847   6.327   3.337   2.952
10650SOL     OW32848   0.348   6.974   2.385
10650SOL    HW132849   0.383   6.947   2.296
10650SOL    HW232850   0.277   6.910   2.414
10651SOL     OW32851   2.513   5.496   6.026
10651SOL    HW132852   2.472   5.460   6.110
10651SOL    HW232853   2.536   5.592   6.039
10652SOL     OW32854   2.029   0.383   6.872
10652SOL    HW132855   1.939   0.424   6.884
10652SOL    HW232856   2.097   0.456   6.859
10653SOL     OW32857   5.521   5.872   4.732
10653SOL    HW132858   5.607   5.839   4.770
10653SOL    HW232859   5.527   5.971   4.718
10654SOL     OW32860   6.597   1.953   3.978
10654SOL    HW132861   6.546   2.040   3.974
10654SOL    HW232862   6.609   1.917   3.886
10655SOL     OW32863   0.075   4.833   0.797
10655SOL    HW132864   0.154   4.873   0.843
10655SOL    HW232865   0.021   4.905   0.753
10656SOL     OW32866   5.582   1.641   5.334
10656SOL    HW132867   5.623   1.731   5.328
10656SOL    HW232868   5.653   1.571   5.330
10657SOL     OW32869   5.104   0.264   5.336
10657SOL    HW132870   5.049   0.308   5.407
10657SOL    HW232871   5.108   0.323   5.256
10658SOL     OW32872   0.736   2.048   5.332
10658SOL    HW132873   0.771   1.959   5.362
10658SOL    HW232874   0.642   2.059   5.362
10659SOL     OW32875   0.077   5.639   0.718
10659SOL    HW132876   0.103   5.701   0.645
10659SOL    HW232877   0.121   5.550   0.704
10660SOL     OW32878   5.988   3.289   6.301
10660SOL    HW132879   5.920   3.355   6.333
10660SOL    HW232880   6.069   3.295   6.358
10661SOL     OW32881   3.458   4.845   5.228
10661SOL    HW132882   3.405   4.876   5.149
10661SOL    HW232883   3.556   4.856   5.209
10662SOL     OW32884   3.042   1.294   0.773
10662SOL    HW132885   3.140   1.311   0.768
10662SOL    HW232886   3.013   1.296   0.869
10663SOL     OW32887   0.492   2.513   3.410
10663SOL    HW132888   0.522   2.537   3.317
10663SOL    HW232889   0.516   2.418   3.429
10664SOL     OW32890   1.270   5.957   4.518
10664SOL    HW132891   1.272   6.010   4.603
10664SOL    HW232892   1.264   6.020   4.440
10665SOL     OW32893   3.187   3.636   0.491
10665SOL    HW132894   3.239   3.553   0.468
10665SOL    HW232895   3.205   3.661   0.586
10666SOL     OW32896   4.002   3.807   1.170
10666SOL    HW132897   3.970   3.781   1.079
10666SOL    HW232898   3.995   3.729   1.232
10667SOL     OW32899   5.525   2.693   4.737
10667SOL    HW132900   5.439   2.726   4.699
10667SOL    HW232901   5.569   2.765   4.790
10668SOL     OW32902   3.374   2.636   5.923
10668SOL    HW132903   3.297   2.679   5.971
10668SOL    HW232904   3.438   2.707   5.894
10669SOL     OW32905   6.153   1.921   1.276
10669SOL    HW132906   6.231   1.927   1.213
10669SOL    HW232907   6.168   1.845   1.340
10670SOL     OW32908   4.772   4.000   4.230
10670SOL    HW132909   4.726   4.084   4.259
10670SOL    HW232910   4.811   3.954   4.310
10671SOL     OW32911   1.638   3.120   4.610
10671SOL    HW132912   1.608   3.149   4.701
10671SOL    HW232913   1.737   3.106   4.611
10672SOL     OW32914   6.100   3.893   1.730
10672SOL    HW132915   6.067   3.889   1.824
10672SOL    HW232916   6.058   3.819   1.677
10673SOL     OW32917   2.565   1.330   0.980
10673SOL    HW132918   2.522   1.278   0.906
10673SOL    HW232919   2.612   1.267   1.041
10674SOL     OW32920   3.841   3.597   4.208
10674SOL    HW132921   3.768   3.581   4.275
10674SOL    HW232922   3.802   3.598   4.116
10675SOL     OW32923   3.291   6.969   5.412
10675SOL    HW132924   3.374   6.976   5.467
10675SOL    HW232925   3.315   6.947   5.318
10676SOL     OW32926   1.351   0.444   5.690
10676SOL    HW132927   1.285   0.512   5.724
10676SOL    HW232928   1.405   0.484   5.616
10677SOL     OW32929   0.357   2.146   6.602
10677SOL    HW132930   0.373   2.084   6.678
10677SOL    HW232931   0.439   2.149   6.544
10678SOL     OW32932   4.066   5.436   2.644
10678SOL    HW132933   4.093   5.342   2.664
10678SOL    HW232934   3.968   5.440   2.626
10679SOL     OW32935   4.895   4.259   0.683
10679SOL    HW132936   4.916   4.299   0.594
10679SOL    HW232937   4.907   4.160   0.679
10680SOL     OW32938   4.190   1.589   5.811
10680SOL    HW132939   4.234   1.538   5.885
10680SOL    HW232940   4.252   1.591   5.732
10681SOL     OW32941   2.381   3.149   5.390
10681SOL    HW132942   2.441   3.116   5.463
10681SOL    HW232943   2.392   3.092   5.309
10682SOL     OW32944   5.224   4.034   6.744
10682SOL    HW132945   5.264   3.943   6.757
10682SOL    HW232946   5.133   4.025   6.705
10683SOL     OW32947   2.943   0.451   3.643
10683SOL    HW132948   2.879   0.503   3.586
10683SOL    HW232949   2.953   0.359   3.607
10684SOL     OW32950   4.564   4.750   1.844
10684SOL    HW132951   4.587   4.769   1.749
10684SOL    HW232952   4.566   4.836   1.896
10685SOL     OW32953   1.190   6.547   2.477
10685SOL    HW132954   1.141   6.617   2.529
10685SOL    HW232955   1.197   6.463   2.532
10686SOL     OW32956   3.005   0.883   6.917
10686SOL    HW132957   2.918   0.883   6.967
10686SOL    HW232958   3.019   0.794   6.874
10687SOL     OW32959   1.011   3.470   3.641
10687SOL    HW132960   1.102   3.448   3.676
10687SOL    HW232961   1.007   3.453   3.543
10688SOL     OW32962   4.991   0.979   3.067
10688SOL    HW132963   4.915   0.916   3.081
10688SOL    HW232964   4.960   1.058   3.014
10689SOL     OW32965   0.791   0.057   2.211
10689SOL    HW132966   0.784   0.147   2.255
10689SOL    HW232967   0.875   0.013   2.242
10690SOL     OW32968   1.128   6.350   3.972
10690SOL    HW132969   1.081   6.373   4.057
10690SOL    HW232970   1.061   6.343   3.898
10691SOL     OW32971   3.565   6.997   2.319
10691SOL    HW132972   3.587   0.011   2.228
10691SOL    HW232973   3.581   6.898   2.321
10692SOL     OW32974   2.436   1.688   4.493
10692SOL    HW132975   2.488   1.744   4.428
10692SOL    HW232976   2.416   1.742   4.574
10693SOL     OW32977   1.542   5.586   0.072
10693SOL    HW132978   1.529   5.486   0.073
10693SOL    HW232979   1.478   5.627   0.008
10694SOL     OW32980   5.076   0.529   5.506
10694SOL    HW132981   5.172   0.557   5.497
10694SOL    HW232982   5.030   0.590   5.570
10695SOL     OW32983   5.554   4.658   1.889
10695SOL    HW132984   5.643   4.671   1.845
10695SOL    HW232985   5.547   4.564   1.923
10696SOL     OW32986   6.145   4.654   3.996
10696SOL    HW132987   6.112   4.744   4.024
10696SOL    HW232988   6.097   4.583   4.047
10697SOL     OW32989   2.508   5.196   5.267
10697SOL    HW132990   2.419   5.152   5.251
10697SOL    HW232991   2.576   5.126   5.287
10698SOL     OW32992   3.437   3.591   0.168
10698SOL    HW132993   3.438   3.605   0.068
10698SOL    HW232994   3.510   3.529   0.194
10699SOL     OW32995   3.868   2.821   0.773
10699SOL    HW132996   3.962   2.789   0.756
10699SOL    HW232997   3.834   2.780   0.858
10700SOL     OW32998   4.518   0.894   1.625
10700SOL    HW132999   4.508   0.837   1.707
10700SOL    HW233000   4.616   0.902   1.602
10701SOL     OW33001   3.280   6.758   6.657
10701SOL    HW133002   3.288   6.660   6.677
10701SOL    HW233003   3.361   6.788   6.606
10702SOL     OW33004   5.609   2.372   1.944
10702SOL    HW133005   5.577   2.289   1.897
10702SOL    HW233006   5.615   2.447   1.879
10703SOL     OW33007   0.551   2.600   5.386
10703SOL    HW133008   0.461   2.635   5.411
10703SOL    HW233009   0.541   2.522   5.325
10704SOL     OW33010   4.849   6.837   2.187
10704SOL    HW133011   4.852   6.759   2.250
10704SOL    HW233012   4.842   6.922   2.240
10705SOL     OW33013   5.135   3.605   0.852
10705SOL    HW133014   5.136   3.505   0.862
10705SOL    HW233015   5.218   3.643   0.893
10706SOL     OW33016   3.565   0.985   1.032
10706SOL    HW133017   3.484   0.930   1.052
10706SOL    HW233018   3.553   1.076   1.071
10707SOL     OW33019   5.190   0.158   3.671
10707SOL    HW133020   5.201   0.257   3.681
10707SOL    HW233021   5.165   0.137   3.577
10708SOL     OW33022   4.331   1.440   2.126
10708SOL    HW133023   4.232   1.443   2.143
10708SOL    HW233024   4.348   1.457   2.029
10709SOL     OW33025   5.787   4.734   3.245
10709SOL    HW133026   5.789   4.832   3.226
10709SOL    HW233027   5.754   4.685   3.165
10710SOL     OW33028   4.616   1.975   4.010
10710SOL    HW133029   4.713   1.979   3.985
10710SOL    HW233030   4.605   1.920   4.093
10711SOL     OW33031   3.257   0.033   2.413
10711SOL    HW133032   3.251   0.047   2.315
10711SOL    HW233033   3.312   0.107   2.454
10712SOL     OW33034   5.499   0.019   3.309
10712SOL    HW133035   5.472   0.106   3.268
10712SOL    HW233036   5.431   6.969   3.287
10713SOL     OW33037   1.812   3.964   1.728
10713SOL    HW133038   1.722   3.990   1.763
10713SOL    HW233039   1.814   3.979   1.629
10714SOL     OW33040   2.970   3.928   5.032
10714SOL    HW133041   2.923   3.994   4.974
10714SOL    HW233042   2.978   3.964   5.125
10715SOL     OW33043   5.742   0.785   2.084
10715SOL    HW133044   5.777   0.752   1.996
10715SOL    HW233045   5.714   0.706   2.140
10716SOL     OW33046   5.175   1.021   3.263
10716SOL    HW133047   5.107   1.019   3.190
10716SOL    HW233048   5.263   0.992   3.227
10717SOL     OW33049   2.382   2.478   6.268
10717SOL    HW133050   2.389   2.543   6.343
10717SOL    HW233051   2.401   2.525   6.182
10718SOL     OW33052   1.782   5.378   5.228
10718SOL    HW133053   1.873   5.394   5.266
10718SOL    HW233054   1.712   5.409   5.293
10719SOL     OW33055   0.052   5.411   4.575
10719SOL    HW133056   0.034   5.499   4.531
10719SOL    HW233057   0.119   5.360   4.521
10720SOL     OW33058   6.731   4.872   3.357
10720SOL    HW133059   6.810   4.847   3.302
10720SOL    HW233060   6.725   4.810   3.436
10721SOL     OW33061   5.262   3.349   5.410
10721SOL    HW133062   5.163   3.338   5.425
10721SOL    HW233063   5.311   3.324   5.493
10722SOL     OW33064   6.631   4.161   5.791
10722SOL    HW133065   6.653   4.130   5.698
10722SOL    HW233066   6.684   4.244   5.812
10723SOL     OW33067   6.081   6.913   0.843
10723SOL    HW133068   6.032   6.970   0.909
10723SOL    HW233069   6.114   6.830   0.889
10724SOL     OW33070   6.491   6.472   0.224
10724SOL    HW133071   6.492   6.548   0.289
10724SOL    HW233072   6.404   6.473   0.174
10725SOL     OW33073   1.800   5.857   5.415
10725SOL    HW133074   1.711   5.822   5.387
10725SOL    HW233075   1.789   5.949   5.454
10726SOL     OW33076   4.992   1.539   4.248
10726SOL    HW133077   4.899   1.546   4.286
10726SOL    HW233078   5.056   1.517   4.321
10727SOL     OW33079   1.988   6.633   5.636
10727SOL    HW133080   1.912   6.568   5.644
10727SOL    HW233081   2.068   6.586   5.597
10728SOL     OW33082   4.989   6.403   0.768
10728SOL    HW133083   4.997   6.474   0.698
10728SOL    HW233084   4.968   6.315   0.724
10729SOL     OW33085   6.594   2.813   1.526
10729SOL    HW133086   6.668   2.880   1.524
10729SOL    HW233087   6.546   2.815   1.437
10730SOL     OW33088   4.441   0.106   2.606
10730SOL    HW133089   4.438   0.150   2.696
10730SOL    HW233090   4.430   0.175   2.535
10731SOL     OW33091   4.684   0.377   1.147
10731SOL    HW133092   4.728   0.326   1.073
10731SOL    HW233093   4.691   0.325   1.232
10732SOL     OW33094   0.592   4.201   5.534
10732SOL    HW133095   0.508   4.188   5.587
10732SOL    HW233096   0.568   4.239   5.445
10733SOL     OW33097   6.534   2.613   6.601
10733SOL    HW133098   6.588   2.539   6.641
10733SOL    HW233099   6.452   2.628   6.657
10734SOL     OW33100   0.113   2.449   1.834
10734SOL    HW133101   0.200   2.418   1.795
10734SOL    HW233102   0.065   2.505   1.767
10735SOL     OW33103   0.062   4.371   2.959
10735SOL    HW133104   7.010   4.337   2.898
10735SOL    HW233105   0.076   4.306   3.033
10736SOL     OW33106   2.490   0.759   3.530
10736SOL    HW133107   2.511   0.853   3.502
10736SOL    HW233108   2.483   0.755   3.630
10737SOL     OW33109   6.779   2.441   1.671
10737SOL    HW133110   6.860   2.443   1.612
10737SOL    HW233111   6.724   2.360   1.650
10738SOL     OW33112   4.218   6.972   3.557
10738SOL    HW133113   4.271   0.022   3.603
10738SOL    HW233114   4.199   7.001   3.463
10739SOL     OW33115   2.003   1.757   1.905
10739SOL    HW133116   2.013   1.841   1.852
10739SOL    HW233117   2.089   1.735   1.951
10740SOL     OW33118   4.876   5.008   3.138
10740SOL    HW133119   4.780   5.035   3.147
10740SOL    HW233120   4.886   4.944   3.061
10741SOL     OW33121   4.081   0.728   3.291
10741SOL    HW133122   4.125   0.707   3.379
10741SOL    HW233123   4.095   0.824   3.269
10742SOL     OW33124   6.841   5.584   0.814
10742SOL    HW133125   6.923   5.608   0.763
10742SOL    HW233126   6.789   5.515   0.762
10743SOL     OW33127   2.470   1.762   5.033
10743SOL    HW133128   2.504   1.721   5.117
10743SOL    HW233129   2.467   1.862   5.043
10744SOL     OW33130   4.614   1.529   0.838
10744SOL    HW133131   4.710   1.506   0.856
10744SOL    HW233132   4.561   1.445   0.831
10745SOL     OW33133   6.736   5.706   5.843
10745SOL    HW133134   6.795   5.694   5.763
10745SOL    HW233135   6.649   5.660   5.828
10746SOL     OW33136   0.576   4.022   5.880
10746SOL    HW133137   0.608   4.060   5.966
10746SOL    HW233138   0.528   4.092   5.827
10747SOL     OW33139   3.092   1.795   4.612
10747SOL    HW133140   3.030   1.726   4.574
10747SOL    HW233141   3.043   1.849   4.680
10748SOL     OW33142   5.085   1.526   2.488
10748SOL    HW133143   5.088   1.626   2.487
10748SOL    HW233144   4.993   1.495   2.464
10749SOL     OW33145   2.166   6.666   6.502
10749SOL    HW133146   2.070   6.640   6.489
10749SOL    HW233147   2.173   6.766   6.506
10750SOL     OW33148   4.084   0.612   6.726
10750SOL    HW133149   3.985   0.600   6.734
10750SOL    HW233150   4.104   0.700   6.684
10751SOL     OW33151   2.323   4.957   3.968
10751SOL    HW133152   2.339   5.038   4.024
10751SOL    HW233153   2.400   4.895   3.976
10752SOL     OW33154   4.598   4.699   3.508
10752SOL    HW133155   4.573   4.795   3.525
10752SOL    HW233156   4.515   4.647   3.487
10753SOL     OW33157   6.431   3.350   4.450
10753SOL    HW133158   6.472   3.417   4.513
10753SOL    HW233159   6.448   3.258   4.484
10754SOL     OW33160   1.714   0.334   2.570
10754SOL    HW133161   1.771   0.414   2.588
10754SOL    HW233162   1.772   0.252   2.565
10755SOL     OW33163   6.788   5.981   2.249
10755SOL    HW133164   6.867   5.947   2.196
10755SOL    HW233165   6.806   5.969   2.346
10756SOL     OW33166   0.255   0.054   4.931
10756SOL    HW133167   0.331   0.101   4.976
10756SOL    HW233168   0.230   6.993   4.984
10757SOL     OW33169   2.661   3.578   1.350
10757SOL    HW133170   2.582   3.633   1.326
10757SOL    HW233171   2.745   3.630   1.335
10758SOL     OW33172   0.516   5.609   4.241
10758SOL    HW133173   0.557   5.524   4.209
10758SOL    HW233174   0.465   5.651   4.166
10759SOL     OW33175   0.228   2.720   6.864
10759SOL    HW133176   0.157   2.655   6.837
10759SOL    HW233177   0.190   2.813   6.864
10760SOL     OW33178   6.205   1.069   3.889
10760SOL    HW133179   6.184   0.977   3.923
10760SOL    HW233180   6.276   1.063   3.819
10761SOL     OW33181   2.734   4.861   5.536
10761SOL    HW133182   2.803   4.814   5.480
10761SOL    HW233183   2.728   4.816   5.625
10762SOL     OW33184   3.656   0.816   4.786
10762SOL    HW133185   3.653   0.911   4.820
10762SOL    HW233186   3.629   0.754   4.860
10763SOL     OW33187   4.277   6.481   3.593
10763SOL    HW133188   4.367   6.464   3.634
10763SOL    HW233189   4.212   6.505   3.666
10764SOL     OW33190   5.693   0.506   4.798
10764SOL    HW133191   5.765   0.546   4.855
10764SOL    HW233192   5.642   0.438   4.850
10765SOL     OW33193   5.336   3.698   1.071
10765SOL    HW133194   5.413   3.711   1.132
10765SOL    HW233195   5.285   3.617   1.098
10766SOL     OW33196   4.133   2.972   1.479
10766SOL    HW133197   4.144   2.873   1.489
10766SOL    HW233198   4.074   2.991   1.400
10767SOL     OW33199   3.705   1.397   2.151
10767SOL    HW133200   3.688   1.311   2.198
10767SOL    HW233201   3.621   1.427   2.105
10768SOL     OW33202   6.441   4.670   0.620
10768SOL    HW133203   6.341   4.672   0.622
10768SOL    HW233204   6.476   4.764   0.625
10769SOL     OW33205   1.698   4.018   5.804
10769SOL    HW133206   1.691   3.919   5.795
10769SOL    HW233207   1.692   4.061   5.714
10770SOL     OW33208   4.304   6.032   3.929
10770SOL    HW133209   4.325   6.007   3.835
10770SOL    HW233210   4.221   6.088   3.932
10771SOL     OW33211   2.584   1.502   3.214
10771SOL    HW133212   2.505   1.562   3.215
10771SOL    HW233213   2.559   1.413   3.253
10772SOL     OW33214   5.576   5.335   3.982
10772SOL    HW133215   5.495   5.328   3.923
10772SOL    HW233216   5.582   5.253   4.039
10773SOL     OW33217   5.302   4.493   3.535
10773SOL    HW133218   5.367   4.433   3.489
10773SOL    HW233219   5.340   4.523   3.623
10774SOL     OW33220   0.999   0.603   3.549
10774SOL    HW133221   0.915   0.558   3.577
10774SOL    HW233222   1.052   0.542   3.491
10775SOL     OW33223   0.541   3.649   2.133
10775SOL    HW133224   0.601   3.709   2.186
10775SOL    HW233225   0.479   3.704   2.078
10776SOL     OW33226   1.441   0.007   6.731
10776SOL    HW133227   1.525   0.010   6.785
10776SOL    HW233228   1.437   0.088   6.673
10777SOL     OW33229   2.630   5.875   1.192
10777SOL    HW133230   2.665   5.969   1.186
10777SOL    HW233231   2.666   5.821   1.115
10778SOL     OW33232   6.119   5.532   3.039
10778SOL    HW133233   6.035   5.541   2.984
10778SOL    HW233234   6.198   5.553   2.981
10779SOL     OW33235   5.345   2.450   3.371
10779SOL    HW133236   5.256   2.461   3.328
10779SOL    HW233237   5.410   2.414   3.304
10780SOL     OW33238   0.249   0.529   2.714
10780SOL    HW133239   0.247   0.547   2.615
10780SOL    HW233240   0.160   0.550   2.753
10781SOL     OW33241   3.641   0.174   4.725
10781SOL    HW133242   3.611   0.209   4.637
10781SOL    HW233243   3.599   0.085   4.742
10782SOL     OW33244   6.410   5.585   4.037
10782SOL    HW133245   6.340   5.540   3.982
10782SOL    HW233246   6.500   5.569   3.995
10783SOL     OW33247   6.949   1.959   3.030
10783SOL    HW133248   6.997   1.893   2.972
10783SOL    HW233249   6.938   1.920   3.122
10784SOL     OW33250   3.062   1.392   4.471
10784SOL    HW133251   3.004   1.472   4.485
10784SOL    HW233252   3.044   1.352   4.381
10785SOL     OW33253   1.016   3.633   6.200
10785SOL    HW133254   1.053   3.687   6.275
10785SOL    HW233255   1.092   3.594   6.147
10786SOL     OW33256   0.735   5.137   3.275
10786SOL    HW133257   0.728   5.228   3.233
10786SOL    HW233258   0.643   5.101   3.292
10787SOL     OW33259   1.577   2.055   6.100
10787SOL    HW133260   1.623   1.966   6.100
10787SOL    HW233261   1.576   2.092   6.007
10788SOL     OW33262   5.647   4.139   6.244
10788SOL    HW133263   5.718   4.149   6.174
10788SOL    HW233264   5.582   4.069   6.215
10789SOL     OW33265   6.173   1.564   0.277
10789SOL    HW133266   6.124   1.636   0.227
10789SOL    HW233267   6.148   1.475   0.240
10790SOL     OW33268   0.121   6.109   3.065
10790SOL    HW133269   0.071   6.023   3.076
10790SOL    HW233270   0.072   6.168   3.001
10791SOL     OW33271   0.752   6.501   3.036
10791SOL    HW133272   0.821   6.538   2.974
10791SOL    HW233273   0.663   6.543   3.017
10792SOL     OW33274   3.963   4.200   5.157
10792SOL    HW133275   4.014   4.273   5.112
10792SOL    HW233276   3.895   4.240   5.218
10793SOL     OW33277   5.755   3.343   4.434
10793SOL    HW133278   5.727   3.283   4.509
10793SOL    HW233279   5.725   3.304   4.347
10794SOL     OW33280   2.898   3.748   3.642
10794SOL    HW133281   2.940   3.784   3.725
10794SOL    HW233282   2.819   3.691   3.667
10795SOL     OW33283   0.326   4.335   3.575
10795SOL    HW133284   0.354   4.270   3.646
10795SOL    HW233285   0.406   4.375   3.532
10796SOL     OW33286   1.899   6.137   4.994
10796SOL    HW133287   1.922   6.040   5.003
10796SOL    HW233288   1.800   6.148   5.000
10797SOL     OW33289   3.725   2.775   0.509
10797SOL    HW133290   3.777   2.782   0.594
10797SOL    HW233291   3.695   2.866   0.481
10798SOL     OW33292   6.846   1.679   0.532
10798SOL    HW133293   6.772   1.726   0.580
10798SOL    HW233294   6.904   1.632   0.597
10799SOL     OW33295   4.027   1.547   1.649
10799SOL    HW133296   4.020   1.492   1.566
10799SOL    HW233297   3.971   1.505   1.721
10800SOL     OW33298   1.422   0.083   1.511
10800SOL    HW133299   1.433   0.182   1.496
10800SOL    HW233300   1.402   0.038   1.424
10801SOL     OW33301   1.490   0.603   1.293
10801SOL    HW133302   1.473   0.677   1.226
10801SOL    HW233303   1.409   0.544   1.297
10802SOL     OW33304   6.761   0.358   3.242
10802SOL    HW133305   6.780   0.264   3.269
10802SOL    HW233306   6.712   0.405   3.316
10803SOL     OW33307   2.220   5.206   6.512
10803SOL    HW133308   2.314   5.171   6.504
10803SOL    HW233309   2.212   5.262   6.593
10804SOL     OW33310   7.013   3.539   4.294
10804SOL    HW133311   0.020   3.483   4.216
10804SOL    HW233312   6.974   3.625   4.262
10805SOL     OW33313   6.586   1.488   5.806
10805SOL    HW133314   6.645   1.435   5.746
10805SOL    HW233315   6.641   1.534   5.876
10806SOL     OW33316   1.925   4.755   6.864
10806SOL    HW133317   1.936   4.655   6.869
10806SOL    HW233318   1.830   4.779   6.886
10807SOL     OW33319   2.904   6.657   4.776
10807SOL    HW133320   2.850   6.591   4.724
10807SOL    HW233321   2.998   6.624   4.784
10808SOL     OW33322   0.495   3.244   6.152
10808SOL    HW133323   0.588   3.235   6.117
10808SOL    HW233324   0.441   3.300   6.089
10809SOL     OW33325   2.282   0.153   4.205
10809SOL    HW133326   2.326   0.193   4.285
10809SOL    HW233327   2.195   0.199   4.187
10810SOL     OW33328   6.971   7.015   4.463
10810SOL    HW133329   7.003   0.029   4.551
10810SOL    HW233330   6.871   7.014   4.462
10811SOL     OW33331   5.308   5.001   4.850
10811SOL    HW133332   5.299   5.079   4.912
10811SOL    HW233333   5.372   4.935   4.890
10812SOL     OW33334   6.152   2.594   0.473
10812SOL    HW133335   6.249   2.574   0.487
10812SOL    HW233336   6.114   2.530   0.407
10813SOL     OW33337   0.169   4.155   5.860
10813SOL    HW133338   0.146   4.111   5.947
10813SOL    HW233339   0.140   4.251   5.862
10814SOL     OW33340   2.955   0.972   1.244
10814SOL    HW133341   2.960   0.990   1.343
10814SOL    HW233342   3.043   0.938   1.212
10815SOL     OW33343   5.311   1.248   4.766
10815SOL    HW133344   5.406   1.218   4.765
10815SOL    HW233345   5.257   1.186   4.823
10816SOL     OW33346   4.118   3.507   4.526
10816SOL    HW133347   4.039   3.538   4.579
10816SOL    HW233348   4.191   3.575   4.532
10817SOL     OW33349   2.450   6.308   3.714
10817SOL    HW133350   2.400   6.234   3.669
10817SOL    HW233351   2.454   6.387   3.653
10818SOL     OW33352   3.707   4.590   6.858
10818SOL    HW133353   3.801   4.558   6.857
10818SOL    HW233354   3.681   4.619   6.766
10819SOL     OW33355   6.526   6.728   5.361
10819SOL    HW133356   6.625   6.725   5.346
10819SOL    HW233357   6.487   6.807   5.312
10820SOL     OW33358   2.122   4.228   6.347
10820SOL    HW133359   2.047   4.206   6.284
10820SOL    HW233360   2.196   4.272   6.296
10821SOL     OW33361   4.922   5.734   3.074
10821SOL    HW133362   4.924   5.638   3.044
10821SOL    HW233363   4.826   5.763   3.084
10822SOL     OW33364   5.053   1.318   2.290
10822SOL    HW133365   5.034   1.231   2.334
10822SOL    HW233366   5.112   1.374   2.349
10823SOL     OW33367   5.037   6.850   1.497
10823SOL    HW133368   5.089   6.768   1.475
10823SOL    HW233369   5.030   6.860   1.596
10824SOL     OW33370   0.942   2.593   3.461
10824SOL    HW133371   1.010   2.551   3.521
10824SOL    HW233372   0.881   2.649   3.517
10825SOL     OW33373   0.732   2.103   0.471
10825SOL    HW133374   0.711   2.033   0.402
10825SOL    HW233375   0.787   2.175   0.430
10826SOL     OW33376   0.542   3.351   2.906
10826SOL    HW133377   0.541   3.262   2.953
10826SOL    HW233378   0.507   3.341   2.813
10827SOL     OW33379   6.512   4.035   4.618
10827SOL    HW133380   6.510   4.043   4.518
10827SOL    HW233381   6.466   3.951   4.646
10828SOL     OW33382   6.279   4.376   5.220
10828SOL    HW133383   6.189   4.400   5.257
10828SOL    HW233384   6.348   4.438   5.257
10829SOL     OW33385   3.692   2.914   4.954
10829SOL    HW133386   3.680   3.013   4.964
10829SOL    HW233387   3.643   2.867   5.028
10830SOL     OW33388   4.043   2.248   3.428
10830SOL    HW133389   3.945   2.231   3.423
10830SOL    HW233390   4.065   2.293   3.515
10831SOL     OW33391   4.217   0.268   3.696
10831SOL    HW133392   4.174   0.317   3.620
10831SOL    HW233393   4.181   0.305   3.783
10832SOL     OW33394   6.687   3.632   0.400
10832SOL    HW133395   6.613   3.687   0.438
10832SOL    HW233396   6.651   3.572   0.328
10833SOL     OW33397   0.431   1.185   6.359
10833SOL    HW133398   0.425   1.154   6.454
10833SOL    HW233399   0.420   1.284   6.357
10834SOL     OW33400   6.596   6.392   1.268
10834SOL    HW133401   6.637   6.471   1.315
10834SOL    HW233402   6.497   6.395   1.278
10835SOL     OW33403   0.207   2.200   5.430
10835SOL    HW133404   0.206   2.273   5.499
10835SOL    HW233405   0.189   2.112   5.475
10836SOL     OW33406   7.002   1.004   3.993
10836SOL    HW133407   0.017   1.087   3.949
10836SOL    HW233408   6.902   1.004   3.988
10837SOL     OW33409   0.674   3.123   2.684
10837SOL    HW133410   0.676   3.213   2.639
10837SOL    HW233411   0.612   3.127   2.762
10838SOL     OW33412   0.514   5.832   2.023
10838SOL    HW133413   0.505   5.758   1.957
10838SOL    HW233414   0.545   5.915   1.977
10839SOL     OW33415   5.039   2.543   0.759
10839SOL    HW133416   4.985   2.486   0.819
10839SOL    HW233417   5.134   2.546   0.791
10840SOL     OW33418   2.481   0.208   1.721
10840SOL    HW133419   2.475   0.180   1.626
10840SOL    HW233420   2.429   0.145   1.778
10841SOL     OW33421   2.115   5.093   4.601
10841SOL    HW133422   2.130   5.012   4.658
10841SOL    HW233423   2.157   5.172   4.646
10842SOL     OW33424   5.302   4.260   1.470
10842SOL    HW133425   5.298   4.161   1.488
10842SOL    HW233426   5.214   4.301   1.492
10843SOL     OW33427   2.413   2.164   1.289
10843SOL    HW133428   2.477   2.209   1.228
10843SOL    HW233429   2.408   2.215   1.375
10844SOL     OW33430   1.382   5.089   4.995
10844SOL    HW133431   1.288   5.121   5.006
10844SOL    HW233432   1.386   5.021   4.922
10845SOL     OW33433   3.876   0.427   4.947
10845SOL    HW133434   3.930   0.407   4.865
10845SOL    HW233435   3.924   0.390   5.027
10846SOL     OW33436   5.223   0.148   6.739
10846SOL    HW133437   5.300   0.104   6.692
10846SOL    HW233438   5.214   0.110   6.831
10847SOL     OW33439   3.003   0.655   6.541
10847SOL    HW133440   3.096   0.630   6.515
10847SOL    HW233441   2.946   0.658   6.459
10848SOL     OW33442   1.823   4.945   2.184
10848SOL    HW133443   1.922   4.933   2.190
10848SOL    HW233444   1.792   4.919   2.092
10849SOL     OW33445   2.512   6.700   3.448
10849SOL    HW133446   2.542   6.661   3.535
10849SOL    HW233447   2.527   6.633   3.375
10850SOL     OW33448   3.674   5.055   0.783
10850SOL    HW133449   3.576   5.070   0.795
10850SOL    HW233450   3.690   5.003   0.700
10851SOL     OW33451   1.727   4.509   0.402
10851SOL    HW133452   1.698   4.500   0.307
10851SOL    HW233453   1.808   4.454   0.417
10852SOL     OW33454   2.360   1.578   2.423
10852SOL    HW133455   2.382   1.493   2.470
10852SOL    HW233456   2.435   1.604   2.363
10853SOL     OW33457   3.296   1.454   6.293
10853SOL    HW133458   3.332   1.389   6.226
10853SOL    HW233459   3.201   1.432   6.313
10854SOL     OW33460   2.970   6.875   4.915
10854SOL    HW133461   2.946   6.803   4.849
10854SOL    HW233462   2.905   6.871   4.992
10855SOL     OW33463   3.935   1.438   0.060
10855SOL    HW133464   4.023   1.479   0.082
10855SOL    HW233465   3.866   1.509   0.049
10856SOL     OW33466   0.235   1.050   0.518
10856SOL    HW133467   0.268   1.105   0.594
10856SOL    HW233468   0.159   1.097   0.473
10857SOL     OW33469   6.584   2.201   2.326
10857SOL    HW133470   6.505   2.168   2.379
10857SOL    HW233471   6.588   2.152   2.239
10858SOL     OW33472   2.649   6.257   1.933
10858SOL    HW133473   2.660   6.227   2.027
10858SOL    HW233474   2.705   6.200   1.873
10859SOL     OW33475   1.773   5.414   3.533
10859SOL    HW133476   1.774   5.473   3.613
10859SOL    HW233477   1.844   5.444   3.469
10860SOL     OW33478   6.944   3.328   3.217
10860SOL    HW133479   6.918   3.333   3.314
10860SOL    HW233480   7.007   3.252   3.203
10861SOL     OW33481   3.888   3.029   4.797
10861SOL    HW133482   3.836   3.074   4.724
10861SOL    HW233483   3.826   2.970   4.850
10862SOL     OW33484   0.775   0.416   4.611
10862SOL    HW133485   0.815   0.494   4.661
10862SOL    HW233486   0.838   0.339   4.615
10863SOL     OW33487   2.831   6.041   4.609
10863SOL    HW133488   2.814   6.130   4.650
10863SOL    HW233489   2.919   6.006   4.642
10864SOL     OW33490   3.680   5.994   3.590
10864SOL    HW133491   3.718   6.005   3.498
10864SOL    HW233492   3.606   6.059   3.603
10865SOL     OW33493   6.262   1.866   5.939
10865SOL    HW133494   6.324   1.894   5.866
10865SOL    HW233495   6.225   1.775   5.918
10866SOL     OW33496   4.897   5.056   1.037
10866SOL    HW133497   4.976   5.104   1.076
10866SOL    HW233498   4.881   4.972   1.087
10867SOL     OW33499   2.943   2.089   0.032
10867SOL    HW133500   2.971   2.001   0.070
10867SOL    HW233501   3.023   2.136   7.015
10868SOL     OW33502   2.523   2.062   2.774
10868SOL    HW133503   2.480   2.151   2.757
10868SOL    HW233504   2.583   2.068   2.853
10869NA      NA33505   6.307   2.555   5.929
10870NA      NA33506   4.478   4.519   5.205
10871NA      NA33507   2.276   3.500   1.637
10872NA      NA33508   4.928   3.690   5.152
10873NA      NA33509   4.362   2.445   5.199
10874NA      NA33510   3.801   4.690   1.668
10875NA      NA33511   6.498   5.929   4.568
10876NA      NA33512   3.731   3.836   5.191
10877NA      NA33513   4.531   0.137   6.911
10878NA      NA33514   3.393   0.441   4.977
10879NA      NA33515   0.113   5.028   2.708
10880NA      NA33516   2.864   0.693   2.665
10881NA      NA33517   3.756   4.167   1.348
10882NA      NA33518   3.971   3.447   3.032
   7.02056   7.02056   7.02056
