Generated by trjconv : CNT in water t=  41.00000
33518
    1C        C    1   2.842   2.770   4.745
    1C        C    2   2.895   2.717   4.864
    1C        C    3   2.844   2.771   4.983
    1C        C    4   2.849   2.772   4.260
    1C        C    5   2.899   2.723   4.383
    1C        C    6   2.846   2.773   4.504
    1C        C    7   3.007   2.634   4.624
    1C        C    8   2.891   2.715   4.624
    1C        C    9   3.071   2.598   4.745
    1C        C   10   3.009   2.634   4.867
    1C        C   11   3.180   2.488   4.977
    1C        C   12   3.061   2.561   4.975
    1C        C   13   2.845   2.765   3.773
    1C        C   14   2.896   2.717   3.895
    1C        C   15   2.844   2.769   4.015
    1C        C   16   3.015   2.644   4.134
    1C        C   17   2.897   2.722   4.137
    1C        C   18   3.078   2.616   4.257
    1C        C   19   3.017   2.645   4.381
    1C        C   20   3.203   2.549   4.503
    1C        C   21   3.072   2.600   4.503
    1C        C   22   3.274   2.533   4.624
    1C        C   23   3.204   2.547   4.746
    1C        C   24   3.408   2.475   4.863
    1C        C   25   3.266   2.494   4.862
    1C        C   26   3.482   2.468   4.982
    1C        C   27   2.848   2.766   3.283
    1C        C   28   2.904   2.723   3.405
    1C        C   29   2.850   2.770   3.527
    1C        C   30   3.018   2.645   3.651
    1C        C   31   2.898   2.720   3.650
    1C        C   32   3.078   2.605   3.772
    1C        C   33   3.013   2.637   3.894
    1C        C   34   3.207   2.547   4.016
    1C        C   35   3.077   2.603   4.014
    1C        C   36   3.274   2.527   4.139
    1C        C   37   3.207   2.558   4.259
    1C        C   38   3.414   2.515   4.380
    1C        C   39   3.274   2.534   4.382
    1C        C   40   3.482   2.501   4.503
    1C        C   41   3.412   2.502   4.625
    1C        C   42   3.627   2.478   4.742
    1C        C   43   3.485   2.481   4.744
    1C        C   44   3.700   2.481   4.864
    1C        C   45   3.621   2.472   4.979
    1C        C   46   2.837   2.751   2.792
    1C        C   47   2.897   2.711   2.913
    1C        C   48   2.851   2.765   3.036
    1C        C   49   3.013   2.635   3.161
    1C        C   50   2.899   2.718   3.160
    1C        C   51   3.076   2.604   3.283
    1C        C   52   3.017   2.639   3.407
    1C        C   53   3.208   2.548   3.525
    1C        C   54   3.078   2.605   3.530
    1C        C   55   3.277   2.531   3.647
    1C        C   56   3.207   2.548   3.769
    1C        C   57   3.412   2.501   3.892
    1C        C   58   3.272   2.525   3.892
    1C        C   59   3.484   2.500   4.013
    1C        C   60   3.413   2.505   4.135
    1C        C   61   3.625   2.500   4.259
    1C        C   62   3.483   2.500   4.258
    1C        C   63   3.696   2.504   4.380
    1C        C   64   3.624   2.502   4.501
    1C        C   65   3.833   2.538   4.622
    1C        C   66   3.697   2.500   4.622
    1C        C   67   3.897   2.568   4.744
    1C        C   68   3.832   2.530   4.864
    1C        C   69   4.052   2.578   4.973
    1C        C   70   3.918   2.537   4.974
    1C        C   71   2.825   2.733   2.309
    1C        C   72   2.879   2.685   2.431
    1C        C   73   2.831   2.742   2.551
    1C        C   74   3.006   2.618   2.673
    1C        C   75   2.892   2.701   2.672
    1C        C   76   3.071   2.587   2.795
    1C        C   77   3.012   2.629   2.917
    1C        C   78   3.207   2.546   3.035
    1C        C   79   3.077   2.602   3.039
    1C        C   80   3.274   2.531   3.158
    1C        C   81   3.208   2.554   3.281
    1C        C   82   3.414   2.500   3.400
    1C        C   83   3.275   2.528   3.403
    1C        C   84   3.483   2.491   3.522
    1C        C   85   3.415   2.502   3.646
    1C        C   86   3.624   2.497   3.766
    1C        C   87   3.483   2.497   3.770
    1C        C   88   3.692   2.507   3.890
    1C        C   89   3.625   2.501   4.014
    1C        C   90   3.832   2.545   4.135
    1C        C   91   3.696   2.508   4.137
    1C        C   92   3.902   2.563   4.256
    1C        C   93   3.833   2.538   4.377
    1C        C   94   4.021   2.634   4.500
    1C        C   95   3.899   2.564   4.500
    1C        C   96   4.088   2.671   4.619
    1C        C   97   4.026   2.628   4.739
    1C        C   98   4.188   2.763   4.859
    1C        C   99   4.096   2.653   4.860
    1C        C  100   4.212   2.838   4.976
    1C        C  101   2.824   2.731   2.071
    1C        C  102   2.991   2.592   2.187
    1C        C  103   2.877   2.678   2.189
    1C        C  104   3.061   2.571   2.309
    1C        C  105   3.000   2.613   2.429
    1C        C  106   3.196   2.529   2.547
    1C        C  107   3.063   2.578   2.550
    1C        C  108   3.266   2.516   2.668
    1C        C  109   3.199   2.529   2.792
    1C        C  110   3.410   2.489   2.912
    1C        C  111   3.270   2.512   2.913
    1C        C  112   3.481   2.490   3.034
    1C        C  113   3.412   2.503   3.157
    1C        C  114   3.626   2.496   3.276
    1C        C  115   3.485   2.491   3.278
    1C        C  116   3.693   2.511   3.399
    1C        C  117   3.624   2.502   3.523
    1C        C  118   3.831   2.547   3.644
    1C        C  119   3.695   2.510   3.645
    1C        C  120   3.894   2.569   3.769
    1C        C  121   3.828   2.544   3.892
    1C        C  122   4.021   2.639   4.013
    1C        C  123   3.897   2.572   4.012
    1C        C  124   4.087   2.669   4.135
    1C        C  125   4.026   2.629   4.256
    1C        C  126   4.193   2.760   4.375
    1C        C  127   4.085   2.669   4.378
    1C        C  128   4.242   2.815   4.496
    1C        C  129   4.192   2.766   4.619
    1C        C  130   4.321   2.937   4.735
    1C        C  131   4.242   2.819   4.740
    1C        C  132   4.351   3.000   4.858
    1C        C  133   4.280   2.959   4.971
    1C        C  134   3.169   2.462   2.076
    1C        C  135   3.035   2.500   2.086
    1C        C  136   3.255   2.471   2.187
    1C        C  137   3.192   2.516   2.305
    1C        C  138   3.402   2.476   2.426
    1C        C  139   3.263   2.498   2.426
    1C        C  140   3.476   2.480   2.546
    1C        C  141   3.405   2.488   2.668
    1C        C  142   3.619   2.495   2.787
    1C        C  143   3.478   2.487   2.789
    1C        C  144   3.693   2.498   2.908
    1C        C  145   3.622   2.488   3.030
    1C        C  146   3.831   2.531   3.153
    1C        C  147   3.693   2.501   3.152
    1C        C  148   3.898   2.558   3.275
    1C        C  149   3.831   2.541   3.398
    1C        C  150   4.026   2.623   3.517
    1C        C  151   3.898   2.562   3.521
    1C        C  152   4.080   2.664   3.641
    1C        C  153   4.019   2.634   3.765
    1C        C  154   4.190   2.758   3.887
    1C        C  155   4.078   2.672   3.888
    1C        C  156   4.243   2.809   4.008
    1C        C  157   4.196   2.759   4.131
    1C        C  158   4.341   2.913   4.251
    1C        C  159   4.247   2.808   4.254
    1C        C  160   4.374   2.980   4.371
    1C        C  161   4.331   2.924   4.493
    1C        C  162   4.435   3.114   4.613
    1C        C  163   4.369   2.989   4.613
    1C        C  164   4.464   3.182   4.733
    1C        C  165   4.430   3.118   4.854
    1C        C  166   4.516   3.317   4.969
    1C        C  167   4.469   3.186   4.970
    1C        C  168   3.470   2.434   2.069
    1C        C  169   3.396   2.458   2.185
    1C        C  170   3.614   2.461   2.304
    1C        C  171   3.472   2.460   2.304
    1C        C  172   3.687   2.484   2.423
    1C        C  173   3.617   2.486   2.545
    1C        C  174   3.826   2.540   2.661
    1C        C  175   3.689   2.507   2.665
    1C        C  176   3.890   2.565   2.785
    1C        C  177   3.828   2.538   2.909
    1C        C  178   4.022   2.622   3.030
    1C        C  179   3.897   2.556   3.031
    1C        C  180   4.086   2.659   3.151
    1C        C  181   4.025   2.619   3.272
    1C        C  182   4.195   2.747   3.398
    1C        C  183   4.085   2.659   3.394
    1C        C  184   4.244   2.797   3.521
    1C        C  185   4.193   2.748   3.643
    1C        C  186   4.335   2.909   3.762
    1C        C  187   4.246   2.800   3.764
    1C        C  188   4.377   2.971   3.883
    1C        C  189   4.336   2.916   4.006
    1C        C  190   4.442   3.098   4.124
    1C        C  191   4.381   2.971   4.128
    1C        C  192   4.466   3.169   4.244
    1C        C  193   4.437   3.106   4.367
    1C        C  194   4.503   3.310   4.489
    1C        C  195   4.458   3.176   4.488
    1C        C  196   4.521   3.383   4.608
    1C        C  197   4.513   3.316   4.732
    1C        C  198   4.556   3.532   4.848
    1C        C  199   4.530   3.391   4.851
    1C        C  200   4.581   3.616   4.961
    1C        C  201   3.610   2.425   2.068
    1C        C  202   3.825   2.503   2.182
    1C        C  203   3.688   2.460   2.183
    1C        C  204   3.896   2.535   2.300
    1C        C  205   3.825   2.516   2.421
    1C        C  206   4.023   2.611   2.540
    1C        C  207   3.895   2.552   2.538
    1C        C  208   4.082   2.653   2.661
    1C        C  209   4.016   2.629   2.784
    1C        C  210   4.188   2.750   2.905
    1C        C  211   4.078   2.662   2.907
    1C        C  212   4.245   2.795   3.026
    1C        C  213   4.196   2.748   3.150
    1C        C  214   4.333   2.904   3.270
    1C        C  215   4.245   2.794   3.274
    1C        C  216   4.365   2.967   3.393
    1C        C  217   4.331   2.908   3.517
    1C        C  218   4.432   3.095   3.635
    1C        C  219   4.372   2.967   3.639
    1C        C  220   4.458   3.163   3.756
    1C        C  221   4.436   3.099   3.880
    1C        C  222   4.505   3.299   3.998
    1C        C  223   4.469   3.163   4.002
    1C        C  224   4.509   3.372   4.119
    1C        C  225   4.499   3.307   4.244
    1C        C  226   4.513   3.519   4.364
    1C        C  227   4.513   3.378   4.365
    1C        C  228   4.507   3.592   4.485
    1C        C  229   4.519   3.525   4.608
    1C        C  230   4.501   3.739   4.727
    1C        C  231   4.534   3.601   4.726
    1C        C  232   4.496   3.816   4.845
    1C        C  233   4.554   3.754   4.957
    1C        C  234   4.009   2.619   2.059
    1C        C  235   3.896   2.538   2.066
    1C        C  236   4.079   2.652   2.176
    1C        C  237   4.017   2.609   2.295
    1C        C  238   4.196   2.728   2.418
    1C        C  239   4.080   2.646   2.416
    1C        C  240   4.253   2.775   2.539
    1C        C  241   4.194   2.738   2.662
    1C        C  242   4.332   2.903   2.780
    1C        C  243   4.244   2.793   2.782
    1C        C  244   4.373   2.962   2.902
    1C        C  245   4.336   2.903   3.025
    1C        C  246   4.437   3.088   3.147
    1C        C  247   4.375   2.961   3.148
    1C        C  248   4.458   3.156   3.269
    1C        C  249   4.427   3.094   3.391
    1C        C  250   4.488   3.299   3.512
    1C        C  251   4.452   3.162   3.512
    1C        C  252   4.500   3.370   3.633
    1C        C  253   4.489   3.301   3.756
    1C        C  254   4.519   3.513   3.875
    1C        C  255   4.511   3.372   3.877
    1C        C  256   4.514   3.584   3.997
    1C        C  257   4.513   3.513   4.119
    1C        C  258   4.484   3.727   4.241
    1C        C  259   4.506   3.587   4.240
    1C        C  260   4.464   3.798   4.361
    1C        C  261   4.489   3.732   4.484
    1C        C  262   4.429   3.938   4.600
    1C        C  263   4.478   3.805   4.604
    1C        C  264   4.398   4.006   4.720
    1C        C  265   4.430   3.941   4.841
    1C        C  266   4.316   4.125   4.957
    1C        C  267   4.394   4.009   4.957
    1C        C  268   4.263   2.770   2.059
    1C        C  269   4.198   2.729   2.176
    1C        C  270   4.340   2.888   2.297
    1C        C  271   4.249   2.779   2.297
    1C        C  272   4.383   2.948   2.417
    1C        C  273   4.340   2.886   2.537
    1C        C  274   4.441   3.079   2.658
    1C        C  275   4.372   2.955   2.655
    1C        C  276   4.471   3.145   2.779
    1C        C  277   4.447   3.082   2.903
    1C        C  278   4.500   3.290   3.020
    1C        C  279   4.467   3.152   3.024
    1C        C  280   4.502   3.362   3.141
    1C        C  281   4.488   3.295   3.265
    1C        C  282   4.513   3.504   3.386
    1C        C  283   4.504   3.363   3.387
    1C        C  284   4.511   3.578   3.506
    1C        C  285   4.511   3.511   3.631
    1C        C  286   4.492   3.722   3.751
    1C        C  287   4.517   3.583   3.752
    1C        C  288   4.474   3.789   3.874
    1C        C  289   4.487   3.723   3.998
    1C        C  290   4.428   3.929   4.112
    1C        C  291   4.473   3.795   4.118
    1C        C  292   4.401   3.996   4.234
    1C        C  293   4.424   3.934   4.358
    1C        C  294   4.325   4.124   4.476
    1C        C  295   4.395   4.002   4.479
    1C        C  296   4.285   4.186   4.597
    1C        C  297   4.329   4.131   4.720
    1C        C  298   4.202   4.311   4.836
    1C        C  299   4.282   4.193   4.839
    1C        C  300   4.172   4.401   4.943
    1C        C  301   4.349   2.879   2.058
    1C        C  302   4.468   3.063   2.173
    1C        C  303   4.389   2.944   2.175
    1C        C  304   4.483   3.136   2.294
    1C        C  305   4.453   3.071   2.416
    1C        C  306   4.500   3.282   2.535
    1C        C  307   4.473   3.143   2.536
    1C        C  308   4.504   3.357   2.655
    1C        C  309   4.495   3.284   2.775
    1C        C  310   4.523   3.497   2.894
    1C        C  311   4.509   3.356   2.896
    1C        C  312   4.517   3.568   3.016
    1C        C  313   4.513   3.503   3.142
    1C        C  314   4.481   3.712   3.260
    1C        C  315   4.513   3.575   3.263
    1C        C  316   4.464   3.782   3.382
    1C        C  317   4.487   3.718   3.506
    1C        C  318   4.419   3.920   3.626
    1C        C  319   4.471   3.788   3.628
    1C        C  320   4.393   3.986   3.749
    1C        C  321   4.421   3.920   3.871
    1C        C  322   4.317   4.110   3.988
    1C        C  323   4.389   3.989   3.990
    1C        C  324   4.277   4.169   4.110
    1C        C  325   4.324   4.114   4.232
    1C        C  326   4.185   4.277   4.350
    1C        C  327   4.284   4.177   4.352
    1C        C  328   4.127   4.324   4.470
    1C        C  329   4.184   4.284   4.593
    1C        C  330   4.028   4.433   4.709
    1C        C  331   4.141   4.347   4.712
    1C        C  332   3.967   4.483   4.826
    1C        C  333   4.052   4.474   4.937
    1C        C  334   4.550   3.263   2.062
    1C        C  335   4.531   3.124   2.060
    1C        C  336   4.532   3.346   2.174
    1C        C  337   4.515   3.274   2.295
    1C        C  338   4.520   3.492   2.408
    1C        C  339   4.516   3.351   2.413
    1C        C  340   4.514   3.566   2.528
    1C        C  341   4.511   3.498   2.651
    1C        C  342   4.490   3.708   2.772
    1C        C  343   4.512   3.569   2.773
    1C        C  344   4.475   3.779   2.894
    1C        C  345   4.481   3.705   3.014
    1C        C  346   4.416   3.908   3.134
    1C        C  347   4.457   3.773   3.135
    1C        C  348   4.387   3.977   3.254
    1C        C  349   4.417   3.915   3.377
    1C        C  350   4.316   4.098   3.500
    1C        C  351   4.388   3.976   3.501
    1C        C  352   4.275   4.161   3.620
    1C        C  353   4.321   4.107   3.742
    1C        C  354   4.178   4.265   3.864
    1C        C  355   4.273   4.161   3.864
    1C        C  356   4.123   4.316   3.984
    1C        C  357   4.177   4.269   4.106
    1C        C  358   4.009   4.397   4.228
    1C        C  359   4.128   4.320   4.228
    1C        C  360   3.950   4.444   4.347
    1C        C  361   4.015   4.411   4.468
    1C        C  362   3.830   4.516   4.590
    1C        C  363   3.958   4.457   4.589
    1C        C  364   3.760   4.543   4.710
    1C        C  365   3.836   4.536   4.828
    1C        C  366   3.628   4.594   4.945
    1C        C  367   3.765   4.573   4.943
    1C        C  368   4.501   3.561   2.049
    1C        C  369   4.518   3.486   2.166
    1C        C  370   4.499   3.703   2.281
    1C        C  371   4.513   3.562   2.285
    1C        C  372   4.484   3.774   2.402
    1C        C  373   4.491   3.706   2.526
    1C        C  374   4.422   3.906   2.645
    1C        C  375   4.468   3.772   2.648
    1C        C  376   4.395   3.972   2.767
    1C        C  377   4.426   3.911   2.891
    1C        C  378   4.318   4.096   3.010
    1C        C  379   4.393   3.976   3.012
    1C        C  380   4.274   4.156   3.131
    1C        C  381   4.309   4.095   3.254
    1C        C  382   4.174   4.255   3.377
    1C        C  383   4.270   4.151   3.378
    1C        C  384   4.117   4.299   3.498
    1C        C  385   4.175   4.260   3.621
    1C        C  386   4.002   4.386   3.740
    1C        C  387   4.118   4.305   3.742
    1C        C  388   3.941   4.425   3.861
    1C        C  389   4.004   4.392   3.984
    1C        C  390   3.814   4.481   4.106
    1C        C  391   3.945   4.430   4.106
    1C        C  392   3.746   4.509   4.227
    1C        C  393   3.820   4.499   4.347
    1C        C  394   3.616   4.546   4.471
    1C        C  395   3.756   4.528   4.470
    1C        C  396   3.542   4.557   4.591
    1C        C  397   3.619   4.557   4.710
    1C        C  398   3.409   4.558   4.833
    1C        C  399   3.549   4.576   4.831
    1C        C  400   3.339   4.516   4.946
    1C        C  401   4.494   3.700   2.046
    1C        C  402   4.453   3.915   2.163
    1C        C  403   4.483   3.777   2.162
    1C        C  404   4.407   3.974   2.283
    1C        C  405   4.437   3.907   2.404
    1C        C  406   4.319   4.090   2.521
    1C        C  407   4.398   3.972   2.523
    1C        C  408   4.273   4.144   2.643
    1C        C  409   4.313   4.087   2.766
    1C        C  410   4.170   4.245   2.885
    1C        C  411   4.271   4.146   2.887
    1C        C  412   4.121   4.297   3.006
    1C        C  413   4.173   4.254   3.131
    1C        C  414   4.002   4.376   3.253
    1C        C  415   4.122   4.301   3.254
    1C        C  416   3.935   4.409   3.373
    1C        C  417   3.995   4.372   3.496
    1C        C  418   3.811   4.476   3.617
    1C        C  419   3.939   4.416   3.617
    1C        C  420   3.744   4.504   3.738
    1C        C  421   3.811   4.479   3.860
    1C        C  422   3.608   4.529   3.984
    1C        C  423   3.748   4.505   3.984
    1C        C  424   3.538   4.538   4.106
    1C        C  425   3.609   4.542   4.228
    1C        C  426   3.401   4.552   4.354
    1C        C  427   3.542   4.552   4.352
    1C        C  428   3.326   4.547   4.474
    1C        C  429   3.401   4.555   4.593
    1C        C  430   3.192   4.516   4.719
    1C        C  431   3.330   4.548   4.716
    1C        C  432   3.121   4.497   4.840
    1C        C  433   3.202   4.493   4.955
    1C        C  434   4.384   4.124   2.047
    1C        C  435   4.448   3.999   2.051
    1C        C  436   4.303   4.161   2.159
    1C        C  437   4.331   4.094   2.281
    1C        C  438   4.178   4.247   2.403
    1C        C  439   4.281   4.150   2.400
    1C        C  440   4.120   4.295   2.522
    1C        C  441   4.174   4.246   2.643
    1C        C  442   4.002   4.376   2.765
    1C        C  443   4.118   4.295   2.763
    1C        C  444   3.938   4.407   2.887
    1C        C  445   4.001   4.372   3.008
    1C        C  446   3.808   4.459   3.128
    1C        C  447   3.938   4.405   3.131
    1C        C  448   3.740   4.484   3.250
    1C        C  449   3.808   4.470   3.373
    1C        C  450   3.604   4.524   3.496
    1C        C  451   3.743   4.498   3.495
    1C        C  452   3.535   4.542   3.618
    1C        C  453   3.607   4.539   3.739
    1C        C  454   3.397   4.541   3.862
    1C        C  455   3.538   4.545   3.862
    1C        C  456   3.329   4.536   3.986
    1C        C  457   3.397   4.542   4.110
    1C        C  458   3.193   4.497   4.233
    1C        C  459   3.329   4.534   4.234
    1C        C  460   3.122   4.483   4.354
    1C        C  461   3.189   4.514   4.475
    1C        C  462   2.996   4.429   4.602
    1C        C  463   3.125   4.487   4.598
    1C        C  464   2.932   4.396   4.724
    1C        C  465   2.989   4.442   4.846
    1C        C  466   2.801   4.333   4.960
    1C        C  467   2.903   4.429   4.960
    1C        C  468   4.127   4.288   2.040
    1C        C  469   4.184   4.241   2.159
    1C        C  470   4.006   4.367   2.275
    1C        C  471   4.126   4.291   2.279
    1C        C  472   3.939   4.399   2.396
    1C        C  473   4.002   4.373   2.519
    1C        C  474   3.814   4.468   2.640
    1C        C  475   3.943   4.411   2.642
    1C        C  476   3.744   4.490   2.761
    1C        C  477   3.808   4.461   2.883
    1C        C  478   3.604   4.513   3.005
    1C        C  479   3.743   4.488   3.006
    1C        C  480   3.534   4.524   3.127
    1C        C  481   3.602   4.516   3.250
    1C        C  482   3.392   4.534   3.377
    1C        C  483   3.534   4.529   3.373
    1C        C  484   3.320   4.533   3.498
    1C        C  485   3.394   4.546   3.618
    1C        C  486   3.187   4.502   3.740
    1C        C  487   3.325   4.536   3.741
    1C        C  488   3.126   4.478   3.864
    1C        C  489   3.193   4.498   3.987
    1C        C  490   3.001   4.409   4.108
    1C        C  491   3.128   4.472   4.110
    1C        C  492   2.942   4.377   4.232
    1C        C  493   2.996   4.419   4.355
    1C        C  494   2.827   4.300   4.479
    1C        C  495   2.938   4.389   4.480
    1C        C  496   2.773   4.256   4.602
    1C        C  497   2.818   4.312   4.724
    1C        C  498   2.662   4.166   4.840
    1C        C  499   2.753   4.273   4.843
    1C        C  500   2.596   4.114   4.952
    1C        C  501   4.008   4.359   2.039
    1C        C  502   3.814   4.463   2.153
    1C        C  503   3.942   4.402   2.155
    1C        C  504   3.743   4.475   2.274
    1C        C  505   3.808   4.452   2.397
    1C        C  506   3.604   4.506   2.517
    1C        C  507   3.744   4.484   2.518
    1C        C  508   3.532   4.513   2.638
    1C        C  509   3.604   4.514   2.759
    1C        C  510   3.393   4.521   2.886
    1C        C  511   3.535   4.520   2.882
    1C        C  512   3.321   4.519   3.007
    1C        C  513   3.393   4.526   3.129
    1C        C  514   3.187   4.496   3.251
    1C        C  515   3.325   4.526   3.253
    1C        C  516   3.117   4.475   3.372
    1C        C  517   3.183   4.499   3.495
    1C        C  518   2.995   4.408   3.620
    1C        C  519   3.120   4.473   3.619
    1C        C  520   2.937   4.371   3.744
    1C        C  521   3.000   4.414   3.863
    1C        C  522   2.836   4.280   3.993
    1C        C  523   2.942   4.373   3.985
    1C        C  524   2.787   4.232   4.116
    1C        C  525   2.835   4.285   4.238
    1C        C  526   2.696   4.129   4.363
    1C        C  527   2.774   4.246   4.360
    1C        C  528   2.651   4.076   4.486
    1C        C  529   2.685   4.146   4.604
    1C        C  530   2.581   3.959   4.728
    1C        C  531   2.635   4.090   4.724
    1C        C  532   2.541   3.899   4.851
    1C        C  533   2.528   3.992   4.959
    1C        C  534   3.614   4.552   2.039
    1C        C  535   3.747   4.507   2.038
    1C        C  536   3.533   4.529   2.155
    1C        C  537   3.605   4.509   2.276
    1C        C  538   3.390   4.522   2.400
    1C        C  539   3.532   4.519   2.396
    1C        C  540   3.319   4.509   2.521
    1C        C  541   3.391   4.509   2.642
    1C        C  542   3.183   4.478   2.763
    1C        C  543   3.321   4.508   2.765
    1C        C  544   3.117   4.461   2.887
    1C        C  545   3.183   4.489   3.009
    1C        C  546   2.990   4.404   3.133
    1C        C  547   3.116   4.468   3.132
    1C        C  548   2.932   4.364   3.255
    1C        C  549   2.994   4.407   3.375
    1C        C  550   2.831   4.274   3.504
    1C        C  551   2.937   4.367   3.498
    1C        C  552   2.777   4.228   3.626
    1C        C  553   2.830   4.279   3.747
    1C        C  554   2.693   4.121   3.872
    1C        C  555   2.788   4.226   3.871
    1C        C  556   2.660   4.062   3.996
    1C        C  557   2.697   4.123   4.117
    1C        C  558   2.597   3.941   4.245
    1C        C  559   2.658   4.068   4.241
    1C        C  560   2.562   3.880   4.368
    1C        C  561   2.590   3.948   4.488
    1C        C  562   2.524   3.747   4.615
    1C        C  563   2.562   3.883   4.610
    1C        C  564   2.513   3.677   4.737
    1C        C  565   2.524   3.757   4.854
    1C        C  566   2.531   3.545   4.977
    1C        C  567   2.517   3.684   4.973
    1C        C  568   3.325   4.470   2.040
    1C        C  569   3.393   4.505   2.157
    1C        C  570   3.181   4.473   2.277
    1C        C  571   3.319   4.508   2.279
    1C        C  572   3.114   4.453   2.399
    1C        C  573   3.180   4.483   2.521
    1C        C  574   2.982   4.405   2.647
    1C        C  575   3.112   4.461   2.643
    1C        C  576   2.928   4.360   2.770
    1C        C  577   2.992   4.395   2.891
    1C        C  578   2.821   4.271   3.011
    1C        C  579   2.928   4.364   3.013
    1C        C  580   2.773   4.223   3.135
    1C        C  581   2.823   4.274   3.257
    1C        C  582   2.694   4.113   3.385
    1C        C  583   2.780   4.225   3.382
    1C        C  584   2.659   4.052   3.508
    1C        C  585   2.694   4.113   3.630
    1C        C  586   2.600   3.927   3.753
    1C        C  587   2.652   4.058   3.753
    1C        C  588   2.575   3.866   3.879
    1C        C  589   2.601   3.934   4.000
    1C        C  590   2.536   3.735   4.126
    1C        C  591   2.574   3.871   4.124
    1C        C  592   2.522   3.668   4.250
    1C        C  593   2.532   3.742   4.370
    1C        C  594   2.512   3.533   4.498
    1C        C  595   2.519   3.674   4.494
    1C        C  596   2.513   3.461   4.619
    1C        C  597   2.513   3.535   4.739
    1C        C  598   2.530   3.325   4.860
    1C        C  599   2.523   3.466   4.862
    1C        C  600   2.537   3.250   4.978
    1C        C  601   3.191   4.438   2.039
    1C        C  602   2.979   4.395   2.160
    1C        C  603   3.114   4.441   2.156
    1C        C  604   2.920   4.357   2.284
    1C        C  605   2.988   4.390   2.404
    1C        C  606   2.818   4.267   2.526
    1C        C  607   2.924   4.360   2.527
    1C        C  608   2.767   4.222   2.649
    1C        C  609   2.819   4.271   2.771
    1C        C  610   2.678   4.110   2.893
    1C        C  611   2.764   4.222   2.892
    1C        C  612   2.652   4.049   3.019
    1C        C  613   2.688   4.110   3.141
    1C        C  614   2.594   3.923   3.263
    1C        C  615   2.652   4.052   3.265
    1C        C  616   2.567   3.861   3.387
    1C        C  617   2.594   3.927   3.509
    1C        C  618   2.532   3.725   3.635
    1C        C  619   2.573   3.860   3.632
    1C        C  620   2.519   3.659   3.759
    1C        C  621   2.535   3.731   3.880
    1C        C  622   2.507   3.525   4.009
    1C        C  623   2.523   3.665   4.004
    1C        C  624   2.514   3.456   4.132
    1C        C  625   2.516   3.527   4.254
    1C        C  626   2.542   3.320   4.375
    1C        C  627   2.514   3.459   4.378
    1C        C  628   2.553   3.251   4.497
    1C        C  629   2.533   3.321   4.618
    1C        C  630   2.586   3.114   4.741
    1C        C  631   2.548   3.251   4.741
    1C        C  632   2.613   3.048   4.864
    1C        C  633   2.565   3.113   4.982
    1C        C  634   2.781   4.299   2.048
    1C        C  635   2.889   4.388   2.049
    1C        C  636   2.745   4.230   2.165
    1C        C  637   2.805   4.273   2.285
    1C        C  638   2.675   4.105   2.407
    1C        C  639   2.759   4.219   2.407
    1C        C  640   2.640   4.046   2.530
    1C        C  641   2.683   4.107   2.650
    1C        C  642   2.583   3.920   2.774
    1C        C  643   2.641   4.049   2.771
    1C        C  644   2.565   3.854   2.897
    1C        C  645   2.591   3.922   3.018
    1C        C  646   2.527   3.722   3.144
    1C        C  647   2.567   3.857   3.141
    1C        C  648   2.514   3.653   3.266
    1C        C  649   2.533   3.724   3.387
    1C        C  650   2.509   3.516   3.516
    1C        C  651   2.520   3.657   3.511
    1C        C  652   2.507   3.448   3.640
    1C        C  653   2.507   3.519   3.762
    1C        C  654   2.532   3.314   3.887
    1C        C  655   2.510   3.453   3.887
    1C        C  656   2.545   3.243   4.009
    1C        C  657   2.535   3.316   4.129
    1C        C  658   2.604   3.118   4.255
    1C        C  659   2.555   3.251   4.253
    1C        C  660   2.633   3.054   4.378
    1C        C  661   2.595   3.116   4.500
    1C        C  662   2.711   2.937   4.622
    1C        C  663   2.629   3.053   4.621
    1C        C  664   2.750   2.878   4.744
    1C        C  665   2.703   2.936   4.865
    1C        C  666   2.745   2.869   4.981
    1C        C  667   2.671   4.027   2.051
    1C        C  668   2.683   4.103   2.168
    1C        C  669   2.587   3.909   2.288
    1C        C  670   2.642   4.040   2.287
    1C        C  671   2.560   3.844   2.411
    1C        C  672   2.583   3.917   2.530
    1C        C  673   2.517   3.717   2.656
    1C        C  674   2.553   3.854   2.653
    1C        C  675   2.510   3.648   2.779
    1C        C  676   2.528   3.718   2.901
    1C        C  677   2.501   3.508   3.027
    1C        C  678   2.514   3.648   3.023
    1C        C  679   2.505   3.439   3.151
    1C        C  680   2.502   3.512   3.271
    1C        C  681   2.534   3.305   3.398
    1C        C  682   2.508   3.444   3.395
    1C        C  683   2.552   3.236   3.519
    1C        C  684   2.535   3.309   3.639
    1C        C  685   2.599   3.112   3.770
    1C        C  686   2.555   3.247   3.765
    1C        C  687   2.629   3.048   3.892
    1C        C  688   2.596   3.112   4.014
    1C        C  689   2.713   2.934   4.137
    1C        C  690   2.629   3.048   4.135
    1C        C  691   2.758   2.880   4.259
    1C        C  692   2.707   2.934   4.379
    1C        C  693   2.748   2.875   4.501
    1C        C  694   2.623   3.895   2.055
    1C        C  695   2.522   3.701   2.171
    1C        C  696   2.575   3.832   2.171
    1C        C  697   2.498   3.634   2.292
    1C        C  698   2.523   3.707   2.410
    1C        C  699   2.491   3.504   2.539
    1C        C  700   2.507   3.644   2.536
    1C        C  701   2.500   3.433   2.661
    1C        C  702   2.505   3.507   2.781
    1C        C  703   2.528   3.298   2.903
    1C        C  704   2.505   3.438   2.905
    1C        C  705   2.543   3.232   3.027
    1C        C  706   2.533   3.300   3.150
    1C        C  707   2.596   3.103   3.278
    1C        C  708   2.547   3.236   3.275
    1C        C  709   2.630   3.041   3.400
    1C        C  710   2.601   3.104   3.523
    1C        C  711   2.711   2.930   3.648
    1C        C  712   2.634   3.049   3.649
    1C        C  713   2.756   2.875   3.770
    1C        C  714   2.712   2.934   3.891
    1C        C  715   2.754   2.878   4.013
    1C        C  716   2.442   3.495   2.057
    1C        C  717   2.481   3.629   2.057
    1C        C  718   2.460   3.418   2.177
    1C        C  719   2.477   3.493   2.296
    1C        C  720   2.515   3.288   2.421
    1C        C  721   2.488   3.427   2.420
    1C        C  722   2.536   3.220   2.543
    1C        C  723   2.521   3.294   2.662
    1C        C  724   2.595   3.093   2.790
    1C        C  725   2.546   3.225   2.784
    1C        C  726   2.626   3.031   2.913
    1C        C  727   2.595   3.101   3.031
    1C        C  728   2.709   2.925   3.157
    1C        C  729   2.626   3.040   3.155
    1C        C  730   2.754   2.871   3.279
    1C        C  731   2.709   2.924   3.402
    1C        C  732   2.751   2.872   3.526
    1C        C  733   2.488   3.195   2.066
    1C        C  734   2.490   3.278   2.179
    1C        C  735   2.582   3.083   2.302
    1C        C  736   2.531   3.216   2.300
    1C        C  737   2.612   3.019   2.425
    1C        C  738   2.591   3.090   2.545
    1C        C  739   2.697   2.907   2.667
    1C        C  740   2.625   3.028   2.668
    1C        C  741   2.738   2.851   2.790
    1C        C  742   2.703   2.913   2.912
    1C        C  743   2.755   2.869   3.036
    1C        C  744   2.541   3.067   2.068
    1C        C  745   2.685   2.898   2.183
    1C        C  746   2.604   3.014   2.181
    1C        C  747   2.732   2.840   2.304
    1C        C  748   2.691   2.903   2.424
    1C        C  749   2.738   2.848   2.545
    1C        C  750   2.732   2.835   2.067
    1C        C  751   3.646   2.329   1.961
    1C        O  752   3.669   2.209   1.989
    1C        O  753   3.699   2.384   1.843
    1C        C  754   4.631   3.039   1.992
    1C        O  755   4.602   2.984   1.882
    1C        O  756   4.757   2.996   2.034
    1C        C  757   4.442   4.234   1.965
    1C        O  758   4.515   4.325   2.014
    1C        O  759   4.403   4.250   1.832
    1C        C  760   3.586   4.666   1.948
    1C        O  761   3.613   4.784   1.980
    1C        O  762   3.574   4.639   1.811
    1C        C  763   2.881   4.509   1.964
    1C        O  764   2.895   4.493   1.840
    1C        O  765   2.797   4.619   1.989
    1C        C  766   2.358   3.457   1.941
    1C        O  767   2.407   3.470   1.826
    1C        O  768   2.218   3.462   1.952
    1C        C  769   4.680   3.585   5.066
    1C        O  770   4.648   3.601   5.187
    1C        O  771   4.816   3.609   5.041
    1C        C  772   4.273   4.483   5.013
    1C        O  773   4.346   4.432   5.102
    1C        O  774   4.322   4.605   4.965
    1C        C  775   4.140   2.509   5.071
    1C        O  776   4.161   2.385   5.071
    1C        O  777   4.124   2.547   5.205
    1C        C  778   2.870   4.549   5.040
    1C        O  779   2.808   4.648   4.993
    1C        O  780   2.927   4.574   5.166
    1C        C  781   2.498   3.047   5.096
    1C        O  782   2.414   2.953   5.092
    1C        O  783   2.551   3.056   5.224
    1C        C  784   2.405   3.999   5.041
    1C        O  785   2.292   4.002   4.986
    1C        O  786   2.419   3.990   5.180
    1C        C  787   2.947   2.387   2.048
    1C        O  788   2.896   2.403   1.934
    1C        O  789   2.889   2.291   2.130
    1C        C  790   3.172   2.361   5.052
    1C        O  791   3.132   2.255   4.995
    1C        O  792   3.167   2.365   5.192
    1C        H  793   4.241   3.033   5.038
    1C        H  794   4.181   2.804   5.073
    1C        H  795   4.502   3.116   5.044
    1C        H  796   4.554   3.354   5.062
    1C        H  797   4.580   3.811   5.044
    1C        H  798   4.426   3.975   5.053
    1C        H  799   4.257   4.141   5.044
    1C        H  800   4.032   4.532   5.025
    1C        H  801   3.807   4.564   5.041
    1C        H  802   3.591   4.567   5.042
    1C        H  803   3.398   4.497   5.034
    1C        H  804   3.172   4.454   5.050
    1C        H  805   3.888   2.475   5.056
    1C        H  806   3.671   2.445   5.071
    1C        H  807   3.018   2.574   5.072
    1C        H  808   3.428   2.462   5.074
    1C        H  809   2.865   2.725   5.077
    1C        H  810   2.719   2.917   5.072
    1C        H  811   2.483   3.284   5.064
    1C        H  812   2.591   3.504   5.055
    1C        H  813   2.516   3.746   5.060
    1C        H  814   2.617   4.153   5.050
    1C        H  815   2.779   4.289   5.055
    1C        H  816   2.705   2.869   1.969
    1C        H  817   2.817   2.662   1.989
    1C        H  818   3.197   2.411   1.986
    1C        H  819   3.423   2.474   1.981
    1C        H  820   3.882   2.469   1.986
    1C        H  821   4.018   2.687   1.977
    1C        H  822   4.259   2.703   1.975
    1C        H  823   4.399   2.892   1.964
    1C        H  824   4.581   3.307   1.970
    1C        H  825   4.513   3.507   1.957
    1C        H  826   4.458   3.744   1.955
    1C        H  827   3.789   4.501   1.940
    1C        H  828   3.940   4.339   1.959
    1C        H  829   4.197   4.313   1.963
    1C        H  830   4.515   3.974   1.972
    1C        H  831   2.610   3.853   1.958
    1C        H  832   2.675   4.074   1.955
    1C        H  833   2.698   4.325   1.986
    1C        H  834   3.384   4.419   1.966
    1C        H  835   3.150   4.420   1.942
    1C        H  836   2.518   3.003   1.986
    1C        H  837   2.403   3.206   2.003
    1C        H  838   2.427   3.687   1.986
    2V3OU   H29  839   2.797   3.543   1.022
    2V3OU   C27  840   2.775   3.495   1.121
    2V3OU   H27  841   2.721   3.566   1.189
    2V3OU   H28  842   2.720   3.398   1.110
    2V3OU   O11  843   2.905   3.472   1.176
    2V3OU   C15  844   2.920   3.396   1.290
    2V3OU   C13  845   3.048   3.378   1.346
    2V3OU   C14  846   3.072   3.273   1.436
    2V3OU   C16  847   2.970   3.187   1.476
    2V3OU    H6  848   2.990   3.103   1.545
    2V3OU   C12  849   3.211   3.229   1.463
    2V3OU    O2  850   3.230   3.127   1.532
    2V3OU   C10  851   3.327   3.307   1.416
    2V3OU    C8  852   3.456   3.264   1.441
    2V3OU   O10  853   3.487   3.150   1.509
    2V3OU   H26  854   3.400   3.110   1.522
    2V3OU    C6  855   3.564   3.346   1.396
    2V3OU    C5  856   3.535   3.466   1.331
    2V3OU    C4  857   3.702   3.291   1.405
    2V3OU    H4  858   3.719   3.231   1.500
    2V3OU    H5  859   3.716   3.215   1.323
    2V3OU    C2  860   3.815   3.394   1.396
    2V3OU    O6  861   3.807   3.475   1.513
    2V3OU   H21  862   3.764   3.556   1.478
    2V3OU    C3  863   3.780   3.489   1.281
    2V3OU    H2  864   3.862   3.565   1.271
    2V3OU    H3  865   3.779   3.432   1.185
    2V3OU   C25  866   3.942   3.312   1.371
    2V3OU    O7  867   3.998   3.291   1.264
    2V3OU   C26  868   4.029   3.281   1.492
    2V3OU   H22  869   4.055   3.377   1.544
    2V3OU   H23  870   4.120   3.225   1.460
    2V3OU    O8  871   3.959   3.202   1.585
    2V3OU   H24  872   3.916   3.261   1.649
    2V3OU    C1  873   3.646   3.559   1.295
    2V3OU    H1  874   3.624   3.614   1.199
    2V3OU    O3  875   3.661   3.652   1.403
    2V3OU   C19  876   3.619   3.788   1.391
    2V3OU    H9  877   3.524   3.788   1.330
    2V3OU    O4  878   3.710   3.847   1.301
    2V3OU   C20  879   3.839   3.874   1.358
    2V3OU   H10  880   3.896   3.777   1.366
    2V3OU   C24  881   3.610   3.851   1.530
    2V3OU   H16  882   3.539   3.792   1.594
    2V3OU   H17  883   3.562   3.950   1.506
    2V3OU   C23  884   3.747   3.874   1.594
    2V3OU   H15  885   3.792   3.771   1.612
    2V3OU    N1  886   3.734   3.947   1.718
    2V3OU   H19  887   3.805   3.923   1.785
    2V3OU   H20  888   3.642   3.927   1.752
    2V3OU   C21  889   3.841   3.946   1.493
    2V3OU   H11  890   3.942   3.924   1.538
    2V3OU    O5  891   3.821   4.087   1.498
    2V3OU   H18  892   3.779   4.097   1.585
    2V3OU   C22  893   3.907   3.949   1.244
    2V3OU   H12  894   3.854   4.046   1.229
    2V3OU   H13  895   3.911   3.884   1.153
    2V3OU   H14  896   4.016   3.961   1.268
    2V3OU   C11  897   3.159   3.468   1.309
    2V3OU    O1  898   3.139   3.581   1.260
    2V3OU    C9  899   3.296   3.422   1.339
    2V3OU    C7  900   3.401   3.504   1.298
    2V3OU    O9  901   3.380   3.622   1.230
    2V3OU   H25  902   3.284   3.618   1.221
    2V3OU   C17  903   2.818   3.313   1.341
    2V3OU    H7  904   2.717   3.353   1.330
    2V3OU   C18  905   2.841   3.210   1.431
    2V3OU    H8  906   2.756   3.148   1.464
    3SOL     OW  907   0.550   3.823   0.488
    3SOL    HW1  908   0.463   3.777   0.472
    3SOL    HW2  909   0.535   3.903   0.546
    4SOL     OW  910   5.478   1.007   2.253
    4SOL    HW1  911   5.543   1.082   2.265
    4SOL    HW2  912   5.482   0.946   2.333
    5SOL     OW  913   3.796   2.996   1.232
    5SOL    HW1  914   3.840   2.958   1.313
    5SOL    HW2  915   3.703   2.961   1.225
    6SOL     OW  916   2.602   2.431   0.684
    6SOL    HW1  917   2.556   2.476   0.608
    6SOL    HW2  918   2.585   2.333   0.680
    7SOL     OW  919   6.002   1.092   1.526
    7SOL    HW1  920   5.933   1.134   1.466
    7SOL    HW2  921   6.079   1.060   1.470
    8SOL     OW  922   3.186   1.858   3.471
    8SOL    HW1  923   3.125   1.779   3.469
    8SOL    HW2  924   3.257   1.846   3.401
    9SOL     OW  925   0.331   3.956   5.700
    9SOL    HW1  926   0.422   3.961   5.742
    9SOL    HW2  927   0.288   4.046   5.703
   10SOL     OW  928   0.470   4.044   0.642
   10SOL    HW1  929   0.419   4.122   0.606
   10SOL    HW2  930   0.470   4.047   0.742
   11SOL     OW  931   3.911   6.528   7.001
   11SOL    HW1  932   3.969   6.547   6.922
   11SOL    HW2  933   3.828   6.481   6.970
   12SOL     OW  934   5.359   6.430   2.335
   12SOL    HW1  935   5.273   6.469   2.367
   12SOL    HW2  936   5.401   6.494   2.270
   13SOL     OW  937   1.521   0.011   3.543
   13SOL    HW1  938   1.585   6.953   3.544
   13SOL    HW2  939   1.494   0.031   3.449
   14SOL     OW  940   2.910   0.287   2.758
   14SOL    HW1  941   3.008   0.268   2.757
   14SOL    HW2  942   2.868   0.241   2.837
   15SOL     OW  943   2.749   6.820   6.212
   15SOL    HW1  944   2.654   6.848   6.198
   15SOL    HW2  945   2.752   6.724   6.239
   16SOL     OW  946   6.583   1.651   6.713
   16SOL    HW1  947   6.634   1.604   6.640
   16SOL    HW2  948   6.636   1.729   6.745
   17SOL     OW  949   4.581   6.259   3.117
   17SOL    HW1  950   4.505   6.318   3.144
   17SOL    HW2  951   4.655   6.268   3.184
   18SOL     OW  952   1.458   1.161   0.267
   18SOL    HW1  953   1.516   1.084   0.241
   18SOL    HW2  954   1.501   1.211   0.341
   19SOL     OW  955   1.000   0.091   1.594
   19SOL    HW1  956   1.022   7.013   1.612
   19SOL    HW2  957   1.036   0.117   1.505
   20SOL     OW  958   3.475   0.797   4.022
   20SOL    HW1  959   3.562   0.796   3.973
   20SOL    HW2  960   3.492   0.808   4.120
   21SOL     OW  961   2.813   2.939   1.726
   21SOL    HW1  962   2.768   2.851   1.717
   21SOL    HW2  963   2.744   3.012   1.727
   22SOL     OW  964   0.980   1.271   5.246
   22SOL    HW1  965   0.926   1.263   5.162
   22SOL    HW2  966   0.932   1.225   5.321
   23SOL     OW  967   3.274   5.655   4.524
   23SOL    HW1  968   3.254   5.631   4.619
   23SOL    HW2  969   3.291   5.754   4.518
   24SOL     OW  970   4.048   1.191   4.693
   24SOL    HW1  971   3.956   1.229   4.685
   24SOL    HW2  972   4.107   1.256   4.741
   25SOL     OW  973   2.523   4.842   1.277
   25SOL    HW1  974   2.594   4.779   1.310
   25SOL    HW2  975   2.488   4.896   1.354
   26SOL     OW  976   5.959   0.887   3.296
   26SOL    HW1  977   6.036   0.951   3.300
   26SOL    HW2  978   5.992   0.798   3.265
   27SOL     OW  979   6.075   6.795   2.056
   27SOL    HW1  980   6.129   6.879   2.045
   27SOL    HW2  981   6.108   6.744   2.135
   28SOL     OW  982   3.109   0.392   0.693
   28SOL    HW1  983   3.102   0.491   0.701
   28SOL    HW2  984   3.196   0.362   0.732
   29SOL     OW  985   3.992   2.742   1.672
   29SOL    HW1  986   4.064   2.686   1.712
   29SOL    HW2  987   3.932   2.776   1.745
   30SOL     OW  988   4.203   1.353   4.828
   30SOL    HW1  989   4.232   1.302   4.909
   30SOL    HW2  990   4.246   1.444   4.829
   31SOL     OW  991   0.540   1.093   5.039
   31SOL    HW1  992   0.517   1.056   4.949
   31SOL    HW2  993   0.580   1.021   5.096
   32SOL     OW  994   6.977   1.769   1.890
   32SOL    HW1  995   6.904   1.735   1.830
   32SOL    HW2  996   6.992   1.704   1.964
   33SOL     OW  997   2.108   2.172   5.192
   33SOL    HW1  998   2.158   2.234   5.131
   33SOL    HW2  999   2.053   2.225   5.257
   34SOL     OW 1000   0.935   0.485   4.707
   34SOL    HW1 1001   0.842   0.521   4.710
   34SOL    HW2 1002   0.933   0.390   4.676
   35SOL     OW 1003   3.770   1.927   6.188
   35SOL    HW1 1004   3.847   1.991   6.187
   35SOL    HW2 1005   3.705   1.954   6.259
   36SOL     OW 1006   1.126   1.799   5.682
   36SOL    HW1 1007   1.178   1.715   5.692
   36SOL    HW2 1008   1.029   1.777   5.673
   37SOL     OW 1009   2.323   6.231   0.669
   37SOL    HW1 1010   2.383   6.268   0.598
   37SOL    HW2 1011   2.240   6.286   0.675
   38SOL     OW 1012   6.875   6.221   1.670
   38SOL    HW1 1013   6.789   6.253   1.631
   38SOL    HW2 1014   6.910   6.144   1.616
   39SOL     OW 1015   6.984   2.856   5.856
   39SOL    HW1 1016   0.010   2.916   5.923
   39SOL    HW2 1017   6.937   2.911   5.787
   40SOL     OW 1018   6.755   0.811   1.423
   40SOL    HW1 1019   6.827   0.827   1.490
   40SOL    HW2 1020   6.666   0.829   1.464
   41SOL     OW 1021   1.451   0.538   5.888
   41SOL    HW1 1022   1.541   0.573   5.861
   41SOL    HW2 1023   1.461   0.445   5.923
   42SOL     OW 1024   3.807   0.137   0.634
   42SOL    HW1 1025   3.884   0.103   0.687
   42SOL    HW2 1026   3.802   0.087   0.547
   43SOL     OW 1027   4.930   5.770   5.170
   43SOL    HW1 1028   4.926   5.693   5.107
   43SOL    HW2 1029   4.943   5.736   5.263
   44SOL     OW 1030   0.452   3.120   6.741
   44SOL    HW1 1031   0.459   3.218   6.722
   44SOL    HW2 1032   0.402   3.106   6.827
   45SOL     OW 1033   2.672   0.514   1.797
   45SOL    HW1 1034   2.760   0.469   1.783
   45SOL    HW2 1035   2.651   0.572   1.718
   46SOL     OW 1036   1.240   5.115   4.052
   46SOL    HW1 1037   1.205   5.203   4.083
   46SOL    HW2 1038   1.340   5.118   4.048
   47SOL     OW 1039   5.454   4.686   2.908
   47SOL    HW1 1040   5.361   4.700   2.873
   47SOL    HW2 1041   5.520   4.727   2.844
   48SOL     OW 1042   1.001   1.366   5.638
   48SOL    HW1 1043   0.943   1.325   5.709
   48SOL    HW2 1044   0.949   1.434   5.588
   49SOL     OW 1045   5.476   2.673   0.548
   49SOL    HW1 1046   5.419   2.754   0.532
   49SOL    HW2 1047   5.550   2.697   0.611
   50SOL     OW 1048   0.074   3.707   4.754
   50SOL    HW1 1049   0.009   3.703   4.678
   50SOL    HW2 1050   0.052   3.785   4.812
   51SOL     OW 1051   2.766   5.472   2.689
   51SOL    HW1 1052   2.765   5.373   2.692
   51SOL    HW2 1053   2.720   5.503   2.606
   52SOL     OW 1054   0.714   2.209   1.589
   52SOL    HW1 1055   0.722   2.253   1.499
   52SOL    HW2 1056   0.752   2.116   1.584
   53SOL     OW 1057   4.830   6.476   4.240
   53SOL    HW1 1058   4.912   6.532   4.232
   53SOL    HW2 1059   4.845   6.388   4.195
   54SOL     OW 1060   4.735   5.609   5.824
   54SOL    HW1 1061   4.649   5.615   5.874
   54SOL    HW2 1062   4.809   5.647   5.880
   55SOL     OW 1063   3.437   2.286   0.796
   55SOL    HW1 1064   3.401   2.340   0.872
   55SOL    HW2 1065   3.488   2.345   0.734
   56SOL     OW 1066   0.577   6.664   1.654
   56SOL    HW1 1067   0.563   6.763   1.664
   56SOL    HW2 1068   0.599   6.624   1.743
   57SOL     OW 1069   5.946   1.533   0.956
   57SOL    HW1 1070   5.988   1.509   0.869
   57SOL    HW2 1071   5.977   1.623   0.985
   58SOL     OW 1072   0.123   6.972   6.438
   58SOL    HW1 1073   0.175   7.013   6.513
   58SOL    HW2 1074   0.052   0.018   6.408
   59SOL     OW 1075   0.746   0.189   4.868
   59SOL    HW1 1076   0.689   0.147   4.798
   59SOL    HW2 1077   0.842   0.167   4.852
   60SOL     OW 1078   5.086   6.886   4.995
   60SOL    HW1 1079   5.146   6.831   5.053
   60SOL    HW2 1080   4.991   6.864   5.015
   61SOL     OW 1081   4.213   0.272   5.295
   61SOL    HW1 1082   4.159   0.256   5.377
   61SOL    HW2 1083   4.153   0.309   5.223
   62SOL     OW 1084   3.090   1.311   4.927
   62SOL    HW1 1085   3.102   1.214   4.903
   62SOL    HW2 1086   3.068   1.363   4.845
   63SOL     OW 1087   6.922   3.260   3.396
   63SOL    HW1 1088   6.981   3.334   3.429
   63SOL    HW2 1089   6.906   3.194   3.470
   64SOL     OW 1090   0.309   2.647   5.173
   64SOL    HW1 1091   0.380   2.644   5.102
   64SOL    HW2 1092   0.345   2.611   5.258
   65SOL     OW 1093   0.221   3.408   5.611
   65SOL    HW1 1094   0.285   3.331   5.616
   65SOL    HW2 1095   0.229   3.452   5.522
   66SOL     OW 1096   2.547   0.891   1.057
   66SOL    HW1 1097   2.502   0.811   1.096
   66SOL    HW2 1098   2.615   0.860   0.990
   67SOL     OW 1099   4.490   5.393   3.904
   67SOL    HW1 1100   4.534   5.335   3.972
   67SOL    HW2 1101   4.495   5.349   3.814
   68SOL     OW 1102   5.398   2.640   6.501
   68SOL    HW1 1103   5.495   2.657   6.518
   68SOL    HW2 1104   5.353   2.612   6.586
   69SOL     OW 1105   2.648   2.797   5.817
   69SOL    HW1 1106   2.586   2.774   5.742
   69SOL    HW2 1107   2.736   2.753   5.801
   70SOL     OW 1108   6.471   6.115   1.900
   70SOL    HW1 1109   6.521   6.142   1.982
   70SOL    HW2 1110   6.411   6.190   1.872
   71SOL     OW 1111   2.089   3.481   3.021
   71SOL    HW1 1112   2.085   3.515   2.927
   71SOL    HW2 1113   2.110   3.557   3.083
   72SOL     OW 1114   3.075   5.482   3.935
   72SOL    HW1 1115   3.047   5.560   3.879
   72SOL    HW2 1116   3.083   5.511   4.031
   73SOL     OW 1117   3.850   2.421   6.525
   73SOL    HW1 1118   3.768   2.473   6.550
   73SOL    HW2 1119   3.825   2.350   6.459
   74SOL     OW 1120   5.412   6.549   6.353
   74SOL    HW1 1121   5.435   6.585   6.263
   74SOL    HW2 1122   5.478   6.581   6.420
   75SOL     OW 1123   3.730   4.854   5.347
   75SOL    HW1 1124   3.650   4.798   5.327
   75SOL    HW2 1125   3.708   4.951   5.333
   76SOL     OW 1126   2.601   2.970   1.349
   76SOL    HW1 1127   2.622   2.881   1.390
   76SOL    HW2 1128   2.665   2.988   1.274
   77SOL     OW 1129   5.361   4.881   6.496
   77SOL    HW1 1130   5.432   4.949   6.477
   77SOL    HW2 1131   5.348   4.874   6.595
   78SOL     OW 1132   6.903   6.345   6.082
   78SOL    HW1 1133   6.836   6.374   6.015
   78SOL    HW2 1134   6.857   6.306   6.161
   79SOL     OW 1135   3.299   6.743   0.126
   79SOL    HW1 1136   3.371   6.796   0.171
   79SOL    HW2 1137   3.211   6.791   0.136
   80SOL     OW 1138   0.068   1.159   4.175
   80SOL    HW1 1139   0.038   1.243   4.220
   80SOL    HW2 1140   0.105   1.180   4.085
   81SOL     OW 1141   1.703   0.289   4.285
   81SOL    HW1 1142   1.718   0.191   4.290
   81SOL    HW2 1143   1.788   0.337   4.307
   82SOL     OW 1144   0.037   4.285   5.706
   82SOL    HW1 1145   7.015   4.372   5.736
   82SOL    HW2 1146   0.136   4.294   5.702
   83SOL     OW 1147   6.781   6.919   6.606
   83SOL    HW1 1148   6.844   6.845   6.630
   83SOL    HW2 1149   6.760   6.914   6.509
   84SOL     OW 1150   6.115   3.541   1.810
   84SOL    HW1 1151   6.048   3.597   1.762
   84SOL    HW2 1152   6.066   3.478   1.872
   85SOL     OW 1153   0.925   1.504   5.420
   85SOL    HW1 1154   0.991   1.572   5.388
   85SOL    HW2 1155   0.883   1.460   5.340
   86SOL     OW 1156   2.118   1.083   4.769
   86SOL    HW1 1157   2.050   1.034   4.714
   86SOL    HW2 1158   2.080   1.171   4.797
   87SOL     OW 1159   4.616   0.040   1.165
   87SOL    HW1 1160   4.662   0.025   1.252
   87SOL    HW2 1161   4.539   0.102   1.179
   88SOL     OW 1162   5.794   0.588   0.252
   88SOL    HW1 1163   5.770   0.626   0.341
   88SOL    HW2 1164   5.726   0.616   0.184
   89SOL     OW 1165   2.605   1.760   5.576
   89SOL    HW1 1166   2.637   1.681   5.524
   89SOL    HW2 1167   2.506   1.753   5.589
   90SOL     OW 1168   6.466   5.992   3.616
   90SOL    HW1 1169   6.444   5.949   3.528
   90SOL    HW2 1170   6.458   6.091   3.607
   91SOL     OW 1171   4.458   5.311   4.901
   91SOL    HW1 1172   4.409   5.233   4.941
   91SOL    HW2 1173   4.453   5.305   4.801
   92SOL     OW 1174   3.312   6.561   1.466
   92SOL    HW1 1175   3.403   6.551   1.425
   92SOL    HW2 1176   3.276   6.652   1.447
   93SOL     OW 1177   3.521   4.559   5.905
   93SOL    HW1 1178   3.487   4.486   5.963
   93SOL    HW2 1179   3.447   4.595   5.848
   94SOL     OW 1180   2.476   6.227   1.533
   94SOL    HW1 1181   2.386   6.271   1.542
   94SOL    HW2 1182   2.512   6.243   1.442
   95SOL     OW 1183   6.392   0.021   5.077
   95SOL    HW1 1184   6.442   0.086   5.134
   95SOL    HW2 1185   6.396   0.051   4.981
   96SOL     OW 1186   1.521   6.965   5.125
   96SOL    HW1 1187   1.607   6.916   5.114
   96SOL    HW2 1188   1.478   6.979   5.036
   97SOL     OW 1189   6.156   2.872   4.727
   97SOL    HW1 1190   6.097   2.874   4.808
   97SOL    HW2 1191   6.251   2.888   4.754
   98SOL     OW 1192   5.864   2.149   5.932
   98SOL    HW1 1193   5.843   2.070   5.874
   98SOL    HW2 1194   5.888   2.227   5.875
   99SOL     OW 1195   4.004   2.196   1.195
   99SOL    HW1 1196   3.929   2.221   1.134
   99SOL    HW2 1197   3.968   2.179   1.287
  100SOL     OW 1198   6.179   4.759   6.788
  100SOL    HW1 1199   6.129   4.839   6.756
  100SOL    HW2 1200   6.250   4.788   6.852
  101SOL     OW 1201   0.757   6.461   4.291
  101SOL    HW1 1202   0.734   6.368   4.321
  101SOL    HW2 1203   0.839   6.459   4.234
  102SOL     OW 1204   4.813   0.444   3.337
  102SOL    HW1 1205   4.809   0.504   3.418
  102SOL    HW2 1206   4.726   0.398   3.325
  103SOL     OW 1207   3.384   1.758   1.628
  103SOL    HW1 1208   3.350   1.804   1.546
  103SOL    HW2 1209   3.355   1.809   1.709
  104SOL     OW 1210   6.972   5.873   1.853
  104SOL    HW1 1211   6.955   5.971   1.857
  104SOL    HW2 1212   6.959   5.833   1.944
  105SOL     OW 1213   5.015   1.493   5.617
  105SOL    HW1 1214   5.072   1.483   5.699
  105SOL    HW2 1215   5.062   1.452   5.538
  106SOL     OW 1216   3.430   6.387   0.452
  106SOL    HW1 1217   3.459   6.475   0.491
  106SOL    HW2 1218   3.372   6.404   0.372
  107SOL     OW 1219   2.505   3.191   1.059
  107SOL    HW1 1220   2.504   3.222   1.154
  107SOL    HW2 1221   2.423   3.137   1.040
  108SOL     OW 1222   4.959   4.334   5.319
  108SOL    HW1 1223   4.874   4.387   5.323
  108SOL    HW2 1224   4.956   4.262   5.388
  109SOL     OW 1225   5.925   0.854   1.277
  109SOL    HW1 1226   5.842   0.888   1.322
  109SOL    HW2 1227   5.959   0.774   1.327
  110SOL     OW 1228   2.738   5.843   4.875
  110SOL    HW1 1229   2.815   5.793   4.835
  110SOL    HW2 1230   2.771   5.897   4.953
  111SOL     OW 1231   3.708   1.217   3.370
  111SOL    HW1 1232   3.785   1.177   3.321
  111SOL    HW2 1233   3.711   1.189   3.466
  112SOL     OW 1234   6.841   1.152   6.483
  112SOL    HW1 1235   6.877   1.124   6.572
  112SOL    HW2 1236   6.906   1.213   6.438
  113SOL     OW 1237   6.905   6.258   3.903
  113SOL    HW1 1238   6.959   6.262   3.819
  113SOL    HW2 1239   6.847   6.339   3.909
  114SOL     OW 1240   1.349   6.695   0.012
  114SOL    HW1 1241   1.371   6.604   6.994
  114SOL    HW2 1242   1.324   6.687   0.108
  115SOL     OW 1243   5.742   1.038   5.408
  115SOL    HW1 1244   5.729   0.940   5.398
  115SOL    HW2 1245   5.653   1.084   5.409
  116SOL     OW 1246   5.797   4.373   2.637
  116SOL    HW1 1247   5.726   4.425   2.590
  116SOL    HW2 1248   5.812   4.411   2.728
  117SOL     OW 1249   1.292   6.667   6.107
  117SOL    HW1 1250   1.304   6.750   6.160
  117SOL    HW2 1251   1.381   6.636   6.074
  118SOL     OW 1252   1.843   0.129   2.832
  118SOL    HW1 1253   1.836   0.174   2.921
  118SOL    HW2 1254   1.781   0.173   2.767
  119SOL     OW 1255   6.871   2.654   6.317
  119SOL    HW1 1256   6.875   2.640   6.218
  119SOL    HW2 1257   6.796   2.601   6.355
  120SOL     OW 1258   5.675   6.622   1.377
  120SOL    HW1 1259   5.635   6.536   1.347
  120SOL    HW2 1260   5.660   6.634   1.475
  121SOL     OW 1261   2.651   3.363   5.779
  121SOL    HW1 1262   2.737   3.354   5.728
  121SOL    HW2 1263   2.614   3.272   5.798
  122SOL     OW 1264   0.622   3.129   4.488
  122SOL    HW1 1265   0.607   3.227   4.482
  122SOL    HW2 1266   0.655   3.106   4.580
  123SOL     OW 1267   0.736   1.923   1.607
  123SOL    HW1 1268   0.775   1.874   1.529
  123SOL    HW2 1269   0.645   1.886   1.628
  124SOL     OW 1270   4.847   3.442   0.804
  124SOL    HW1 1271   4.896   3.420   0.720
  124SOL    HW2 1272   4.756   3.475   0.781
  125SOL     OW 1273   2.095   3.541   1.739
  125SOL    HW1 1274   2.139   3.514   1.825
  125SOL    HW2 1275   2.001   3.508   1.738
  126SOL     OW 1276   3.639   4.437   0.864
  126SOL    HW1 1277   3.663   4.354   0.914
  126SOL    HW2 1278   3.555   4.476   0.902
  127SOL     OW 1279   1.057   5.201   6.037
  127SOL    HW1 1280   1.064   5.301   6.044
  127SOL    HW2 1281   1.039   5.176   5.942
  128SOL     OW 1282   4.381   2.605   1.224
  128SOL    HW1 1283   4.308   2.608   1.293
  128SOL    HW2 1284   4.469   2.624   1.269
  129SOL     OW 1285   2.466   3.684   6.425
  129SOL    HW1 1286   2.490   3.674   6.328
  129SOL    HW2 1287   2.481   3.779   6.453
  130SOL     OW 1288   1.532   2.222   4.734
  130SOL    HW1 1289   1.522   2.204   4.636
  130SOL    HW2 1290   1.587   2.150   4.775
  131SOL     OW 1291   5.433   1.974   2.771
  131SOL    HW1 1292   5.352   1.943   2.719
  131SOL    HW2 1293   5.489   2.032   2.712
  132SOL     OW 1294   0.247   2.750   2.135
  132SOL    HW1 1295   0.208   2.745   2.227
  132SOL    HW2 1296   0.295   2.664   2.115
  133SOL     OW 1297   6.810   5.668   2.311
  133SOL    HW1 1298   6.850   5.576   2.314
  133SOL    HW2 1299   6.798   5.701   2.405
  134SOL     OW 1300   0.659   3.794   2.333
  134SOL    HW1 1301   0.673   3.724   2.402
  134SOL    HW2 1302   0.595   3.761   2.264
  135SOL     OW 1303   4.195   1.793   4.027
  135SOL    HW1 1304   4.200   1.786   3.927
  135SOL    HW2 1305   4.263   1.732   4.068
  136SOL     OW 1306   4.860   5.097   5.599
  136SOL    HW1 1307   4.885   5.041   5.520
  136SOL    HW2 1308   4.778   5.151   5.577
  137SOL     OW 1309   3.381   0.696   5.884
  137SOL    HW1 1310   3.409   0.699   5.788
  137SOL    HW2 1311   3.368   0.789   5.918
  138SOL     OW 1312   5.947   4.764   4.903
  138SOL    HW1 1313   5.906   4.813   4.980
  138SOL    HW2 1314   5.971   4.672   4.931
  139SOL     OW 1315   3.057   5.922   5.335
  139SOL    HW1 1316   3.067   5.844   5.397
  139SOL    HW2 1317   3.068   6.007   5.387
  140SOL     OW 1318   6.500   4.572   4.600
  140SOL    HW1 1319   6.596   4.600   4.605
  140SOL    HW2 1320   6.442   4.653   4.597
  141SOL     OW 1321   1.268   2.311   2.507
  141SOL    HW1 1322   1.296   2.317   2.411
  141SOL    HW2 1323   1.220   2.224   2.522
  142SOL     OW 1324   1.508   5.513   1.694
  142SOL    HW1 1325   1.461   5.434   1.654
  142SOL    HW2 1326   1.440   5.574   1.735
  143SOL     OW 1327   5.084   4.148   1.864
  143SOL    HW1 1328   4.995   4.140   1.818
  143SOL    HW2 1329   5.133   4.061   1.858
  144SOL     OW 1330   2.617   6.276   0.845
  144SOL    HW1 1331   2.523   6.245   0.834
  144SOL    HW2 1332   2.676   6.198   0.864
  145SOL     OW 1333   6.632   5.199   0.728
  145SOL    HW1 1334   6.646   5.140   0.648
  145SOL    HW2 1335   6.536   5.228   0.732
  146SOL     OW 1336   6.359   5.023   0.495
  146SOL    HW1 1337   6.329   5.115   0.473
  146SOL    HW2 1338   6.416   4.988   0.420
  147SOL     OW 1339   5.976   2.515   1.178
  147SOL    HW1 1340   5.902   2.537   1.242
  147SOL    HW2 1341   5.998   2.418   1.185
  148SOL     OW 1342   0.987   5.075   5.747
  148SOL    HW1 1343   0.917   5.097   5.680
  148SOL    HW2 1344   1.014   4.979   5.738
  149SOL     OW 1345   3.085   1.231   6.052
  149SOL    HW1 1346   2.987   1.248   6.038
  149SOL    HW2 1347   3.137   1.282   5.983
  150SOL     OW 1348   0.251   5.945   5.934
  150SOL    HW1 1349   0.205   5.954   5.845
  150SOL    HW2 1350   0.211   5.869   5.985
  151SOL     OW 1351   3.879   0.714   1.755
  151SOL    HW1 1352   3.795   0.683   1.799
  151SOL    HW2 1353   3.878   0.814   1.747
  152SOL     OW 1354   3.466   0.860   4.699
  152SOL    HW1 1355   3.397   0.869   4.627
  152SOL    HW2 1356   3.470   0.765   4.729
  153SOL     OW 1357   1.370   0.574   3.142
  153SOL    HW1 1358   1.431   0.619   3.077
  153SOL    HW2 1359   1.416   0.494   3.181
  154SOL     OW 1360   6.178   2.140   3.217
  154SOL    HW1 1361   6.119   2.088   3.156
  154SOL    HW2 1362   6.246   2.079   3.258
  155SOL     OW 1363   0.469   1.420   2.483
  155SOL    HW1 1364   0.395   1.422   2.550
  155SOL    HW2 1365   0.476   1.329   2.442
  156SOL     OW 1366   0.550   2.355   1.786
  156SOL    HW1 1367   0.611   2.316   1.718
  156SOL    HW2 1368   0.555   2.302   1.870
  157SOL     OW 1369   5.981   2.994   2.630
  157SOL    HW1 1370   6.066   3.034   2.596
  157SOL    HW2 1371   5.903   3.037   2.583
  158SOL     OW 1372   1.453   1.602   3.629
  158SOL    HW1 1373   1.385   1.560   3.688
  158SOL    HW2 1374   1.436   1.700   3.622
  159SOL     OW 1375   4.888   3.551   2.309
  159SOL    HW1 1376   4.865   3.516   2.218
  159SOL    HW2 1377   4.892   3.651   2.306
  160SOL     OW 1378   6.553   4.466   5.768
  160SOL    HW1 1379   6.504   4.380   5.752
  160SOL    HW2 1380   6.581   4.471   5.864
  161SOL     OW 1381   3.650   4.605   5.690
  161SOL    HW1 1382   3.594   4.585   5.610
  161SOL    HW2 1383   3.597   4.587   5.773
  162SOL     OW 1384   4.663   6.375   2.058
  162SOL    HW1 1385   4.673   6.290   2.109
  162SOL    HW2 1386   4.636   6.448   2.120
  163SOL     OW 1387   5.219   0.597   1.863
  163SOL    HW1 1388   5.248   0.582   1.957
  163SOL    HW2 1389   5.217   0.510   1.814
  164SOL     OW 1390   6.375   3.232   1.537
  164SOL    HW1 1391   6.409   3.230   1.443
  164SOL    HW2 1392   6.334   3.322   1.555
  165SOL     OW 1393   5.884   4.138   6.337
  165SOL    HW1 1394   5.822   4.076   6.288
  165SOL    HW2 1395   5.835   4.222   6.361
  166SOL     OW 1396   1.489   0.299   1.191
  166SOL    HW1 1397   1.525   0.392   1.199
  166SOL    HW2 1398   1.401   0.301   1.144
  167SOL     OW 1399   6.527   3.247   0.726
  167SOL    HW1 1400   6.455   3.206   0.782
  167SOL    HW2 1401   6.498   3.250   0.631
  168SOL     OW 1402   2.674   5.593   1.465
  168SOL    HW1 1403   2.721   5.530   1.527
  168SOL    HW2 1404   2.601   5.544   1.418
  169SOL     OW 1405   1.271   0.084   1.392
  169SOL    HW1 1406   1.239   0.054   1.303
  169SOL    HW2 1407   1.313   0.007   1.440
  170SOL     OW 1408   0.696   1.445   2.987
  170SOL    HW1 1409   0.597   1.456   2.989
  170SOL    HW2 1410   0.731   1.442   3.081
  171SOL     OW 1411   3.299   3.799   0.456
  171SOL    HW1 1412   3.324   3.718   0.404
  171SOL    HW2 1413   3.377   3.828   0.513
  172SOL     OW 1414   6.857   3.071   1.157
  172SOL    HW1 1415   6.880   3.130   1.079
  172SOL    HW2 1416   6.907   2.985   1.151
  173SOL     OW 1417   0.312   6.093   5.584
  173SOL    HW1 1418   0.276   6.182   5.555
  173SOL    HW2 1419   0.404   6.081   5.548
  174SOL     OW 1420   2.808   5.574   3.397
  174SOL    HW1 1421   2.892   5.558   3.347
  174SOL    HW2 1422   2.798   5.672   3.416
  175SOL     OW 1423   0.617   5.578   2.815
  175SOL    HW1 1424   0.679   5.647   2.779
  175SOL    HW2 1425   0.524   5.615   2.817
  176SOL     OW 1426   3.223   5.491   0.588
  176SOL    HW1 1427   3.173   5.433   0.523
  176SOL    HW2 1428   3.320   5.493   0.564
  177SOL     OW 1429   4.462   2.444   3.244
  177SOL    HW1 1430   4.428   2.449   3.151
  177SOL    HW2 1431   4.533   2.512   3.258
  178SOL     OW 1432   5.524   4.319   5.820
  178SOL    HW1 1433   5.619   4.305   5.793
  178SOL    HW2 1434   5.472   4.355   5.743
  179SOL     OW 1435   3.114   0.036   1.349
  179SOL    HW1 1436   3.126   6.960   1.380
  179SOL    HW2 1437   3.019   0.049   1.318
  180SOL     OW 1438   1.252   2.395   6.858
  180SOL    HW1 1439   1.211   2.360   6.942
  180SOL    HW2 1440   1.336   2.344   6.839
  181SOL     OW 1441   3.232   2.971   4.744
  181SOL    HW1 1442   3.190   2.888   4.780
  181SOL    HW2 1443   3.189   3.051   4.786
  182SOL     OW 1444   4.714   2.701   5.205
  182SOL    HW1 1445   4.687   2.705   5.109
  182SOL    HW2 1446   4.803   2.657   5.213
  183SOL     OW 1447   5.695   1.736   2.395
  183SOL    HW1 1448   5.718   1.724   2.299
  183SOL    HW2 1449   5.754   1.806   2.435
  184SOL     OW 1450   0.410   4.348   3.004
  184SOL    HW1 1451   0.427   4.441   3.035
  184SOL    HW2 1452   0.434   4.283   3.077
  185SOL     OW 1453   2.566   3.225   6.362
  185SOL    HW1 1454   2.545   3.147   6.420
  185SOL    HW2 1455   2.530   3.309   6.404
  186SOL     OW 1456   5.950   6.555   3.615
  186SOL    HW1 1457   5.925   6.472   3.664
  186SOL    HW2 1458   5.876   6.580   3.552
  187SOL     OW 1459   5.732   0.969   4.233
  187SOL    HW1 1460   5.771   0.964   4.141
  187SOL    HW2 1461   5.678   1.053   4.242
  188SOL     OW 1462   6.139   2.393   4.381
  188SOL    HW1 1463   6.187   2.368   4.465
  188SOL    HW2 1464   6.051   2.346   4.377
  189SOL     OW 1465   1.666   4.280   2.668
  189SOL    HW1 1466   1.704   4.187   2.663
  189SOL    HW2 1467   1.567   4.275   2.678
  190SOL     OW 1468   2.867   1.333   6.836
  190SOL    HW1 1469   2.796   1.268   6.862
  190SOL    HW2 1470   2.914   1.301   6.754
  191SOL     OW 1471   4.172   6.411   5.744
  191SOL    HW1 1472   4.090   6.468   5.749
  191SOL    HW2 1473   4.158   6.339   5.676
  192SOL     OW 1474   6.859   0.120   1.013
  192SOL    HW1 1475   6.866   0.023   0.987
  192SOL    HW2 1476   6.853   0.176   0.931
  193SOL     OW 1477   5.507   4.178   0.111
  193SOL    HW1 1478   5.575   4.154   0.181
  193SOL    HW2 1479   5.437   4.107   0.108
  194SOL     OW 1480   4.692   0.201   4.518
  194SOL    HW1 1481   4.640   0.277   4.557
  194SOL    HW2 1482   4.636   0.155   4.449
  195SOL     OW 1483   6.629   5.394   3.555
  195SOL    HW1 1484   6.652   5.308   3.600
  195SOL    HW2 1485   6.608   5.463   3.624
  196SOL     OW 1486   1.176   0.884   0.962
  196SOL    HW1 1487   1.115   0.959   0.939
  196SOL    HW2 1488   1.271   0.915   0.957
  197SOL     OW 1489   1.863   0.863   0.715
  197SOL    HW1 1490   1.783   0.921   0.724
  197SOL    HW2 1491   1.908   0.853   0.804
  198SOL     OW 1492   2.658   1.185   4.098
  198SOL    HW1 1493   2.623   1.273   4.132
  198SOL    HW2 1494   2.624   1.170   4.005
  199SOL     OW 1495   0.932   1.773   4.574
  199SOL    HW1 1496   0.849   1.795   4.524
  199SOL    HW2 1497   0.984   1.702   4.525
  200SOL     OW 1498   6.446   2.026   0.035
  200SOL    HW1 1499   6.398   2.038   0.123
  200SOL    HW2 1500   6.379   2.024   6.979
  201SOL     OW 1501   0.384   0.926   6.331
  201SOL    HW1 1502   0.435   1.005   6.298
  201SOL    HW2 1503   0.291   0.955   6.356
  202SOL     OW 1504   5.115   0.066   0.683
  202SOL    HW1 1505   5.076   6.995   0.661
  202SOL    HW2 1506   5.049   0.138   0.663
  203SOL     OW 1507   6.137   2.702   6.150
  203SOL    HW1 1508   6.220   2.734   6.195
  203SOL    HW2 1509   6.108   2.768   6.080
  204SOL     OW 1510   6.234   0.734   5.031
  204SOL    HW1 1511   6.288   0.661   4.990
  204SOL    HW2 1512   6.189   0.786   4.959
  205SOL     OW 1513   2.059   3.800   2.777
  205SOL    HW1 1514   2.038   3.876   2.715
  205SOL    HW2 1515   2.068   3.835   2.871
  206SOL     OW 1516   6.909   3.299   0.583
  206SOL    HW1 1517   6.914   3.201   0.601
  206SOL    HW2 1518   6.848   3.315   0.505
  207SOL     OW 1519   6.057   2.621   4.671
  207SOL    HW1 1520   6.099   2.709   4.694
  207SOL    HW2 1521   6.014   2.627   4.581
  208SOL     OW 1522   1.400   3.571   5.304
  208SOL    HW1 1523   1.460   3.520   5.242
  208SOL    HW2 1524   1.438   3.566   5.397
  209SOL     OW 1525   6.899   4.494   2.933
  209SOL    HW1 1526   6.806   4.467   2.957
  209SOL    HW2 1527   6.956   4.492   3.016
  210SOL     OW 1528   4.724   2.968   0.292
  210SOL    HW1 1529   4.805   2.953   0.235
  210SOL    HW2 1530   4.752   2.991   0.385
  211SOL     OW 1531   1.165   1.319   2.050
  211SOL    HW1 1532   1.138   1.278   2.137
  211SOL    HW2 1533   1.176   1.418   2.062
  212SOL     OW 1534   1.921   3.813   2.249
  212SOL    HW1 1535   1.975   3.742   2.202
  212SOL    HW2 1536   1.871   3.867   2.181
  213SOL     OW 1537   1.241   5.067   0.964
  213SOL    HW1 1538   1.192   4.981   0.947
  213SOL    HW2 1539   1.225   5.129   0.887
  214SOL     OW 1540   5.532   6.876   2.086
  214SOL    HW1 1541   5.542   6.925   2.173
  214SOL    HW2 1542   5.467   6.925   2.028
  215SOL     OW 1543   2.215   5.230   2.847
  215SOL    HW1 1544   2.286   5.282   2.800
  215SOL    HW2 1545   2.245   5.135   2.859
  216SOL     OW 1546   1.340   6.108   3.078
  216SOL    HW1 1547   1.317   6.012   3.091
  216SOL    HW2 1548   1.404   6.137   3.149
  217SOL     OW 1549   0.816   4.623   5.749
  217SOL    HW1 1550   0.719   4.602   5.766
  217SOL    HW2 1551   0.870   4.540   5.759
  218SOL     OW 1552   2.247   1.880   5.211
  218SOL    HW1 1553   2.228   1.970   5.172
  218SOL    HW2 1554   2.253   1.812   5.138
  219SOL     OW 1555   4.432   2.311   1.316
  219SOL    HW1 1556   4.402   2.380   1.382
  219SOL    HW2 1557   4.402   2.336   1.224
  220SOL     OW 1558   3.546   6.543   1.378
  220SOL    HW1 1559   3.598   6.524   1.461
  220SOL    HW2 1560   3.609   6.564   1.303
  221SOL     OW 1561   5.258   4.571   2.056
  221SOL    HW1 1562   5.190   4.567   2.129
  221SOL    HW2 1563   5.233   4.643   1.991
  222SOL     OW 1564   2.007   4.409   6.458
  222SOL    HW1 1565   1.945   4.486   6.466
  222SOL    HW2 1566   2.101   4.442   6.445
  223SOL     OW 1567   6.138   2.660   5.007
  223SOL    HW1 1568   6.188   2.580   4.974
  223SOL    HW2 1569   6.172   2.685   5.098
  224SOL     OW 1570   3.065   1.973   5.484
  224SOL    HW1 1571   3.050   2.036   5.408
  224SOL    HW2 1572   3.095   2.024   5.564
  225SOL     OW 1573   3.829   6.571   6.280
  225SOL    HW1 1574   3.739   6.614   6.293
  225SOL    HW2 1575   3.859   6.585   6.186
  226SOL     OW 1576   1.329   2.688   6.654
  226SOL    HW1 1577   1.367   2.702   6.745
  226SOL    HW2 1578   1.350   2.768   6.597
  227SOL     OW 1579   1.703   3.709   1.731
  227SOL    HW1 1580   1.609   3.706   1.697
  227SOL    HW2 1581   1.757   3.772   1.676
  228SOL     OW 1582   0.788   0.349   2.190
  228SOL    HW1 1583   0.785   0.288   2.111
  228SOL    HW2 1584   0.871   0.405   2.187
  229SOL     OW 1585   3.610   6.722   6.258
  229SOL    HW1 1586   3.559   6.761   6.181
  229SOL    HW2 1587   3.620   6.791   6.330
  230SOL     OW 1588   5.710   5.605   5.505
  230SOL    HW1 1589   5.642   5.538   5.536
  230SOL    HW2 1590   5.673   5.698   5.518
  231SOL     OW 1591   5.371   1.871   6.786
  231SOL    HW1 1592   5.445   1.891   6.850
  231SOL    HW2 1593   5.298   1.822   6.834
  232SOL     OW 1594   0.988   1.810   6.032
  232SOL    HW1 1595   0.985   1.732   5.969
  232SOL    HW2 1596   1.082   1.824   6.064
  233SOL     OW 1597   3.273   1.743   3.082
  233SOL    HW1 1598   3.252   1.680   3.157
  233SOL    HW2 1599   3.365   1.780   3.093
  234SOL     OW 1600   5.064   0.716   0.829
  234SOL    HW1 1601   4.980   0.746   0.873
  234SOL    HW2 1602   5.088   0.624   0.861
  235SOL     OW 1603   4.980   3.180   2.715
  235SOL    HW1 1604   4.937   3.091   2.730
  235SOL    HW2 1605   4.944   3.221   2.631
  236SOL     OW 1606   4.175   4.533   6.125
  236SOL    HW1 1607   4.235   4.560   6.050
  236SOL    HW2 1608   4.104   4.471   6.091
  237SOL     OW 1609   6.065   3.515   2.890
  237SOL    HW1 1610   6.075   3.601   2.840
  237SOL    HW2 1611   6.064   3.438   2.826
  238SOL     OW 1612   6.346   1.925   0.664
  238SOL    HW1 1613   6.270   1.875   0.704
  238SOL    HW2 1614   6.419   1.938   0.731
  239SOL     OW 1615   1.155   3.216   0.074
  239SOL    HW1 1616   1.127   3.262   7.008
  239SOL    HW2 1617   1.255   3.223   0.083
  240SOL     OW 1618   4.926   3.490   3.680
  240SOL    HW1 1619   4.924   3.471   3.582
  240SOL    HW2 1620   4.979   3.419   3.726
  241SOL     OW 1621   2.253   2.003   3.944
  241SOL    HW1 1622   2.245   1.968   3.850
  241SOL    HW2 1623   2.316   1.945   3.996
  242SOL     OW 1624   3.623   3.427   2.787
  242SOL    HW1 1625   3.587   3.347   2.738
  242SOL    HW2 1626   3.586   3.429   2.880
  243SOL     OW 1627   4.019   2.579   6.375
  243SOL    HW1 1628   3.969   2.517   6.435
  243SOL    HW2 1629   4.012   2.547   6.280
  244SOL     OW 1630   4.961   3.268   4.679
  244SOL    HW1 1631   4.925   3.215   4.756
  244SOL    HW2 1632   4.929   3.362   4.686
  245SOL     OW 1633   3.700   0.750   3.156
  245SOL    HW1 1634   3.636   0.792   3.092
  245SOL    HW2 1635   3.649   0.702   3.227
  246SOL     OW 1636   6.438   1.471   2.243
  246SOL    HW1 1637   6.508   1.400   2.234
  246SOL    HW2 1638   6.387   1.478   2.157
  247SOL     OW 1639   1.300   1.503   1.693
  247SOL    HW1 1640   1.381   1.554   1.719
  247SOL    HW2 1641   1.223   1.530   1.751
  248SOL     OW 1642   2.293   2.913   1.762
  248SOL    HW1 1643   2.266   2.844   1.695
  248SOL    HW2 1644   2.216   2.976   1.777
  249SOL     OW 1645   4.914   6.497   4.835
  249SOL    HW1 1646   4.852   6.429   4.875
  249SOL    HW2 1647   4.972   6.536   4.906
  250SOL     OW 1648   3.945   2.180   0.380
  250SOL    HW1 1649   3.914   2.274   0.366
  250SOL    HW2 1650   3.928   2.153   0.475
  251SOL     OW 1651   3.998   4.369   5.273
  251SOL    HW1 1652   4.051   4.454   5.271
  251SOL    HW2 1653   3.919   4.381   5.332
  252SOL     OW 1654   6.708   6.781   5.776
  252SOL    HW1 1655   6.699   6.703   5.713
  252SOL    HW2 1656   6.799   6.781   5.815
  253SOL     OW 1657   4.018   6.359   6.258
  253SOL    HW1 1658   3.993   6.453   6.283
  253SOL    HW2 1659   4.078   6.321   6.328
  254SOL     OW 1660   5.959   2.149   5.466
  254SOL    HW1 1661   6.038   2.159   5.527
  254SOL    HW2 1662   5.915   2.238   5.455
  255SOL     OW 1663   1.044   3.953   6.695
  255SOL    HW1 1664   0.980   4.023   6.664
  255SOL    HW2 1665   1.135   3.973   6.658
  256SOL     OW 1666   5.499   2.231   4.958
  256SOL    HW1 1667   5.442   2.313   4.960
  256SOL    HW2 1668   5.442   2.150   4.968
  257SOL     OW 1669   4.769   6.592   2.305
  257SOL    HW1 1670   4.775   6.635   2.395
  257SOL    HW2 1671   4.717   6.651   2.244
  258SOL     OW 1672   1.754   3.211   6.254
  258SOL    HW1 1673   1.845   3.176   6.233
  258SOL    HW2 1674   1.761   3.305   6.287
  259SOL     OW 1675   3.835   6.677   3.827
  259SOL    HW1 1676   3.842   6.754   3.763
  259SOL    HW2 1677   3.758   6.692   3.889
  260SOL     OW 1678   3.720   5.222   3.006
  260SOL    HW1 1679   3.811   5.183   2.992
  260SOL    HW2 1680   3.701   5.228   3.104
  261SOL     OW 1681   4.403   5.035   0.200
  261SOL    HW1 1682   4.459   5.039   0.282
  261SOL    HW2 1683   4.462   5.045   0.119
  262SOL     OW 1684   0.609   4.229   6.543
  262SOL    HW1 1685   0.560   4.161   6.598
  262SOL    HW2 1686   0.649   4.184   6.463
  263SOL     OW 1687   0.954   6.742   4.220
  263SOL    HW1 1688   1.016   6.780   4.288
  263SOL    HW2 1689   0.860   6.748   4.253
  264SOL     OW 1690   6.373   3.514   6.293
  264SOL    HW1 1691   6.392   3.602   6.336
  264SOL    HW2 1692   6.423   3.507   6.207
  265SOL     OW 1693   6.609   0.369   3.507
  265SOL    HW1 1694   6.683   0.303   3.492
  265SOL    HW2 1695   6.648   0.461   3.514
  266SOL     OW 1696   3.412   0.973   5.891
  266SOL    HW1 1697   3.415   0.997   5.987
  266SOL    HW2 1698   3.359   1.041   5.841
  267SOL     OW 1699   2.037   0.407   3.847
  267SOL    HW1 1700   2.050   0.309   3.831
  267SOL    HW2 1701   1.954   0.421   3.901
  268SOL     OW 1702   3.009   2.541   1.303
  268SOL    HW1 1703   3.047   2.633   1.314
  268SOL    HW2 1704   2.960   2.515   1.386
  269SOL     OW 1705   4.183   2.089   0.290
  269SOL    HW1 1706   4.097   2.141   0.298
  269SOL    HW2 1707   4.225   2.081   0.380
  270SOL     OW 1708   5.616   1.108   6.954
  270SOL    HW1 1709   5.589   1.150   0.022
  270SOL    HW2 1710   5.572   1.019   6.944
  271SOL     OW 1711   0.461   3.398   6.673
  271SOL    HW1 1712   0.536   3.389   6.607
  271SOL    HW2 1713   0.484   3.469   6.740
  272SOL     OW 1714   3.404   5.696   3.350
  272SOL    HW1 1715   3.389   5.794   3.340
  272SOL    HW2 1716   3.393   5.669   3.446
  273SOL     OW 1717   2.202   4.609   6.102
  273SOL    HW1 1718   2.285   4.664   6.107
  273SOL    HW2 1719   2.125   4.668   6.077
  274SOL     OW 1720   5.178   2.749   3.772
  274SOL    HW1 1721   5.115   2.672   3.767
  274SOL    HW2 1722   5.187   2.790   3.681
  275SOL     OW 1723   5.960   6.417   1.290
  275SOL    HW1 1724   5.932   6.499   1.239
  275SOL    HW2 1725   5.879   6.366   1.319
  276SOL     OW 1726   0.695   0.692   5.099
  276SOL    HW1 1727   0.713   0.784   5.134
  276SOL    HW2 1728   0.779   0.653   5.061
  277SOL     OW 1729   2.097   4.500   0.850
  277SOL    HW1 1730   2.123   4.526   0.943
  277SOL    HW2 1731   1.998   4.484   0.847
  278SOL     OW 1732   0.576   3.244   2.503
  278SOL    HW1 1733   0.649   3.175   2.508
  278SOL    HW2 1734   0.488   3.198   2.495
  279SOL     OW 1735   6.317   1.343   3.762
  279SOL    HW1 1736   6.305   1.441   3.776
  279SOL    HW2 1737   6.299   1.320   3.666
  280SOL     OW 1738   1.521   4.773   2.076
  280SOL    HW1 1739   1.556   4.699   2.019
  280SOL    HW2 1740   1.465   4.736   2.150
  281SOL     OW 1741   2.296   4.390   1.425
  281SOL    HW1 1742   2.369   4.328   1.452
  281SOL    HW2 1743   2.281   4.383   1.326
  282SOL     OW 1744   2.748   1.531   6.047
  282SOL    HW1 1745   2.811   1.585   6.103
  282SOL    HW2 1746   2.720   1.584   5.967
  283SOL     OW 1747   3.618   2.058   5.837
  283SOL    HW1 1748   3.581   2.107   5.916
  283SOL    HW2 1749   3.542   2.023   5.782
  284SOL     OW 1750   1.227   3.882   4.150
  284SOL    HW1 1751   1.151   3.839   4.102
  284SOL    HW2 1752   1.219   3.867   4.248
  285SOL     OW 1753   5.039   4.889   4.192
  285SOL    HW1 1754   5.119   4.886   4.251
  285SOL    HW2 1755   5.001   4.982   4.191
  286SOL     OW 1756   2.959   3.371   6.833
  286SOL    HW1 1757   3.038   3.325   6.874
  286SOL    HW2 1758   2.990   3.428   6.756
  287SOL     OW 1759   1.547   2.809   0.319
  287SOL    HW1 1760   1.580   2.874   0.251
  287SOL    HW2 1761   1.582   2.835   0.409
  288SOL     OW 1762   4.602   3.516   0.735
  288SOL    HW1 1763   4.525   3.469   0.779
  288SOL    HW2 1764   4.596   3.614   0.752
  289SOL     OW 1765   3.782   5.504   6.174
  289SOL    HW1 1766   3.840   5.424   6.186
  289SOL    HW2 1767   3.736   5.526   6.260
  290SOL     OW 1768   1.628   1.328   4.594
  290SOL    HW1 1769   1.720   1.354   4.566
  290SOL    HW2 1770   1.584   1.275   4.521
  291SOL     OW 1771   6.231   2.243   2.807
  291SOL    HW1 1772   6.252   2.336   2.836
  291SOL    HW2 1773   6.285   2.220   2.726
  292SOL     OW 1774   3.023   0.005   4.148
  292SOL    HW1 1775   3.044   6.970   4.065
  292SOL    HW2 1776   3.096   0.070   4.165
  293SOL     OW 1777   3.378   4.942   3.410
  293SOL    HW1 1778   3.298   4.910   3.460
  293SOL    HW2 1779   3.410   5.028   3.449
  294SOL     OW 1780   4.471   0.824   0.658
  294SOL    HW1 1781   4.424   0.803   0.744
  294SOL    HW2 1782   4.437   0.765   0.585
  295SOL     OW 1783   5.724   6.819   2.986
  295SOL    HW1 1784   5.663   6.896   3.006
  295SOL    HW2 1785   5.718   6.753   3.061
  296SOL     OW 1786   2.542   2.076   3.029
  296SOL    HW1 1787   2.607   2.143   2.993
  296SOL    HW2 1788   2.560   1.986   2.990
  297SOL     OW 1789   1.712   5.387   1.963
  297SOL    HW1 1790   1.739   5.351   1.874
  297SOL    HW2 1791   1.749   5.328   2.035
  298SOL     OW 1792   6.653   4.647   0.923
  298SOL    HW1 1793   6.627   4.716   0.855
  298SOL    HW2 1794   6.726   4.590   0.885
  299SOL     OW 1795   5.730   2.496   4.630
  299SOL    HW1 1796   5.725   2.534   4.537
  299SOL    HW2 1797   5.704   2.565   4.696
  300SOL     OW 1798   6.789   6.865   2.165
  300SOL    HW1 1799   6.850   6.903   2.234
  300SOL    HW2 1800   6.795   6.919   2.081
  301SOL     OW 1801   4.231   2.623   5.688
  301SOL    HW1 1802   4.156   2.686   5.707
  301SOL    HW2 1803   4.313   2.675   5.665
  302SOL     OW 1804   0.843   6.208   3.964
  302SOL    HW1 1805   0.784   6.130   3.983
  302SOL    HW2 1806   0.905   6.185   3.889
  303SOL     OW 1807   5.978   6.880   2.935
  303SOL    HW1 1808   6.014   6.855   2.845
  303SOL    HW2 1809   5.884   6.847   2.944
  304SOL     OW 1810   3.610   6.798   3.548
  304SOL    HW1 1811   3.643   6.709   3.517
  304SOL    HW2 1812   3.567   6.789   3.638
  305SOL     OW 1813   1.685   4.134   1.079
  305SOL    HW1 1814   1.700   4.042   1.042
  305SOL    HW2 1815   1.623   4.185   1.019
  306SOL     OW 1816   2.035   0.624   3.668
  306SOL    HW1 1817   2.048   0.714   3.709
  306SOL    HW2 1818   2.020   0.556   3.740
  307SOL     OW 1819   3.136   0.356   1.704
  307SOL    HW1 1820   3.129   0.357   1.803
  307SOL    HW2 1821   3.225   0.392   1.676
  308SOL     OW 1822   0.958   4.776   3.998
  308SOL    HW1 1823   0.981   4.802   3.904
  308SOL    HW2 1824   0.943   4.858   4.053
  309SOL     OW 1825   3.273   4.843   5.123
  309SOL    HW1 1826   3.302   4.905   5.051
  309SOL    HW2 1827   3.224   4.765   5.083
  310SOL     OW 1828   1.246   5.596   6.423
  310SOL    HW1 1829   1.243   5.509   6.374
  310SOL    HW2 1830   1.336   5.607   6.466
  311SOL     OW 1831   6.922   0.726   1.640
  311SOL    HW1 1832   6.932   0.638   1.593
  311SOL    HW2 1833   7.004   0.781   1.627
  312SOL     OW 1834   3.787   1.109   5.409
  312SOL    HW1 1835   3.765   1.091   5.313
  312SOL    HW2 1836   3.715   1.163   5.450
  313SOL     OW 1837   0.416   4.861   0.670
  313SOL    HW1 1838   0.446   4.887   0.578
  313SOL    HW2 1839   0.364   4.775   0.665
  314SOL     OW 1840   3.403   6.059   1.375
  314SOL    HW1 1841   3.304   6.064   1.386
  314SOL    HW2 1842   3.437   5.974   1.416
  315SOL     OW 1843   1.033   3.662   2.548
  315SOL    HW1 1844   1.025   3.623   2.640
  315SOL    HW2 1845   0.946   3.705   2.522
  316SOL     OW 1846   2.134   3.515   4.892
  316SOL    HW1 1847   2.041   3.480   4.888
  316SOL    HW2 1848   2.194   3.446   4.932
  317SOL     OW 1849   6.511   1.103   6.999
  317SOL    HW1 1850   6.593   1.072   0.029
  317SOL    HW2 1851   6.487   1.195   0.013
  318SOL     OW 1852   2.762   4.635   1.128
  318SOL    HW1 1853   2.796   4.541   1.125
  318SOL    HW2 1854   2.742   4.661   1.222
  319SOL     OW 1855   1.426   0.032   6.761
  319SOL    HW1 1856   1.447   0.121   6.800
  319SOL    HW2 1857   1.467   0.024   6.670
  320SOL     OW 1858   5.571   3.155   0.702
  320SOL    HW1 1859   5.625   3.238   0.686
  320SOL    HW2 1860   5.577   3.130   0.799
  321SOL     OW 1861   2.211   1.341   2.493
  321SOL    HW1 1862   2.161   1.396   2.426
  321SOL    HW2 1863   2.210   1.245   2.463
  322SOL     OW 1864   3.421   2.048   5.574
  322SOL    HW1 1865   3.343   2.041   5.637
  322SOL    HW2 1866   3.441   1.957   5.536
  323SOL     OW 1867   0.363   4.538   1.781
  323SOL    HW1 1868   0.436   4.564   1.844
  323SOL    HW2 1869   0.371   4.441   1.759
  324SOL     OW 1870   0.556   2.912   4.328
  324SOL    HW1 1871   0.545   2.999   4.376
  324SOL    HW2 1872   0.650   2.904   4.296
  325SOL     OW 1873   2.169   1.909   3.096
  325SOL    HW1 1874   2.104   1.957   3.036
  325SOL    HW2 1875   2.251   1.966   3.107
  326SOL     OW 1876   2.132   4.395   5.288
  326SOL    HW1 1877   2.136   4.295   5.291
  326SOL    HW2 1878   2.208   4.430   5.234
  327SOL     OW 1879   6.164   5.080   6.386
  327SOL    HW1 1880   6.178   5.179   6.392
  327SOL    HW2 1881   6.242   5.037   6.340
  328SOL     OW 1882   3.703   5.698   1.885
  328SOL    HW1 1883   3.704   5.792   1.853
  328SOL    HW2 1884   3.750   5.692   1.973
  329SOL     OW 1885   3.241   4.048   2.646
  329SOL    HW1 1886   3.242   4.115   2.721
  329SOL    HW2 1887   3.238   3.956   2.684
  330SOL     OW 1888   2.531   2.055   2.136
  330SOL    HW1 1889   2.556   2.065   2.040
  330SOL    HW2 1890   2.545   2.142   2.184
  331SOL     OW 1891   5.831   4.221   5.449
  331SOL    HW1 1892   5.905   4.182   5.504
  331SOL    HW2 1893   5.744   4.180   5.476
  332SOL     OW 1894   4.349   2.060   3.270
  332SOL    HW1 1895   4.400   2.104   3.196
  332SOL    HW2 1896   4.373   2.102   3.357
  333SOL     OW 1897   4.520   5.881   0.367
  333SOL    HW1 1898   4.428   5.911   0.343
  333SOL    HW2 1899   4.580   5.890   0.288
  334SOL     OW 1900   5.160   6.310   2.587
  334SOL    HW1 1901   5.253   6.275   2.585
  334SOL    HW2 1902   5.103   6.257   2.524
  335SOL     OW 1903   3.551   6.796   2.944
  335SOL    HW1 1904   3.579   6.736   3.018
  335SOL    HW2 1905   3.519   6.883   2.982
  336SOL     OW 1906   3.641   0.173   4.793
  336SOL    HW1 1907   3.636   0.208   4.887
  336SOL    HW2 1908   3.643   0.251   4.730
  337SOL     OW 1909   0.171   4.573   2.000
  337SOL    HW1 1910   0.089   4.611   1.957
  337SOL    HW2 1911   0.236   4.547   1.929
  338SOL     OW 1912   2.370   2.039   1.739
  338SOL    HW1 1913   2.450   2.068   1.792
  338SOL    HW2 1914   2.302   2.001   1.801
  339SOL     OW 1915   4.599   1.380   3.001
  339SOL    HW1 1916   4.513   1.423   2.972
  339SOL    HW2 1917   4.588   1.344   3.093
  340SOL     OW 1918   4.636   4.416   4.576
  340SOL    HW1 1919   4.628   4.512   4.552
  340SOL    HW2 1920   4.635   4.405   4.675
  341SOL     OW 1921   4.526   5.003   5.707
  341SOL    HW1 1922   4.560   5.075   5.647
  341SOL    HW2 1923   4.461   4.946   5.657
  342SOL     OW 1924   5.661   3.736   0.260
  342SOL    HW1 1925   5.681   3.661   0.196
  342SOL    HW2 1926   5.725   3.733   0.336
  343SOL     OW 1927   2.213   0.610   2.336
  343SOL    HW1 1928   2.146   0.537   2.349
  343SOL    HW2 1929   2.219   0.665   2.419
  344SOL     OW 1930   4.138   6.394   0.330
  344SOL    HW1 1931   4.227   6.374   0.372
  344SOL    HW2 1932   4.069   6.331   0.366
  345SOL     OW 1933   1.345   1.544   6.031
  345SOL    HW1 1934   1.442   1.523   6.024
  345SOL    HW2 1935   1.333   1.627   6.086
  346SOL     OW 1936   3.590   0.664   4.472
  346SOL    HW1 1937   3.499   0.656   4.431
  346SOL    HW2 1938   3.643   0.582   4.451
  347SOL     OW 1939   4.455   6.740   5.965
  347SOL    HW1 1940   4.393   6.735   6.044
  347SOL    HW2 1941   4.441   6.660   5.907
  348SOL     OW 1942   2.440   6.259   2.899
  348SOL    HW1 1943   2.371   6.277   2.829
  348SOL    HW2 1944   2.453   6.342   2.954
  349SOL     OW 1945   2.644   4.910   2.083
  349SOL    HW1 1946   2.742   4.901   2.070
  349SOL    HW2 1947   2.607   4.825   2.121
  350SOL     OW 1948   4.425   3.399   0.906
  350SOL    HW1 1949   4.348   3.336   0.896
  350SOL    HW2 1950   4.503   3.350   0.946
  351SOL     OW 1951   2.973   1.787   0.636
  351SOL    HW1 1952   3.057   1.834   0.662
  351SOL    HW2 1953   2.897   1.853   0.635
  352SOL     OW 1954   2.726   1.953   5.854
  352SOL    HW1 1955   2.678   1.976   5.938
  352SOL    HW2 1956   2.718   1.855   5.836
  353SOL     OW 1957   2.096   0.075   1.276
  353SOL    HW1 1958   2.136   0.060   1.367
  353SOL    HW2 1959   2.076   0.172   1.264
  354SOL     OW 1960   5.151   0.388   2.342
  354SOL    HW1 1961   5.079   0.439   2.296
  354SOL    HW2 1962   5.111   0.335   2.417
  355SOL     OW 1963   1.415   1.221   2.004
  355SOL    HW1 1964   1.318   1.241   2.009
  355SOL    HW2 1965   1.456   1.234   2.095
  356SOL     OW 1966   3.760   0.133   3.040
  356SOL    HW1 1967   3.779   0.218   3.089
  356SOL    HW2 1968   3.681   0.146   2.980
  357SOL     OW 1969   1.224   4.715   5.292
  357SOL    HW1 1970   1.140   4.733   5.240
  357SOL    HW2 1971   1.224   4.619   5.321
  358SOL     OW 1972   5.138   1.224   2.958
  358SOL    HW1 1973   5.100   1.139   2.995
  358SOL    HW2 1974   5.065   1.289   2.939
  359SOL     OW 1975   0.764   1.789   0.287
  359SOL    HW1 1976   0.779   1.726   0.363
  359SOL    HW2 1977   0.666   1.801   0.272
  360SOL     OW 1978   5.265   0.282   0.509
  360SOL    HW1 1979   5.226   0.209   0.564
  360SOL    HW2 1980   5.362   0.292   0.531
  361SOL     OW 1981   3.218   0.871   2.886
  361SOL    HW1 1982   3.187   0.918   2.969
  361SOL    HW2 1983   3.219   0.935   2.810
  362SOL     OW 1984   2.529   3.748   1.139
  362SOL    HW1 1985   2.574   3.751   1.050
  362SOL    HW2 1986   2.597   3.758   1.211
  363SOL     OW 1987   4.576   4.467   3.525
  363SOL    HW1 1988   4.584   4.436   3.619
  363SOL    HW2 1989   4.638   4.545   3.510
  364SOL     OW 1990   2.205   6.019   6.056
  364SOL    HW1 1991   2.298   6.041   6.085
  364SOL    HW2 1992   2.206   5.940   5.995
  365SOL     OW 1993   4.844   0.154   2.889
  365SOL    HW1 1994   4.906   0.113   2.956
  365SOL    HW2 1995   4.750   0.146   2.921
  366SOL     OW 1996   5.312   1.263   0.288
  366SOL    HW1 1997   5.229   1.216   0.321
  366SOL    HW2 1998   5.306   1.360   0.311
  367SOL     OW 1999   4.540   2.087   2.590
  367SOL    HW1 2000   4.570   2.096   2.496
  367SOL    HW2 2001   4.589   2.153   2.647
  368SOL     OW 2002   1.101   5.069   5.241
  368SOL    HW1 2003   1.056   4.980   5.253
  368SOL    HW2 2004   1.032   5.142   5.243
  369SOL     OW 2005   0.660   3.963   1.348
  369SOL    HW1 2006   0.752   3.995   1.329
  369SOL    HW2 2007   0.663   3.885   1.410
  370SOL     OW 2008   3.844   1.566   6.528
  370SOL    HW1 2009   3.871   1.660   6.552
  370SOL    HW2 2010   3.829   1.561   6.429
  371SOL     OW 2011   3.471   3.033   6.186
  371SOL    HW1 2012   3.389   3.010   6.134
  371SOL    HW2 2013   3.552   3.009   6.132
  372SOL     OW 2014   2.255   5.326   0.015
  372SOL    HW1 2015   2.259   5.249   0.080
  372SOL    HW2 2016   2.160   5.347   7.013
  373SOL     OW 2017   6.166   6.805   6.443
  373SOL    HW1 2018   6.121   6.723   6.406
  373SOL    HW2 2019   6.112   6.841   6.520
  374SOL     OW 2020   4.534   0.998   1.286
  374SOL    HW1 2021   4.583   0.930   1.230
  374SOL    HW2 2022   4.484   1.060   1.225
  375SOL     OW 2023   6.655   4.242   0.613
  375SOL    HW1 2024   6.694   4.317   0.558
  375SOL    HW2 2025   6.702   4.237   0.701
  376SOL     OW 2026   1.795   3.980   4.708
  376SOL    HW1 2027   1.846   4.033   4.776
  376SOL    HW2 2028   1.828   3.886   4.707
  377SOL     OW 2029   5.088   1.634   4.637
  377SOL    HW1 2030   5.164   1.627   4.572
  377SOL    HW2 2031   5.042   1.722   4.626
  378SOL     OW 2032   5.731   2.233   5.112
  378SOL    HW1 2033   5.687   2.229   5.022
  378SOL    HW2 2034   5.667   2.270   5.179
  379SOL     OW 2035   6.729   2.640   1.484
  379SOL    HW1 2036   6.817   2.635   1.531
  379SOL    HW2 2037   6.657   2.659   1.551
  380SOL     OW 2038   1.430   1.905   0.095
  380SOL    HW1 2039   1.449   1.834   0.028
  380SOL    HW2 2040   1.335   1.936   0.085
  381SOL     OW 2041   4.342   5.319   0.140
  381SOL    HW1 2042   4.245   5.337   0.121
  381SOL    HW2 2043   4.360   5.221   0.131
  382SOL     OW 2044   2.747   5.313   0.448
  382SOL    HW1 2045   2.703   5.364   0.522
  382SOL    HW2 2046   2.676   5.272   0.390
  383SOL     OW 2047   6.529   1.987   0.485
  383SOL    HW1 2048   6.522   2.074   0.435
  383SOL    HW2 2049   6.453   1.979   0.549
  384SOL     OW 2050   1.117   5.446   5.061
  384SOL    HW1 2051   1.185   5.405   5.122
  384SOL    HW2 2052   1.057   5.374   5.025
  385SOL     OW 2053   4.733   5.307   1.814
  385SOL    HW1 2054   4.734   5.406   1.797
  385SOL    HW2 2055   4.822   5.268   1.790
  386SOL     OW 2056   2.701   6.183   4.522
  386SOL    HW1 2057   2.696   6.151   4.427
  386SOL    HW2 2058   2.690   6.282   4.524
  387SOL     OW 2059   6.553   0.564   6.070
  387SOL    HW1 2060   6.556   0.566   6.170
  387SOL    HW2 2061   6.613   0.491   6.036
  388SOL     OW 2062   0.127   1.782   4.426
  388SOL    HW1 2063   0.159   1.750   4.515
  388SOL    HW2 2064   0.193   1.846   4.387
  389SOL     OW 2065   4.801   3.554   1.869
  389SOL    HW1 2066   4.852   3.499   1.936
  389SOL    HW2 2067   4.749   3.493   1.809
  390SOL     OW 2068   4.143   2.666   6.804
  390SOL    HW1 2069   4.223   2.667   6.865
  390SOL    HW2 2070   4.161   2.726   6.726
  391SOL     OW 2071   3.988   3.865   3.748
  391SOL    HW1 2072   4.025   3.797   3.811
  391SOL    HW2 2073   4.008   3.838   3.654
  392SOL     OW 2074   1.866   3.880   1.621
  392SOL    HW1 2075   1.886   3.881   1.523
  392SOL    HW2 2076   1.950   3.870   1.672
  393SOL     OW 2077   1.281   5.724   1.674
  393SOL    HW1 2078   1.357   5.782   1.702
  393SOL    HW2 2079   1.284   5.709   1.575
  394SOL     OW 2080   6.155   1.133   6.132
  394SOL    HW1 2081   6.241   1.108   6.177
  394SOL    HW2 2082   6.126   1.060   6.071
  395SOL     OW 2083   6.047   4.403   6.913
  395SOL    HW1 2084   6.083   4.471   6.976
  395SOL    HW2 2085   6.120   4.340   6.885
  396SOL     OW 2086   0.994   0.923   1.339
  396SOL    HW1 2087   0.941   0.954   1.260
  396SOL    HW2 2088   0.938   0.926   1.421
  397SOL     OW 2089   4.539   2.333   4.820
  397SOL    HW1 2090   4.612   2.287   4.872
  397SOL    HW2 2091   4.451   2.290   4.842
  398SOL     OW 2092   0.387   1.467   2.946
  398SOL    HW1 2093   0.304   1.521   2.958
  398SOL    HW2 2094   0.373   1.399   2.875
  399SOL     OW 2095   5.607   6.193   3.315
  399SOL    HW1 2096   5.664   6.113   3.296
  399SOL    HW2 2097   5.517   6.163   3.347
  400SOL     OW 2098   6.920   6.520   3.192
  400SOL    HW1 2099   6.844   6.460   3.170
  400SOL    HW2 2100   6.938   6.517   3.291
  401SOL     OW 2101   1.077   5.590   4.842
  401SOL    HW1 2102   1.092   5.545   4.931
  401SOL    HW2 2103   1.008   5.539   4.791
  402SOL     OW 2104   5.998   1.415   3.954
  402SOL    HW1 2105   6.048   1.462   3.880
  402SOL    HW2 2106   5.946   1.339   3.916
  403SOL     OW 2107   2.875   1.849   4.781
  403SOL    HW1 2108   2.898   1.888   4.870
  403SOL    HW2 2109   2.867   1.922   4.713
  404SOL     OW 2110   2.878   5.178   3.953
  404SOL    HW1 2111   2.965   5.220   3.982
  404SOL    HW2 2112   2.869   5.187   3.853
  405SOL     OW 2113   2.777   4.935   4.034
  405SOL    HW1 2114   2.846   4.891   4.092
  405SOL    HW2 2115   2.813   5.021   3.999
  406SOL     OW 2116   0.507   6.810   6.468
  406SOL    HW1 2117   0.502   6.728   6.412
  406SOL    HW2 2118   0.488   6.787   6.563
  407SOL     OW 2119   2.051   3.593   4.020
  407SOL    HW1 2120   1.986   3.557   4.087
  407SOL    HW2 2121   2.078   3.686   4.045
  408SOL     OW 2122   2.638   2.303   2.230
  408SOL    HW1 2123   2.733   2.284   2.205
  408SOL    HW2 2124   2.634   2.386   2.286
  409SOL     OW 2125   0.252   2.847   2.452
  409SOL    HW1 2126   0.255   2.748   2.438
  409SOL    HW2 2127   0.258   2.893   2.363
  410SOL     OW 2128   1.805   3.156   1.978
  410SOL    HW1 2129   1.813   3.122   1.885
  410SOL    HW2 2130   1.886   3.210   2.002
  411SOL     OW 2131   6.882   1.638   0.746
  411SOL    HW1 2132   6.977   1.618   0.722
  411SOL    HW2 2133   6.825   1.632   0.663
  412SOL     OW 2134   1.736   4.668   2.714
  412SOL    HW1 2135   1.646   4.705   2.740
  412SOL    HW2 2136   1.724   4.603   2.638
  413SOL     OW 2137   6.028   4.811   2.095
  413SOL    HW1 2138   6.103   4.828   2.031
  413SOL    HW2 2139   6.031   4.878   2.169
  414SOL     OW 2140   2.335   6.780   3.223
  414SOL    HW1 2141   2.254   6.819   3.180
  414SOL    HW2 2142   2.399   6.854   3.246
  415SOL     OW 2143   5.875   2.675   0.048
  415SOL    HW1 2144   5.810   2.691   0.122
  415SOL    HW2 2145   5.829   2.627   6.991
  416SOL     OW 2146   6.119   3.257   6.250
  416SOL    HW1 2147   6.212   3.281   6.278
  416SOL    HW2 2148   6.110   3.265   6.151
  417SOL     OW 2149   2.268   2.402   5.755
  417SOL    HW1 2150   2.180   2.397   5.800
  417SOL    HW2 2151   2.335   2.349   5.806
  418SOL     OW 2152   3.688   6.119   6.224
  418SOL    HW1 2153   3.604   6.127   6.171
  418SOL    HW2 2154   3.760   6.173   6.179
  419SOL     OW 2155   5.396   0.856   0.021
  419SOL    HW1 2156   5.312   0.906   0.040
  419SOL    HW2 2157   5.468   0.888   0.083
  420SOL     OW 2158   3.495   6.843   1.180
  420SOL    HW1 2159   3.445   6.757   1.169
  420SOL    HW2 2160   3.587   6.833   1.141
  421SOL     OW 2161   4.793   4.003   2.827
  421SOL    HW1 2162   4.778   4.047   2.739
  421SOL    HW2 2163   4.741   4.052   2.898
  422SOL     OW 2164   4.042   2.035   1.811
  422SOL    HW1 2165   4.128   2.034   1.863
  422SOL    HW2 2166   3.968   2.002   1.869
  423SOL     OW 2167   3.246   1.483   6.221
  423SOL    HW1 2168   3.161   1.432   6.233
  423SOL    HW2 2169   3.242   1.567   6.275
  424SOL     OW 2170   1.655   4.123   4.482
  424SOL    HW1 2171   1.665   4.052   4.551
  424SOL    HW2 2172   1.737   4.126   4.425
  425SOL     OW 2173   3.346   1.449   0.241
  425SOL    HW1 2174   3.378   1.356   0.262
  425SOL    HW2 2175   3.269   1.443   0.177
  426SOL     OW 2176   2.453   2.133   3.557
  426SOL    HW1 2177   2.365   2.167   3.525
  426SOL    HW2 2178   2.526   2.172   3.502
  427SOL     OW 2179   4.416   1.579   4.021
  427SOL    HW1 2180   4.367   1.584   3.934
  427SOL    HW2 2181   4.499   1.634   4.016
  428SOL     OW 2182   2.307   2.000   6.575
  428SOL    HW1 2183   2.218   2.019   6.616
  428SOL    HW2 2184   2.332   1.904   6.591
  429SOL     OW 2185   0.064   6.439   3.523
  429SOL    HW1 2186   0.078   6.514   3.588
  429SOL    HW2 2187   0.145   6.382   3.519
  430SOL     OW 2188   2.245   0.985   3.580
  430SOL    HW1 2189   2.298   0.956   3.500
  430SOL    HW2 2190   2.192   1.067   3.556
  431SOL     OW 2191   2.601   0.996   1.662
  431SOL    HW1 2192   2.589   1.095   1.654
  431SOL    HW2 2193   2.662   0.976   1.739
  432SOL     OW 2194   5.406   1.640   1.212
  432SOL    HW1 2195   5.493   1.653   1.164
  432SOL    HW2 2196   5.362   1.729   1.226
  433SOL     OW 2197   2.171   4.674   0.363
  433SOL    HW1 2198   2.219   4.609   0.422
  433SOL    HW2 2199   2.178   4.765   0.402
  434SOL     OW 2200   3.962   5.728   2.680
  434SOL    HW1 2201   3.892   5.656   2.686
  434SOL    HW2 2202   3.955   5.788   2.759
  435SOL     OW 2203   3.087   2.569   6.098
  435SOL    HW1 2204   3.185   2.554   6.105
  435SOL    HW2 2205   3.039   2.506   6.160
  436SOL     OW 2206   5.153   6.562   2.472
  436SOL    HW1 2207   5.159   6.649   2.522
  436SOL    HW2 2208   5.162   6.486   2.535
  437SOL     OW 2209   6.990   0.731   5.415
  437SOL    HW1 2210   6.898   0.730   5.376
  437SOL    HW2 2211   7.012   0.822   5.449
  438SOL     OW 2212   0.669   4.225   2.248
  438SOL    HW1 2213   0.765   4.204   2.230
  438SOL    HW2 2214   0.659   4.323   2.263
  439SOL     OW 2215   0.445   0.600   6.158
  439SOL    HW1 2216   0.505   0.680   6.154
  439SOL    HW2 2217   0.494   0.523   6.198
  440SOL     OW 2218   3.443   1.842   1.171
  440SOL    HW1 2219   3.518   1.785   1.137
  440SOL    HW2 2220   3.472   1.889   1.254
  441SOL     OW 2221   0.595   4.734   2.364
  441SOL    HW1 2222   0.606   4.831   2.385
  441SOL    HW2 2223   0.574   4.684   2.449
  442SOL     OW 2224   3.744   3.290   4.894
  442SOL    HW1 2225   3.705   3.308   4.804
  442SOL    HW2 2226   3.823   3.230   4.885
  443SOL     OW 2227   4.657   2.702   2.904
  443SOL    HW1 2228   4.563   2.692   2.937
  443SOL    HW2 2229   4.707   2.762   2.965
  444SOL     OW 2230   4.032   2.542   0.956
  444SOL    HW1 2231   3.945   2.544   1.004
  444SOL    HW2 2232   4.019   2.502   0.865
  445SOL     OW 2233   2.437   5.713   2.955
  445SOL    HW1 2234   2.358   5.758   2.912
  445SOL    HW2 2235   2.507   5.782   2.976
  446SOL     OW 2236   6.445   6.990   0.909
  446SOL    HW1 2237   6.347   7.007   0.917
  446SOL    HW2 2238   6.476   6.937   0.988
  447SOL     OW 2239   5.878   3.526   6.795
  447SOL    HW1 2240   5.933   3.509   6.877
  447SOL    HW2 2241   5.929   3.495   6.715
  448SOL     OW 2242   3.493   6.444   3.763
  448SOL    HW1 2243   3.582   6.410   3.734
  448SOL    HW2 2244   3.446   6.374   3.817
  449SOL     OW 2245   0.750   3.970   4.727
  449SOL    HW1 2246   0.771   3.875   4.752
  449SOL    HW2 2247   0.653   3.977   4.702
  450SOL     OW 2248   6.774   3.859   3.087
  450SOL    HW1 2249   6.700   3.841   3.023
  450SOL    HW2 2250   6.793   3.958   3.089
  451SOL     OW 2251   2.215   2.032   0.155
  451SOL    HW1 2252   2.127   2.050   0.200
  451SOL    HW2 2253   2.212   2.066   0.061
  452SOL     OW 2254   4.217   5.286   1.692
  452SOL    HW1 2255   4.235   5.382   1.714
  452SOL    HW2 2256   4.142   5.281   1.625
  453SOL     OW 2257   4.807   0.574   0.237
  453SOL    HW1 2258   4.890   0.629   0.237
  453SOL    HW2 2259   4.749   0.601   0.161
  454SOL     OW 2260   6.736   3.212   4.056
  454SOL    HW1 2261   6.655   3.154   4.043
  454SOL    HW2 2262   6.817   3.153   4.060
  455SOL     OW 2263   5.448   5.212   6.981
  455SOL    HW1 2264   5.541   5.202   6.945
  455SOL    HW2 2265   5.451   5.263   0.049
  456SOL     OW 2266   1.542   0.676   2.917
  456SOL    HW1 2267   1.609   0.627   2.863
  456SOL    HW2 2268   1.580   0.763   2.947
  457SOL     OW 2269   2.967   5.900   0.200
  457SOL    HW1 2270   3.043   5.837   0.218
  457SOL    HW2 2271   2.884   5.847   0.182
  458SOL     OW 2272   3.353   1.332   3.725
  458SOL    HW1 2273   3.306   1.419   3.734
  458SOL    HW2 2274   3.289   1.257   3.744
  459SOL     OW 2275   2.554   0.911   3.239
  459SOL    HW1 2276   2.628   0.955   3.290
  459SOL    HW2 2277   2.594   0.844   3.175
  460SOL     OW 2278   0.917   1.477   6.849
  460SOL    HW1 2279   0.946   1.545   6.917
  460SOL    HW2 2280   0.992   1.413   6.832
  461SOL     OW 2281   1.177   6.848   5.475
  461SOL    HW1 2282   1.275   6.830   5.486
  461SOL    HW2 2283   1.147   6.912   5.546
  462SOL     OW 2284   3.687   3.910   4.936
  462SOL    HW1 2285   3.786   3.916   4.920
  462SOL    HW2 2286   3.642   3.989   4.894
  463SOL     OW 2287   5.085   6.168   2.876
  463SOL    HW1 2288   5.164   6.230   2.867
  463SOL    HW2 2289   5.082   6.107   2.797
  464SOL     OW 2290   4.333   6.240   4.851
  464SOL    HW1 2291   4.354   6.305   4.778
  464SOL    HW2 2292   4.384   6.265   4.933
  465SOL     OW 2293   6.988   4.942   0.242
  465SOL    HW1 2294   7.012   4.907   0.333
  465SOL    HW2 2295   7.003   4.870   0.174
  466SOL     OW 2296   3.750   4.930   4.391
  466SOL    HW1 2297   3.697   4.999   4.442
  466SOL    HW2 2298   3.810   4.880   4.454
  467SOL     OW 2299   6.543   7.010   1.803
  467SOL    HW1 2300   6.563   6.925   1.755
  467SOL    HW2 2301   6.448   0.017   1.788
  468SOL     OW 2302   2.435   6.135   6.179
  468SOL    HW1 2303   2.530   6.137   6.147
  468SOL    HW2 2304   2.396   6.227   6.175
  469SOL     OW 2305   3.373   4.454   5.314
  469SOL    HW1 2306   3.413   4.462   5.406
  469SOL    HW2 2307   3.274   4.464   5.320
  470SOL     OW 2308   1.809   5.208   2.173
  470SOL    HW1 2309   1.861   5.223   2.257
  470SOL    HW2 2310   1.832   5.118   2.136
  471SOL     OW 2311   1.617   1.896   4.204
  471SOL    HW1 2312   1.519   1.890   4.227
  471SOL    HW2 2313   1.653   1.805   4.186
  472SOL     OW 2314   5.431   4.107   6.189
  472SOL    HW1 2315   5.340   4.141   6.213
  472SOL    HW2 2316   5.435   4.009   6.204
  473SOL     OW 2317   5.578   3.068   2.344
  473SOL    HW1 2318   5.601   2.983   2.297
  473SOL    HW2 2319   5.516   3.048   2.420
  474SOL     OW 2320   4.832   5.393   3.291
  474SOL    HW1 2321   4.795   5.479   3.326
  474SOL    HW2 2322   4.926   5.407   3.259
  475SOL     OW 2323   4.633   1.497   0.230
  475SOL    HW1 2324   4.641   1.564   0.304
  475SOL    HW2 2325   4.659   1.407   0.265
  476SOL     OW 2326   1.132   2.966   0.233
  476SOL    HW1 2327   1.113   3.058   0.201
  476SOL    HW2 2328   1.193   2.920   0.168
  477SOL     OW 2329   6.388   5.478   3.421
  477SOL    HW1 2330   6.395   5.564   3.471
  477SOL    HW2 2331   6.468   5.422   3.441
  478SOL     OW 2332   6.329   5.170   2.614
  478SOL    HW1 2333   6.280   5.090   2.580
  478SOL    HW2 2334   6.367   5.150   2.705
  479SOL     OW 2335   3.232   3.612   2.937
  479SOL    HW1 2336   3.211   3.594   3.033
  479SOL    HW2 2337   3.196   3.701   2.910
  480SOL     OW 2338   0.558   0.948   1.625
  480SOL    HW1 2339   0.580   1.018   1.693
  480SOL    HW2 2340   0.464   0.960   1.594
  481SOL     OW 2341   5.988   5.940   0.777
  481SOL    HW1 2342   6.011   6.036   0.790
  481SOL    HW2 2343   6.071   5.889   0.753
  482SOL     OW 2344   3.696   5.260   2.353
  482SOL    HW1 2345   3.687   5.214   2.264
  482SOL    HW2 2346   3.696   5.191   2.426
  483SOL     OW 2347   6.388   0.532   4.132
  483SOL    HW1 2348   6.446   0.577   4.200
  483SOL    HW2 2349   6.441   0.519   4.048
  484SOL     OW 2350   2.267   4.722   3.244
  484SOL    HW1 2351   2.341   4.753   3.303
  484SOL    HW2 2352   2.294   4.638   3.197
  485SOL     OW 2353   5.094   2.803   0.820
  485SOL    HW1 2354   5.188   2.819   0.852
  485SOL    HW2 2355   5.034   2.787   0.898
  486SOL     OW 2356   6.292   6.246   5.190
  486SOL    HW1 2357   6.198   6.211   5.192
  486SOL    HW2 2358   6.356   6.171   5.210
  487SOL     OW 2359   0.195   0.406   6.548
  487SOL    HW1 2360   0.104   0.366   6.534
  487SOL    HW2 2361   0.258   0.372   6.478
  488SOL     OW 2362   1.858   5.804   3.043
  488SOL    HW1 2363   1.773   5.758   3.067
  488SOL    HW2 2364   1.863   5.892   3.090
  489SOL     OW 2365   2.745   4.542   5.362
  489SOL    HW1 2366   2.773   4.608   5.432
  489SOL    HW2 2367   2.814   4.540   5.290
  490SOL     OW 2368   1.598   3.423   5.121
  490SOL    HW1 2369   1.597   3.508   5.069
  490SOL    HW2 2370   1.602   3.345   5.057
  491SOL     OW 2371   6.017   3.691   1.186
  491SOL    HW1 2372   6.107   3.652   1.206
  491SOL    HW2 2373   6.022   3.745   1.102
  492SOL     OW 2374   1.509   2.357   5.754
  492SOL    HW1 2375   1.534   2.440   5.704
  492SOL    HW2 2376   1.437   2.308   5.704
  493SOL     OW 2377   1.525   5.626   3.771
  493SOL    HW1 2378   1.561   5.549   3.824
  493SOL    HW2 2379   1.601   5.679   3.735
  494SOL     OW 2380   3.031   0.309   3.968
  494SOL    HW1 2381   3.029   0.255   3.884
  494SOL    HW2 2382   3.108   0.279   4.025
  495SOL     OW 2383   3.736   4.923   0.054
  495SOL    HW1 2384   3.650   4.948   0.097
  495SOL    HW2 2385   3.808   4.920   0.123
  496SOL     OW 2386   4.969   1.045   3.166
  496SOL    HW1 2387   4.990   1.129   3.216
  496SOL    HW2 2388   4.927   0.978   3.228
  497SOL     OW 2389   4.775   2.899   0.988
  497SOL    HW1 2390   4.841   2.836   1.028
  497SOL    HW2 2391   4.772   2.885   0.889
  498SOL     OW 2392   0.248   0.319   1.139
  498SOL    HW1 2393   0.324   0.354   1.195
  498SOL    HW2 2394   0.278   0.310   1.044
  499SOL     OW 2395   2.868   0.189   6.790
  499SOL    HW1 2396   2.875   0.090   6.779
  499SOL    HW2 2397   2.863   0.212   6.887
  500SOL     OW 2398   5.878   1.718   6.557
  500SOL    HW1 2399   5.814   1.770   6.614
  500SOL    HW2 2400   5.828   1.650   6.504
  501SOL     OW 2401   1.459   2.145   4.484
  501SOL    HW1 2402   1.441   2.068   4.546
  501SOL    HW2 2403   1.407   2.134   4.400
  502SOL     OW 2404   2.289   3.158   6.783
  502SOL    HW1 2405   2.322   3.064   6.773
  502SOL    HW2 2406   2.359   3.222   6.751
  503SOL     OW 2407   3.899   4.995   1.236
  503SOL    HW1 2408   3.877   4.935   1.313
  503SOL    HW2 2409   3.956   4.945   1.170
  504SOL     OW 2410   6.489   0.263   0.078
  504SOL    HW1 2411   6.442   0.331   0.134
  504SOL    HW2 2412   6.571   0.231   0.125
  505SOL     OW 2413   6.427   3.609   5.596
  505SOL    HW1 2414   6.458   3.703   5.588
  505SOL    HW2 2415   6.475   3.552   5.530
  506SOL     OW 2416   2.651   5.535   1.978
  506SOL    HW1 2417   2.626   5.457   1.920
  506SOL    HW2 2418   2.687   5.609   1.922
  507SOL     OW 2419   2.984   0.020   3.060
  507SOL    HW1 2420   3.003   6.951   3.014
  507SOL    HW2 2421   3.039   0.092   3.019
  508SOL     OW 2422   0.343   5.225   3.648
  508SOL    HW1 2423   0.303   5.290   3.583
  508SOL    HW2 2424   0.419   5.176   3.606
  509SOL     OW 2425   4.507   0.401   6.008
  509SOL    HW1 2426   4.575   0.456   6.057
  509SOL    HW2 2427   4.473   0.453   5.929
  510SOL     OW 2428   6.720   4.590   6.886
  510SOL    HW1 2429   6.675   4.638   6.810
  510SOL    HW2 2430   6.707   4.642   6.971
  511SOL     OW 2431   0.901   1.343   0.172
  511SOL    HW1 2432   0.995   1.311   0.189
  511SOL    HW2 2433   0.857   1.284   0.105
  512SOL     OW 2434   0.999   1.751   4.070
  512SOL    HW1 2435   0.901   1.750   4.056
  512SOL    HW2 2436   1.021   1.814   4.145
  513SOL     OW 2437   5.653   5.989   2.884
  513SOL    HW1 2438   5.646   5.890   2.877
  513SOL    HW2 2439   5.679   6.028   2.796
  514SOL     OW 2440   4.782   1.472   4.439
  514SOL    HW1 2441   4.838   1.458   4.521
  514SOL    HW2 2442   4.719   1.395   4.429
  515SOL     OW 2443   3.242   0.848   0.359
  515SOL    HW1 2444   3.264   0.811   0.269
  515SOL    HW2 2445   3.323   0.846   0.417
  516SOL     OW 2446   0.625   6.008   2.188
  516SOL    HW1 2447   0.686   6.029   2.112
  516SOL    HW2 2448   0.616   6.089   2.246
  517SOL     OW 2449   3.428   4.637   1.126
  517SOL    HW1 2450   3.330   4.659   1.126
  517SOL    HW2 2451   3.475   4.696   1.192
  518SOL     OW 2452   2.611   6.481   3.689
  518SOL    HW1 2453   2.710   6.486   3.676
  518SOL    HW2 2454   2.567   6.553   3.636
  519SOL     OW 2455   6.692   0.362   2.666
  519SOL    HW1 2456   6.738   0.343   2.752
  519SOL    HW2 2457   6.759   0.383   2.596
  520SOL     OW 2458   3.015   5.529   0.768
  520SOL    HW1 2459   3.096   5.507   0.714
  520SOL    HW2 2460   2.953   5.586   0.713
  521SOL     OW 2461   6.796   6.245   5.106
  521SOL    HW1 2462   6.751   6.327   5.071
  521SOL    HW2 2463   6.728   6.172   5.118
  522SOL     OW 2464   3.490   4.801   6.951
  522SOL    HW1 2465   3.560   4.873   6.958
  522SOL    HW2 2466   3.401   4.842   6.934
  523SOL     OW 2467   1.852   6.959   5.926
  523SOL    HW1 2468   1.784   6.894   5.960
  523SOL    HW2 2469   1.876   6.935   5.832
  524SOL     OW 2470   6.787   1.047   0.945
  524SOL    HW1 2471   6.707   1.095   0.980
  524SOL    HW2 2472   6.816   0.977   1.011
  525SOL     OW 2473   0.983   3.635   3.492
  525SOL    HW1 2474   0.941   3.635   3.582
  525SOL    HW2 2475   1.081   3.655   3.500
  526SOL     OW 2476   3.895   6.743   4.731
  526SOL    HW1 2477   3.957   6.670   4.702
  526SOL    HW2 2478   3.927   6.831   4.695
  527SOL     OW 2479   0.152   0.947   1.007
  527SOL    HW1 2480   0.125   0.922   0.913
  527SOL    HW2 2481   0.234   0.896   1.032
  528SOL     OW 2482   6.812   1.479   4.451
  528SOL    HW1 2483   6.715   1.473   4.427
  528SOL    HW2 2484   6.823   1.468   4.550
  529SOL     OW 2485   1.174   1.399   5.898
  529SOL    HW1 2486   1.173   1.425   5.801
  529SOL    HW2 2487   1.246   1.451   5.945
  530SOL     OW 2488   3.202   4.406   1.562
  530SOL    HW1 2489   3.277   4.340   1.570
  530SOL    HW2 2490   3.226   4.489   1.612
  531SOL     OW 2491   0.520   1.141   6.258
  531SOL    HW1 2492   0.599   1.179   6.306
  531SOL    HW2 2493   0.482   1.211   6.197
  532SOL     OW 2494   3.372   0.886   6.987
  532SOL    HW1 2495   3.274   0.906   6.994
  532SOL    HW2 2496   3.411   0.877   0.060
  533SOL     OW 2497   4.571   6.916   4.863
  533SOL    HW1 2498   4.601   6.875   4.949
  533SOL    HW2 2499   4.650   6.956   4.816
  534SOL     OW 2500   1.783   4.145   1.729
  534SOL    HW1 2501   1.880   4.169   1.720
  534SOL    HW2 2502   1.765   4.062   1.677
  535SOL     OW 2503   4.436   4.582   4.265
  535SOL    HW1 2504   4.460   4.497   4.218
  535SOL    HW2 2505   4.410   4.562   4.359
  536SOL     OW 2506   6.110   6.167   0.817
  536SOL    HW1 2507   6.195   6.211   0.785
  536SOL    HW2 2508   6.091   6.198   0.910
  537SOL     OW 2509   3.484   1.837   2.565
  537SOL    HW1 2510   3.476   1.928   2.524
  537SOL    HW2 2511   3.421   1.774   2.519
  538SOL     OW 2512   4.124   4.612   5.290
  538SOL    HW1 2513   4.075   4.687   5.335
  538SOL    HW2 2514   4.193   4.649   5.228
  539SOL     OW 2515   2.504   0.446   6.988
  539SOL    HW1 2516   2.503   0.352   0.005
  539SOL    HW2 2517   2.432   0.456   6.919
  540SOL     OW 2518   2.270   1.403   4.990
  540SOL    HW1 2519   2.196   1.408   5.058
  540SOL    HW2 2520   2.263   1.316   4.941
  541SOL     OW 2521   4.845   6.129   2.970
  541SOL    HW1 2522   4.852   6.087   3.061
  541SOL    HW2 2523   4.936   6.143   2.932
  542SOL     OW 2524   3.780   6.104   5.735
  542SOL    HW1 2525   3.774   6.201   5.759
  542SOL    HW2 2526   3.869   6.069   5.763
  543SOL     OW 2527   6.491   2.246   4.787
  543SOL    HW1 2528   6.409   2.215   4.740
  543SOL    HW2 2529   6.474   2.335   4.829
  544SOL     OW 2530   0.794   2.852   1.008
  544SOL    HW1 2531   0.843   2.788   1.067
  544SOL    HW2 2532   0.825   2.840   0.914
  545SOL     OW 2533   6.763   4.997   0.506
  545SOL    HW1 2534   6.709   5.000   0.422
  545SOL    HW2 2535   6.816   5.082   0.514
  546SOL     OW 2536   6.825   5.071   2.363
  546SOL    HW1 2537   6.806   4.975   2.379
  546SOL    HW2 2538   6.878   5.109   2.439
  547SOL     OW 2539   3.989   6.844   6.521
  547SOL    HW1 2540   3.927   6.788   6.577
  547SOL    HW2 2541   3.957   6.843   6.426
  548SOL     OW 2542   3.839   2.438   0.300
  548SOL    HW1 2543   3.923   2.443   0.246
  548SOL    HW2 2544   3.846   2.500   0.378
  549SOL     OW 2545   5.324   2.569   3.900
  549SOL    HW1 2546   5.311   2.578   3.999
  549SOL    HW2 2547   5.307   2.657   3.856
  550SOL     OW 2548   6.947   6.067   3.592
  550SOL    HW1 2549   6.927   5.994   3.657
  550SOL    HW2 2550   0.012   6.115   3.620
  551SOL     OW 2551   5.562   0.906   0.220
  551SOL    HW1 2552   5.545   0.819   0.265
  551SOL    HW2 2553   5.612   0.967   0.282
  552SOL     OW 2554   0.256   0.195   4.757
  552SOL    HW1 2555   0.202   0.161   4.681
  552SOL    HW2 2556   0.196   0.211   4.836
  553SOL     OW 2557   3.685   2.443   5.434
  553SOL    HW1 2558   3.623   2.513   5.398
  553SOL    HW2 2559   3.778   2.481   5.441
  554SOL     OW 2560   6.891   5.523   0.379
  554SOL    HW1 2561   6.807   5.572   0.355
  554SOL    HW2 2562   6.910   5.537   0.476
  555SOL     OW 2563   2.806   4.122   6.220
  555SOL    HW1 2564   2.893   4.131   6.267
  555SOL    HW2 2565   2.743   4.192   6.253
  556SOL     OW 2566   6.086   6.238   2.046
  556SOL    HW1 2567   6.059   6.334   2.038
  556SOL    HW2 2568   6.108   6.217   2.142
  557SOL     OW 2569   5.785   3.677   6.445
  557SOL    HW1 2570   5.737   3.762   6.424
  557SOL    HW2 2571   5.879   3.697   6.470
  558SOL     OW 2572   3.477   3.699   2.245
  558SOL    HW1 2573   3.429   3.666   2.326
  558SOL    HW2 2574   3.488   3.799   2.251
  559SOL     OW 2575   6.197   1.145   6.579
  559SOL    HW1 2576   6.170   1.200   6.658
  559SOL    HW2 2577   6.120   1.139   6.516
  560SOL     OW 2578   0.402   2.423   3.509
  560SOL    HW1 2579   0.368   2.356   3.443
  560SOL    HW2 2580   0.378   2.515   3.478
  561SOL     OW 2581   0.301   3.774   6.730
  561SOL    HW1 2582   0.266   3.845   6.791
  561SOL    HW2 2583   0.383   3.733   6.770
  562SOL     OW 2584   4.186   6.315   3.649
  562SOL    HW1 2585   4.152   6.407   3.627
  562SOL    HW2 2586   4.116   6.265   3.698
  563SOL     OW 2587   0.764   0.957   4.409
  563SOL    HW1 2588   0.774   1.032   4.344
  563SOL    HW2 2589   0.709   0.885   4.368
  564SOL     OW 2590   6.039   1.606   5.301
  564SOL    HW1 2591   5.999   1.609   5.210
  564SOL    HW2 2592   5.986   1.544   5.359
  565SOL     OW 2593   3.079   3.448   4.134
  565SOL    HW1 2594   3.038   3.517   4.194
  565SOL    HW2 2595   3.047   3.357   4.161
  566SOL     OW 2596   1.614   2.499   3.600
  566SOL    HW1 2597   1.572   2.568   3.659
  566SOL    HW2 2598   1.701   2.534   3.565
  567SOL     OW 2599   1.780   3.105   5.374
  567SOL    HW1 2600   1.701   3.154   5.410
  567SOL    HW2 2601   1.841   3.081   5.450
  568SOL     OW 2602   1.332   0.094   0.140
  568SOL    HW1 2603   1.342   0.060   0.233
  568SOL    HW2 2604   1.395   0.046   0.079
  569SOL     OW 2605   5.126   3.738   5.382
  569SOL    HW1 2606   5.170   3.828   5.384
  569SOL    HW2 2607   5.068   3.726   5.462
  570SOL     OW 2608   3.450   1.022   6.175
  570SOL    HW1 2609   3.516   1.084   6.218
  570SOL    HW2 2610   3.365   1.023   6.228
  571SOL     OW 2611   2.568   4.367   1.724
  571SOL    HW1 2612   2.635   4.415   1.666
  571SOL    HW2 2613   2.559   4.415   1.811
  572SOL     OW 2614   2.988   1.218   4.486
  572SOL    HW1 2615   2.936   1.245   4.405
  572SOL    HW2 2616   2.993   1.118   4.491
  573SOL     OW 2617   0.320   0.512   5.362
  573SOL    HW1 2618   0.319   0.493   5.264
  573SOL    HW2 2619   0.399   0.467   5.405
  574SOL     OW 2620   2.452   1.245   5.961
  574SOL    HW1 2621   2.455   1.298   5.876
  574SOL    HW2 2622   2.440   1.148   5.939
  575SOL     OW 2623   3.910   3.550   0.622
  575SOL    HW1 2624   3.917   3.490   0.542
  575SOL    HW2 2625   3.994   3.603   0.631
  576SOL     OW 2626   0.579   1.088   2.342
  576SOL    HW1 2627   0.629   1.101   2.427
  576SOL    HW2 2628   0.644   1.074   2.267
  577SOL     OW 2629   0.176   7.000   1.856
  577SOL    HW1 2630   0.216   6.914   1.886
  577SOL    HW2 2631   0.086   6.984   1.817
  578SOL     OW 2632   3.921   6.951   0.417
  578SOL    HW1 2633   3.851   6.932   0.348
  578SOL    HW2 2634   3.998   6.999   0.374
  579SOL     OW 2635   1.057   3.724   1.388
  579SOL    HW1 2636   1.110   3.693   1.467
  579SOL    HW2 2637   1.049   3.823   1.389
  580SOL     OW 2638   4.552   5.015   4.519
  580SOL    HW1 2639   4.471   5.055   4.564
  580SOL    HW2 2640   4.524   4.974   4.433
  581SOL     OW 2641   1.743   2.335   3.962
  581SOL    HW1 2642   1.754   2.255   4.020
  581SOL    HW2 2643   1.744   2.418   4.018
  582SOL     OW 2644   5.784   4.372   4.735
  582SOL    HW1 2645   5.788   4.471   4.726
  582SOL    HW2 2646   5.727   4.334   4.662
  583SOL     OW 2647   2.921   6.449   5.559
  583SOL    HW1 2648   3.007   6.407   5.528
  583SOL    HW2 2649   2.915   6.542   5.524
  584SOL     OW 2650   4.333   1.165   5.197
  584SOL    HW1 2651   4.239   1.199   5.190
  584SOL    HW2 2652   4.396   1.242   5.192
  585SOL     OW 2653   3.779   6.781   1.557
  585SOL    HW1 2654   3.728   6.866   1.564
  585SOL    HW2 2655   3.816   6.772   1.465
  586SOL     OW 2656   3.654   6.768   0.818
  586SOL    HW1 2657   3.677   6.816   0.733
  586SOL    HW2 2658   3.566   6.722   0.807
  587SOL     OW 2659   4.954   1.690   2.564
  587SOL    HW1 2660   4.957   1.693   2.464
  587SOL    HW2 2661   5.018   1.620   2.597
  588SOL     OW 2662   1.973   4.206   3.064
  588SOL    HW1 2663   1.964   4.172   2.970
  588SOL    HW2 2664   1.917   4.150   3.125
  589SOL     OW 2665   3.436   5.316   6.870
  589SOL    HW1 2666   3.451   5.314   6.772
  589SOL    HW2 2667   3.341   5.342   6.889
  590SOL     OW 2668   2.801   1.922   6.296
  590SOL    HW1 2669   2.787   1.921   6.395
  590SOL    HW2 2670   2.728   1.975   6.252
  591SOL     OW 2671   2.595   6.789   3.577
  591SOL    HW1 2672   2.544   6.794   3.491
  591SOL    HW2 2673   2.635   6.878   3.598
  592SOL     OW 2674   5.053   2.911   5.102
  592SOL    HW1 2675   5.024   2.866   5.187
  592SOL    HW2 2676   5.057   3.010   5.117
  593SOL     OW 2677   2.084   0.805   6.660
  593SOL    HW1 2678   2.159   0.809   6.727
  593SOL    HW2 2679   2.042   0.895   6.652
  594SOL     OW 2680   3.937   1.110   4.400
  594SOL    HW1 2681   3.837   1.116   4.402
  594SOL    HW2 2682   3.973   1.128   4.491
  595SOL     OW 2683   6.149   3.970   2.167
  595SOL    HW1 2684   6.167   4.048   2.228
  595SOL    HW2 2685   6.235   3.922   2.149
  596SOL     OW 2686   5.882   5.093   4.189
  596SOL    HW1 2687   5.786   5.071   4.175
  596SOL    HW2 2688   5.929   5.014   4.228
  597SOL     OW 2689   3.191   1.707   6.369
  597SOL    HW1 2690   3.170   1.797   6.331
  597SOL    HW2 2691   3.121   1.681   6.435
  598SOL     OW 2692   3.015   3.645   3.470
  598SOL    HW1 2693   3.100   3.676   3.428
  598SOL    HW2 2694   2.984   3.713   3.537
  599SOL     OW 2695   2.182   4.498   1.118
  599SOL    HW1 2696   2.263   4.557   1.113
  599SOL    HW2 2697   2.129   4.521   1.200
  600SOL     OW 2698   0.500   3.354   5.107
  600SOL    HW1 2699   0.577   3.393   5.158
  600SOL    HW2 2700   0.418   3.357   5.163
  601SOL     OW 2701   0.014   6.483   5.865
  601SOL    HW1 2702   0.086   6.444   5.922
  601SOL    HW2 2703   6.952   6.502   5.921
  602SOL     OW 2704   1.146   0.646   3.278
  602SOL    HW1 2705   1.236   0.631   3.236
  602SOL    HW2 2706   1.157   0.701   3.361
  603SOL     OW 2707   1.541   1.328   3.875
  603SOL    HW1 2708   1.489   1.414   3.886
  603SOL    HW2 2709   1.560   1.313   3.778
  604SOL     OW 2710   5.285   2.680   1.153
  604SOL    HW1 2711   5.302   2.714   1.245
  604SOL    HW2 2712   5.322   2.588   1.144
  605SOL     OW 2713   5.662   6.352   1.247
  605SOL    HW1 2714   5.577   6.353   1.194
  605SOL    HW2 2715   5.715   6.271   1.224
  606SOL     OW 2716   2.979   6.584   5.235
  606SOL    HW1 2717   3.000   6.637   5.318
  606SOL    HW2 2718   3.063   6.570   5.183
  607SOL     OW 2719   1.525   2.929   6.226
  607SOL    HW1 2720   1.534   2.912   6.128
  607SOL    HW2 2721   1.523   3.028   6.243
  608SOL     OW 2722   3.218   1.441   7.003
  608SOL    HW1 2723   3.148   1.508   6.978
  608SOL    HW2 2724   3.306   1.468   6.964
  609SOL     OW 2725   3.596   3.145   2.397
  609SOL    HW1 2726   3.676   3.085   2.403
  609SOL    HW2 2727   3.521   3.097   2.351
  610SOL     OW 2728   4.931   2.983   1.839
  610SOL    HW1 2729   4.859   2.998   1.908
  610SOL    HW2 2730   4.961   2.888   1.843
  611SOL     OW 2731   3.734   1.498   1.996
  611SOL    HW1 2732   3.694   1.514   1.906
  611SOL    HW2 2733   3.769   1.404   2.001
  612SOL     OW 2734   4.420   4.861   4.321
  612SOL    HW1 2735   4.321   4.867   4.328
  612SOL    HW2 2736   4.447   4.767   4.299
  613SOL     OW 2737   4.401   5.077   6.404
  613SOL    HW1 2738   4.345   5.083   6.487
  613SOL    HW2 2739   4.497   5.090   6.428
  614SOL     OW 2740   3.083   6.386   6.293
  614SOL    HW1 2741   2.988   6.358   6.302
  614SOL    HW2 2742   3.116   6.424   6.380
  615SOL     OW 2743   0.035   4.608   3.173
  615SOL    HW1 2744   0.059   4.672   3.100
  615SOL    HW2 2745   7.005   4.658   3.246
  616SOL     OW 2746   6.078   2.719   3.824
  616SOL    HW1 2747   6.110   2.759   3.909
  616SOL    HW2 2748   6.048   2.792   3.762
  617SOL     OW 2749   2.383   0.276   6.492
  617SOL    HW1 2750   2.380   0.367   6.533
  617SOL    HW2 2751   2.429   0.280   6.404
  618SOL     OW 2752   2.420   0.709   3.746
  618SOL    HW1 2753   2.375   0.674   3.665
  618SOL    HW2 2754   2.359   0.701   3.825
  619SOL     OW 2755   1.113   2.293   0.038
  619SOL    HW1 2756   1.032   2.281   6.999
  619SOL    HW2 2757   1.145   2.203   0.068
  620SOL     OW 2758   4.613   3.451   0.449
  620SOL    HW1 2759   4.628   3.488   0.540
  620SOL    HW2 2760   4.624   3.524   0.381
  621SOL     OW 2761   0.188   5.399   0.942
  621SOL    HW1 2762   0.257   5.357   1.001
  621SOL    HW2 2763   0.097   5.378   0.976
  622SOL     OW 2764   0.182   1.112   0.254
  622SOL    HW1 2765   0.149   1.102   0.160
  622SOL    HW2 2766   0.230   1.028   0.281
  623SOL     OW 2767   6.782   5.236   5.115
  623SOL    HW1 2768   6.840   5.208   5.039
  623SOL    HW2 2769   6.832   5.224   5.201
  624SOL     OW 2770   0.591   1.703   1.328
  624SOL    HW1 2771   0.605   1.674   1.423
  624SOL    HW2 2772   0.548   1.793   1.327
  625SOL     OW 2773   1.366   1.246   2.671
  625SOL    HW1 2774   1.447   1.218   2.619
  625SOL    HW2 2775   1.387   1.329   2.723
  626SOL     OW 2776   2.977   5.778   4.782
  626SOL    HW1 2777   3.050   5.710   4.796
  626SOL    HW2 2778   3.018   5.869   4.771
  627SOL     OW 2779   4.756   6.345   6.534
  627SOL    HW1 2780   4.814   6.427   6.531
  627SOL    HW2 2781   4.781   6.289   6.613
  628SOL     OW 2782   5.812   4.278   3.024
  628SOL    HW1 2783   5.796   4.232   3.111
  628SOL    HW2 2784   5.836   4.210   2.954
  629SOL     OW 2785   1.702   0.208   0.862
  629SOL    HW1 2786   1.746   0.222   0.773
  629SOL    HW2 2787   1.604   0.222   0.853
  630SOL     OW 2788   2.573   1.343   2.200
  630SOL    HW1 2789   2.587   1.288   2.282
  630SOL    HW2 2790   2.630   1.425   2.205
  631SOL     OW 2791   2.604   0.746   4.633
  631SOL    HW1 2792   2.679   0.728   4.569
  631SOL    HW2 2793   2.532   0.677   4.620
  632SOL     OW 2794   3.031   0.749   1.111
  632SOL    HW1 2795   2.951   0.696   1.138
  632SOL    HW2 2796   3.106   0.687   1.089
  633SOL     OW 2797   2.332   0.229   5.153
  633SOL    HW1 2798   2.260   0.298   5.154
  633SOL    HW2 2799   2.293   0.140   5.127
  634SOL     OW 2800   3.123   5.798   1.628
  634SOL    HW1 2801   3.098   5.808   1.531
  634SOL    HW2 2802   3.058   5.737   1.673
  635SOL     OW 2803   3.417   0.001   2.983
  635SOL    HW1 2804   3.338   6.978   2.938
  635SOL    HW2 2805   3.388   0.081   3.036
  636SOL     OW 2806   4.631   5.008   6.054
  636SOL    HW1 2807   4.704   5.032   5.989
  636SOL    HW2 2808   4.579   4.930   6.018
  637SOL     OW 2809   5.760   5.295   6.280
  637SOL    HW1 2810   5.812   5.213   6.301
  637SOL    HW2 2811   5.816   5.357   6.224
  638SOL     OW 2812   5.303   1.721   3.310
  638SOL    HW1 2813   5.226   1.759   3.360
  638SOL    HW2 2814   5.269   1.669   3.231
  639SOL     OW 2815   4.440   3.925   1.581
  639SOL    HW1 2816   4.526   3.873   1.579
  639SOL    HW2 2817   4.367   3.868   1.618
  640SOL     OW 2818   2.668   3.108   5.543
  640SOL    HW1 2819   2.588   3.052   5.525
  640SOL    HW2 2820   2.667   3.188   5.484
  641SOL     OW 2821   0.055   6.290   4.786
  641SOL    HW1 2822   7.010   6.366   4.800
  641SOL    HW2 2823   0.043   6.254   4.693
  642SOL     OW 2824   1.266   4.175   6.253
  642SOL    HW1 2825   1.245   4.256   6.199
  642SOL    HW2 2826   1.350   4.192   6.306
  643SOL     OW 2827   6.157   6.292   4.867
  643SOL    HW1 2828   6.069   6.277   4.911
  643SOL    HW2 2829   6.204   6.368   4.913
  644SOL     OW 2830   2.908   6.370   1.416
  644SOL    HW1 2831   2.971   6.326   1.353
  644SOL    HW2 2832   2.831   6.309   1.436
  645SOL     OW 2833   0.250   2.743   3.115
  645SOL    HW1 2834   0.291   2.652   3.104
  645SOL    HW2 2835   0.176   2.754   3.049
  646SOL     OW 2836   1.432   3.100   4.557
  646SOL    HW1 2837   1.346   3.126   4.513
  646SOL    HW2 2838   1.477   3.183   4.592
  647SOL     OW 2839   5.404   3.654   0.229
  647SOL    HW1 2840   5.405   3.634   0.131
  647SOL    HW2 2841   5.495   3.680   0.259
  648SOL     OW 2842   4.311   2.363   4.227
  648SOL    HW1 2843   4.395   2.406   4.193
  648SOL    HW2 2844   4.241   2.368   4.156
  649SOL     OW 2845   4.637   4.403   1.477
  649SOL    HW1 2846   4.705   4.396   1.550
  649SOL    HW2 2847   4.552   4.360   1.506
  650SOL     OW 2848   5.292   4.918   0.772
  650SOL    HW1 2849   5.208   4.947   0.817
  650SOL    HW2 2850   5.277   4.831   0.725
  651SOL     OW 2851   1.683   5.683   6.710
  651SOL    HW1 2852   1.691   5.717   6.804
  651SOL    HW2 2853   1.766   5.631   6.687
  652SOL     OW 2854   4.891   2.085   2.042
  652SOL    HW1 2855   4.835   2.150   1.990
  652SOL    HW2 2856   4.880   2.102   2.140
  653SOL     OW 2857   3.172   4.862   2.421
  653SOL    HW1 2858   3.084   4.816   2.437
  653SOL    HW2 2859   3.183   4.879   2.323
  654SOL     OW 2860   6.846   4.883   6.336
  654SOL    HW1 2861   6.944   4.901   6.328
  654SOL    HW2 2862   6.795   4.968   6.321
  655SOL     OW 2863   1.153   2.027   0.041
  655SOL    HW1 2864   1.074   1.968   0.054
  655SOL    HW2 2865   1.186   2.018   6.965
  656SOL     OW 2866   1.717   6.230   1.355
  656SOL    HW1 2867   1.783   6.303   1.373
  656SOL    HW2 2868   1.755   6.143   1.386
  657SOL     OW 2869   4.243   0.729   6.777
  657SOL    HW1 2870   4.209   0.693   6.863
  657SOL    HW2 2871   4.206   0.675   6.701
  658SOL     OW 2872   3.681   5.452   6.967
  658SOL    HW1 2873   3.638   5.493   0.029
  658SOL    HW2 2874   3.629   5.373   6.937
  659SOL     OW 2875   3.854   0.782   6.198
  659SOL    HW1 2876   3.938   0.790   6.145
  659SOL    HW2 2877   3.782   0.838   6.155
  660SOL     OW 2878   3.724   6.449   3.224
  660SOL    HW1 2879   3.814   6.427   3.187
  660SOL    HW2 2880   3.653   6.410   3.165
  661SOL     OW 2881   5.839   5.291   2.621
  661SOL    HW1 2882   5.903   5.215   2.606
  661SOL    HW2 2883   5.790   5.277   2.707
  662SOL     OW 2884   4.178   1.695   7.002
  662SOL    HW1 2885   4.138   1.783   6.977
  662SOL    HW2 2886   4.192   1.640   6.920
  663SOL     OW 2887   1.000   4.306   4.816
  663SOL    HW1 2888   0.921   4.245   4.809
  663SOL    HW2 2889   1.074   4.271   4.758
  664SOL     OW 2890   6.002   0.207   6.825
  664SOL    HW1 2891   5.928   0.274   6.827
  664SOL    HW2 2892   6.061   0.225   6.746
  665SOL     OW 2893   0.959   4.270   1.547
  665SOL    HW1 2894   0.890   4.216   1.593
  665SOL    HW2 2895   0.915   4.330   1.480
  666SOL     OW 2896   4.677   1.220   2.035
  666SOL    HW1 2897   4.631   1.173   2.110
  666SOL    HW2 2898   4.683   1.160   1.956
  667SOL     OW 2899   0.746   0.437   1.806
  667SOL    HW1 2900   0.835   0.394   1.818
  667SOL    HW2 2901   0.756   0.536   1.812
  668SOL     OW 2902   5.891   3.124   6.659
  668SOL    HW1 2903   5.818   3.167   6.606
  668SOL    HW2 2904   5.978   3.169   6.638
  669SOL     OW 2905   5.185   1.656   3.059
  669SOL    HW1 2906   5.118   1.708   3.006
  669SOL    HW2 2907   5.267   1.642   3.003
  670SOL     OW 2908   3.913   2.069   2.355
  670SOL    HW1 2909   3.921   1.988   2.414
  670SOL    HW2 2910   3.817   2.096   2.350
  671SOL     OW 2911   1.700   5.794   1.908
  671SOL    HW1 2912   1.773   5.749   1.857
  671SOL    HW2 2913   1.694   5.753   1.999
  672SOL     OW 2914   0.698   0.011   1.559
  672SOL    HW1 2915   0.632   0.043   1.628
  672SOL    HW2 2916   0.786   0.057   1.573
  673SOL     OW 2917   6.012   6.565   6.384
  673SOL    HW1 2918   5.925   6.594   6.344
  673SOL    HW2 2919   6.022   6.466   6.374
  674SOL     OW 2920   5.324   0.506   4.215
  674SOL    HW1 2921   5.256   0.552   4.158
  674SOL    HW2 2922   5.318   0.541   4.308
  675SOL     OW 2923   0.640   3.936   1.986
  675SOL    HW1 2924   0.732   3.922   2.025
  675SOL    HW2 2925   0.647   3.941   1.887
  676SOL     OW 2926   2.518   6.086   6.595
  676SOL    HW1 2927   2.529   6.183   6.573
  676SOL    HW2 2928   2.491   6.036   6.513
  677SOL     OW 2929   5.961   1.235   1.090
  677SOL    HW1 2930   6.014   1.304   1.040
  677SOL    HW2 2931   5.976   1.145   1.049
  678SOL     OW 2932   1.050   5.444   3.900
  678SOL    HW1 2933   1.000   5.387   3.964
  678SOL    HW2 2934   1.123   5.492   3.948
  679SOL     OW 2935   4.741   1.546   5.550
  679SOL    HW1 2936   4.832   1.504   5.560
  679SOL    HW2 2937   4.748   1.644   5.566
  680SOL     OW 2938   5.663   6.673   3.736
  680SOL    HW1 2939   5.636   6.745   3.800
  680SOL    HW2 2940   5.745   6.703   3.685
  681SOL     OW 2941   4.366   4.911   2.501
  681SOL    HW1 2942   4.328   4.965   2.576
  681SOL    HW2 2943   4.462   4.934   2.488
  682SOL     OW 2944   0.152   1.600   2.970
  682SOL    HW1 2945   0.080   1.571   2.906
  682SOL    HW2 2946   0.112   1.656   3.042
  683SOL     OW 2947   3.259   4.334   0.846
  683SOL    HW1 2948   3.180   4.344   0.785
  683SOL    HW2 2949   3.226   4.316   0.939
  684SOL     OW 2950   6.663   1.473   6.037
  684SOL    HW1 2951   6.706   1.385   6.055
  684SOL    HW2 2952   6.567   1.470   6.065
  685SOL     OW 2953   3.271   6.984   3.333
  685SOL    HW1 2954   3.324   6.902   3.356
  685SOL    HW2 2955   3.330   0.031   3.286
  686SOL     OW 2956   3.993   0.502   5.525
  686SOL    HW1 2957   4.054   0.507   5.604
  686SOL    HW2 2958   3.953   0.410   5.519
  687SOL     OW 2959   0.344   1.066   4.530
  687SOL    HW1 2960   0.259   1.027   4.495
  687SOL    HW2 2961   0.404   1.089   4.453
  688SOL     OW 2962   5.751   2.339   6.940
  688SOL    HW1 2963   5.745   2.437   6.924
  688SOL    HW2 2964   5.847   2.311   6.943
  689SOL     OW 2965   2.367   5.842   6.991
  689SOL    HW1 2966   2.345   5.843   6.893
  689SOL    HW2 2967   2.437   5.773   7.009
  690SOL     OW 2968   5.527   3.668   3.680
  690SOL    HW1 2969   5.579   3.595   3.633
  690SOL    HW2 2970   5.570   3.756   3.661
  691SOL     OW 2971   5.997   1.477   2.185
  691SOL    HW1 2972   6.030   1.463   2.091
  691SOL    HW2 2973   6.059   1.432   2.249
  692SOL     OW 2974   1.343   0.739   3.517
  692SOL    HW1 2975   1.383   0.751   3.608
  692SOL    HW2 2976   1.405   0.776   3.448
  693SOL     OW 2977   5.718   4.732   3.054
  693SOL    HW1 2978   5.623   4.729   3.083
  693SOL    HW2 2979   5.775   4.768   3.129
  694SOL     OW 2980   3.934   5.489   4.086
  694SOL    HW1 2981   3.858   5.512   4.026
  694SOL    HW2 2982   4.021   5.507   4.039
  695SOL     OW 2983   4.752   6.756   3.442
  695SOL    HW1 2984   4.821   6.714   3.501
  695SOL    HW2 2985   4.663   6.713   3.459
  696SOL     OW 2986   5.952   3.972   1.985
  696SOL    HW1 2987   5.895   3.892   1.999
  696SOL    HW2 2988   6.017   3.981   2.062
  697SOL     OW 2989   0.144   6.354   2.495
  697SOL    HW1 2990   0.092   6.335   2.578
  697SOL    HW2 2991   0.211   6.281   2.479
  698SOL     OW 2992   5.444   6.634   6.060
  698SOL    HW1 2993   5.537   6.668   6.049
  698SOL    HW2 2994   5.399   6.629   5.970
  699SOL     OW 2995   3.866   3.800   0.829
  699SOL    HW1 2996   3.876   3.716   0.883
  699SOL    HW2 2997   3.829   3.777   0.739
  700SOL     OW 2998   3.479   0.108   5.410
  700SOL    HW1 2999   3.406   0.088   5.475
  700SOL    HW2 3000   3.531   0.188   5.441
  701SOL     OW 3001   4.675   4.894   2.107
  701SOL    HW1 3002   4.721   4.850   2.184
  701SOL    HW2 3003   4.596   4.945   2.140
  702SOL     OW 3004   4.550   0.397   4.683
  702SOL    HW1 3005   4.548   0.480   4.738
  702SOL    HW2 3006   4.521   0.319   4.738
  703SOL     OW 3007   3.592   2.989   0.187
  703SOL    HW1 3008   3.604   3.006   0.285
  703SOL    HW2 3009   3.520   2.921   0.173
  704SOL     OW 3010   3.881   1.275   6.435
  704SOL    HW1 3011   3.957   1.271   6.370
  704SOL    HW2 3012   3.879   1.364   6.479
  705SOL     OW 3013   0.201   6.345   6.031
  705SOL    HW1 3014   0.123   6.303   6.079
  705SOL    HW2 3015   0.225   6.431   6.076
  706SOL     OW 3016   4.031   0.342   5.102
  706SOL    HW1 3017   4.026   0.365   5.005
  706SOL    HW2 3018   3.940   0.343   5.141
  707SOL     OW 3019   3.261   5.250   4.551
  707SOL    HW1 3020   3.324   5.237   4.475
  707SOL    HW2 3021   3.170   5.217   4.526
  708SOL     OW 3022   3.426   6.054   3.720
  708SOL    HW1 3023   3.497   5.986   3.700
  708SOL    HW2 3024   3.420   6.120   3.646
  709SOL     OW 3025   2.255   0.010   2.080
  709SOL    HW1 3026   2.243   0.108   2.095
  709SOL    HW2 3027   2.346   7.000   2.111
  710SOL     OW 3028   4.839   3.789   2.598
  710SOL    HW1 3029   4.902   3.864   2.578
  710SOL    HW2 3030   4.779   3.774   2.520
  711SOL     OW 3031   0.495   1.216   1.002
  711SOL    HW1 3032   0.515   1.287   1.069
  711SOL    HW2 3033   0.417   1.243   0.946
  712SOL     OW 3034   5.462   3.731   6.981
  712SOL    HW1 3035   5.389   3.726   6.913
  712SOL    HW2 3036   5.550   3.714   6.938
  713SOL     OW 3037   4.119   2.969   6.333
  713SOL    HW1 3038   4.039   2.930   6.378
  713SOL    HW2 3039   4.133   2.925   6.245
  714SOL     OW 3040   4.591   6.598   3.038
  714SOL    HW1 3041   4.635   6.685   3.013
  714SOL    HW2 3042   4.494   6.614   3.055
  715SOL     OW 3043   6.265   4.711   5.176
  715SOL    HW1 3044   6.178   4.676   5.143
  715SOL    HW2 3045   6.327   4.634   5.195
  716SOL     OW 3046   3.485   1.779   3.863
  716SOL    HW1 3047   3.582   1.803   3.854
  716SOL    HW2 3048   3.449   1.749   3.775
  717SOL     OW 3049   5.102   5.213   3.581
  717SOL    HW1 3050   5.194   5.173   3.573
  717SOL    HW2 3051   5.056   5.210   3.493
  718SOL     OW 3052   6.124   2.094   5.236
  718SOL    HW1 3053   6.102   2.016   5.178
  718SOL    HW2 3054   6.067   2.092   5.318
  719SOL     OW 3055   4.426   5.890   2.743
  719SOL    HW1 3056   4.392   5.911   2.651
  719SOL    HW2 3057   4.370   5.818   2.784
  720SOL     OW 3058   2.956   1.245   1.464
  720SOL    HW1 3059   3.009   1.329   1.466
  720SOL    HW2 3060   2.868   1.262   1.420
  721SOL     OW 3061   6.868   3.078   1.824
  721SOL    HW1 3062   6.900   2.991   1.862
  721SOL    HW2 3063   6.803   3.060   1.751
  722SOL     OW 3064   5.594   6.305   1.507
  722SOL    HW1 3065   5.582   6.317   1.408
  722SOL    HW2 3066   5.597   6.395   1.551
  723SOL     OW 3067   2.010   0.836   4.434
  723SOL    HW1 3068   1.946   0.890   4.489
  723SOL    HW2 3069   2.065   0.897   4.378
  724SOL     OW 3070   1.253   2.168   4.262
  724SOL    HW1 3071   1.266   2.266   4.254
  724SOL    HW2 3072   1.155   2.148   4.270
  725SOL     OW 3073   1.951   4.608   2.885
  725SOL    HW1 3074   1.880   4.629   2.818
  725SOL    HW2 3075   1.929   4.522   2.931
  726SOL     OW 3076   2.114   3.765   0.452
  726SOL    HW1 3077   2.117   3.705   0.532
  726SOL    HW2 3078   2.054   3.843   0.472
  727SOL     OW 3079   3.879   5.221   4.805
  727SOL    HW1 3080   3.823   5.268   4.874
  727SOL    HW2 3081   3.855   5.123   4.805
  728SOL     OW 3082   6.475   3.074   3.968
  728SOL    HW1 3083   6.466   2.988   3.919
  728SOL    HW2 3084   6.424   3.145   3.920
  729SOL     OW 3085   0.686   4.764   0.349
  729SOL    HW1 3086   0.732   4.684   0.387
  729SOL    HW2 3087   0.622   4.736   0.277
  730SOL     OW 3088   4.339   1.499   3.232
  730SOL    HW1 3089   4.253   1.528   3.275
  730SOL    HW2 3090   4.324   1.486   3.134
  731SOL     OW 3091   4.760   4.841   4.829
  731SOL    HW1 3092   4.797   4.749   4.813
  731SOL    HW2 3093   4.773   4.897   4.747
  732SOL     OW 3094   4.098   0.459   3.951
  732SOL    HW1 3095   4.048   0.380   3.916
  732SOL    HW2 3096   4.085   0.466   4.050
  733SOL     OW 3097   0.029   4.994   4.024
  733SOL    HW1 3098   7.006   4.909   4.056
  733SOL    HW2 3099   7.018   5.012   3.930
  734SOL     OW 3100   5.926   6.278   3.021
  734SOL    HW1 3101   5.931   6.307   2.925
  734SOL    HW2 3102   5.831   6.261   3.046
  735SOL     OW 3103   4.263   0.619   2.428
  735SOL    HW1 3104   4.276   0.527   2.465
  735SOL    HW2 3105   4.321   0.630   2.347
  736SOL     OW 3106   1.935   1.680   3.744
  736SOL    HW1 3107   1.855   1.739   3.752
  736SOL    HW2 3108   2.010   1.717   3.799
  737SOL     OW 3109   3.168   1.077   6.243
  737SOL    HW1 3110   3.130   1.133   6.170
  737SOL    HW2 3111   3.112   0.994   6.254
  738SOL     OW 3112   1.608   4.976   0.196
  738SOL    HW1 3113   1.700   4.995   0.163
  738SOL    HW2 3114   1.543   5.036   0.148
  739SOL     OW 3115   1.268   0.176   3.359
  739SOL    HW1 3116   1.333   0.112   3.317
  739SOL    HW2 3117   1.253   0.150   3.455
  740SOL     OW 3118   5.413   3.309   3.143
  740SOL    HW1 3119   5.390   3.378   3.075
  740SOL    HW2 3120   5.506   3.275   3.126
  741SOL     OW 3121   3.099   1.280   3.385
  741SOL    HW1 3122   3.068   1.333   3.306
  741SOL    HW2 3123   3.050   1.193   3.388
  742SOL     OW 3124   1.731   6.969   2.227
  742SOL    HW1 3125   1.788   6.913   2.287
  742SOL    HW2 3126   1.682   0.019   2.281
  743SOL     OW 3127   0.127   6.320   3.219
  743SOL    HW1 3128   0.202   6.382   3.238
  743SOL    HW2 3129   0.040   6.364   3.244
  744SOL     OW 3130   5.045   1.752   1.159
  744SOL    HW1 3131   5.029   1.670   1.213
  744SOL    HW2 3132   5.132   1.794   1.186
  745SOL     OW 3133   2.085   6.547   5.272
  745SOL    HW1 3134   2.031   6.622   5.310
  745SOL    HW2 3135   2.023   6.475   5.240
  746SOL     OW 3136   6.603   5.425   5.014
  746SOL    HW1 3137   6.564   5.378   4.934
  746SOL    HW2 3138   6.644   5.357   5.075
  747SOL     OW 3139   4.427   5.199   2.981
  747SOL    HW1 3140   4.471   5.276   3.027
  747SOL    HW2 3141   4.491   5.157   2.917
  748SOL     OW 3142   6.116   4.445   1.139
  748SOL    HW1 3143   6.171   4.464   1.058
  748SOL    HW2 3144   6.170   4.466   1.221
  749SOL     OW 3145   4.597   4.277   5.038
  749SOL    HW1 3146   4.502   4.306   5.048
  749SOL    HW2 3147   4.616   4.204   5.104
  750SOL     OW 3148   2.401   1.963   3.265
  750SOL    HW1 3149   2.320   2.001   3.309
  750SOL    HW2 3150   2.480   2.020   3.285
  751SOL     OW 3151   4.214   0.771   0.805
  751SOL    HW1 3152   4.197   0.751   0.901
  751SOL    HW2 3153   4.244   0.688   0.758
  752SOL     OW 3154   3.751   3.085   4.473
  752SOL    HW1 3155   3.668   3.029   4.470
  752SOL    HW2 3156   3.734   3.167   4.528
  753SOL     OW 3157   3.607   4.078   3.534
  753SOL    HW1 3158   3.514   4.067   3.499
  753SOL    HW2 3159   3.672   4.059   3.461
  754SOL     OW 3160   4.955   0.157   6.876
  754SOL    HW1 3161   4.906   0.070   6.867
  754SOL    HW2 3162   5.016   0.152   6.955
  755SOL     OW 3163   4.765   4.701   5.100
  755SOL    HW1 3164   4.707   4.642   5.043
  755SOL    HW2 3165   4.858   4.664   5.102
  756SOL     OW 3166   3.544   5.308   5.859
  756SOL    HW1 3167   3.570   5.242   5.788
  756SOL    HW2 3168   3.597   5.392   5.846
  757SOL     OW 3169   1.363   0.033   2.074
  757SOL    HW1 3170   1.422   6.981   2.033
  757SOL    HW2 3171   1.419   0.099   2.124
  758SOL     OW 3172   4.243   1.121   4.160
  758SOL    HW1 3173   4.173   1.192   4.171
  758SOL    HW2 3174   4.322   1.160   4.112
  759SOL     OW 3175   6.934   3.304   3.755
  759SOL    HW1 3176   6.949   3.218   3.705
  759SOL    HW2 3177   6.838   3.310   3.782
  760SOL     OW 3178   6.791   5.725   3.592
  760SOL    HW1 3179   6.728   5.790   3.635
  760SOL    HW2 3180   6.805   5.752   3.496
  761SOL     OW 3181   4.421   4.830   5.982
  761SOL    HW1 3182   4.444   4.734   5.998
  761SOL    HW2 3183   4.379   4.840   5.892
  762SOL     OW 3184   3.790   5.553   3.649
  762SOL    HW1 3185   3.800   5.593   3.740
  762SOL    HW2 3186   3.879   5.524   3.615
  763SOL     OW 3187   5.749   0.999   0.457
  763SOL    HW1 3188   5.732   0.943   0.538
  763SOL    HW2 3189   5.666   1.048   0.432
  764SOL     OW 3190   4.955   6.473   5.471
  764SOL    HW1 3191   5.000   6.551   5.427
  764SOL    HW2 3192   5.006   6.446   5.552
  765SOL     OW 3193   5.504   6.013   0.571
  765SOL    HW1 3194   5.572   6.086   0.582
  765SOL    HW2 3195   5.473   6.009   0.476
  766SOL     OW 3196   2.448   2.176   4.245
  766SOL    HW1 3197   2.403   2.186   4.334
  766SOL    HW2 3198   2.380   2.184   4.172
  767SOL     OW 3199   6.693   6.471   3.811
  767SOL    HW1 3200   6.708   6.429   3.722
  767SOL    HW2 3201   6.623   6.541   3.804
  768SOL     OW 3202   2.405   5.546   2.113
  768SOL    HW1 3203   2.318   5.509   2.146
  768SOL    HW2 3204   2.477   5.478   2.124
  769SOL     OW 3205   3.657   1.324   5.287
  769SOL    HW1 3206   3.724   1.361   5.351
  769SOL    HW2 3207   3.643   1.389   5.212
  770SOL     OW 3208   0.721   4.898   5.639
  770SOL    HW1 3209   0.724   4.800   5.617
  770SOL    HW2 3210   0.723   4.910   5.738
  771SOL     OW 3211   1.645   4.736   2.444
  771SOL    HW1 3212   1.722   4.796   2.424
  771SOL    HW2 3213   1.588   4.777   2.515
  772SOL     OW 3214   5.540   5.104   0.411
  772SOL    HW1 3215   5.634   5.076   0.388
  772SOL    HW2 3216   5.479   5.026   0.400
  773SOL     OW 3217   1.749   4.899   4.053
  773SOL    HW1 3218   1.790   4.813   4.085
  773SOL    HW2 3219   1.771   4.912   3.956
  774SOL     OW 3220   2.188   1.957   3.639
  774SOL    HW1 3221   2.176   1.929   3.543
  774SOL    HW2 3222   2.176   2.056   3.646
  775SOL     OW 3223   1.377   4.309   2.659
  775SOL    HW1 3224   1.375   4.321   2.759
  775SOL    HW2 3225   1.387   4.398   2.615
  776SOL     OW 3226   3.374   5.510   6.356
  776SOL    HW1 3227   3.321   5.497   6.440
  776SOL    HW2 3228   3.359   5.602   6.321
  777SOL     OW 3229   1.991   3.375   0.030
  777SOL    HW1 3230   2.002   3.467   7.010
  777SOL    HW2 3231   1.953   3.315   6.978
  778SOL     OW 3232   3.789   5.610   6.655
  778SOL    HW1 3233   3.740   5.608   6.742
  778SOL    HW2 3234   3.730   5.649   6.585
  779SOL     OW 3235   5.646   1.817   3.231
  779SOL    HW1 3236   5.732   1.867   3.218
  779SOL    HW2 3237   5.604   1.844   3.318
  780SOL     OW 3238   6.517   1.378   4.180
  780SOL    HW1 3239   6.606   1.411   4.146
  780SOL    HW2 3240   6.510   1.394   4.278
  781SOL     OW 3241   0.595   4.801   6.297
  781SOL    HW1 3242   0.626   4.896   6.292
  781SOL    HW2 3243   0.557   4.784   6.388
  782SOL     OW 3244   2.383   4.142   5.533
  782SOL    HW1 3245   2.322   4.063   5.531
  782SOL    HW2 3246   2.336   4.220   5.576
  783SOL     OW 3247   6.434   5.007   6.393
  783SOL    HW1 3248   6.475   5.067   6.324
  783SOL    HW2 3249   6.504   4.977   6.457
  784SOL     OW 3250   2.443   5.527   0.022
  784SOL    HW1 3251   2.457   5.547   0.119
  784SOL    HW2 3252   2.361   5.470   0.011
  785SOL     OW 3253   0.683   0.264   4.353
  785SOL    HW1 3254   0.666   0.362   4.342
  785SOL    HW2 3255   0.614   0.225   4.414
  786SOL     OW 3256   5.899   0.707   4.613
  786SOL    HW1 3257   5.805   0.681   4.631
  786SOL    HW2 3258   5.960   0.663   4.679
  787SOL     OW 3259   1.972   6.403   1.250
  787SOL    HW1 3260   1.927   6.490   1.273
  787SOL    HW2 3261   2.061   6.399   1.295
  788SOL     OW 3262   2.258   2.905   2.394
  788SOL    HW1 3263   2.280   2.818   2.351
  788SOL    HW2 3264   2.251   2.976   2.324
  789SOL     OW 3265   3.887   5.521   2.331
  789SOL    HW1 3266   3.822   5.586   2.371
  789SOL    HW2 3267   3.849   5.429   2.335
  790SOL     OW 3268   0.285   3.426   1.841
  790SOL    HW1 3269   0.238   3.462   1.922
  790SOL    HW2 3270   0.237   3.344   1.809
  791SOL     OW 3271   3.148   0.789   3.724
  791SOL    HW1 3272   3.058   0.766   3.760
  791SOL    HW2 3273   3.177   0.878   3.759
  792SOL     OW 3274   2.627   0.174   1.614
  792SOL    HW1 3275   2.604   0.184   1.518
  792SOL    HW2 3276   2.723   0.200   1.628
  793SOL     OW 3277   1.942   5.418   4.977
  793SOL    HW1 3278   2.009   5.468   5.032
  793SOL    HW2 3279   1.951   5.445   4.881
  794SOL     OW 3280   3.367   3.644   2.495
  794SOL    HW1 3281   3.447   3.698   2.518
  794SOL    HW2 3282   3.354   3.573   2.564
  795SOL     OW 3283   4.878   0.682   5.317
  795SOL    HW1 3284   4.934   0.603   5.342
  795SOL    HW2 3285   4.882   0.696   5.218
  796SOL     OW 3286   0.812   2.145   0.003
  796SOL    HW1 3287   0.766   2.203   0.070
  796SOL    HW2 3288   0.781   2.168   6.929
  797SOL     OW 3289   3.643   0.017   1.551
  797SOL    HW1 3290   3.668   0.059   1.464
  797SOL    HW2 3291   3.554   6.991   1.543
  798SOL     OW 3292   4.850   4.163   1.538
  798SOL    HW1 3293   4.904   4.246   1.548
  798SOL    HW2 3294   4.771   4.168   1.600
  799SOL     OW 3295   3.530   2.448   5.968
  799SOL    HW1 3296   3.434   2.464   5.944
  799SOL    HW2 3297   3.586   2.453   5.885
  800SOL     OW 3298   5.212   2.782   2.639
  800SOL    HW1 3299   5.203   2.683   2.640
  800SOL    HW2 3300   5.287   2.808   2.577
  801SOL     OW 3301   1.851   5.721   6.930
  801SOL    HW1 3302   1.939   5.674   6.931
  801SOL    HW2 3303   1.866   5.820   6.923
  802SOL     OW 3304   4.227   2.433   6.649
  802SOL    HW1 3305   4.198   2.383   6.730
  802SOL    HW2 3306   4.209   2.531   6.661
  803SOL     OW 3307   2.429   2.449   3.890
  803SOL    HW1 3308   2.436   2.536   3.939
  803SOL    HW2 3309   2.517   2.429   3.846
  804SOL     OW 3310   5.288   0.376   3.184
  804SOL    HW1 3311   5.309   0.404   3.090
  804SOL    HW2 3312   5.216   0.308   3.183
  805SOL     OW 3313   3.516   1.234   4.127
  805SOL    HW1 3314   3.548   1.277   4.211
  805SOL    HW2 3315   3.512   1.301   4.053
  806SOL     OW 3316   3.422   6.139   6.071
  806SOL    HW1 3317   3.398   6.191   6.153
  806SOL    HW2 3318   3.417   6.199   5.991
  807SOL     OW 3319   1.455   6.037   6.576
  807SOL    HW1 3320   1.367   6.084   6.572
  807SOL    HW2 3321   1.487   6.019   6.483
  808SOL     OW 3322   5.412   2.623   6.175
  808SOL    HW1 3323   5.340   2.556   6.158
  808SOL    HW2 3324   5.412   2.648   6.272
  809SOL     OW 3325   3.346   6.635   6.362
  809SOL    HW1 3326   3.385   6.619   6.272
  809SOL    HW2 3327   3.259   6.685   6.353
  810SOL     OW 3328   3.596   3.649   6.941
  810SOL    HW1 3329   3.671   3.714   6.931
  810SOL    HW2 3330   3.631   3.559   6.965
  811SOL     OW 3331   5.206   5.422   4.100
  811SOL    HW1 3332   5.271   5.470   4.041
  811SOL    HW2 3333   5.142   5.488   4.139
  812SOL     OW 3334   0.958   3.394   1.213
  812SOL    HW1 3335   0.933   3.430   1.123
  812SOL    HW2 3336   0.995   3.469   1.269
  813SOL     OW 3337   3.057   1.396   4.681
  813SOL    HW1 3338   3.054   1.327   4.608
  813SOL    HW2 3339   2.995   1.471   4.658
  814SOL     OW 3340   0.465   4.909   1.803
  814SOL    HW1 3341   0.386   4.956   1.842
  814SOL    HW2 3342   0.442   4.876   1.711
  815SOL     OW 3343   4.693   1.457   3.637
  815SOL    HW1 3344   4.708   1.409   3.551
  815SOL    HW2 3345   4.659   1.393   3.706
  816SOL     OW 3346   5.159   3.741   6.140
  816SOL    HW1 3347   5.083   3.806   6.132
  816SOL    HW2 3348   5.128   3.660   6.190
  817SOL     OW 3349   6.730   5.114   6.305
  817SOL    HW1 3350   6.685   5.180   6.245
  817SOL    HW2 3351   6.728   5.147   6.399
  818SOL     OW 3352   6.886   1.561   5.228
  818SOL    HW1 3353   6.842   1.647   5.202
  818SOL    HW2 3354   6.843   1.526   5.312
  819SOL     OW 3355   5.566   3.314   1.327
  819SOL    HW1 3356   5.549   3.404   1.288
  819SOL    HW2 3357   5.615   3.324   1.413
  820SOL     OW 3358   2.675   2.054   5.097
  820SOL    HW1 3359   2.601   2.067   5.031
  820SOL    HW2 3360   2.752   2.008   5.053
  821SOL     OW 3361   4.697   3.633   6.721
  821SOL    HW1 3362   4.698   3.729   6.694
  821SOL    HW2 3363   4.701   3.576   6.639
  822SOL     OW 3364   0.250   4.526   3.421
  822SOL    HW1 3365   0.308   4.455   3.381
  822SOL    HW2 3366   0.157   4.491   3.433
  823SOL     OW 3367   2.242   2.482   4.617
  823SOL    HW1 3368   2.240   2.494   4.518
  823SOL    HW2 3369   2.298   2.554   4.658
  824SOL     OW 3370   5.269   0.642   6.594
  824SOL    HW1 3371   5.199   0.571   6.601
  824SOL    HW2 3372   5.285   0.681   6.685
  825SOL     OW 3373   5.740   5.457   0.983
  825SOL    HW1 3374   5.837   5.454   1.008
  825SOL    HW2 3375   5.686   5.482   1.063
  826SOL     OW 3376   3.827   1.875   0.628
  826SOL    HW1 3377   3.914   1.922   0.644
  826SOL    HW2 3378   3.771   1.928   0.566
  827SOL     OW 3379   3.501   3.712   4.889
  827SOL    HW1 3380   3.533   3.679   4.800
  827SOL    HW2 3381   3.555   3.792   4.915
  828SOL     OW 3382   0.693   6.297   6.461
  828SOL    HW1 3383   0.733   6.244   6.536
  828SOL    HW2 3384   0.595   6.279   6.456
  829SOL     OW 3385   3.852   3.327   1.807
  829SOL    HW1 3386   3.833   3.261   1.880
  829SOL    HW2 3387   3.841   3.420   1.841
  830SOL     OW 3388   6.527   4.007   5.784
  830SOL    HW1 3389   6.622   3.980   5.773
  830SOL    HW2 3390   6.513   4.047   5.874
  831SOL     OW 3391   5.738   1.248   3.008
  831SOL    HW1 3392   5.728   1.160   3.055
  831SOL    HW2 3393   5.648   1.290   2.996
  832SOL     OW 3394   3.100   2.100   4.421
  832SOL    HW1 3395   3.063   2.081   4.512
  832SOL    HW2 3396   3.040   2.164   4.374
  833SOL     OW 3397   4.220   2.796   0.180
  833SOL    HW1 3398   4.293   2.865   0.181
  833SOL    HW2 3399   4.138   2.836   0.140
  834SOL     OW 3400   5.519   3.049   0.447
  834SOL    HW1 3401   5.443   3.035   0.384
  834SOL    HW2 3402   5.486   3.052   0.541
  835SOL     OW 3403   6.639   6.708   5.145
  835SOL    HW1 3404   6.733   6.735   5.125
  835SOL    HW2 3405   6.639   6.632   5.211
  836SOL     OW 3406   5.500   0.354   3.886
  836SOL    HW1 3407   5.539   0.300   3.812
  836SOL    HW2 3408   5.449   0.431   3.849
  837SOL     OW 3409   1.524   0.243   6.894
  837SOL    HW1 3410   1.525   0.286   6.984
  837SOL    HW2 3411   1.616   0.243   6.856
  838SOL     OW 3412   1.778   5.542   3.422
  838SOL    HW1 3413   1.775   5.641   3.409
  838SOL    HW2 3414   1.791   5.522   3.520
  839SOL     OW 3415   1.166   2.247   0.419
  839SOL    HW1 3416   1.197   2.152   0.429
  839SOL    HW2 3417   1.082   2.249   0.366
  840SOL     OW 3418   4.238   5.272   0.406
  840SOL    HW1 3419   4.288   5.329   0.341
  840SOL    HW2 3420   4.188   5.201   0.356
  841SOL     OW 3421   2.615   5.271   6.225
  841SOL    HW1 3422   2.528   5.279   6.274
  841SOL    HW2 3423   2.673   5.204   6.271
  842SOL     OW 3424   4.599   6.677   0.565
  842SOL    HW1 3425   4.602   6.609   0.638
  842SOL    HW2 3426   4.669   6.656   0.497
  843SOL     OW 3427   1.512   0.660   1.796
  843SOL    HW1 3428   1.504   0.686   1.892
  843SOL    HW2 3429   1.531   0.742   1.741
  844SOL     OW 3430   6.647   0.205   1.704
  844SOL    HW1 3431   6.591   0.242   1.630
  844SOL    HW2 3432   6.602   0.125   1.744
  845SOL     OW 3433   3.940   1.799   1.964
  845SOL    HW1 3434   3.863   1.767   2.018
  845SOL    HW2 3435   3.967   1.728   1.899
  846SOL     OW 3436   1.582   1.595   1.279
  846SOL    HW1 3437   1.488   1.581   1.313
  846SOL    HW2 3438   1.603   1.525   1.211
  847SOL     OW 3439   2.383   3.356   1.343
  847SOL    HW1 3440   2.352   3.393   1.430
  847SOL    HW2 3441   2.379   3.427   1.273
  848SOL     OW 3442   6.334   6.206   0.372
  848SOL    HW1 3443   6.242   6.168   0.384
  848SOL    HW2 3444   6.331   6.305   0.378
  849SOL     OW 3445   5.498   3.004   6.548
  849SOL    HW1 3446   5.566   2.931   6.549
  849SOL    HW2 3447   5.430   2.988   6.621
  850SOL     OW 3448   1.795   1.013   4.263
  850SOL    HW1 3449   1.882   1.058   4.283
  850SOL    HW2 3450   1.741   1.006   4.347
  851SOL     OW 3451   4.936   2.564   6.146
  851SOL    HW1 3452   4.903   2.548   6.239
  851SOL    HW2 3453   4.915   2.484   6.089
  852SOL     OW 3454   6.461   4.968   1.969
  852SOL    HW1 3455   6.550   4.976   2.015
  852SOL    HW2 3456   6.462   5.022   1.885
  853SOL     OW 3457   3.449   3.017   0.492
  853SOL    HW1 3458   3.410   3.026   0.584
  853SOL    HW2 3459   3.381   2.980   0.430
  854SOL     OW 3460   0.183   0.041   5.637
  854SOL    HW1 3461   0.094   0.072   5.672
  854SOL    HW2 3462   0.176   6.962   5.611
  855SOL     OW 3463   4.646   2.200   0.255
  855SOL    HW1 3464   4.731   2.212   0.203
  855SOL    HW2 3465   4.622   2.103   0.258
  856SOL     OW 3466   2.011   5.469   1.705
  856SOL    HW1 3467   2.087   5.527   1.675
  856SOL    HW2 3468   1.925   5.519   1.696
  857SOL     OW 3469   6.614   5.772   5.011
  857SOL    HW1 3470   6.676   5.739   5.082
  857SOL    HW2 3471   6.522   5.737   5.029
  858SOL     OW 3472   3.666   4.142   0.227
  858SOL    HW1 3473   3.732   4.156   0.300
  858SOL    HW2 3474   3.712   4.104   0.147
  859SOL     OW 3475   4.992   5.719   5.438
  859SOL    HW1 3476   4.920   5.782   5.467
  859SOL    HW2 3477   4.964   5.625   5.460
  860SOL     OW 3478   4.545   2.849   6.208
  860SOL    HW1 3479   4.603   2.876   6.132
  860SOL    HW2 3480   4.560   2.752   6.228
  861SOL     OW 3481   1.343   5.543   2.598
  861SOL    HW1 3482   1.400   5.593   2.533
  861SOL    HW2 3483   1.386   5.456   2.620
  862SOL     OW 3484   0.956   4.315   4.045
  862SOL    HW1 3485   0.972   4.224   4.084
  862SOL    HW2 3486   0.967   4.385   4.116
  863SOL     OW 3487   5.706   0.757   1.622
  863SOL    HW1 3488   5.624   0.712   1.657
  863SOL    HW2 3489   5.680   0.827   1.555
  864SOL     OW 3490   5.930   5.749   2.625
  864SOL    HW1 3491   5.886   5.708   2.545
  864SOL    HW2 3492   5.862   5.759   2.698
  865SOL     OW 3493   1.333   5.169   4.712
  865SOL    HW1 3494   1.387   5.152   4.794
  865SOL    HW2 3495   1.286   5.085   4.685
  866SOL     OW 3496   3.740   0.206   1.745
  866SOL    HW1 3497   3.705   0.283   1.693
  866SOL    HW2 3498   3.717   0.121   1.698
  867SOL     OW 3499   5.811   3.537   5.306
  867SOL    HW1 3500   5.869   3.474   5.358
  867SOL    HW2 3501   5.717   3.532   5.340
  868SOL     OW 3502   0.439   2.027   2.188
  868SOL    HW1 3503   0.405   1.992   2.276
  868SOL    HW2 3504   0.410   1.965   2.115
  869SOL     OW 3505   6.577   3.255   2.431
  869SOL    HW1 3506   6.657   3.314   2.448
  869SOL    HW2 3507   6.554   3.206   2.515
  870SOL     OW 3508   3.723   5.017   1.854
  870SOL    HW1 3509   3.797   5.008   1.787
  870SOL    HW2 3510   3.699   4.927   1.890
  871SOL     OW 3511   5.081   1.879   3.715
  871SOL    HW1 3512   5.035   1.791   3.704
  871SOL    HW2 3513   5.134   1.878   3.800
  872SOL     OW 3514   1.334   2.059   4.953
  872SOL    HW1 3515   1.416   2.004   4.933
  872SOL    HW2 3516   1.307   2.110   4.871
  873SOL     OW 3517   4.131   0.107   6.545
  873SOL    HW1 3518   4.145   0.140   6.452
  873SOL    HW2 3519   4.066   0.031   6.544
  874SOL     OW 3520   6.009   3.722   1.627
  874SOL    HW1 3521   5.994   3.817   1.655
  874SOL    HW2 3522   6.084   3.718   1.561
  875SOL     OW 3523   5.284   5.724   2.388
  875SOL    HW1 3524   5.211   5.683   2.333
  875SOL    HW2 3525   5.256   5.816   2.417
  876SOL     OW 3526   6.048   0.499   6.614
  876SOL    HW1 3527   6.105   0.581   6.603
  876SOL    HW2 3528   6.105   0.418   6.599
  877SOL     OW 3529   1.044   3.337   6.897
  877SOL    HW1 3530   0.949   3.309   6.913
  877SOL    HW2 3531   1.056   3.432   6.927
  878SOL     OW 3532   3.703   6.456   4.034
  878SOL    HW1 3533   3.746   6.445   4.123
  878SOL    HW2 3534   3.767   6.427   3.963
  879SOL     OW 3535   5.777   6.943   6.653
  879SOL    HW1 3536   5.870   6.906   6.655
  879SOL    HW2 3537   5.777   0.018   6.689
  880SOL     OW 3538   3.200   3.497   3.216
  880SOL    HW1 3539   3.289   3.450   3.218
  880SOL    HW2 3540   3.190   3.552   3.299
  881SOL     OW 3541   4.026   2.068   0.630
  881SOL    HW1 3542   4.117   2.063   0.589
  881SOL    HW2 3543   4.035   2.098   0.725
  882SOL     OW 3544   1.856   3.266   3.545
  882SOL    HW1 3545   1.842   3.340   3.480
  882SOL    HW2 3546   1.832   3.179   3.502
  883SOL     OW 3547   2.455   6.563   3.102
  883SOL    HW1 3548   2.548   6.589   3.078
  883SOL    HW2 3549   2.402   6.644   3.123
  884SOL     OW 3550   2.488   3.467   5.963
  884SOL    HW1 3551   2.520   3.530   6.033
  884SOL    HW2 3552   2.561   3.449   5.897
  885SOL     OW 3553   4.379   2.915   6.396
  885SOL    HW1 3554   4.436   2.881   6.321
  885SOL    HW2 3555   4.296   2.956   6.360
  886SOL     OW 3556   3.543   1.198   6.633
  886SOL    HW1 3557   3.469   1.146   6.589
  886SOL    HW2 3558   3.536   1.294   6.606
  887SOL     OW 3559   4.935   1.101   5.058
  887SOL    HW1 3560   4.858   1.073   5.001
  887SOL    HW2 3561   4.913   1.083   5.154
  888SOL     OW 3562   6.591   6.784   1.643
  888SOL    HW1 3563   6.569   6.689   1.664
  888SOL    HW2 3564   6.641   6.788   1.557
  889SOL     OW 3565   0.137   3.430   0.301
  889SOL    HW1 3566   0.175   3.341   0.329
  889SOL    HW2 3567   0.211   3.496   0.290
  890SOL     OW 3568   2.466   6.149   4.137
  890SOL    HW1 3569   2.500   6.219   4.201
  890SOL    HW2 3570   2.369   6.132   4.155
  891SOL     OW 3571   5.450   4.853   2.530
  891SOL    HW1 3572   5.471   4.885   2.438
  891SOL    HW2 3573   5.507   4.902   2.596
  892SOL     OW 3574   2.670   4.701   0.886
  892SOL    HW1 3575   2.714   4.636   0.824
  892SOL    HW2 3576   2.716   4.698   0.975
  893SOL     OW 3577   1.313   5.050   3.127
  893SOL    HW1 3578   1.356   5.125   3.178
  893SOL    HW2 3579   1.213   5.060   3.130
  894SOL     OW 3580   1.026   4.396   0.703
  894SOL    HW1 3581   1.077   4.350   0.631
  894SOL    HW2 3582   0.966   4.465   0.663
  895SOL     OW 3583   6.940   5.305   3.814
  895SOL    HW1 3584   6.873   5.366   3.857
  895SOL    HW2 3585   0.013   5.329   3.846
  896SOL     OW 3586   0.648   0.743   6.547
  896SOL    HW1 3587   0.558   0.702   6.536
  896SOL    HW2 3588   0.716   0.687   6.499
  897SOL     OW 3589   5.006   1.303   0.683
  897SOL    HW1 3590   5.053   1.225   0.726
  897SOL    HW2 3591   4.917   1.272   0.648
  898SOL     OW 3592   3.647   0.548   2.741
  898SOL    HW1 3593   3.548   0.554   2.736
  898SOL    HW2 3594   3.677   0.462   2.698
  899SOL     OW 3595   6.743   5.947   0.038
  899SOL    HW1 3596   6.836   5.912   0.031
  899SOL    HW2 3597   6.678   5.875   0.014
  900SOL     OW 3598   5.014   5.072   0.815
  900SOL    HW1 3599   5.039   5.160   0.773
  900SOL    HW2 3600   4.934   5.085   0.873
  901SOL     OW 3601   0.910   0.167   3.207
  901SOL    HW1 3602   0.851   0.220   3.268
  901SOL    HW2 3603   0.872   0.169   3.115
  902SOL     OW 3604   6.662   2.994   1.696
  902SOL    HW1 3605   6.609   3.077   1.679
  902SOL    HW2 3606   6.645   2.927   1.623
  903SOL     OW 3607   0.321   1.395   1.197
  903SOL    HW1 3608   0.333   1.299   1.223
  903SOL    HW2 3609   0.411   1.437   1.183
  904SOL     OW 3610   2.318   0.956   3.105
  904SOL    HW1 3611   2.309   1.044   3.057
  904SOL    HW2 3612   2.415   0.940   3.126
  905SOL     OW 3613   6.251   1.909   6.436
  905SOL    HW1 3614   6.194   1.842   6.388
  905SOL    HW2 3615   6.202   1.943   6.516
  906SOL     OW 3616   5.233   2.802   0.478
  906SOL    HW1 3617   5.242   2.832   0.383
  906SOL    HW2 3618   5.140   2.767   0.493
  907SOL     OW 3619   5.211   4.415   6.396
  907SOL    HW1 3620   5.309   4.404   6.414
  907SOL    HW2 3621   5.182   4.506   6.424
  908SOL     OW 3622   0.850   4.318   3.373
  908SOL    HW1 3623   0.817   4.270   3.455
  908SOL    HW2 3624   0.890   4.405   3.400
  909SOL     OW 3625   5.326   6.044   5.898
  909SOL    HW1 3626   5.405   6.079   5.949
  909SOL    HW2 3627   5.346   5.951   5.866
  910SOL     OW 3628   3.114   4.644   0.308
  910SOL    HW1 3629   3.056   4.668   0.230
  910SOL    HW2 3630   3.129   4.545   0.309
  911SOL     OW 3631   1.222   4.451   5.408
  911SOL    HW1 3632   1.200   4.377   5.345
  911SOL    HW2 3633   1.310   4.433   5.452
  912SOL     OW 3634   4.941   1.418   4.661
  912SOL    HW1 3635   5.011   1.488   4.640
  912SOL    HW2 3636   4.985   1.329   4.667
  913SOL     OW 3637   5.038   6.721   2.878
  913SOL    HW1 3638   5.130   6.732   2.843
  913SOL    HW2 3639   4.998   6.637   2.842
  914SOL     OW 3640   3.146   6.490   6.051
  914SOL    HW1 3641   3.112   6.445   6.133
  914SOL    HW2 3642   3.188   6.577   6.075
  915SOL     OW 3643   5.053   5.851   1.356
  915SOL    HW1 3644   5.116   5.774   1.353
  915SOL    HW2 3645   5.075   5.910   1.434
  916SOL     OW 3646   1.328   2.999   2.576
  916SOL    HW1 3647   1.284   3.039   2.496
  916SOL    HW2 3648   1.405   2.941   2.546
  917SOL     OW 3649   0.843   6.588   6.684
  917SOL    HW1 3650   0.786   6.518   6.640
  917SOL    HW2 3651   0.895   6.546   6.758
  918SOL     OW 3652   3.295   6.671   6.829
  918SOL    HW1 3653   3.202   6.636   6.834
  918SOL    HW2 3654   3.337   6.671   6.920
  919SOL     OW 3655   4.913   1.152   5.711
  919SOL    HW1 3656   4.829   1.112   5.674
  919SOL    HW2 3657   4.898   1.250   5.728
  920SOL     OW 3658   2.870   4.879   1.655
  920SOL    HW1 3659   2.944   4.819   1.685
  920SOL    HW2 3660   2.782   4.832   1.666
  921SOL     OW 3661   4.697   5.633   4.807
  921SOL    HW1 3662   4.626   5.612   4.873
  921SOL    HW2 3663   4.688   5.728   4.777
  922SOL     OW 3664   3.372   3.154   3.594
  922SOL    HW1 3665   3.303   3.094   3.635
  922SOL    HW2 3666   3.403   3.221   3.661
  923SOL     OW 3667   2.255   3.375   5.582
  923SOL    HW1 3668   2.242   3.288   5.630
  923SOL    HW2 3669   2.299   3.440   5.644
  924SOL     OW 3670   0.282   3.335   1.193
  924SOL    HW1 3671   0.376   3.303   1.177
  924SOL    HW2 3672   0.282   3.435   1.199
  925SOL     OW 3673   0.537   1.346   0.308
  925SOL    HW1 3674   0.551   1.276   0.378
  925SOL    HW2 3675   0.518   1.434   0.352
  926SOL     OW 3676   1.695   1.926   1.632
  926SOL    HW1 3677   1.678   1.926   1.731
  926SOL    HW2 3678   1.742   2.010   1.606
  927SOL     OW 3679   6.926   3.327   4.353
  927SOL    HW1 3680   6.991   3.401   4.369
  927SOL    HW2 3681   6.964   3.242   4.388
  928SOL     OW 3682   3.304   5.122   5.359
  928SOL    HW1 3683   3.280   5.127   5.262
  928SOL    HW2 3684   3.347   5.034   5.378
  929SOL     OW 3685   0.512   1.826   4.502
  929SOL    HW1 3686   0.538   1.914   4.542
  929SOL    HW2 3687   0.445   1.841   4.429
  930SOL     OW 3688   5.651   5.538   4.350
  930SOL    HW1 3689   5.644   5.581   4.260
  930SOL    HW2 3690   5.647   5.608   4.421
  931SOL     OW 3691   6.244   0.941   3.373
  931SOL    HW1 3692   6.282   0.909   3.460
  931SOL    HW2 3693   6.316   0.940   3.303
  932SOL     OW 3694   3.373   0.347   3.930
  932SOL    HW1 3695   3.398   0.381   3.840
  932SOL    HW2 3696   3.344   0.424   3.988
  933SOL     OW 3697   1.076   5.623   1.802
  933SOL    HW1 3698   1.107   5.534   1.833
  933SOL    HW2 3699   1.154   5.685   1.794
  934SOL     OW 3700   2.097   3.221   0.431
  934SOL    HW1 3701   2.013   3.167   0.431
  934SOL    HW2 3702   2.164   3.178   0.491
  935SOL     OW 3703   5.602   2.861   5.754
  935SOL    HW1 3704   5.564   2.778   5.794
  935SOL    HW2 3705   5.663   2.905   5.819
  936SOL     OW 3706   2.026   0.581   5.984
  936SOL    HW1 3707   2.075   0.498   5.956
  936SOL    HW2 3708   2.093   0.653   6.004
  937SOL     OW 3709   3.536   2.154   6.073
  937SOL    HW1 3710   3.525   2.246   6.110
  937SOL    HW2 3711   3.536   2.087   6.147
  938SOL     OW 3712   5.209   6.330   4.802
  938SOL    HW1 3713   5.212   6.257   4.734
  938SOL    HW2 3714   5.227   6.418   4.757
  939SOL     OW 3715   1.410   0.242   5.682
  939SOL    HW1 3716   1.495   0.292   5.694
  939SOL    HW2 3717   1.372   0.218   5.772
  940SOL     OW 3718   1.961   5.689   0.848
  940SOL    HW1 3719   1.968   5.783   0.882
  940SOL    HW2 3720   1.992   5.625   0.918
  941SOL     OW 3721   3.745   6.832   1.056
  941SOL    HW1 3722   3.714   6.858   0.964
  941SOL    HW2 3723   3.835   6.873   1.073
  942SOL     OW 3724   6.548   4.971   0.281
  942SOL    HW1 3725   6.637   4.995   0.241
  942SOL    HW2 3726   6.491   4.928   0.211
  943SOL     OW 3727   3.698   5.651   1.506
  943SOL    HW1 3728   3.618   5.647   1.446
  943SOL    HW2 3729   3.729   5.746   1.513
  944SOL     OW 3730   6.702   6.143   3.450
  944SOL    HW1 3731   6.649   6.060   3.433
  944SOL    HW2 3732   6.781   6.121   3.508
  945SOL     OW 3733   0.408   5.672   6.466
  945SOL    HW1 3734   0.374   5.588   6.424
  945SOL    HW2 3735   0.460   5.725   6.399
  946SOL     OW 3736   6.079   2.163   4.041
  946SOL    HW1 3737   6.037   2.251   4.064
  946SOL    HW2 3738   6.009   2.093   4.035
  947SOL     OW 3739   3.895   4.033   3.089
  947SOL    HW1 3740   3.889   4.012   2.991
  947SOL    HW2 3741   3.932   3.954   3.138
  948SOL     OW 3742   3.357   1.053   3.981
  948SOL    HW1 3743   3.398   0.962   3.980
  948SOL    HW2 3744   3.416   1.116   4.033
  949SOL     OW 3745   3.033   0.189   5.675
  949SOL    HW1 3746   3.092   0.252   5.724
  949SOL    HW2 3747   2.997   0.234   5.593
  950SOL     OW 3748   6.852   0.299   2.023
  950SOL    HW1 3749   6.876   0.293   1.926
  950SOL    HW2 3750   6.800   0.383   2.040
  951SOL     OW 3751   1.045   0.293   3.510
  951SOL    HW1 3752   0.947   0.291   3.489
  951SOL    HW2 3753   1.097   0.297   3.424
  952SOL     OW 3754   3.764   1.778   3.237
  952SOL    HW1 3755   3.768   1.801   3.335
  952SOL    HW2 3756   3.849   1.807   3.193
  953SOL     OW 3757   0.806   5.362   5.926
  953SOL    HW1 3758   0.787   5.352   5.828
  953SOL    HW2 3759   0.800   5.459   5.951
  954SOL     OW 3760   4.552   6.685   2.679
  954SOL    HW1 3761   4.510   6.603   2.718
  954SOL    HW2 3762   4.646   6.665   2.654
  955SOL     OW 3763   2.309   5.073   1.129
  955SOL    HW1 3764   2.303   5.042   1.224
  955SOL    HW2 3765   2.378   5.144   1.122
  956SOL     OW 3766   4.239   0.361   1.102
  956SOL    HW1 3767   4.185   0.395   1.025
  956SOL    HW2 3768   4.331   0.398   1.097
  957SOL     OW 3769   6.113   6.797   3.184
  957SOL    HW1 3770   6.118   6.892   3.213
  957SOL    HW2 3771   6.061   6.790   3.099
  958SOL     OW 3772   5.312   6.260   1.823
  958SOL    HW1 3773   5.345   6.168   1.848
  958SOL    HW2 3774   5.235   6.284   1.881
  959SOL     OW 3775   5.147   0.151   3.158
  959SOL    HW1 3776   5.052   0.156   3.189
  959SOL    HW2 3777   5.152   0.097   3.074
  960SOL     OW 3778   1.782   6.281   6.142
  960SOL    HW1 3779   1.712   6.289   6.071
  960SOL    HW2 3780   1.870   6.259   6.099
  961SOL     OW 3781   4.200   1.347   3.690
  961SOL    HW1 3782   4.179   1.272   3.754
  961SOL    HW2 3783   4.274   1.319   3.629
  962SOL     OW 3784   0.081   0.070   4.619
  962SOL    HW1 3785   7.014   0.098   4.663
  962SOL    HW2 3786   0.092   6.989   4.628
  963SOL     OW 3787   5.744   2.878   1.391
  963SOL    HW1 3788   5.649   2.893   1.419
  963SOL    HW2 3789   5.799   2.958   1.416
  964SOL     OW 3790   3.849   6.632   5.097
  964SOL    HW1 3791   3.795   6.641   5.181
  964SOL    HW2 3792   3.875   6.723   5.065
  965SOL     OW 3793   4.989   2.364   3.926
  965SOL    HW1 3794   4.928   2.285   3.918
  965SOL    HW2 3795   5.080   2.339   3.892
  966SOL     OW 3796   5.238   1.290   3.922
  966SOL    HW1 3797   5.297   1.345   3.864
  966SOL    HW2 3798   5.279   1.280   4.013
  967SOL     OW 3799   3.932   5.028   6.278
  967SOL    HW1 3800   4.016   5.044   6.228
  967SOL    HW2 3801   3.888   5.116   6.297
  968SOL     OW 3802   3.570   0.432   1.080
  968SOL    HW1 3803   3.616   0.359   1.029
  968SOL    HW2 3804   3.611   0.520   1.057
  969SOL     OW 3805   2.764   3.944   6.585
  969SOL    HW1 3806   2.736   3.851   6.610
  969SOL    HW2 3807   2.692   3.987   6.530
  970SOL     OW 3808   4.845   6.860   5.361
  970SOL    HW1 3809   4.817   6.796   5.290
  970SOL    HW2 3810   4.774   6.929   5.374
  971SOL     OW 3811   5.139   3.621   3.448
  971SOL    HW1 3812   5.130   3.557   3.371
  971SOL    HW2 3813   5.048   3.640   3.485
  972SOL     OW 3814   0.406   1.977   0.638
  972SOL    HW1 3815   0.362   1.907   0.694
  972SOL    HW2 3816   0.471   2.029   0.693
  973SOL     OW 3817   0.109   2.591   4.728
  973SOL    HW1 3818   0.150   2.679   4.703
  973SOL    HW2 3819   0.119   2.577   4.827
  974SOL     OW 3820   0.680   3.597   1.982
  974SOL    HW1 3821   0.734   3.552   1.912
  974SOL    HW2 3822   0.593   3.627   1.943
  975SOL     OW 3823   2.904   0.431   2.416
  975SOL    HW1 3824   2.884   0.334   2.432
  975SOL    HW2 3825   2.821   0.476   2.382
  976SOL     OW 3826   6.925   2.798   3.790
  976SOL    HW1 3827   6.947   2.883   3.742
  976SOL    HW2 3828   7.008   2.743   3.802
  977SOL     OW 3829   6.253   1.276   2.643
  977SOL    HW1 3830   6.185   1.313   2.580
  977SOL    HW2 3831   6.323   1.227   2.591
  978SOL     OW 3832   4.858   3.036   0.531
  978SOL    HW1 3833   4.908   3.090   0.463
  978SOL    HW2 3834   4.891   3.059   0.622
  979SOL     OW 3835   0.159   4.781   6.515
  979SOL    HW1 3836   0.155   4.839   6.434
  979SOL    HW2 3837   0.178   4.687   6.488
  980SOL     OW 3838   4.383   1.431   4.472
  980SOL    HW1 3839   4.341   1.463   4.557
  980SOL    HW2 3840   4.334   1.471   4.394
  981SOL     OW 3841   0.888   6.072   5.410
  981SOL    HW1 3842   0.870   6.142   5.341
  981SOL    HW2 3843   0.831   5.992   5.392
  982SOL     OW 3844   0.269   0.646   6.794
  982SOL    HW1 3845   0.354   0.603   6.824
  982SOL    HW2 3846   0.222   0.686   6.872
  983SOL     OW 3847   0.274   3.546   2.913
  983SOL    HW1 3848   0.223   3.618   2.866
  983SOL    HW2 3849   0.318   3.488   2.845
  984SOL     OW 3850   0.430   3.343   3.577
  984SOL    HW1 3851   0.388   3.431   3.550
  984SOL    HW2 3852   0.469   3.352   3.668
  985SOL     OW 3853   5.822   5.833   4.869
  985SOL    HW1 3854   5.840   5.740   4.837
  985SOL    HW2 3855   5.759   5.831   4.946
  986SOL     OW 3856   4.331   5.706   1.238
  986SOL    HW1 3857   4.268   5.628   1.232
  986SOL    HW2 3858   4.399   5.699   1.165
  987SOL     OW 3859   4.909   4.582   4.746
  987SOL    HW1 3860   4.997   4.572   4.791
  987SOL    HW2 3861   4.856   4.497   4.758
  988SOL     OW 3862   2.917   4.861   2.012
  988SOL    HW1 3863   2.964   4.892   1.929
  988SOL    HW2 3864   2.882   4.769   1.998
  989SOL     OW 3865   0.290   2.606   1.046
  989SOL    HW1 3866   0.224   2.666   1.092
  989SOL    HW2 3867   0.306   2.639   0.954
  990SOL     OW 3868   3.787   0.299   5.224
  990SOL    HW1 3869   3.753   0.356   5.300
  990SOL    HW2 3870   3.809   0.208   5.259
  991SOL     OW 3871   1.232   6.154   4.147
  991SOL    HW1 3872   1.254   6.231   4.087
  991SOL    HW2 3873   1.305   6.142   4.214
  992SOL     OW 3874   6.539   2.472   0.186
  992SOL    HW1 3875   6.622   2.417   0.196
  992SOL    HW2 3876   6.473   2.446   0.257
  993SOL     OW 3877   1.843   4.614   0.190
  993SOL    HW1 3878   1.781   4.613   0.111
  993SOL    HW2 3879   1.937   4.611   0.157
  994SOL     OW 3880   2.402   0.022   1.794
  994SOL    HW1 3881   2.484   0.074   1.816
  994SOL    HW2 3882   2.321   0.079   1.807
  995SOL     OW 3883   5.839   3.865   5.442
  995SOL    HW1 3884   5.859   3.938   5.377
  995SOL    HW2 3885   5.755   3.817   5.415
  996SOL     OW 3886   4.213   6.591   5.115
  996SOL    HW1 3887   4.166   6.652   5.179
  996SOL    HW2 3888   4.147   6.530   5.072
  997SOL     OW 3889   1.747   6.237   3.592
  997SOL    HW1 3890   1.820   6.174   3.565
  997SOL    HW2 3891   1.672   6.231   3.527
  998SOL     OW 3892   4.684   0.167   0.293
  998SOL    HW1 3893   4.772   0.213   0.305
  998SOL    HW2 3894   4.699   0.079   0.247
  999SOL     OW 3895   5.406   2.848   2.459
  999SOL    HW1 3896   5.350   2.837   2.377
  999SOL    HW2 3897   5.491   2.797   2.448
 1000SOL     OW 3898   5.309   1.510   2.135
 1000SOL    HW1 3899   5.322   1.516   2.036
 1000SOL    HW2 3900   5.238   1.443   2.155
 1001SOL     OW 3901   2.547   6.648   2.729
 1001SOL    HW1 3902   2.569   6.565   2.677
 1001SOL    HW2 3903   2.566   6.728   2.672
 1002SOL     OW 3904   4.131   2.616   0.651
 1002SOL    HW1 3905   4.034   2.596   0.663
 1002SOL    HW2 3906   4.184   2.532   0.668
 1003SOL     OW 3907   0.463   0.414   3.282
 1003SOL    HW1 3908   0.524   0.489   3.306
 1003SOL    HW2 3909   0.464   0.400   3.183
 1004SOL     OW 3910   5.099   1.636   4.367
 1004SOL    HW1 3911   5.022   1.585   4.328
 1004SOL    HW2 3912   5.075   1.733   4.371
 1005SOL     OW 3913   0.674   5.578   1.755
 1005SOL    HW1 3914   0.709   5.508   1.817
 1005SOL    HW2 3915   0.745   5.646   1.737
 1006SOL     OW 3916   2.065   4.209   1.759
 1006SOL    HW1 3917   2.034   4.241   1.849
 1006SOL    HW2 3918   2.156   4.167   1.769
 1007SOL     OW 3919   4.742   1.006   6.279
 1007SOL    HW1 3920   4.650   0.969   6.262
 1007SOL    HW2 3921   4.784   1.030   6.192
 1008SOL     OW 3922   0.669   4.870   4.559
 1008SOL    HW1 3923   0.678   4.868   4.459
 1008SOL    HW2 3924   0.693   4.961   4.593
 1009SOL     OW 3925   6.503   5.863   6.131
 1009SOL    HW1 3926   6.510   5.962   6.145
 1009SOL    HW2 3927   6.409   5.834   6.146
 1010SOL     OW 3928   2.985   3.559   0.231
 1010SOL    HW1 3929   3.072   3.591   0.194
 1010SOL    HW2 3930   3.001   3.520   0.321
 1011SOL     OW 3931   6.740   4.818   2.303
 1011SOL    HW1 3932   6.649   4.784   2.276
 1011SOL    HW2 3933   6.777   4.875   2.230
 1012SOL     OW 3934   5.732   6.009   2.601
 1012SOL    HW1 3935   5.674   6.061   2.538
 1012SOL    HW2 3936   5.739   5.914   2.570
 1013SOL     OW 3937   0.677   0.315   5.985
 1013SOL    HW1 3938   0.640   0.298   6.076
 1013SOL    HW2 3939   0.609   0.290   5.916
 1014SOL     OW 3940   0.914   4.563   4.446
 1014SOL    HW1 3941   0.910   4.562   4.546
 1014SOL    HW2 3942   0.821   4.563   4.409
 1015SOL     OW 3943   2.029   6.445   0.253
 1015SOL    HW1 3944   1.981   6.374   0.202
 1015SOL    HW2 3945   2.038   6.526   0.196
 1016SOL     OW 3946   0.086   4.535   0.804
 1016SOL    HW1 3947   0.165   4.558   0.861
 1016SOL    HW2 3948   0.092   4.439   0.776
 1017SOL     OW 3949   2.239   0.927   2.748
 1017SOL    HW1 3950   2.328   0.912   2.792
 1017SOL    HW2 3951   2.167   0.920   2.817
 1018SOL     OW 3952   6.148   6.237   4.336
 1018SOL    HW1 3953   6.175   6.266   4.428
 1018SOL    HW2 3954   6.166   6.139   4.326
 1019SOL     OW 3955   6.063   4.153   1.032
 1019SOL    HW1 3956   6.111   4.203   1.104
 1019SOL    HW2 3957   6.072   4.203   0.945
 1020SOL     OW 3958   5.381   1.520   1.574
 1020SOL    HW1 3959   5.460   1.522   1.513
 1020SOL    HW2 3960   5.342   1.612   1.581
 1021SOL     OW 3961   0.963   6.923   0.988
 1021SOL    HW1 3962   0.998   7.017   0.980
 1021SOL    HW2 3963   0.996   6.883   1.074
 1022SOL     OW 3964   2.245   5.074   6.215
 1022SOL    HW1 3965   2.155   5.095   6.178
 1022SOL    HW2 3966   2.300   5.029   6.145
 1023SOL     OW 3967   0.889   1.920   2.072
 1023SOL    HW1 3968   0.926   1.976   1.997
 1023SOL    HW2 3969   0.810   1.869   2.038
 1024SOL     OW 3970   1.876   1.978   4.348
 1024SOL    HW1 3971   1.941   1.975   4.272
 1024SOL    HW2 3972   1.785   1.956   4.314
 1025SOL     OW 3973   4.869   4.273   1.043
 1025SOL    HW1 3974   4.876   4.274   0.944
 1025SOL    HW2 3975   4.803   4.204   1.072
 1026SOL     OW 3976   3.085   3.022   2.074
 1026SOL    HW1 3977   3.091   3.046   1.977
 1026SOL    HW2 3978   3.027   2.941   2.085
 1027SOL     OW 3979   6.569   6.576   0.154
 1027SOL    HW1 3980   6.618   6.662   0.142
 1027SOL    HW2 3981   6.478   6.584   0.112
 1028SOL     OW 3982   1.008   4.831   2.858
 1028SOL    HW1 3983   1.098   4.829   2.902
 1028SOL    HW2 3984   0.994   4.920   2.815
 1029SOL     OW 3985   1.055   0.803   4.978
 1029SOL    HW1 3986   1.005   0.844   4.901
 1029SOL    HW2 3987   1.036   0.855   5.061
 1030SOL     OW 3988   3.707   3.471   0.784
 1030SOL    HW1 3989   3.794   3.502   0.745
 1030SOL    HW2 3990   3.632   3.523   0.746
 1031SOL     OW 3991   4.513   3.181   0.451
 1031SOL    HW1 3992   4.534   3.279   0.457
 1031SOL    HW2 3993   4.530   3.149   0.358
 1032SOL     OW 3994   1.438   1.227   0.959
 1032SOL    HW1 3995   1.375   1.235   1.036
 1032SOL    HW2 3996   1.424   1.139   0.913
 1033SOL     OW 3997   6.624   0.482   2.302
 1033SOL    HW1 3998   6.722   0.497   2.312
 1033SOL    HW2 3999   6.582   0.475   2.393
 1034SOL     OW 4000   2.686   0.814   5.234
 1034SOL    HW1 4001   2.691   0.909   5.204
 1034SOL    HW2 4002   2.698   0.753   5.156
 1035SOL     OW 4003   1.499   0.246   0.471
 1035SOL    HW1 4004   1.424   0.237   0.536
 1035SOL    HW2 4005   1.528   0.341   0.467
 1036SOL     OW 4006   4.931   1.304   1.861
 1036SOL    HW1 4007   4.863   1.316   1.933
 1036SOL    HW2 4008   5.021   1.331   1.895
 1037SOL     OW 4009   1.601   3.730   2.936
 1037SOL    HW1 4010   1.502   3.742   2.933
 1037SOL    HW2 4011   1.645   3.809   2.892
 1038SOL     OW 4012   1.919   6.247   0.069
 1038SOL    HW1 4013   1.922   6.178   7.015
 1038SOL    HW2 4014   1.890   6.334   0.032
 1039SOL     OW 4015   2.910   3.523   3.201
 1039SOL    HW1 4016   3.006   3.494   3.194
 1039SOL    HW2 4017   2.891   3.551   3.295
 1040SOL     OW 4018   3.667   1.627   2.923
 1040SOL    HW1 4019   3.601   1.699   2.945
 1040SOL    HW2 4020   3.714   1.598   3.006
 1041SOL     OW 4021   6.812   6.545   6.379
 1041SOL    HW1 4022   6.792   6.530   6.282
 1041SOL    HW2 4023   6.726   6.557   6.429
 1042SOL     OW 4024   5.187   3.816   3.891
 1042SOL    HW1 4025   5.152   3.819   3.985
 1042SOL    HW2 4026   5.277   3.772   3.890
 1043SOL     OW 4027   2.722   1.982   3.701
 1043SOL    HW1 4028   2.776   1.911   3.657
 1043SOL    HW2 4029   2.624   1.960   3.694
 1044SOL     OW 4030   5.488   4.518   2.308
 1044SOL    HW1 4031   5.474   4.419   2.298
 1044SOL    HW2 4032   5.401   4.560   2.335
 1045SOL     OW 4033   2.098   0.141   2.739
 1045SOL    HW1 4034   2.117   0.238   2.756
 1045SOL    HW2 4035   2.005   0.120   2.767
 1046SOL     OW 4036   2.684   2.148   1.269
 1046SOL    HW1 4037   2.627   2.085   1.216
 1046SOL    HW2 4038   2.776   2.150   1.231
 1047SOL     OW 4039   3.894   0.903   3.489
 1047SOL    HW1 4040   3.841   0.987   3.479
 1047SOL    HW2 4041   3.938   0.881   3.402
 1048SOL     OW 4042   0.889   7.010   1.870
 1048SOL    HW1 4043   0.938   0.057   1.927
 1048SOL    HW2 4044   0.908   0.011   1.774
 1049SOL     OW 4045   3.739   6.931   0.236
 1049SOL    HW1 4046   3.721   6.838   0.204
 1049SOL    HW2 4047   3.746   6.993   0.158
 1050SOL     OW 4048   2.437   1.164   4.520
 1050SOL    HW1 4049   2.377   1.094   4.483
 1050SOL    HW2 4050   2.506   1.121   4.579
 1051SOL     OW 4051   1.935   1.757   5.164
 1051SOL    HW1 4052   1.864   1.804   5.217
 1051SOL    HW2 4053   1.914   1.660   5.158
 1052SOL     OW 4054   4.174   1.999   0.049
 1052SOL    HW1 4055   4.180   2.047   0.137
 1052SOL    HW2 4056   4.251   2.026   7.009
 1053SOL     OW 4057   4.853   2.442   4.363
 1053SOL    HW1 4058   4.927   2.438   4.431
 1053SOL    HW2 4059   4.784   2.507   4.393
 1054SOL     OW 4060   4.499   5.575   6.525
 1054SOL    HW1 4061   4.505   5.510   6.449
 1054SOL    HW2 4062   4.486   5.526   6.611
 1055SOL     OW 4063   5.161   5.702   6.602
 1055SOL    HW1 4064   5.071   5.736   6.630
 1055SOL    HW2 4065   5.152   5.650   6.517
 1056SOL     OW 4066   3.704   3.812   0.255
 1056SOL    HW1 4067   3.761   3.792   0.175
 1056SOL    HW2 4068   3.712   3.909   0.277
 1057SOL     OW 4069   3.125   3.306   6.235
 1057SOL    HW1 4070   3.054   3.376   6.222
 1057SOL    HW2 4071   3.102   3.249   6.314
 1058SOL     OW 4072   2.905   2.027   2.067
 1058SOL    HW1 4073   2.901   2.120   2.105
 1058SOL    HW2 4074   2.880   2.030   1.970
 1059SOL     OW 4075   2.549   5.941   2.460
 1059SOL    HW1 4076   2.504   6.029   2.472
 1059SOL    HW2 4077   2.519   5.900   2.374
 1060SOL     OW 4078   6.168   0.453   5.106
 1060SOL    HW1 4079   6.163   0.417   5.199
 1060SOL    HW2 4080   6.172   0.553   5.110
 1061SOL     OW 4081   6.941   3.573   6.544
 1061SOL    HW1 4082   0.014   3.600   6.513
 1061SOL    HW2 4083   6.873   3.638   6.509
 1062SOL     OW 4084   3.293   5.225   5.071
 1062SOL    HW1 4085   3.309   5.210   4.973
 1062SOL    HW2 4086   3.362   5.287   5.107
 1063SOL     OW 4087   2.932   6.612   3.823
 1063SOL    HW1 4088   2.957   6.692   3.768
 1063SOL    HW2 4089   2.855   6.635   3.883
 1064SOL     OW 4090   0.575   3.580   0.131
 1064SOL    HW1 4091   0.661   3.534   0.110
 1064SOL    HW2 4092   0.551   3.565   0.227
 1065SOL     OW 4093   6.046   0.861   4.869
 1065SOL    HW1 4094   6.062   0.879   4.772
 1065SOL    HW2 4095   5.947   0.858   4.887
 1066SOL     OW 4096   4.881   6.086   1.306
 1066SOL    HW1 4097   4.940   6.005   1.301
 1066SOL    HW2 4098   4.790   6.062   1.273
 1067SOL     OW 4099   2.852   1.536   0.300
 1067SOL    HW1 4100   2.874   1.510   0.206
 1067SOL    HW2 4101   2.937   1.556   0.350
 1068SOL     OW 4102   6.101   2.971   1.734
 1068SOL    HW1 4103   6.183   2.958   1.679
 1068SOL    HW2 4104   6.071   2.882   1.770
 1069SOL     OW 4105   6.613   2.662   2.737
 1069SOL    HW1 4106   6.571   2.683   2.649
 1069SOL    HW2 4107   6.688   2.597   2.723
 1070SOL     OW 4108   0.823   0.347   2.544
 1070SOL    HW1 4109   0.824   0.438   2.585
 1070SOL    HW2 4110   0.909   0.331   2.495
 1071SOL     OW 4111   0.580   2.834   5.929
 1071SOL    HW1 4112   0.578   2.808   5.833
 1071SOL    HW2 4113   0.491   2.815   5.970
 1072SOL     OW 4114   2.074   1.458   2.307
 1072SOL    HW1 4115   1.979   1.441   2.281
 1072SOL    HW2 4116   2.133   1.439   2.228
 1073SOL     OW 4117   5.334   2.252   2.831
 1073SOL    HW1 4118   5.374   2.279   2.743
 1073SOL    HW2 4119   5.363   2.159   2.854
 1074SOL     OW 4120   3.521   5.072   1.428
 1074SOL    HW1 4121   3.533   5.041   1.522
 1074SOL    HW2 4122   3.522   5.172   1.426
 1075SOL     OW 4123   6.529   3.764   4.867
 1075SOL    HW1 4124   6.486   3.717   4.790
 1075SOL    HW2 4125   6.492   3.729   4.953
 1076SOL     OW 4126   2.079   4.131   5.116
 1076SOL    HW1 4127   2.144   4.067   5.075
 1076SOL    HW2 4128   2.010   4.080   5.167
 1077SOL     OW 4129   6.935   6.234   0.608
 1077SOL    HW1 4130   6.857   6.194   0.560
 1077SOL    HW2 4131   6.952   6.184   0.692
 1078SOL     OW 4132   5.921   6.093   4.122
 1078SOL    HW1 4133   5.975   6.051   4.196
 1078SOL    HW2 4134   5.900   6.024   4.053
 1079SOL     OW 4135   0.790   6.920   1.317
 1079SOL    HW1 4136   0.803   6.823   1.297
 1079SOL    HW2 4137   0.742   6.929   1.404
 1080SOL     OW 4138   4.381   5.778   0.586
 1080SOL    HW1 4139   4.426   5.833   0.516
 1080SOL    HW2 4140   4.427   5.790   0.673
 1081SOL     OW 4141   6.694   6.607   3.447
 1081SOL    HW1 4142   6.733   6.538   3.508
 1081SOL    HW2 4143   6.627   6.661   3.497
 1082SOL     OW 4144   4.428   6.939   0.169
 1082SOL    HW1 4145   4.455   6.911   0.261
 1082SOL    HW2 4146   4.384   0.011   0.173
 1083SOL     OW 4147   5.970   3.883   2.371
 1083SOL    HW1 4148   6.025   3.903   2.290
 1083SOL    HW2 4149   5.873   3.893   2.347
 1084SOL     OW 4150   5.526   0.722   5.236
 1084SOL    HW1 4151   5.517   0.810   5.190
 1084SOL    HW2 4152   5.482   0.651   5.181
 1085SOL     OW 4153   1.887   3.131   5.131
 1085SOL    HW1 4154   1.984   3.111   5.145
 1085SOL    HW2 4155   1.840   3.126   5.219
 1086SOL     OW 4156   5.754   4.719   2.051
 1086SOL    HW1 4157   5.852   4.715   2.070
 1086SOL    HW2 4158   5.732   4.804   2.004
 1087SOL     OW 4159   4.084   0.581   5.794
 1087SOL    HW1 4160   4.002   0.525   5.802
 1087SOL    HW2 4161   4.082   0.654   5.863
 1088SOL     OW 4162   6.912   5.659   4.266
 1088SOL    HW1 4163   6.827   5.694   4.305
 1088SOL    HW2 4164   6.898   5.565   4.234
 1089SOL     OW 4165   5.748   5.366   3.774
 1089SOL    HW1 4166   5.787   5.384   3.865
 1089SOL    HW2 4167   5.741   5.267   3.761
 1090SOL     OW 4168   5.738   2.844   5.222
 1090SOL    HW1 4169   5.735   2.940   5.192
 1090SOL    HW2 4170   5.646   2.804   5.214
 1091SOL     OW 4171   2.105   3.718   3.168
 1091SOL    HW1 4172   2.051   3.777   3.228
 1091SOL    HW2 4173   2.145   3.774   3.095
 1092SOL     OW 4174   0.822   6.512   0.848
 1092SOL    HW1 4175   0.846   6.475   0.938
 1092SOL    HW2 4176   0.722   6.519   0.842
 1093SOL     OW 4177   1.515   0.544   3.638
 1093SOL    HW1 4178   1.599   0.573   3.591
 1093SOL    HW2 4179   1.477   0.622   3.688
 1094SOL     OW 4180   0.325   6.873   2.804
 1094SOL    HW1 4181   0.341   6.839   2.896
 1094SOL    HW2 4182   0.410   6.913   2.768
 1095SOL     OW 4183   5.918   3.820   0.391
 1095SOL    HW1 4184   5.898   3.916   0.411
 1095SOL    HW2 4185   5.950   3.812   0.296
 1096SOL     OW 4186   2.002   6.064   2.025
 1096SOL    HW1 4187   1.994   5.993   2.095
 1096SOL    HW2 4188   2.086   6.049   1.972
 1097SOL     OW 4189   3.154   6.365   4.665
 1097SOL    HW1 4190   3.176   6.321   4.578
 1097SOL    HW2 4191   3.229   6.350   4.730
 1098SOL     OW 4192   6.808   3.665   0.227
 1098SOL    HW1 4193   6.719   3.694   0.261
 1098SOL    HW2 4194   6.849   3.601   0.292
 1099SOL     OW 4195   5.461   0.431   6.479
 1099SOL    HW1 4196   5.411   0.467   6.558
 1099SOL    HW2 4197   5.438   0.335   6.467
 1100SOL     OW 4198   4.704   1.953   4.901
 1100SOL    HW1 4199   4.615   1.939   4.944
 1100SOL    HW2 4200   4.692   2.004   4.816
 1101SOL     OW 4201   5.208   2.184   6.537
 1101SOL    HW1 4202   5.177   2.089   6.545
 1101SOL    HW2 4203   5.264   2.194   6.455
 1102SOL     OW 4204   2.936   0.455   3.678
 1102SOL    HW1 4205   2.844   0.475   3.709
 1102SOL    HW2 4206   3.001   0.468   3.753
 1103SOL     OW 4207   3.523   6.024   1.032
 1103SOL    HW1 4208   3.573   6.038   1.117
 1103SOL    HW2 4209   3.521   5.927   1.009
 1104SOL     OW 4210   7.003   2.067   4.157
 1104SOL    HW1 4211   6.936   2.139   4.172
 1104SOL    HW2 4212   0.055   2.072   4.227
 1105SOL     OW 4213   4.987   0.924   6.686
 1105SOL    HW1 4214   4.977   0.885   6.595
 1105SOL    HW2 4215   4.935   0.870   6.752
 1106SOL     OW 4216   6.162   1.711   1.339
 1106SOL    HW1 4217   6.107   1.657   1.275
 1106SOL    HW2 4218   6.148   1.676   1.432
 1107SOL     OW 4219   1.037   1.615   0.126
 1107SOL    HW1 4220   0.958   1.672   0.147
 1107SOL    HW2 4221   1.104   1.623   0.199
 1108SOL     OW 4222   2.386   1.244   3.243
 1108SOL    HW1 4223   2.428   1.226   3.154
 1108SOL    HW2 4224   2.449   1.218   3.316
 1109SOL     OW 4225   5.074   1.891   5.146
 1109SOL    HW1 4226   5.124   1.844   5.219
 1109SOL    HW2 4227   5.115   1.868   5.058
 1110SOL     OW 4228   1.596   1.168   2.524
 1110SOL    HW1 4229   1.684   1.210   2.549
 1110SOL    HW2 4230   1.607   1.069   2.516
 1111SOL     OW 4231   5.866   3.209   6.336
 1111SOL    HW1 4232   5.838   3.286   6.394
 1111SOL    HW2 4233   5.966   3.211   6.325
 1112SOL     OW 4234   5.952   0.686   2.678
 1112SOL    HW1 4235   5.919   0.753   2.744
 1112SOL    HW2 4236   6.041   0.714   2.643
 1113SOL     OW 4237   6.441   2.860   3.084
 1113SOL    HW1 4238   6.506   2.936   3.086
 1113SOL    HW2 4239   6.409   2.846   2.990
 1114SOL     OW 4240   3.680   3.284   4.629
 1114SOL    HW1 4241   3.778   3.304   4.633
 1114SOL    HW2 4242   3.629   3.370   4.634
 1115SOL     OW 4243   1.877   4.634   5.819
 1115SOL    HW1 4244   1.812   4.678   5.881
 1115SOL    HW2 4245   1.844   4.543   5.795
 1116SOL     OW 4246   4.129   0.143   0.374
 1116SOL    HW1 4247   4.189   0.134   0.453
 1116SOL    HW2 4248   4.093   0.235   0.370
 1117SOL     OW 4249   1.885   2.479   2.062
 1117SOL    HW1 4250   1.883   2.402   2.125
 1117SOL    HW2 4251   1.958   2.464   1.995
 1118SOL     OW 4252   4.757   6.118   0.093
 1118SOL    HW1 4253   4.849   6.129   0.131
 1118SOL    HW2 4254   4.726   6.024   0.106
 1119SOL     OW 4255   3.645   4.992   3.727
 1119SOL    HW1 4256   3.568   4.982   3.790
 1119SOL    HW2 4257   3.610   5.001   3.634
 1120SOL     OW 4258   6.578   3.447   1.373
 1120SOL    HW1 4259   6.554   3.351   1.388
 1120SOL    HW2 4260   6.605   3.460   1.277
 1121SOL     OW 4261   6.200   4.193   5.545
 1121SOL    HW1 4262   6.266   4.224   5.613
 1121SOL    HW2 4263   6.115   4.166   5.591
 1122SOL     OW 4264   6.189   1.369   2.334
 1122SOL    HW1 4265   6.285   1.389   2.313
 1122SOL    HW2 4266   6.159   1.293   2.277
 1123SOL     OW 4267   3.659   1.934   4.786
 1123SOL    HW1 4268   3.573   1.972   4.819
 1123SOL    HW2 4269   3.714   2.006   4.744
 1124SOL     OW 4270   2.275   2.892   4.091
 1124SOL    HW1 4271   2.291   2.864   4.186
 1124SOL    HW2 4272   2.187   2.857   4.061
 1125SOL     OW 4273   1.219   3.191   3.511
 1125SOL    HW1 4274   1.182   3.254   3.444
 1125SOL    HW2 4275   1.145   3.138   3.553
 1126SOL     OW 4276   4.160   4.978   4.300
 1126SOL    HW1 4277   4.134   4.922   4.223
 1126SOL    HW2 4278   4.180   5.071   4.269
 1127SOL     OW 4279   6.243   6.688   1.344
 1127SOL    HW1 4280   6.178   6.745   1.394
 1127SOL    HW2 4281   6.215   6.682   1.248
 1128SOL     OW 4282   4.537   1.694   4.706
 1128SOL    HW1 4283   4.458   1.635   4.721
 1128SOL    HW2 4284   4.609   1.670   4.771
 1129SOL     OW 4285   1.030   0.478   0.256
 1129SOL    HW1 4286   0.998   0.560   0.304
 1129SOL    HW2 4287   1.052   0.501   0.162
 1130SOL     OW 4288   2.154   4.885   2.261
 1130SOL    HW1 4289   2.214   4.918   2.187
 1130SOL    HW2 4290   2.190   4.799   2.296
 1131SOL     OW 4291   1.958   5.549   4.009
 1131SOL    HW1 4292   2.003   5.508   4.088
 1131SOL    HW2 4293   1.991   5.505   3.925
 1132SOL     OW 4294   0.985   1.815   2.439
 1132SOL    HW1 4295   0.915   1.802   2.510
 1132SOL    HW2 4296   1.064   1.862   2.479
 1133SOL     OW 4297   1.527   6.424   6.636
 1133SOL    HW1 4298   1.513   6.379   6.548
 1133SOL    HW2 4299   1.584   6.366   6.694
 1134SOL     OW 4300   4.514   5.818   0.813
 1134SOL    HW1 4301   4.579   5.746   0.789
 1134SOL    HW2 4302   4.489   5.810   0.909
 1135SOL     OW 4303   1.426   6.979   3.263
 1135SOL    HW1 4304   1.497   6.934   3.210
 1135SOL    HW2 4305   1.336   6.949   3.230
 1136SOL     OW 4306   1.771   4.869   2.115
 1136SOL    HW1 4307   1.816   4.912   2.036
 1136SOL    HW2 4308   1.683   4.833   2.087
 1137SOL     OW 4309   1.332   5.712   4.393
 1137SOL    HW1 4310   1.318   5.619   4.429
 1137SOL    HW2 4311   1.247   5.764   4.403
 1138SOL     OW 4312   1.610   3.786   5.181
 1138SOL    HW1 4313   1.637   3.747   5.093
 1138SOL    HW2 4314   1.535   3.733   5.219
 1139SOL     OW 4315   2.663   5.546   4.910
 1139SOL    HW1 4316   2.705   5.540   4.820
 1139SOL    HW2 4317   2.565   5.527   4.902
 1140SOL     OW 4318   2.086   2.317   1.855
 1140SOL    HW1 4319   2.103   2.250   1.782
 1140SOL    HW2 4320   2.118   2.407   1.825
 1141SOL     OW 4321   6.270   4.751   5.505
 1141SOL    HW1 4322   6.255   4.750   5.406
 1141SOL    HW2 4323   6.368   4.760   5.524
 1142SOL     OW 4324   1.675   5.758   2.615
 1142SOL    HW1 4325   1.646   5.686   2.678
 1142SOL    HW2 4326   1.692   5.719   2.525
 1143SOL     OW 4327   6.912   4.315   1.823
 1143SOL    HW1 4328   6.929   4.281   1.915
 1143SOL    HW2 4329   6.991   4.294   1.765
 1144SOL     OW 4330   4.927   4.393   0.613
 1144SOL    HW1 4331   4.900   4.328   0.685
 1144SOL    HW2 4332   4.963   4.476   0.655
 1145SOL     OW 4333   6.266   0.308   0.291
 1145SOL    HW1 4334   6.215   0.345   0.369
 1145SOL    HW2 4335   6.348   0.262   0.325
 1146SOL     OW 4336   1.300   0.724   1.175
 1146SOL    HW1 4337   1.233   0.677   1.233
 1146SOL    HW2 4338   1.283   0.701   1.079
 1147SOL     OW 4339   1.776   6.201   1.079
 1147SOL    HW1 4340   1.861   6.149   1.069
 1147SOL    HW2 4341   1.763   6.224   1.176
 1148SOL     OW 4342   3.820   6.021   2.295
 1148SOL    HW1 4343   3.842   6.055   2.387
 1148SOL    HW2 4344   3.897   6.037   2.234
 1149SOL     OW 4345   4.965   2.702   1.773
 1149SOL    HW1 4346   4.993   2.725   1.680
 1149SOL    HW2 4347   4.974   2.603   1.788
 1150SOL     OW 4348   0.967   3.079   0.836
 1150SOL    HW1 4349   0.923   2.994   0.809
 1150SOL    HW2 4350   0.898   3.144   0.867
 1151SOL     OW 4351   5.331   5.202   4.221
 1151SOL    HW1 4352   5.384   5.226   4.303
 1151SOL    HW2 4353   5.284   5.283   4.187
 1152SOL     OW 4354   3.366   6.705   6.066
 1152SOL    HW1 4355   3.396   6.792   6.027
 1152SOL    HW2 4356   3.380   6.632   5.999
 1153SOL     OW 4357   5.986   6.861   1.421
 1153SOL    HW1 4358   5.969   6.818   1.332
 1153SOL    HW2 4359   5.981   6.792   1.493
 1154SOL     OW 4360   2.031   3.092   1.026
 1154SOL    HW1 4361   2.043   3.185   1.062
 1154SOL    HW2 4362   1.957   3.091   0.958
 1155SOL     OW 4363   3.623   5.880   3.677
 1155SOL    HW1 4364   3.651   5.822   3.600
 1155SOL    HW2 4365   3.620   5.825   3.761
 1156SOL     OW 4366   2.766   1.181   2.403
 1156SOL    HW1 4367   2.671   1.198   2.427
 1156SOL    HW2 4368   2.807   1.119   2.470
 1157SOL     OW 4369   2.806   1.726   0.956
 1157SOL    HW1 4370   2.715   1.715   0.997
 1157SOL    HW2 4371   2.797   1.777   0.871
 1158SOL     OW 4372   5.683   4.600   3.544
 1158SOL    HW1 4373   5.743   4.597   3.464
 1158SOL    HW2 4374   5.712   4.531   3.611
 1159SOL     OW 4375   5.827   4.857   0.451
 1159SOL    HW1 4376   5.827   4.935   0.388
 1159SOL    HW2 4377   5.733   4.839   0.482
 1160SOL     OW 4378   4.529   2.307   0.582
 1160SOL    HW1 4379   4.574   2.343   0.664
 1160SOL    HW2 4380   4.551   2.364   0.503
 1161SOL     OW 4381   6.406   5.339   0.793
 1161SOL    HW1 4382   6.339   5.409   0.768
 1161SOL    HW2 4383   6.359   5.263   0.838
 1162SOL     OW 4384   2.892   2.272   4.321
 1162SOL    HW1 4385   2.856   2.316   4.238
 1162SOL    HW2 4386   2.829   2.288   4.397
 1163SOL     OW 4387   5.588   2.296   1.594
 1163SOL    HW1 4388   5.658   2.305   1.664
 1163SOL    HW2 4389   5.549   2.385   1.574
 1164SOL     OW 4390   4.514   2.413   5.784
 1164SOL    HW1 4391   4.518   2.349   5.860
 1164SOL    HW2 4392   4.492   2.504   5.819
 1165SOL     OW 4393   4.666   6.999   3.331
 1165SOL    HW1 4394   4.732   0.051   3.360
 1165SOL    HW2 4395   4.695   6.910   3.367
 1166SOL     OW 4396   3.315   4.467   6.825
 1166SOL    HW1 4397   3.331   4.556   6.782
 1166SOL    HW2 4398   3.219   4.442   6.817
 1167SOL     OW 4399   4.673   4.187   3.021
 1167SOL    HW1 4400   4.586   4.180   3.069
 1167SOL    HW2 4401   4.691   4.282   2.997
 1168SOL     OW 4402   0.706   0.200   1.979
 1168SOL    HW1 4403   0.712   0.124   1.914
 1168SOL    HW2 4404   0.679   0.283   1.931
 1169SOL     OW 4405   4.573   1.898   5.272
 1169SOL    HW1 4406   4.519   1.853   5.343
 1169SOL    HW2 4407   4.662   1.853   5.264
 1170SOL     OW 4408   4.982   5.162   2.634
 1170SOL    HW1 4409   4.920   5.210   2.572
 1170SOL    HW2 4410   5.052   5.115   2.580
 1171SOL     OW 4411   0.237   6.135   0.891
 1171SOL    HW1 4412   0.309   6.146   0.959
 1171SOL    HW2 4413   0.148   6.140   0.936
 1172SOL     OW 4414   6.227   2.987   6.196
 1172SOL    HW1 4415   6.304   2.925   6.211
 1172SOL    HW2 4416   6.226   3.057   6.267
 1173SOL     OW 4417   3.556   2.499   0.633
 1173SOL    HW1 4418   3.476   2.464   0.584
 1173SOL    HW2 4419   3.564   2.598   0.619
 1174SOL     OW 4420   2.616   4.914   0.247
 1174SOL    HW1 4421   2.627   4.902   0.346
 1174SOL    HW2 4422   2.563   4.838   0.210
 1175SOL     OW 4423   3.277   2.959   4.152
 1175SOL    HW1 4424   3.311   3.049   4.178
 1175SOL    HW2 4425   3.207   2.969   4.081
 1176SOL     OW 4426   5.389   3.011   6.812
 1176SOL    HW1 4427   5.320   3.082   6.798
 1176SOL    HW2 4428   5.446   3.036   6.891
 1177SOL     OW 4429   1.400   1.712   4.515
 1177SOL    HW1 4430   1.402   1.802   4.560
 1177SOL    HW2 4431   1.442   1.644   4.575
 1178SOL     OW 4432   4.535   6.305   0.108
 1178SOL    HW1 4433   4.575   6.387   0.067
 1178SOL    HW2 4434   4.601   6.230   0.103
 1179SOL     OW 4435   0.455   5.974   0.256
 1179SOL    HW1 4436   0.462   5.892   0.198
 1179SOL    HW2 4437   0.396   6.040   0.212
 1180SOL     OW 4438   3.445   6.044   0.395
 1180SOL    HW1 4439   3.423   5.957   0.350
 1180SOL    HW2 4440   3.447   6.030   0.494
 1181SOL     OW 4441   6.563   6.682   6.806
 1181SOL    HW1 4442   6.644   6.642   6.763
 1181SOL    HW2 4443   6.591   6.751   6.873
 1182SOL     OW 4444   4.821   4.253   2.620
 1182SOL    HW1 4445   4.742   4.272   2.562
 1182SOL    HW2 4446   4.849   4.338   2.665
 1183SOL     OW 4447   1.811   4.053   6.693
 1183SOL    HW1 4448   1.769   4.070   6.782
 1183SOL    HW2 4449   1.797   3.957   6.668
 1184SOL     OW 4450   6.843   0.477   5.268
 1184SOL    HW1 4451   6.930   0.504   5.226
 1184SOL    HW2 4452   6.851   0.384   5.304
 1185SOL     OW 4453   6.243   1.058   6.986
 1185SOL    HW1 4454   6.341   1.047   6.973
 1185SOL    HW2 4455   6.206   1.117   6.914
 1186SOL     OW 4456   5.565   6.861   4.783
 1186SOL    HW1 4457   5.533   6.806   4.860
 1186SOL    HW2 4458   5.662   6.842   4.766
 1187SOL     OW 4459   6.340   1.515   5.929
 1187SOL    HW1 4460   6.299   1.428   5.902
 1187SOL    HW2 4461   6.371   1.510   6.024
 1188SOL     OW 4462   2.941   1.623   6.572
 1188SOL    HW1 4463   2.986   1.658   6.655
 1188SOL    HW2 4464   2.843   1.612   6.589
 1189SOL     OW 4465   5.298   3.498   3.644
 1189SOL    HW1 4466   5.364   3.566   3.677
 1189SOL    HW2 4467   5.227   3.544   3.591
 1190SOL     OW 4468   2.812   0.007   3.888
 1190SOL    HW1 4469   2.898   0.052   3.867
 1190SOL    HW2 4470   2.829   6.944   3.944
 1191SOL     OW 4471   4.095   6.444   2.893
 1191SOL    HW1 4472   4.015   6.501   2.910
 1191SOL    HW2 4473   4.094   6.412   2.798
 1192SOL     OW 4474   6.109   6.135   3.268
 1192SOL    HW1 4475   6.075   6.192   3.194
 1192SOL    HW2 4476   6.109   6.186   3.354
 1193SOL     OW 4477   6.957   5.898   4.720
 1193SOL    HW1 4478   6.879   5.859   4.768
 1193SOL    HW2 4479   0.002   5.939   4.786
 1194SOL     OW 4480   3.970   0.124   1.256
 1194SOL    HW1 4481   4.012   0.204   1.299
 1194SOL    HW2 4482   3.870   0.131   1.262
 1195SOL     OW 4483   4.889   2.402   3.515
 1195SOL    HW1 4484   4.914   2.309   3.489
 1195SOL    HW2 4485   4.910   2.464   3.440
 1196SOL     OW 4486   6.905   6.720   5.200
 1196SOL    HW1 4487   6.966   6.770   5.137
 1196SOL    HW2 4488   6.929   6.623   5.198
 1197SOL     OW 4489   1.936   6.194   0.461
 1197SOL    HW1 4490   1.861   6.251   0.493
 1197SOL    HW2 4491   1.900   6.107   0.427
 1198SOL     OW 4492   1.620   2.813   6.872
 1198SOL    HW1 4493   1.559   2.738   6.898
 1198SOL    HW2 4494   1.686   2.829   6.946
 1199SOL     OW 4495   6.428   3.643   2.212
 1199SOL    HW1 4496   6.386   3.606   2.294
 1199SOL    HW2 4497   6.394   3.595   2.132
 1200SOL     OW 4498   2.902   3.694   3.000
 1200SOL    HW1 4499   2.809   3.670   2.973
 1200SOL    HW2 4500   2.920   3.657   3.091
 1201SOL     OW 4501   1.335   1.904   4.224
 1201SOL    HW1 4502   1.321   1.869   4.317
 1201SOL    HW2 4503   1.289   1.992   4.215
 1202SOL     OW 4504   1.228   5.339   5.349
 1202SOL    HW1 4505   1.145   5.309   5.395
 1202SOL    HW2 4506   1.308   5.306   5.400
 1203SOL     OW 4507   3.358   6.108   5.483
 1203SOL    HW1 4508   3.411   6.096   5.399
 1203SOL    HW2 4509   3.352   6.022   5.532
 1204SOL     OW 4510   1.746   6.689   3.273
 1204SOL    HW1 4511   1.659   6.657   3.235
 1204SOL    HW2 4512   1.821   6.659   3.213
 1205SOL     OW 4513   5.790   3.754   1.933
 1205SOL    HW1 4514   5.807   3.660   1.904
 1205SOL    HW2 4515   5.717   3.756   2.002
 1206SOL     OW 4516   3.195   3.491   4.569
 1206SOL    HW1 4517   3.162   3.551   4.642
 1206SOL    HW2 4518   3.120   3.470   4.507
 1207SOL     OW 4519   1.095   6.021   2.646
 1207SOL    HW1 4520   1.180   6.008   2.698
 1207SOL    HW2 4521   1.020   6.038   2.710
 1208SOL     OW 4522   3.349   3.436   6.130
 1208SOL    HW1 4523   3.302   3.391   6.206
 1208SOL    HW2 4524   3.282   3.460   6.060
 1209SOL     OW 4525   3.810   6.356   5.528
 1209SOL    HW1 4526   3.744   6.431   5.524
 1209SOL    HW2 4527   3.772   6.281   5.582
 1210SOL     OW 4528   3.405   1.438   2.993
 1210SOL    HW1 4529   3.418   1.533   2.966
 1210SOL    HW2 4530   3.485   1.406   3.044
 1211SOL     OW 4531   0.917   2.531   0.435
 1211SOL    HW1 4532   0.878   2.600   0.375
 1211SOL    HW2 4533   0.844   2.489   0.490
 1212SOL     OW 4534   1.148   0.247   0.340
 1212SOL    HW1 4535   1.220   0.233   0.273
 1212SOL    HW2 4536   1.093   0.326   0.314
 1213SOL     OW 4537   5.481   2.951   1.445
 1213SOL    HW1 4538   5.411   2.925   1.379
 1213SOL    HW2 4539   5.462   3.043   1.480
 1214SOL     OW 4540   6.961   2.823   1.903
 1214SOL    HW1 4541   6.994   2.785   1.816
 1214SOL    HW2 4542   6.948   2.749   1.969
 1215SOL     OW 4543   1.629   5.901   3.214
 1215SOL    HW1 4544   1.592   5.990   3.239
 1215SOL    HW2 4545   1.689   5.868   3.286
 1216SOL     OW 4546   3.539   0.158   1.934
 1216SOL    HW1 4547   3.468   0.132   1.869
 1216SOL    HW2 4548   3.611   0.208   1.886
 1217SOL     OW 4549   2.790   4.467   6.983
 1217SOL    HW1 4550   2.812   4.447   0.061
 1217SOL    HW2 4551   2.692   4.449   6.968
 1218SOL     OW 4552   2.877   5.075   3.205
 1218SOL    HW1 4553   2.821   5.140   3.152
 1218SOL    HW2 4554   2.854   5.083   3.302
 1219SOL     OW 4555   3.673   5.938   2.077
 1219SOL    HW1 4556   3.701   5.956   1.983
 1219SOL    HW2 4557   3.732   5.990   2.140
 1220SOL     OW 4558   0.941   4.534   2.519
 1220SOL    HW1 4559   0.952   4.547   2.421
 1220SOL    HW2 4560   0.982   4.447   2.546
 1221SOL     OW 4561   4.698   4.402   6.379
 1221SOL    HW1 4562   4.614   4.413   6.431
 1221SOL    HW2 4563   4.755   4.483   6.389
 1222SOL     OW 4564   6.848   0.674   6.284
 1222SOL    HW1 4565   6.897   0.689   6.198
 1222SOL    HW2 4566   6.809   0.761   6.315
 1223SOL     OW 4567   3.449   6.455   0.993
 1223SOL    HW1 4568   3.516   6.516   1.035
 1223SOL    HW2 4569   3.495   6.376   0.954
 1224SOL     OW 4570   2.905   0.776   2.170
 1224SOL    HW1 4571   2.934   0.795   2.076
 1224SOL    HW2 4572   2.982   0.792   2.232
 1225SOL     OW 4573   2.784   3.648   5.948
 1225SOL    HW1 4574   2.868   3.684   5.907
 1225SOL    HW2 4575   2.705   3.694   5.908
 1226SOL     OW 4576   2.162   4.967   0.347
 1226SOL    HW1 4577   2.163   4.939   0.443
 1226SOL    HW2 4578   2.071   4.955   0.309
 1227SOL     OW 4579   0.739   3.724   5.809
 1227SOL    HW1 4580   0.728   3.727   5.710
 1227SOL    HW2 4581   0.833   3.699   5.832
 1228SOL     OW 4582   3.832   1.680   0.220
 1228SOL    HW1 4583   3.778   1.731   0.153
 1228SOL    HW2 4584   3.910   1.736   0.249
 1229SOL     OW 4585   2.776   4.291   6.610
 1229SOL    HW1 4586   2.836   4.353   6.558
 1229SOL    HW2 4587   2.828   4.210   6.638
 1230SOL     OW 4588   4.804   0.623   3.552
 1230SOL    HW1 4589   4.867   0.697   3.578
 1230SOL    HW2 4590   4.712   0.660   3.544
 1231SOL     OW 4591   1.215   3.810   4.418
 1231SOL    HW1 4592   1.296   3.864   4.443
 1231SOL    HW2 4593   1.173   3.772   4.500
 1232SOL     OW 4594   2.238   2.917   3.255
 1232SOL    HW1 4595   2.208   2.972   3.177
 1232SOL    HW2 4596   2.314   2.963   3.301
 1233SOL     OW 4597   1.057   2.449   4.347
 1233SOL    HW1 4598   1.030   2.542   4.374
 1233SOL    HW2 4599   1.024   2.383   4.415
 1234SOL     OW 4600   6.727   4.375   4.209
 1234SOL    HW1 4601   6.696   4.447   4.272
 1234SOL    HW2 4602   6.804   4.326   4.250
 1235SOL     OW 4603   6.691   5.935   3.732
 1235SOL    HW1 4604   6.740   5.985   3.804
 1235SOL    HW2 4605   6.597   5.970   3.725
 1236SOL     OW 4606   5.413   0.735   5.835
 1236SOL    HW1 4607   5.481   0.754   5.906
 1236SOL    HW2 4608   5.330   0.700   5.878
 1237SOL     OW 4609   2.429   4.750   6.180
 1237SOL    HW1 4610   2.458   4.833   6.133
 1237SOL    HW2 4611   2.479   4.672   6.143
 1238SOL     OW 4612   1.731   1.427   0.591
 1238SOL    HW1 4613   1.821   1.382   0.594
 1238SOL    HW2 4614   1.719   1.482   0.674
 1239SOL     OW 4615   0.804   0.369   5.688
 1239SOL    HW1 4616   0.811   0.296   5.756
 1239SOL    HW2 4617   0.751   0.336   5.609
 1240SOL     OW 4618   4.650   5.444   1.509
 1240SOL    HW1 4619   4.745   5.426   1.535
 1240SOL    HW2 4620   4.605   5.357   1.486
 1241SOL     OW 4621   0.348   1.935   4.270
 1241SOL    HW1 4622   0.284   2.000   4.309
 1241SOL    HW2 4623   0.417   1.983   4.215
 1242SOL     OW 4624   2.343   2.548   6.294
 1242SOL    HW1 4625   2.282   2.625   6.279
 1242SOL    HW2 4626   2.407   2.540   6.217
 1243SOL     OW 4627   2.503   5.488   5.442
 1243SOL    HW1 4628   2.498   5.390   5.465
 1243SOL    HW2 4629   2.430   5.537   5.490
 1244SOL     OW 4630   6.994   1.676   2.431
 1244SOL    HW1 4631   6.942   1.598   2.467
 1244SOL    HW2 4632   0.062   1.684   2.481
 1245SOL     OW 4633   2.876   3.371   5.614
 1245SOL    HW1 4634   2.970   3.404   5.614
 1245SOL    HW2 4635   2.822   3.421   5.546
 1246SOL     OW 4636   0.950   0.120   1.296
 1246SOL    HW1 4637   0.867   0.168   1.326
 1246SOL    HW2 4638   0.927   0.025   1.276
 1247SOL     OW 4639   1.218   6.887   6.693
 1247SOL    HW1 4640   1.275   6.966   6.719
 1247SOL    HW2 4641   1.250   6.851   6.606
 1248SOL     OW 4642   2.398   6.534   3.871
 1248SOL    HW1 4643   2.466   6.479   3.822
 1248SOL    HW2 4644   2.307   6.516   3.833
 1249SOL     OW 4645   5.739   2.958   3.022
 1249SOL    HW1 4646   5.692   2.940   2.936
 1249SOL    HW2 4647   5.695   3.035   3.069
 1250SOL     OW 4648   0.075   3.948   4.158
 1250SOL    HW1 4649   0.135   3.870   4.171
 1250SOL    HW2 4650   0.054   3.959   4.061
 1251SOL     OW 4651   3.401   0.604   6.379
 1251SOL    HW1 4652   3.471   0.534   6.389
 1251SOL    HW2 4653   3.427   0.685   6.432
 1252SOL     OW 4654   2.806   3.504   0.017
 1252SOL    HW1 4655   2.853   3.463   6.957
 1252SOL    HW2 4656   2.874   3.527   0.087
 1253SOL     OW 4657   4.664   0.691   2.687
 1253SOL    HW1 4658   4.685   0.632   2.609
 1253SOL    HW2 4659   4.640   0.783   2.655
 1254SOL     OW 4660   5.640   1.554   3.160
 1254SOL    HW1 4661   5.732   1.539   3.123
 1254SOL    HW2 4662   5.629   1.650   3.184
 1255SOL     OW 4663   6.209   0.464   0.723
 1255SOL    HW1 4664   6.156   0.418   0.794
 1255SOL    HW2 4665   6.291   0.504   0.763
 1256SOL     OW 4666   4.976   2.565   3.716
 1256SOL    HW1 4667   4.957   2.508   3.795
 1256SOL    HW2 4668   4.959   2.513   3.632
 1257SOL     OW 4669   6.197   0.990   4.047
 1257SOL    HW1 4670   6.180   1.050   3.969
 1257SOL    HW2 4671   6.293   0.997   4.074
 1258SOL     OW 4672   0.224   5.398   3.465
 1258SOL    HW1 4673   0.164   5.445   3.529
 1258SOL    HW2 4674   0.180   5.394   3.375
 1259SOL     OW 4675   4.938   2.577   5.006
 1259SOL    HW1 4676   4.998   2.578   5.086
 1259SOL    HW2 4677   4.979   2.634   4.934
 1260SOL     OW 4678   0.434   1.355   5.032
 1260SOL    HW1 4679   0.460   1.416   5.106
 1260SOL    HW2 4680   0.479   1.267   5.043
 1261SOL     OW 4681   6.589   3.947   0.815
 1261SOL    HW1 4682   6.639   4.028   0.844
 1261SOL    HW2 4683   6.630   3.911   0.730
 1262SOL     OW 4684   5.114   6.332   2.011
 1262SOL    HW1 4685   5.105   6.241   2.053
 1262SOL    HW2 4686   5.082   6.401   2.076
 1263SOL     OW 4687   0.111   2.477   3.569
 1263SOL    HW1 4688   0.105   2.378   3.588
 1263SOL    HW2 4689   0.053   2.500   3.491
 1264SOL     OW 4690   1.232   2.756   5.110
 1264SOL    HW1 4691   1.215   2.682   5.174
 1264SOL    HW2 4692   1.175   2.835   5.134
 1265SOL     OW 4693   5.626   0.331   5.581
 1265SOL    HW1 4694   5.659   0.239   5.564
 1265SOL    HW2 4695   5.527   0.335   5.566
 1266SOL     OW 4696   2.853   1.506   5.005
 1266SOL    HW1 4697   2.933   1.460   4.967
 1266SOL    HW2 4698   2.875   1.602   5.021
 1267SOL     OW 4699   3.443   6.954   2.619
 1267SOL    HW1 4700   3.520   6.952   2.556
 1267SOL    HW2 4701   3.373   7.017   2.584
 1268SOL     OW 4702   3.899   2.278   5.336
 1268SOL    HW1 4703   3.829   2.331   5.385
 1268SOL    HW2 4704   3.883   2.181   5.351
 1269SOL     OW 4705   5.642   1.828   3.790
 1269SOL    HW1 4706   5.733   1.861   3.814
 1269SOL    HW2 4707   5.613   1.759   3.856
 1270SOL     OW 4708   6.446   5.167   3.141
 1270SOL    HW1 4709   6.541   5.137   3.156
 1270SOL    HW2 4710   6.386   5.121   3.207
 1271SOL     OW 4711   1.885   1.422   1.797
 1271SOL    HW1 4712   1.878   1.495   1.729
 1271SOL    HW2 4713   1.794   1.389   1.820
 1272SOL     OW 4714   5.751   2.573   0.693
 1272SOL    HW1 4715   5.690   2.511   0.644
 1272SOL    HW2 4716   5.807   2.521   0.757
 1273SOL     OW 4717   1.823   4.366   5.653
 1273SOL    HW1 4718   1.833   4.412   5.565
 1273SOL    HW2 4719   1.866   4.276   5.649
 1274SOL     OW 4720   6.796   4.126   3.957
 1274SOL    HW1 4721   6.763   4.121   4.052
 1274SOL    HW2 4722   6.763   4.211   3.915
 1275SOL     OW 4723   2.202   1.422   3.008
 1275SOL    HW1 4724   2.111   1.422   3.051
 1275SOL    HW2 4725   2.247   1.509   3.025
 1276SOL     OW 4726   5.536   4.190   3.713
 1276SOL    HW1 4727   5.526   4.113   3.776
 1276SOL    HW2 4728   5.501   4.164   3.623
 1277SOL     OW 4729   0.780   5.934   6.925
 1277SOL    HW1 4730   0.730   5.860   6.880
 1277SOL    HW2 4731   0.860   5.958   6.871
 1278SOL     OW 4732   0.325   6.116   2.487
 1278SOL    HW1 4733   0.257   6.066   2.432
 1278SOL    HW2 4734   0.301   6.107   2.584
 1279SOL     OW 4735   2.819   3.192   0.780
 1279SOL    HW1 4736   2.815   3.131   0.701
 1279SOL    HW2 4737   2.913   3.225   0.792
 1280SOL     OW 4738   2.631   2.379   4.120
 1280SOL    HW1 4739   2.672   2.383   4.029
 1280SOL    HW2 4740   2.612   2.284   4.144
 1281SOL     OW 4741   5.587   6.055   4.681
 1281SOL    HW1 4742   5.684   6.061   4.705
 1281SOL    HW2 4743   5.538   6.005   4.754
 1282SOL     OW 4744   0.530   3.029   1.484
 1282SOL    HW1 4745   0.433   3.004   1.479
 1282SOL    HW2 4746   0.575   2.975   1.554
 1283SOL     OW 4747   0.004   1.398   4.301
 1283SOL    HW1 4748   0.015   1.464   4.227
 1283SOL    HW2 4749   6.934   1.413   4.346
 1284SOL     OW 4750   3.596   2.056   1.651
 1284SOL    HW1 4751   3.687   2.065   1.612
 1284SOL    HW2 4752   3.601   2.002   1.735
 1285SOL     OW 4753   4.283   1.554   4.261
 1285SOL    HW1 4754   4.190   1.588   4.255
 1285SOL    HW2 4755   4.327   1.560   4.171
 1286SOL     OW 4756   5.008   1.022   1.932
 1286SOL    HW1 4757   4.954   1.106   1.937
 1286SOL    HW2 4758   5.102   1.040   1.959
 1287SOL     OW 4759   4.866   5.172   5.935
 1287SOL    HW1 4760   4.885   5.166   6.033
 1287SOL    HW2 4761   4.945   5.135   5.884
 1288SOL     OW 4762   4.466   4.452   6.528
 1288SOL    HW1 4763   4.412   4.379   6.570
 1288SOL    HW2 4764   4.405   4.514   6.478
 1289SOL     OW 4765   6.971   6.906   0.326
 1289SOL    HW1 4766   6.983   7.003   0.346
 1289SOL    HW2 4767   0.015   6.852   0.383
 1290SOL     OW 4768   1.696   6.445   5.390
 1290SOL    HW1 4769   1.682   6.453   5.489
 1290SOL    HW2 4770   1.640   6.513   5.343
 1291SOL     OW 4771   5.816   5.509   3.565
 1291SOL    HW1 4772   5.788   5.447   3.638
 1291SOL    HW2 4773   5.864   5.458   3.493
 1292SOL     OW 4774   0.406   6.610   2.645
 1292SOL    HW1 4775   0.505   6.623   2.652
 1292SOL    HW2 4776   0.365   6.622   2.736
 1293SOL     OW 4777   4.754   0.886   1.130
 1293SOL    HW1 4778   4.764   0.863   1.034
 1293SOL    HW2 4779   4.831   0.943   1.159
 1294SOL     OW 4780   2.073   4.687   5.084
 1294SOL    HW1 4781   2.003   4.616   5.081
 1294SOL    HW2 4782   2.164   4.644   5.079
 1295SOL     OW 4783   6.882   4.566   0.289
 1295SOL    HW1 4784   6.946   4.615   0.348
 1295SOL    HW2 4785   6.931   4.498   0.235
 1296SOL     OW 4786   4.962   0.237   6.002
 1296SOL    HW1 4787   4.987   0.326   5.964
 1296SOL    HW2 4788   4.913   0.184   5.933
 1297SOL     OW 4789   6.129   6.795   0.146
 1297SOL    HW1 4790   6.210   6.839   0.186
 1297SOL    HW2 4791   6.078   6.863   0.094
 1298SOL     OW 4792   5.196   0.477   3.577
 1298SOL    HW1 4793   5.274   0.436   3.530
 1298SOL    HW2 4794   5.141   0.528   3.512
 1299SOL     OW 4795   1.108   3.688   4.622
 1299SOL    HW1 4796   1.059   3.731   4.697
 1299SOL    HW2 4797   1.193   3.646   4.656
 1300SOL     OW 4798   1.529   5.930   0.506
 1300SOL    HW1 4799   1.474   5.933   0.589
 1300SOL    HW2 4800   1.473   5.961   0.428
 1301SOL     OW 4801   6.620   0.766   0.497
 1301SOL    HW1 4802   6.709   0.779   0.541
 1301SOL    HW2 4803   6.635   0.737   0.402
 1302SOL     OW 4804   6.501   6.908   5.380
 1302SOL    HW1 4805   6.552   6.891   5.464
 1302SOL    HW2 4806   6.551   6.868   5.302
 1303SOL     OW 4807   3.175   6.816   1.728
 1303SOL    HW1 4808   3.105   6.779   1.666
 1303SOL    HW2 4809   3.262   6.772   1.708
 1304SOL     OW 4810   0.350   0.593   0.894
 1304SOL    HW1 4811   0.258   0.602   0.932
 1304SOL    HW2 4812   0.415   0.575   0.968
 1305SOL     OW 4813   4.099   4.177   6.248
 1305SOL    HW1 4814   4.017   4.232   6.262
 1305SOL    HW2 4815   4.152   4.175   6.333
 1306SOL     OW 4816   3.092   6.871   3.931
 1306SOL    HW1 4817   3.055   6.887   3.840
 1306SOL    HW2 4818   3.160   6.798   3.927
 1307SOL     OW 4819   1.885   2.621   4.480
 1307SOL    HW1 4820   1.982   2.620   4.501
 1307SOL    HW2 4821   1.844   2.534   4.506
 1308SOL     OW 4822   6.704   3.389   6.197
 1308SOL    HW1 4823   6.625   3.427   6.148
 1308SOL    HW2 4824   6.773   3.359   6.131
 1309SOL     OW 4825   5.652   3.941   6.500
 1309SOL    HW1 4826   5.558   3.973   6.509
 1309SOL    HW2 4827   5.690   3.924   6.591
 1310SOL     OW 4828   2.133   3.838   3.454
 1310SOL    HW1 4829   2.154   3.891   3.536
 1310SOL    HW2 4830   2.117   3.742   3.480
 1311SOL     OW 4831   5.146   4.936   0.274
 1311SOL    HW1 4832   5.073   4.893   0.327
 1311SOL    HW2 4833   5.168   4.878   0.195
 1312SOL     OW 4834   2.555   1.273   6.541
 1312SOL    HW1 4835   2.507   1.303   6.624
 1312SOL    HW2 4836   2.492   1.273   6.464
 1313SOL     OW 4837   5.778   5.057   1.736
 1313SOL    HW1 4838   5.819   5.062   1.827
 1313SOL    HW2 4839   5.830   5.115   1.673
 1314SOL     OW 4840   1.700   0.862   3.735
 1314SOL    HW1 4841   1.747   0.848   3.648
 1314SOL    HW2 4842   1.715   0.956   3.766
 1315SOL     OW 4843   6.597   1.049   2.732
 1315SOL    HW1 4844   6.515   1.013   2.777
 1315SOL    HW2 4845   6.678   1.002   2.769
 1316SOL     OW 4846   5.228   6.875   6.348
 1316SOL    HW1 4847   5.209   6.839   6.439
 1316SOL    HW2 4848   5.182   6.819   6.279
 1317SOL     OW 4849   3.563   2.952   5.017
 1317SOL    HW1 4850   3.606   3.020   4.957
 1317SOL    HW2 4851   3.464   2.965   5.017
 1318SOL     OW 4852   1.908   1.993   6.238
 1318SOL    HW1 4853   1.948   1.988   6.329
 1318SOL    HW2 4854   1.963   2.053   6.180
 1319SOL     OW 4855   7.005   0.681   0.390
 1319SOL    HW1 4856   7.008   0.759   0.328
 1319SOL    HW2 4857   0.065   0.621   0.372
 1320SOL     OW 4858   2.769   3.230   6.193
 1320SOL    HW1 4859   2.802   3.138   6.170
 1320SOL    HW2 4860   2.685   3.223   6.247
 1321SOL     OW 4861   0.349   2.355   1.066
 1321SOL    HW1 4862   0.374   2.313   0.979
 1321SOL    HW2 4863   0.321   2.450   1.051
 1322SOL     OW 4864   3.195   2.615   0.103
 1322SOL    HW1 4865   3.165   2.589   0.011
 1322SOL    HW2 4866   3.117   2.651   0.154
 1323SOL     OW 4867   4.024   0.225   1.557
 1323SOL    HW1 4868   3.965   0.252   1.633
 1323SOL    HW2 4869   4.030   0.300   1.491
 1324SOL     OW 4870   2.108   4.048   5.750
 1324SOL    HW1 4871   2.205   4.031   5.733
 1324SOL    HW2 4872   2.053   3.985   5.696
 1325SOL     OW 4873   3.815   6.237   4.957
 1325SOL    HW1 4874   3.733   6.248   5.015
 1325SOL    HW2 4875   3.806   6.294   4.876
 1326SOL     OW 4876   4.902   1.383   5.043
 1326SOL    HW1 4877   4.839   1.397   4.967
 1326SOL    HW2 4878   4.911   1.285   5.060
 1327SOL     OW 4879   4.797   6.008   2.515
 1327SOL    HW1 4880   4.757   6.087   2.562
 1327SOL    HW2 4881   4.723   5.948   2.483
 1328SOL     OW 4882   2.337   1.913   6.087
 1328SOL    HW1 4883   2.394   1.832   6.073
 1328SOL    HW2 4884   2.264   1.913   6.018
 1329SOL     OW 4885   1.393   3.133   3.823
 1329SOL    HW1 4886   1.353   3.053   3.778
 1329SOL    HW2 4887   1.426   3.197   3.754
 1330SOL     OW 4888   5.819   2.905   3.315
 1330SOL    HW1 4889   5.808   2.884   3.218
 1330SOL    HW2 4890   5.888   2.976   3.327
 1331SOL     OW 4891   4.571   2.554   3.802
 1331SOL    HW1 4892   4.588   2.610   3.883
 1331SOL    HW2 4893   4.476   2.522   3.802
 1332SOL     OW 4894   2.456   5.570   0.303
 1332SOL    HW1 4895   2.436   5.475   0.330
 1332SOL    HW2 4896   2.490   5.621   0.382
 1333SOL     OW 4897   3.518   3.538   3.016
 1333SOL    HW1 4898   3.516   3.496   3.107
 1333SOL    HW2 4899   3.429   3.576   2.994
 1334SOL     OW 4900   7.007   4.166   1.406
 1334SOL    HW1 4901   0.023   4.181   1.498
 1334SOL    HW2 4902   6.919   4.212   1.394
 1335SOL     OW 4903   6.708   3.418   3.356
 1335SOL    HW1 4904   6.697   3.450   3.262
 1335SOL    HW2 4905   6.789   3.360   3.363
 1336SOL     OW 4906   1.846   6.687   5.589
 1336SOL    HW1 4907   1.920   6.652   5.647
 1336SOL    HW2 4908   1.758   6.655   5.625
 1337SOL     OW 4909   0.513   0.197   2.159
 1337SOL    HW1 4910   0.458   0.113   2.150
 1337SOL    HW2 4911   0.601   0.184   2.113
 1338SOL     OW 4912   6.750   4.024   4.781
 1338SOL    HW1 4913   6.740   4.087   4.704
 1338SOL    HW2 4914   6.707   3.937   4.758
 1339SOL     OW 4915   5.902   1.450   6.679
 1339SOL    HW1 4916   5.919   1.526   6.616
 1339SOL    HW2 4917   5.813   1.410   6.658
 1340SOL     OW 4918   3.531   2.880   1.549
 1340SOL    HW1 4919   3.584   2.820   1.490
 1340SOL    HW2 4920   3.526   2.971   1.508
 1341SOL     OW 4921   5.025   5.630   6.290
 1341SOL    HW1 4922   5.108   5.582   6.320
 1341SOL    HW2 4923   5.028   5.725   6.323
 1342SOL     OW 4924   1.561   6.071   1.624
 1342SOL    HW1 4925   1.489   6.140   1.633
 1342SOL    HW2 4926   1.649   6.111   1.651
 1343SOL     OW 4927   4.732   5.920   2.823
 1343SOL    HW1 4928   4.787   5.994   2.861
 1343SOL    HW2 4929   4.662   5.958   2.762
 1344SOL     OW 4930   1.037   0.878   4.518
 1344SOL    HW1 4931   1.038   0.816   4.597
 1344SOL    HW2 4932   0.944   0.905   4.497
 1345SOL     OW 4933   1.686   6.769   6.308
 1345SOL    HW1 4934   1.673   6.869   6.308
 1345SOL    HW2 4935   1.677   6.735   6.214
 1346SOL     OW 4936   3.011   5.196   4.522
 1346SOL    HW1 4937   2.986   5.109   4.566
 1346SOL    HW2 4938   2.968   5.202   4.432
 1347SOL     OW 4939   1.809   0.645   6.132
 1347SOL    HW1 4940   1.755   0.707   6.075
 1347SOL    HW2 4941   1.898   0.629   6.088
 1348SOL     OW 4942   1.336   6.653   5.218
 1348SOL    HW1 4943   1.278   6.735   5.217
 1348SOL    HW2 4944   1.288   6.577   5.174
 1349SOL     OW 4945   5.138   4.194   4.237
 1349SOL    HW1 4946   5.059   4.220   4.181
 1349SOL    HW2 4947   5.222   4.226   4.193
 1350SOL     OW 4948   4.655   4.727   6.510
 1350SOL    HW1 4949   4.695   4.654   6.455
 1350SOL    HW2 4950   4.689   4.816   6.477
 1351SOL     OW 4951   0.337   2.310   5.874
 1351SOL    HW1 4952   0.239   2.326   5.882
 1351SOL    HW2 4953   0.387   2.388   5.911
 1352SOL     OW 4954   0.405   0.894   2.417
 1352SOL    HW1 4955   0.323   0.877   2.362
 1352SOL    HW2 4956   0.451   0.976   2.384
 1353SOL     OW 4957   6.765   1.379   6.801
 1353SOL    HW1 4958   6.769   1.393   6.702
 1353SOL    HW2 4959   6.722   1.458   6.845
 1354SOL     OW 4960   5.106   5.202   3.003
 1354SOL    HW1 4961   5.137   5.270   3.069
 1354SOL    HW2 4962   5.069   5.248   2.923
 1355SOL     OW 4963   4.429   3.459   5.242
 1355SOL    HW1 4964   4.359   3.496   5.181
 1355SOL    HW2 4965   4.516   3.506   5.225
 1356SOL     OW 4966   2.843   3.032   6.591
 1356SOL    HW1 4967   2.762   2.991   6.548
 1356SOL    HW2 4968   2.815   3.086   6.670
 1357SOL     OW 4969   1.553   2.625   5.629
 1357SOL    HW1 4970   1.470   2.676   5.651
 1357SOL    HW2 4971   1.567   2.626   5.530
 1358SOL     OW 4972   2.587   0.047   6.905
 1358SOL    HW1 4973   2.600   6.968   6.924
 1358SOL    HW2 4974   2.606   0.065   6.809
 1359SOL     OW 4975   6.136   4.408   0.447
 1359SOL    HW1 4976   6.054   4.387   0.394
 1359SOL    HW2 4977   6.122   4.492   0.499
 1360SOL     OW 4978   2.462   2.052   0.188
 1360SOL    HW1 4979   2.363   2.037   0.186
 1360SOL    HW2 4980   2.484   2.135   0.137
 1361SOL     OW 4981   6.550   5.081   5.111
 1361SOL    HW1 4982   6.644   5.117   5.119
 1361SOL    HW2 4983   6.499   5.103   5.194
 1362SOL     OW 4984   3.089   4.009   4.216
 1362SOL    HW1 4985   3.157   4.038   4.149
 1362SOL    HW2 4986   3.028   3.942   4.175
 1363SOL     OW 4987   0.551   6.380   3.352
 1363SOL    HW1 4988   0.591   6.460   3.395
 1363SOL    HW2 4989   0.624   6.320   3.320
 1364SOL     OW 4990   3.970   4.286   0.229
 1364SOL    HW1 4991   3.918   4.366   0.199
 1364SOL    HW2 4992   4.047   4.270   0.167
 1365SOL     OW 4993   6.123   2.498   6.497
 1365SOL    HW1 4994   6.047   2.446   6.459
 1365SOL    HW2 4995   6.089   2.564   6.564
 1366SOL     OW 4996   1.892   6.960   5.620
 1366SOL    HW1 4997   1.962   7.006   5.564
 1366SOL    HW2 4998   1.886   6.864   5.593
 1367SOL     OW 4999   2.967   1.496   2.652
 1367SOL    HW1 5000   2.876   1.459   2.670
 1367SOL    HW2 5001   2.965   1.596   2.660
 1368SOL     OW 5002   6.827   0.299   2.904
 1368SOL    HW1 5003   6.771   0.313   2.986
 1368SOL    HW2 5004   6.836   0.201   2.886
 1369SOL     OW 5005   0.313   0.589   2.347
 1369SOL    HW1 5006   0.314   0.652   2.269
 1369SOL    HW2 5007   0.392   0.527   2.340
 1370SOL     OW 5008   1.959   0.850   2.562
 1370SOL    HW1 5009   1.946   0.751   2.558
 1370SOL    HW2 5010   2.016   0.873   2.641
 1371SOL     OW 5011   3.136   0.874   6.684
 1371SOL    HW1 5012   3.104   0.844   6.594
 1371SOL    HW2 5013   3.230   0.842   6.698
 1372SOL     OW 5014   2.604   2.103   1.873
 1372SOL    HW1 5015   2.692   2.074   1.836
 1372SOL    HW2 5016   2.605   2.201   1.888
 1373SOL     OW 5017   1.803   6.067   0.242
 1373SOL    HW1 5018   1.704   6.082   0.251
 1373SOL    HW2 5019   1.842   6.140   0.185
 1374SOL     OW 5020   4.813   4.162   6.081
 1374SOL    HW1 5021   4.872   4.218   6.023
 1374SOL    HW2 5022   4.841   4.172   6.177
 1375SOL     OW 5023   0.678   3.860   4.450
 1375SOL    HW1 5024   0.740   3.897   4.519
 1375SOL    HW2 5025   0.616   3.932   4.420
 1376SOL     OW 5026   5.085   0.878   2.484
 1376SOL    HW1 5027   5.114   0.799   2.430
 1376SOL    HW2 5028   4.989   0.896   2.467
 1377SOL     OW 5029   0.510   4.231   4.520
 1377SOL    HW1 5030   0.503   4.149   4.576
 1377SOL    HW2 5031   0.420   4.272   4.508
 1378SOL     OW 5032   2.253   2.526   0.247
 1378SOL    HW1 5033   2.162   2.485   0.253
 1378SOL    HW2 5034   2.267   2.587   0.325
 1379SOL     OW 5035   4.011   6.232   1.291
 1379SOL    HW1 5036   3.981   6.138   1.275
 1379SOL    HW2 5037   4.107   6.241   1.264
 1380SOL     OW 5038   6.064   4.606   2.945
 1380SOL    HW1 5039   6.104   4.546   3.013
 1380SOL    HW2 5040   5.967   4.620   2.964
 1381SOL     OW 5041   4.817   6.990   2.626
 1381SOL    HW1 5042   4.732   0.007   2.665
 1381SOL    HW2 5043   4.894   0.000   2.684
 1382SOL     OW 5044   0.271   3.848   7.001
 1382SOL    HW1 5045   0.233   3.767   0.027
 1382SOL    HW2 5046   0.221   3.929   0.014
 1383SOL     OW 5047   2.717   0.159   1.055
 1383SOL    HW1 5048   2.801   0.201   1.089
 1383SOL    HW2 5049   2.663   0.227   1.005
 1384SOL     OW 5050   1.423   1.805   2.057
 1384SOL    HW1 5051   1.491   1.737   2.084
 1384SOL    HW2 5052   1.370   1.833   2.138
 1385SOL     OW 5053   5.082   3.794   4.145
 1385SOL    HW1 5054   5.096   3.848   4.228
 1385SOL    HW2 5055   5.120   3.702   4.158
 1386SOL     OW 5056   2.704   2.440   3.480
 1386SOL    HW1 5057   2.795   2.480   3.498
 1386SOL    HW2 5058   2.713   2.341   3.473
 1387SOL     OW 5059   3.292   0.581   4.014
 1387SOL    HW1 5060   3.199   0.604   4.043
 1387SOL    HW2 5061   3.348   0.663   4.014
 1388SOL     OW 5062   5.211   1.831   3.954
 1388SOL    HW1 5063   5.228   1.748   4.007
 1388SOL    HW2 5064   5.151   1.893   4.006
 1389SOL     OW 5065   6.966   6.957   3.700
 1389SOL    HW1 5066   0.033   7.001   3.671
 1389SOL    HW2 5067   6.918   6.920   3.620
 1390SOL     OW 5068   4.916   2.340   2.601
 1390SOL    HW1 5069   4.953   2.250   2.622
 1390SOL    HW2 5070   4.818   2.333   2.584
 1391SOL     OW 5071   5.792   1.060   5.136
 1391SOL    HW1 5072   5.720   1.114   5.091
 1391SOL    HW2 5073   5.795   1.084   5.233
 1392SOL     OW 5074   3.619   6.688   5.274
 1392SOL    HW1 5075   3.524   6.694   5.243
 1392SOL    HW2 5076   3.625   6.628   5.353
 1393SOL     OW 5077   5.113   0.584   0.135
 1393SOL    HW1 5078   5.193   0.571   0.077
 1393SOL    HW2 5079   5.141   0.595   0.230
 1394SOL     OW 5080   4.419   0.649   4.204
 1394SOL    HW1 5081   4.432   0.623   4.300
 1394SOL    HW2 5082   4.462   0.581   4.145
 1395SOL     OW 5083   0.634   5.488   2.473
 1395SOL    HW1 5084   0.638   5.455   2.379
 1395SOL    HW2 5085   0.588   5.577   2.475
 1396SOL     OW 5086   1.235   1.746   3.289
 1396SOL    HW1 5087   1.315   1.806   3.288
 1396SOL    HW2 5088   1.176   1.771   3.366
 1397SOL     OW 5089   2.404   4.744   5.447
 1397SOL    HW1 5090   2.332   4.676   5.429
 1397SOL    HW2 5091   2.427   4.790   5.361
 1398SOL     OW 5092   3.024   0.262   6.577
 1398SOL    HW1 5093   3.109   0.209   6.579
 1398SOL    HW2 5094   2.965   0.233   6.652
 1399SOL     OW 5095   3.717   0.260   0.255
 1399SOL    HW1 5096   3.719   0.172   0.302
 1399SOL    HW2 5097   3.680   0.248   0.163
 1400SOL     OW 5098   0.780   0.774   5.648
 1400SOL    HW1 5099   0.741   0.779   5.556
 1400SOL    HW2 5100   0.846   0.848   5.660
 1401SOL     OW 5101   4.974   0.144   2.140
 1401SOL    HW1 5102   4.938   0.095   2.219
 1401SOL    HW2 5103   5.027   0.082   2.083
 1402SOL     OW 5104   5.631   4.446   1.968
 1402SOL    HW1 5105   5.645   4.534   2.013
 1402SOL    HW2 5106   5.534   4.423   1.969
 1403SOL     OW 5107   3.226   3.260   6.892
 1403SOL    HW1 5108   3.308   3.210   6.918
 1403SOL    HW2 5109   3.211   3.252   6.794
 1404SOL     OW 5110   3.824   6.010   0.193
 1404SOL    HW1 5111   3.916   6.015   0.156
 1404SOL    HW2 5112   3.760   5.981   0.122
 1405SOL     OW 5113   0.784   3.294   6.950
 1405SOL    HW1 5114   0.765   3.347   0.015
 1405SOL    HW2 5115   0.707   3.233   6.931
 1406SOL     OW 5116   2.249   2.600   6.663
 1406SOL    HW1 5117   2.214   2.508   6.645
 1406SOL    HW2 5118   2.213   2.663   6.595
 1407SOL     OW 5119   6.958   2.421   1.556
 1407SOL    HW1 5120   0.022   2.477   1.557
 1407SOL    HW2 5121   6.956   2.364   1.473
 1408SOL     OW 5122   5.732   6.542   0.467
 1408SOL    HW1 5123   5.771   6.632   0.489
 1408SOL    HW2 5124   5.782   6.472   0.518
 1409SOL     OW 5125   6.132   2.184   5.708
 1409SOL    HW1 5126   6.068   2.257   5.734
 1409SOL    HW2 5127   6.154   2.129   5.788
 1410SOL     OW 5128   2.808   0.765   0.476
 1410SOL    HW1 5129   2.786   0.848   0.527
 1410SOL    HW2 5130   2.905   0.743   0.488
 1411SOL     OW 5131   4.063   6.130   6.849
 1411SOL    HW1 5132   4.042   6.152   6.754
 1411SOL    HW2 5133   4.055   6.213   6.904
 1412SOL     OW 5134   2.202   1.670   0.457
 1412SOL    HW1 5135   2.262   1.738   0.500
 1412SOL    HW2 5136   2.209   1.584   0.507
 1413SOL     OW 5137   2.305   1.686   4.943
 1413SOL    HW1 5138   2.313   1.587   4.953
 1413SOL    HW2 5139   2.396   1.727   4.955
 1414SOL     OW 5140   0.563   5.057   2.022
 1414SOL    HW1 5141   0.519   5.007   1.948
 1414SOL    HW2 5142   0.517   5.144   2.036
 1415SOL     OW 5143   3.857   2.007   5.440
 1415SOL    HW1 5144   3.855   1.983   5.343
 1415SOL    HW2 5145   3.889   1.929   5.493
 1416SOL     OW 5146   4.857   0.487   5.117
 1416SOL    HW1 5147   4.815   0.562   5.065
 1416SOL    HW2 5148   4.920   0.437   5.057
 1417SOL     OW 5149   3.774   3.469   4.150
 1417SOL    HW1 5150   3.797   3.562   4.179
 1417SOL    HW2 5151   3.723   3.422   4.222
 1418SOL     OW 5152   3.227   3.606   5.393
 1418SOL    HW1 5153   3.300   3.586   5.328
 1418SOL    HW2 5154   3.146   3.638   5.344
 1419SOL     OW 5155   0.188   5.421   2.125
 1419SOL    HW1 5156   0.174   5.467   2.213
 1419SOL    HW2 5157   0.100   5.388   2.090
 1420SOL     OW 5158   3.172   6.405   3.728
 1420SOL    HW1 5159   3.103   6.477   3.719
 1420SOL    HW2 5160   3.259   6.439   3.692
 1421SOL     OW 5161   1.678   5.655   0.762
 1421SOL    HW1 5162   1.775   5.659   0.782
 1421SOL    HW2 5163   1.627   5.703   0.833
 1422SOL     OW 5164   1.534   3.732   6.768
 1422SOL    HW1 5165   1.471   3.809   6.761
 1422SOL    HW2 5166   1.506   3.660   6.704
 1423SOL     OW 5167   5.066   1.182   4.725
 1423SOL    HW1 5168   5.105   1.093   4.748
 1423SOL    HW2 5169   4.976   1.169   4.683
 1424SOL     OW 5170   6.559   2.470   1.345
 1424SOL    HW1 5171   6.606   2.526   1.413
 1424SOL    HW2 5172   6.468   2.444   1.379
 1425SOL     OW 5173   5.425   6.462   2.965
 1425SOL    HW1 5174   5.331   6.429   2.975
 1425SOL    HW2 5175   5.424   6.560   2.944
 1426SOL     OW 5176   3.770   1.308   0.432
 1426SOL    HW1 5177   3.854   1.270   0.469
 1426SOL    HW2 5178   3.735   1.248   0.360
 1427SOL     OW 5179   0.797   0.600   4.007
 1427SOL    HW1 5180   0.833   0.514   3.972
 1427SOL    HW2 5181   0.848   0.627   4.088
 1428SOL     OW 5182   1.722   4.169   3.783
 1428SOL    HW1 5183   1.762   4.212   3.864
 1428SOL    HW2 5184   1.793   4.158   3.713
 1429SOL     OW 5185   6.221   0.504   1.658
 1429SOL    HW1 5186   6.198   0.592   1.700
 1429SOL    HW2 5187   6.247   0.438   1.728
 1430SOL     OW 5188   2.186   3.925   4.592
 1430SOL    HW1 5189   2.156   3.855   4.528
 1430SOL    HW2 5190   2.192   3.886   4.684
 1431SOL     OW 5191   3.377   2.176   0.501
 1431SOL    HW1 5192   3.381   2.273   0.527
 1431SOL    HW2 5193   3.315   2.127   0.561
 1432SOL     OW 5194   3.999   0.392   3.059
 1432SOL    HW1 5195   4.000   0.301   3.018
 1432SOL    HW2 5196   3.906   0.417   3.083
 1433SOL     OW 5197   2.853   2.022   4.122
 1433SOL    HW1 5198   2.910   1.965   4.182
 1433SOL    HW2 5199   2.895   2.112   4.112
 1434SOL     OW 5200   5.082   3.728   0.617
 1434SOL    HW1 5201   5.020   3.805   0.599
 1434SOL    HW2 5202   5.109   3.729   0.713
 1435SOL     OW 5203   0.389   6.029   3.863
 1435SOL    HW1 5204   0.334   6.110   3.881
 1435SOL    HW2 5205   0.424   6.033   3.769
 1436SOL     OW 5206   5.574   1.167   0.308
 1436SOL    HW1 5207   5.605   1.243   0.250
 1436SOL    HW2 5208   5.482   1.186   0.342
 1437SOL     OW 5209   4.302   1.703   0.870
 1437SOL    HW1 5210   4.269   1.733   0.780
 1437SOL    HW2 5211   4.398   1.676   0.862
 1438SOL     OW 5212   2.438   6.857   2.842
 1438SOL    HW1 5213   2.465   6.769   2.802
 1438SOL    HW2 5214   2.479   6.865   2.933
 1439SOL     OW 5215   0.423   5.386   5.097
 1439SOL    HW1 5216   0.356   5.410   5.167
 1439SOL    HW2 5217   0.408   5.443   5.016
 1440SOL     OW 5218   3.284   3.265   2.416
 1440SOL    HW1 5219   3.263   3.169   2.396
 1440SOL    HW2 5220   3.332   3.305   2.337
 1441SOL     OW 5221   0.361   1.945   5.550
 1441SOL    HW1 5222   0.405   1.957   5.460
 1441SOL    HW2 5223   0.296   1.869   5.544
 1442SOL     OW 5224   5.341   5.535   0.167
 1442SOL    HW1 5225   5.380   5.443   0.176
 1442SOL    HW2 5226   5.355   5.586   0.251
 1443SOL     OW 5227   1.240   3.312   3.946
 1443SOL    HW1 5228   1.299   3.236   3.921
 1443SOL    HW2 5229   1.295   3.396   3.952
 1444SOL     OW 5230   5.177   6.898   4.343
 1444SOL    HW1 5231   5.226   6.812   4.352
 1444SOL    HW2 5232   5.214   6.949   4.265
 1445SOL     OW 5233   6.768   2.030   0.621
 1445SOL    HW1 5234   6.681   2.002   0.580
 1445SOL    HW2 5235   6.825   1.948   0.636
 1446SOL     OW 5236   3.052   5.695   2.390
 1446SOL    HW1 5237   2.988   5.622   2.413
 1446SOL    HW2 5238   3.020   5.782   2.427
 1447SOL     OW 5239   6.637   0.523   4.599
 1447SOL    HW1 5240   6.668   0.614   4.573
 1447SOL    HW2 5241   6.602   0.525   4.693
 1448SOL     OW 5242   5.249   0.769   0.615
 1448SOL    HW1 5243   5.178   0.720   0.666
 1448SOL    HW2 5244   5.214   0.859   0.589
 1449SOL     OW 5245   4.482   5.606   0.221
 1449SOL    HW1 5246   4.502   5.650   0.308
 1449SOL    HW2 5247   4.401   5.548   0.231
 1450SOL     OW 5248   5.699   1.407   3.683
 1450SOL    HW1 5249   5.712   1.410   3.584
 1450SOL    HW2 5250   5.762   1.340   3.722
 1451SOL     OW 5251   1.252   0.092   1.840
 1451SOL    HW1 5252   1.241   7.015   1.812
 1451SOL    HW2 5253   1.288   0.095   1.934
 1452SOL     OW 5254   2.721   0.545   6.398
 1452SOL    HW1 5255   2.670   0.461   6.417
 1452SOL    HW2 5256   2.760   0.580   6.483
 1453SOL     OW 5257   5.405   4.413   4.452
 1453SOL    HW1 5258   5.310   4.386   4.440
 1453SOL    HW2 5259   5.447   4.429   4.363
 1454SOL     OW 5260   5.688   3.870   1.038
 1454SOL    HW1 5261   5.591   3.887   1.019
 1454SOL    HW2 5262   5.696   3.789   1.097
 1455SOL     OW 5263   1.941   2.144   2.018
 1455SOL    HW1 5264   2.012   2.199   1.973
 1455SOL    HW2 5265   1.868   2.125   1.952
 1456SOL     OW 5266   5.747   5.479   5.109
 1456SOL    HW1 5267   5.746   5.389   5.154
 1456SOL    HW2 5268   5.662   5.491   5.057
 1457SOL     OW 5269   1.900   1.040   4.589
 1457SOL    HW1 5270   1.804   1.018   4.568
 1457SOL    HW2 5271   1.926   1.123   4.541
 1458SOL     OW 5272   0.240   5.135   6.924
 1458SOL    HW1 5273   0.191   5.110   6.841
 1458SOL    HW2 5274   0.248   5.234   6.930
 1459SOL     OW 5275   2.535   6.622   1.672
 1459SOL    HW1 5276   2.610   6.559   1.654
 1459SOL    HW2 5277   2.505   6.665   1.587
 1460SOL     OW 5278   0.507   0.106   6.983
 1460SOL    HW1 5279   0.596   0.104   6.937
 1460SOL    HW2 5280   0.441   0.153   6.925
 1461SOL     OW 5281   5.060   4.777   2.420
 1461SOL    HW1 5282   5.114   4.854   2.384
 1461SOL    HW2 5283   5.020   4.726   2.344
 1462SOL     OW 5284   5.561   0.241   4.796
 1462SOL    HW1 5285   5.511   0.318   4.756
 1462SOL    HW2 5286   5.615   0.273   4.874
 1463SOL     OW 5287   1.038   2.550   5.468
 1463SOL    HW1 5288   1.123   2.550   5.417
 1463SOL    HW2 5289   1.054   2.517   5.560
 1464SOL     OW 5290   0.958   0.742   1.079
 1464SOL    HW1 5291   0.883   0.808   1.089
 1464SOL    HW2 5292   1.044   0.791   1.067
 1465SOL     OW 5293   1.760   0.626   3.511
 1465SOL    HW1 5294   1.854   0.646   3.539
 1465SOL    HW2 5295   1.750   0.642   3.413
 1466SOL     OW 5296   5.361   5.652   4.062
 1466SOL    HW1 5297   5.336   5.695   3.975
 1466SOL    HW2 5298   5.294   5.675   4.132
 1467SOL     OW 5299   0.158   4.172   4.299
 1467SOL    HW1 5300   0.149   4.074   4.280
 1467SOL    HW2 5301   0.162   4.222   4.213
 1468SOL     OW 5302   5.020   0.368   2.885
 1468SOL    HW1 5303   4.991   0.404   2.974
 1468SOL    HW2 5304   4.955   0.299   2.854
 1469SOL     OW 5305   0.630   0.761   2.093
 1469SOL    HW1 5306   0.700   0.742   2.162
 1469SOL    HW2 5307   0.542   0.776   2.138
 1470SOL     OW 5308   0.182   6.940   2.518
 1470SOL    HW1 5309   0.237   6.916   2.598
 1470SOL    HW2 5310   0.193   0.019   2.498
 1471SOL     OW 5311   6.363   1.259   0.900
 1471SOL    HW1 5312   6.334   1.324   0.970
 1471SOL    HW2 5313   6.352   1.300   0.810
 1472SOL     OW 5314   4.677   5.401   5.267
 1472SOL    HW1 5315   4.692   5.357   5.178
 1472SOL    HW2 5316   4.634   5.491   5.253
 1473SOL     OW 5317   6.879   3.747   3.840
 1473SOL    HW1 5318   6.914   3.656   3.862
 1473SOL    HW2 5319   6.779   3.744   3.833
 1474SOL     OW 5320   4.051   6.049   2.789
 1474SOL    HW1 5321   4.125   6.103   2.829
 1474SOL    HW2 5322   3.992   6.014   2.862
 1475SOL     OW 5323   6.403   6.748   2.708
 1475SOL    HW1 5324   6.448   6.712   2.626
 1475SOL    HW2 5325   6.356   6.674   2.756
 1476SOL     OW 5326   0.648   2.550   1.611
 1476SOL    HW1 5327   0.569   2.502   1.648
 1476SOL    HW2 5328   0.667   2.516   1.519
 1477SOL     OW 5329   2.755   6.642   4.760
 1477SOL    HW1 5330   2.750   6.598   4.850
 1477SOL    HW2 5331   2.678   6.612   4.704
 1478SOL     OW 5332   0.410   3.582   1.434
 1478SOL    HW1 5333   0.321   3.558   1.472
 1478SOL    HW2 5334   0.474   3.507   1.450
 1479SOL     OW 5335   1.832   5.471   0.276
 1479SOL    HW1 5336   1.748   5.444   0.230
 1479SOL    HW2 5337   1.850   5.409   0.352
 1480SOL     OW 5338   2.758   1.101   0.052
 1480SOL    HW1 5339   2.855   1.125   0.051
 1480SOL    HW2 5340   2.702   1.183   0.061
 1481SOL     OW 5341   6.917   3.267   0.178
 1481SOL    HW1 5342   6.985   3.332   0.211
 1481SOL    HW2 5343   6.915   3.268   0.078
 1482SOL     OW 5344   5.824   0.338   6.355
 1482SOL    HW1 5345   5.915   0.356   6.392
 1482SOL    HW2 5346   5.756   0.390   6.407
 1483SOL     OW 5347   6.625   2.186   6.955
 1483SOL    HW1 5348   6.532   2.152   6.968
 1483SOL    HW2 5349   6.649   2.184   6.858
 1484SOL     OW 5350   6.183   0.048   3.030
 1484SOL    HW1 5351   6.108   7.004   3.009
 1484SOL    HW2 5352   6.148   0.123   3.087
 1485SOL     OW 5353   5.529   3.552   4.223
 1485SOL    HW1 5354   5.600   3.602   4.173
 1485SOL    HW2 5355   5.553   3.550   4.320
 1486SOL     OW 5356   4.842   2.553   1.177
 1486SOL    HW1 5357   4.847   2.486   1.251
 1486SOL    HW2 5358   4.814   2.506   1.093
 1487SOL     OW 5359   0.456   0.023   5.566
 1487SOL    HW1 5360   0.485   0.052   5.475
 1487SOL    HW2 5361   0.356   0.023   5.571
 1488SOL     OW 5362   5.154   2.190   4.446
 1488SOL    HW1 5363   5.221   2.241   4.500
 1488SOL    HW2 5364   5.062   2.207   4.482
 1489SOL     OW 5365   3.353   4.960   4.882
 1489SOL    HW1 5366   3.405   5.018   4.819
 1489SOL    HW2 5367   3.259   4.994   4.889
 1490SOL     OW 5368   2.466   2.788   0.929
 1490SOL    HW1 5369   2.560   2.800   0.960
 1490SOL    HW2 5370   2.411   2.867   0.957
 1491SOL     OW 5371   0.516   2.044   4.650
 1491SOL    HW1 5372   0.522   2.113   4.577
 1491SOL    HW2 5373   0.537   2.087   4.738
 1492SOL     OW 5374   0.486   1.922   1.723
 1492SOL    HW1 5375   0.403   1.912   1.777
 1492SOL    HW2 5376   0.546   1.990   1.765
 1493SOL     OW 5377   6.427   2.846   4.829
 1493SOL    HW1 5378   6.415   2.853   4.928
 1493SOL    HW2 5379   6.514   2.889   4.803
 1494SOL     OW 5380   5.618   1.721   4.189
 1494SOL    HW1 5381   5.564   1.675   4.259
 1494SOL    HW2 5382   5.606   1.674   4.102
 1495SOL     OW 5383   1.160   3.936   2.313
 1495SOL    HW1 5384   1.063   3.944   2.294
 1495SOL    HW2 5385   1.198   4.027   2.332
 1496SOL     OW 5386   1.309   0.460   2.228
 1496SOL    HW1 5387   1.368   0.521   2.174
 1496SOL    HW2 5388   1.257   0.514   2.294
 1497SOL     OW 5389   5.924   5.467   6.122
 1497SOL    HW1 5390   5.898   5.552   6.078
 1497SOL    HW2 5391   6.009   5.432   6.081
 1498SOL     OW 5392   2.857   5.528   0.274
 1498SOL    HW1 5393   2.791   5.477   0.330
 1498SOL    HW2 5394   2.941   5.474   0.265
 1499SOL     OW 5395   0.482   4.042   4.343
 1499SOL    HW1 5396   0.433   4.052   4.257
 1499SOL    HW2 5397   0.495   4.131   4.386
 1500SOL     OW 5398   3.555   7.008   5.750
 1500SOL    HW1 5399   3.560   6.921   5.701
 1500SOL    HW2 5400   3.646   0.031   5.754
 1501SOL     OW 5401   3.589   0.114   0.830
 1501SOL    HW1 5402   3.668   0.137   0.773
 1501SOL    HW2 5403   3.551   0.026   0.801
 1502SOL     OW 5404   0.420   0.394   5.898
 1502SOL    HW1 5405   0.451   0.489   5.892
 1502SOL    HW2 5406   0.404   0.371   5.995
 1503SOL     OW 5407   3.305   4.076   5.256
 1503SOL    HW1 5408   3.339   4.023   5.334
 1503SOL    HW2 5409   3.381   4.125   5.213
 1504SOL     OW 5410   2.835   6.574   3.471
 1504SOL    HW1 5411   2.929   6.603   3.488
 1504SOL    HW2 5412   2.773   6.628   3.528
 1505SOL     OW 5413   5.412   6.795   2.975
 1505SOL    HW1 5414   5.497   6.827   2.935
 1505SOL    HW2 5415   5.429   6.761   3.068
 1506SOL     OW 5416   0.539   5.995   3.633
 1506SOL    HW1 5417   0.472   5.920   3.635
 1506SOL    HW2 5418   0.559   6.018   3.538
 1507SOL     OW 5419   1.970   1.524   0.070
 1507SOL    HW1 5420   2.004   1.589   0.138
 1507SOL    HW2 5421   1.983   1.562   6.997
 1508SOL     OW 5422   4.890   6.378   1.196
 1508SOL    HW1 5423   4.911   6.296   1.249
 1508SOL    HW2 5424   4.922   6.459   1.244
 1509SOL     OW 5425   5.606   1.656   6.281
 1509SOL    HW1 5426   5.601   1.640   6.182
 1509SOL    HW2 5427   5.619   1.754   6.298
 1510SOL     OW 5428   6.674   1.695   2.695
 1510SOL    HW1 5429   6.607   1.624   2.677
 1510SOL    HW2 5430   6.676   1.760   2.619
 1511SOL     OW 5431   0.637   2.593   0.204
 1511SOL    HW1 5432   0.550   2.641   0.194
 1511SOL    HW2 5433   0.709   2.658   0.223
 1512SOL     OW 5434   6.319   1.015   1.813
 1512SOL    HW1 5435   6.301   1.007   1.911
 1512SOL    HW2 5436   6.417   1.031   1.798
 1513SOL     OW 5437   2.243   0.699   2.595
 1513SOL    HW1 5438   2.291   0.642   2.662
 1513SOL    HW2 5439   2.246   0.794   2.624
 1514SOL     OW 5440   4.853   1.258   5.369
 1514SOL    HW1 5441   4.944   1.297   5.375
 1514SOL    HW2 5442   4.845   1.182   5.434
 1515SOL     OW 5443   5.702   5.428   5.903
 1515SOL    HW1 5444   5.756   5.384   5.975
 1515SOL    HW2 5445   5.758   5.441   5.822
 1516SOL     OW 5446   6.822   1.404   1.366
 1516SOL    HW1 5447   6.812   1.417   1.465
 1516SOL    HW2 5448   6.895   1.463   1.332
 1517SOL     OW 5449   3.369   5.216   2.414
 1517SOL    HW1 5450   3.386   5.163   2.331
 1517SOL    HW2 5451   3.362   5.313   2.390
 1518SOL     OW 5452   0.540   4.668   1.031
 1518SOL    HW1 5453   0.612   4.697   0.969
 1518SOL    HW2 5454   0.580   4.617   1.108
 1519SOL     OW 5455   0.347   4.245   0.968
 1519SOL    HW1 5456   0.403   4.163   0.954
 1519SOL    HW2 5457   0.282   4.228   1.042
 1520SOL     OW 5458   0.711   3.636   2.574
 1520SOL    HW1 5459   0.681   3.674   2.662
 1520SOL    HW2 5460   0.738   3.541   2.586
 1521SOL     OW 5461   2.645   4.990   5.406
 1521SOL    HW1 5462   2.677   4.903   5.444
 1521SOL    HW2 5463   2.582   4.973   5.330
 1522SOL     OW 5464   1.249   1.924   6.129
 1522SOL    HW1 5465   1.202   2.013   6.127
 1522SOL    HW2 5466   1.284   1.903   6.038
 1523SOL     OW 5467   5.805   1.253   1.319
 1523SOL    HW1 5468   5.706   1.272   1.319
 1523SOL    HW2 5469   5.834   1.233   1.225
 1524SOL     OW 5470   0.937   1.468   0.817
 1524SOL    HW1 5471   0.926   1.424   0.906
 1524SOL    HW2 5472   0.943   1.567   0.829
 1525SOL     OW 5473   5.241   1.747   5.295
 1525SOL    HW1 5474   5.284   1.821   5.347
 1525SOL    HW2 5475   5.311   1.694   5.248
 1526SOL     OW 5476   5.682   2.089   0.353
 1526SOL    HW1 5477   5.674   1.997   0.393
 1526SOL    HW2 5478   5.741   2.085   0.272
 1527SOL     OW 5479   2.931   1.193   5.711
 1527SOL    HW1 5480   2.896   1.111   5.666
 1527SOL    HW2 5481   2.927   1.181   5.810
 1528SOL     OW 5482   4.878   5.623   3.513
 1528SOL    HW1 5483   4.837   5.570   3.588
 1528SOL    HW2 5484   4.967   5.586   3.490
 1529SOL     OW 5485   1.934   6.781   5.347
 1529SOL    HW1 5486   1.946   6.878   5.369
 1529SOL    HW2 5487   1.909   6.731   5.431
 1530SOL     OW 5488   3.047   6.602   1.262
 1530SOL    HW1 5489   2.994   6.598   1.177
 1530SOL    HW2 5490   3.004   6.543   1.330
 1531SOL     OW 5491   5.722   1.212   6.401
 1531SOL    HW1 5492   5.692   1.118   6.382
 1531SOL    HW2 5493   5.811   1.211   6.445
 1532SOL     OW 5494   2.985   2.013   4.985
 1532SOL    HW1 5495   3.011   2.091   5.042
 1532SOL    HW2 5496   3.011   2.031   4.890
 1533SOL     OW 5497   4.746   2.956   6.934
 1533SOL    HW1 5498   4.678   3.028   6.946
 1533SOL    HW2 5499   4.821   2.970   6.999
 1534SOL     OW 5500   6.932   0.136   0.471
 1534SOL    HW1 5501   6.832   0.138   0.478
 1534SOL    HW2 5502   6.966   0.230   0.470
 1535SOL     OW 5503   5.316   4.676   4.533
 1535SOL    HW1 5504   5.224   4.637   4.526
 1535SOL    HW2 5505   5.384   4.608   4.506
 1536SOL     OW 5506   3.238   6.201   3.065
 1536SOL    HW1 5507   3.335   6.218   3.083
 1536SOL    HW2 5508   3.184   6.279   3.095
 1537SOL     OW 5509   2.678   6.043   4.301
 1537SOL    HW1 5510   2.599   6.065   4.243
 1537SOL    HW2 5511   2.664   5.954   4.343
 1538SOL     OW 5512   3.258   6.495   0.260
 1538SOL    HW1 5513   3.276   6.530   0.168
 1538SOL    HW2 5514   3.209   6.564   0.313
 1539SOL     OW 5515   2.417   6.417   2.180
 1539SOL    HW1 5516   2.368   6.332   2.196
 1539SOL    HW2 5517   2.515   6.400   2.181
 1540SOL     OW 5518   6.250   6.905   4.642
 1540SOL    HW1 5519   6.177   6.941   4.584
 1540SOL    HW2 5520   6.211   6.872   4.728
 1541SOL     OW 5521   5.445   2.011   2.391
 1541SOL    HW1 5522   5.421   1.926   2.437
 1541SOL    HW2 5523   5.363   2.054   2.355
 1542SOL     OW 5524   6.828   5.747   1.346
 1542SOL    HW1 5525   6.830   5.839   1.385
 1542SOL    HW2 5526   6.739   5.705   1.366
 1543SOL     OW 5527   3.042   3.162   3.516
 1543SOL    HW1 5528   3.008   3.182   3.424
 1543SOL    HW2 5529   3.113   3.091   3.511
 1544SOL     OW 5530   3.398   3.419   2.190
 1544SOL    HW1 5531   3.432   3.512   2.175
 1544SOL    HW2 5532   3.347   3.389   2.110
 1545SOL     OW 5533   0.504   6.717   5.402
 1545SOL    HW1 5534   0.474   6.765   5.484
 1545SOL    HW2 5535   0.601   6.731   5.388
 1546SOL     OW 5536   6.827   6.623   6.726
 1546SOL    HW1 5537   6.879   6.579   6.653
 1546SOL    HW2 5538   6.857   6.585   6.814
 1547SOL     OW 5539   3.099   6.099   0.079
 1547SOL    HW1 5540   3.146   6.165   0.138
 1547SOL    HW2 5541   3.053   6.031   0.136
 1548SOL     OW 5542   6.578   3.750   3.319
 1548SOL    HW1 5543   6.604   3.667   3.270
 1548SOL    HW2 5544   6.495   3.733   3.371
 1549SOL     OW 5545   6.775   2.155   0.945
 1549SOL    HW1 5546   6.856   2.121   0.897
 1549SOL    HW2 5547   6.761   2.103   1.029
 1550SOL     OW 5548   2.469   4.853   2.354
 1550SOL    HW1 5549   2.411   4.847   2.436
 1550SOL    HW2 5550   2.460   4.769   2.300
 1551SOL     OW 5551   0.531   2.803   1.677
 1551SOL    HW1 5552   0.587   2.720   1.667
 1551SOL    HW2 5553   0.514   2.820   1.774
 1552SOL     OW 5554   1.778   6.571   2.100
 1552SOL    HW1 5555   1.866   6.618   2.103
 1552SOL    HW2 5556   1.712   6.620   2.158
 1553SOL     OW 5557   5.764   1.566   5.835
 1553SOL    HW1 5558   5.841   1.629   5.845
 1553SOL    HW2 5559   5.775   1.489   5.898
 1554SOL     OW 5560   2.755   2.746   0.969
 1554SOL    HW1 5561   2.718   2.740   0.876
 1554SOL    HW2 5562   2.851   2.771   0.965
 1555SOL     OW 5563   4.212   1.459   1.061
 1555SOL    HW1 5564   4.272   1.482   1.138
 1555SOL    HW2 5565   4.228   1.524   0.987
 1556SOL     OW 5566   3.314   2.104   0.231
 1556SOL    HW1 5567   3.317   2.082   0.328
 1556SOL    HW2 5568   3.314   2.204   0.220
 1557SOL     OW 5569   1.401   2.704   1.026
 1557SOL    HW1 5570   1.441   2.795   1.035
 1557SOL    HW2 5571   1.440   2.659   0.946
 1558SOL     OW 5572   4.965   2.575   6.930
 1558SOL    HW1 5573   5.012   2.663   6.914
 1558SOL    HW2 5574   5.025   2.515   6.982
 1559SOL     OW 5575   2.955   6.287   3.419
 1559SOL    HW1 5576   2.960   6.312   3.515
 1559SOL    HW2 5577   2.860   6.286   3.389
 1560SOL     OW 5578   4.543   2.989   1.475
 1560SOL    HW1 5579   4.579   2.957   1.387
 1560SOL    HW2 5580   4.515   2.911   1.530
 1561SOL     OW 5581   5.985   6.285   0.190
 1561SOL    HW1 5582   5.910   6.226   0.158
 1561SOL    HW2 5583   5.950   6.377   0.206
 1562SOL     OW 5584   2.949   6.766   2.682
 1562SOL    HW1 5585   2.876   6.828   2.655
 1562SOL    HW2 5586   2.982   6.791   2.773
 1563SOL     OW 5587   1.954   3.952   3.794
 1563SOL    HW1 5588   1.974   4.019   3.866
 1563SOL    HW2 5589   1.904   3.875   3.833
 1564SOL     OW 5590   1.222   1.896   2.575
 1564SOL    HW1 5591   1.184   1.947   2.652
 1564SOL    HW2 5592   1.322   1.897   2.580
 1565SOL     OW 5593   4.829   1.795   5.261
 1565SOL    HW1 5594   4.842   1.701   5.292
 1565SOL    HW2 5595   4.897   1.816   5.190
 1566SOL     OW 5596   0.910   3.659   3.770
 1566SOL    HW1 5597   0.848   3.736   3.755
 1566SOL    HW2 5598   0.862   3.588   3.822
 1567SOL     OW 5599   5.478   0.759   4.927
 1567SOL    HW1 5600   5.576   0.773   4.917
 1567SOL    HW2 5601   5.429   0.838   4.888
 1568SOL     OW 5602   2.359   4.621   0.625
 1568SOL    HW1 5603   2.271   4.574   0.630
 1568SOL    HW2 5604   2.432   4.558   0.651
 1569SOL     OW 5605   2.136   0.867   2.254
 1569SOL    HW1 5606   2.179   0.779   2.274
 1569SOL    HW2 5607   2.119   0.916   2.339
 1570SOL     OW 5608   2.802   6.310   6.222
 1570SOL    HW1 5609   2.738   6.274   6.155
 1570SOL    HW2 5610   2.766   6.295   6.314
 1571SOL     OW 5611   0.226   1.441   4.471
 1571SOL    HW1 5612   0.157   1.405   4.408
 1571SOL    HW2 5613   0.215   1.540   4.479
 1572SOL     OW 5614   1.960   6.105   3.511
 1572SOL    HW1 5615   2.037   6.151   3.554
 1572SOL    HW2 5616   1.979   6.007   3.505
 1573SOL     OW 5617   5.708   6.214   0.492
 1573SOL    HW1 5618   5.738   6.161   0.413
 1573SOL    HW2 5619   5.775   6.206   0.565
 1574SOL     OW 5620   0.147   4.067   3.030
 1574SOL    HW1 5621   0.241   4.059   2.997
 1574SOL    HW2 5622   0.132   4.002   3.105
 1575SOL     OW 5623   6.908   2.274   0.592
 1575SOL    HW1 5624   6.851   2.192   0.588
 1575SOL    HW2 5625   7.003   2.249   0.575
 1576SOL     OW 5626   1.811   6.158   2.719
 1576SOL    HW1 5627   1.814   6.071   2.770
 1576SOL    HW2 5628   1.826   6.140   2.622
 1577SOL     OW 5629   4.239   5.860   4.197
 1577SOL    HW1 5630   4.285   5.908   4.272
 1577SOL    HW2 5631   4.247   5.761   4.211
 1578SOL     OW 5632   5.399   1.839   1.975
 1578SOL    HW1 5633   5.439   1.871   2.061
 1578SOL    HW2 5634   5.303   1.815   1.989
 1579SOL     OW 5635   1.454   3.148   1.931
 1579SOL    HW1 5636   1.454   3.068   1.990
 1579SOL    HW2 5637   1.543   3.194   1.937
 1580SOL     OW 5638   3.260   4.049   3.666
 1580SOL    HW1 5639   3.275   4.046   3.567
 1580SOL    HW2 5640   3.342   4.083   3.711
 1581SOL     OW 5641   4.711   4.852   5.407
 1581SOL    HW1 5642   4.764   4.780   5.361
 1581SOL    HW2 5643   4.737   4.941   5.370
 1582SOL     OW 5644   4.069   6.256   4.557
 1582SOL    HW1 5645   4.000   6.208   4.503
 1582SOL    HW2 5646   4.108   6.193   4.625
 1583SOL     OW 5647   0.998   5.239   4.954
 1583SOL    HW1 5648   1.031   5.151   4.987
 1583SOL    HW2 5649   0.984   5.234   4.855
 1584SOL     OW 5650   6.964   3.735   6.995
 1584SOL    HW1 5651   0.006   3.677   6.940
 1584SOL    HW2 5652   6.933   3.684   0.057
 1585SOL     OW 5653   5.113   6.586   4.672
 1585SOL    HW1 5654   5.044   6.530   4.717
 1585SOL    HW2 5655   5.070   6.670   4.638
 1586SOL     OW 5656   2.643   5.809   3.649
 1586SOL    HW1 5657   2.629   5.866   3.568
 1586SOL    HW2 5658   2.594   5.722   3.638
 1587SOL     OW 5659   3.710   6.302   0.210
 1587SOL    HW1 5660   3.703   6.261   0.301
 1587SOL    HW2 5661   3.806   6.314   0.186
 1588SOL     OW 5662   6.586   2.280   3.798
 1588SOL    HW1 5663   6.491   2.290   3.826
 1588SOL    HW2 5664   6.639   2.240   3.873
 1589SOL     OW 5665   6.927   1.749   4.258
 1589SOL    HW1 5666   7.012   1.779   4.302
 1589SOL    HW2 5667   6.876   1.691   4.322
 1590SOL     OW 5668   5.257   0.803   3.881
 1590SOL    HW1 5669   5.304   0.791   3.968
 1590SOL    HW2 5670   5.190   0.878   3.889
 1591SOL     OW 5671   0.320   5.867   0.558
 1591SOL    HW1 5672   0.385   5.791   0.561
 1591SOL    HW2 5673   0.356   5.940   0.500
 1592SOL     OW 5674   6.810   3.971   5.033
 1592SOL    HW1 5675   6.760   3.996   4.950
 1592SOL    HW2 5676   6.751   3.916   5.092
 1593SOL     OW 5677   3.777   5.917   1.496
 1593SOL    HW1 5678   3.802   5.997   1.441
 1593SOL    HW2 5679   3.768   5.944   1.592
 1594SOL     OW 5680   4.833   1.288   2.920
 1594SOL    HW1 5681   4.736   1.310   2.926
 1594SOL    HW2 5682   4.879   1.355   2.863
 1595SOL     OW 5683   0.133   3.570   6.859
 1595SOL    HW1 5684   0.180   3.483   6.874
 1595SOL    HW2 5685   0.200   3.641   6.834
 1596SOL     OW 5686   5.109   4.299   4.490
 1596SOL    HW1 5687   5.102   4.234   4.415
 1596SOL    HW2 5688   5.048   4.272   4.564
 1597SOL     OW 5689   4.038   6.571   1.040
 1597SOL    HW1 5690   3.981   6.590   0.960
 1597SOL    HW2 5691   3.987   6.513   1.104
 1598SOL     OW 5692   0.986   4.716   6.005
 1598SOL    HW1 5693   0.911   4.693   5.942
 1598SOL    HW2 5694   0.964   4.802   6.052
 1599SOL     OW 5695   4.706   5.527   3.701
 1599SOL    HW1 5696   4.651   5.444   3.707
 1599SOL    HW2 5697   4.747   5.546   3.791
 1600SOL     OW 5698   4.666   0.861   1.528
 1600SOL    HW1 5699   4.628   0.895   1.442
 1600SOL    HW2 5700   4.603   0.794   1.568
 1601SOL     OW 5701   6.476   0.810   4.779
 1601SOL    HW1 5702   6.494   0.764   4.866
 1601SOL    HW2 5703   6.401   0.764   4.732
 1602SOL     OW 5704   4.021   5.550   3.117
 1602SOL    HW1 5705   3.936   5.603   3.121
 1602SOL    HW2 5706   4.039   5.522   3.023
 1603SOL     OW 5707   3.205   5.032   1.902
 1603SOL    HW1 5708   3.150   5.086   1.966
 1603SOL    HW2 5709   3.281   4.989   1.951
 1604SOL     OW 5710   4.405   5.326   2.268
 1604SOL    HW1 5711   4.434   5.407   2.217
 1604SOL    HW2 5712   4.325   5.349   2.324
 1605SOL     OW 5713   5.015   4.703   0.425
 1605SOL    HW1 5714   5.005   4.779   0.489
 1605SOL    HW2 5715   5.112   4.679   0.416
 1606SOL     OW 5716   3.864   6.223   5.301
 1606SOL    HW1 5717   3.834   6.272   5.383
 1606SOL    HW2 5718   3.924   6.282   5.248
 1607SOL     OW 5719   4.933   3.737   3.849
 1607SOL    HW1 5720   5.028   3.770   3.842
 1607SOL    HW2 5721   4.928   3.644   3.812
 1608SOL     OW 5722   6.013   2.883   3.611
 1608SOL    HW1 5723   5.966   2.963   3.648
 1608SOL    HW2 5724   5.971   2.857   3.523
 1609SOL     OW 5725   2.359   6.963   0.970
 1609SOL    HW1 5726   2.290   0.012   0.944
 1609SOL    HW2 5727   2.346   6.880   0.917
 1610SOL     OW 5728   5.587   6.142   0.856
 1610SOL    HW1 5729   5.631   6.053   0.860
 1610SOL    HW2 5730   5.488   6.131   0.863
 1611SOL     OW 5731   0.563   3.793   6.358
 1611SOL    HW1 5732   0.652   3.779   6.402
 1611SOL    HW2 5733   0.504   3.715   6.377
 1612SOL     OW 5734   5.037   0.922   1.599
 1612SOL    HW1 5735   5.025   0.823   1.613
 1612SOL    HW2 5736   4.999   0.971   1.677
 1613SOL     OW 5737   0.130   5.970   2.384
 1613SOL    HW1 5738   0.058   5.962   2.454
 1613SOL    HW2 5739   0.095   6.025   2.308
 1614SOL     OW 5740   6.347   2.009   5.354
 1614SOL    HW1 5741   6.306   2.024   5.265
 1614SOL    HW2 5742   6.446   2.003   5.345
 1615SOL     OW 5743   6.993   3.231   4.937
 1615SOL    HW1 5744   6.994   3.331   4.930
 1615SOL    HW2 5745   6.971   3.205   5.031
 1616SOL     OW 5746   0.905   1.151   3.151
 1616SOL    HW1 5747   0.928   1.240   3.191
 1616SOL    HW2 5748   0.868   1.091   3.221
 1617SOL     OW 5749   6.513   5.744   3.988
 1617SOL    HW1 5750   6.417   5.768   3.973
 1617SOL    HW2 5751   6.562   5.825   4.021
 1618SOL     OW 5752   3.232   5.450   2.963
 1618SOL    HW1 5753   3.233   5.370   2.903
 1618SOL    HW2 5754   3.201   5.423   3.054
 1619SOL     OW 5755   0.779   3.548   6.339
 1619SOL    HW1 5756   0.826   3.463   6.312
 1619SOL    HW2 5757   0.780   3.612   6.263
 1620SOL     OW 5758   2.918   6.767   4.524
 1620SOL    HW1 5759   2.918   6.763   4.425
 1620SOL    HW2 5760   2.837   6.816   4.557
 1621SOL     OW 5761   5.676   4.835   0.976
 1621SOL    HW1 5762   5.621   4.776   1.034
 1621SOL    HW2 5763   5.617   4.882   0.910
 1622SOL     OW 5764   6.563   3.522   3.142
 1622SOL    HW1 5765   6.522   3.432   3.154
 1622SOL    HW2 5766   6.513   3.573   3.072
 1623SOL     OW 5767   0.751   2.669   3.883
 1623SOL    HW1 5768   0.673   2.618   3.846
 1623SOL    HW2 5769   0.830   2.656   3.823
 1624SOL     OW 5770   4.199   3.246   0.899
 1624SOL    HW1 5771   4.129   3.271   0.965
 1624SOL    HW2 5772   4.230   3.152   0.917
 1625SOL     OW 5773   0.703   6.252   0.466
 1625SOL    HW1 5774   0.763   6.332   0.463
 1625SOL    HW2 5775   0.717   6.197   0.383
 1626SOL     OW 5776   2.741   1.687   2.485
 1626SOL    HW1 5777   2.768   1.631   2.406
 1626SOL    HW2 5778   2.820   1.704   2.543
 1627SOL     OW 5779   4.454   1.600   6.071
 1627SOL    HW1 5780   4.450   1.501   6.059
 1627SOL    HW2 5781   4.507   1.622   6.153
 1628SOL     OW 5782   5.561   6.002   1.131
 1628SOL    HW1 5783   5.493   5.937   1.097
 1628SOL    HW2 5784   5.527   6.095   1.117
 1629SOL     OW 5785   1.687   6.794   3.508
 1629SOL    HW1 5786   1.600   6.766   3.547
 1629SOL    HW2 5787   1.696   6.758   3.415
 1630SOL     OW 5788   0.705   4.531   6.244
 1630SOL    HW1 5789   0.622   4.479   6.262
 1630SOL    HW2 5790   0.684   4.629   6.248
 1631SOL     OW 5791   5.044   3.961   0.249
 1631SOL    HW1 5792   5.075   4.052   0.274
 1631SOL    HW2 5793   5.104   3.893   0.291
 1632SOL     OW 5794   6.188   6.359   2.342
 1632SOL    HW1 5795   6.213   6.266   2.315
 1632SOL    HW2 5796   6.207   6.371   2.440
 1633SOL     OW 5797   6.196   3.726   4.583
 1633SOL    HW1 5798   6.281   3.711   4.633
 1633SOL    HW2 5799   6.216   3.776   4.498
 1634SOL     OW 5800   1.028   3.687   6.369
 1634SOL    HW1 5801   1.109   3.670   6.313
 1634SOL    HW2 5802   0.954   3.720   6.311
 1635SOL     OW 5803   2.457   0.359   3.680
 1635SOL    HW1 5804   2.436   0.391   3.773
 1635SOL    HW2 5805   2.415   0.420   3.614
 1636SOL     OW 5806   0.279   6.397   1.633
 1636SOL    HW1 5807   0.298   6.493   1.617
 1636SOL    HW2 5808   0.209   6.366   1.569
 1637SOL     OW 5809   1.265   1.358   2.402
 1637SOL    HW1 5810   1.261   1.285   2.469
 1637SOL    HW2 5811   1.208   1.434   2.431
 1638SOL     OW 5812   5.497   2.141   3.066
 1638SOL    HW1 5813   5.458   2.233   3.059
 1638SOL    HW2 5814   5.442   2.086   3.129
 1639SOL     OW 5815   4.742   2.362   1.381
 1639SOL    HW1 5816   4.740   2.262   1.392
 1639SOL    HW2 5817   4.649   2.397   1.387
 1640SOL     OW 5818   6.590   0.995   6.728
 1640SOL    HW1 5819   6.531   1.051   6.786
 1640SOL    HW2 5820   6.608   0.908   6.773
 1641SOL     OW 5821   5.733   0.775   3.337
 1641SOL    HW1 5822   5.824   0.813   3.324
 1641SOL    HW2 5823   5.671   0.812   3.268
 1642SOL     OW 5824   0.032   3.266   5.401
 1642SOL    HW1 5825   7.010   3.239   5.488
 1642SOL    HW2 5826   6.982   3.258   5.329
 1643SOL     OW 5827   2.375   5.089   3.827
 1643SOL    HW1 5828   2.379   5.010   3.765
 1643SOL    HW2 5829   2.434   5.072   3.906
 1644SOL     OW 5830   5.890   1.734   1.682
 1644SOL    HW1 5831   5.886   1.807   1.614
 1644SOL    HW2 5832   5.798   1.698   1.697
 1645SOL     OW 5833   2.646   0.427   4.846
 1645SOL    HW1 5834   2.669   0.384   4.933
 1645SOL    HW2 5835   2.568   0.379   4.805
 1646SOL     OW 5836   0.087   5.457   1.677
 1646SOL    HW1 5837   0.127   5.381   1.626
 1646SOL    HW2 5838   0.157   5.500   1.734
 1647SOL     OW 5839   6.266   3.318   4.669
 1647SOL    HW1 5840   6.336   3.252   4.642
 1647SOL    HW2 5841   6.185   3.307   4.610
 1648SOL     OW 5842   5.377   6.466   1.654
 1648SOL    HW1 5843   5.382   6.395   1.724
 1648SOL    HW2 5844   5.325   6.432   1.575
 1649SOL     OW 5845   3.632   1.220   2.612
 1649SOL    HW1 5846   3.696   1.195   2.685
 1649SOL    HW2 5847   3.571   1.292   2.645
 1650SOL     OW 5848   2.209   2.767   5.059
 1650SOL    HW1 5849   2.256   2.724   5.136
 1650SOL    HW2 5850   2.264   2.842   5.023
 1651SOL     OW 5851   1.092   1.823   3.497
 1651SOL    HW1 5852   1.014   1.885   3.499
 1651SOL    HW2 5853   1.093   1.768   3.580
 1652SOL     OW 5854   6.699   3.927   1.711
 1652SOL    HW1 5855   6.733   3.869   1.785
 1652SOL    HW2 5856   6.745   3.903   1.626
 1653SOL     OW 5857   6.693   4.495   1.840
 1653SOL    HW1 5858   6.658   4.515   1.748
 1653SOL    HW2 5859   6.783   4.452   1.832
 1654SOL     OW 5860   0.449   4.048   1.624
 1654SOL    HW1 5861   0.495   3.980   1.681
 1654SOL    HW2 5862   0.386   4.002   1.561
 1655SOL     OW 5863   0.208   0.682   6.069
 1655SOL    HW1 5864   0.304   0.659   6.080
 1655SOL    HW2 5865   0.185   0.688   5.972
 1656SOL     OW 5866   2.195   3.909   2.998
 1656SOL    HW1 5867   2.270   3.950   2.947
 1656SOL    HW2 5868   2.185   3.956   3.086
 1657SOL     OW 5869   0.620   0.848   6.179
 1657SOL    HW1 5870   0.687   0.921   6.192
 1657SOL    HW2 5871   0.533   0.875   6.222
 1658SOL     OW 5872   5.424   6.742   5.740
 1658SOL    HW1 5873   5.354   6.778   5.679
 1658SOL    HW2 5874   5.396   6.651   5.772
 1659SOL     OW 5875   3.706   0.270   6.032
 1659SOL    HW1 5876   3.700   0.214   6.114
 1659SOL    HW2 5877   3.619   0.318   6.017
 1660SOL     OW 5878   2.413   0.674   1.945
 1660SOL    HW1 5879   2.332   0.723   1.915
 1660SOL    HW2 5880   2.487   0.739   1.962
 1661SOL     OW 5881   4.860   4.431   3.291
 1661SOL    HW1 5882   4.782   4.371   3.311
 1661SOL    HW2 5883   4.896   4.410   3.200
 1662SOL     OW 5884   0.354   1.481   3.636
 1662SOL    HW1 5885   0.313   1.546   3.700
 1662SOL    HW2 5886   0.331   1.505   3.543
 1663SOL     OW 5887   5.414   3.876   1.003
 1663SOL    HW1 5888   5.385   3.861   1.098
 1663SOL    HW2 5889   5.435   3.973   0.990
 1664SOL     OW 5890   1.145   1.524   6.248
 1664SOL    HW1 5891   1.187   1.542   6.338
 1664SOL    HW2 5892   1.217   1.521   6.179
 1665SOL     OW 5893   2.230   3.613   6.676
 1665SOL    HW1 5894   2.203   3.688   6.615
 1665SOL    HW2 5895   2.195   3.526   6.639
 1666SOL     OW 5896   5.570   6.355   5.806
 1666SOL    HW1 5897   5.546   6.301   5.887
 1666SOL    HW2 5898   5.668   6.374   5.806
 1667SOL     OW 5899   6.962   5.333   1.055
 1667SOL    HW1 5900   6.923   5.416   1.095
 1667SOL    HW2 5901   6.974   5.264   1.127
 1668SOL     OW 5902   6.056   3.264   2.357
 1668SOL    HW1 5903   6.151   3.274   2.325
 1668SOL    HW2 5904   5.994   3.300   2.288
 1669SOL     OW 5905   6.345   3.048   5.622
 1669SOL    HW1 5906   6.268   2.995   5.659
 1669SOL    HW2 5907   6.378   3.113   5.691
 1670SOL     OW 5908   2.797   4.444   5.638
 1670SOL    HW1 5909   2.837   4.352   5.633
 1670SOL    HW2 5910   2.735   4.457   5.561
 1671SOL     OW 5911   5.729   1.908   0.852
 1671SOL    HW1 5912   5.753   2.005   0.843
 1671SOL    HW2 5913   5.630   1.898   0.858
 1672SOL     OW 5914   0.457   1.945   1.433
 1672SOL    HW1 5915   0.459   2.041   1.404
 1672SOL    HW2 5916   0.414   1.938   1.523
 1673SOL     OW 5917   1.778   0.594   5.171
 1673SOL    HW1 5918   1.803   0.516   5.229
 1673SOL    HW2 5919   1.815   0.580   5.079
 1674SOL     OW 5920   5.122   2.143   3.425
 1674SOL    HW1 5921   5.083   2.153   3.334
 1674SOL    HW2 5922   5.050   2.120   3.490
 1675SOL     OW 5923   5.388   0.610   2.097
 1675SOL    HW1 5924   5.462   0.597   2.164
 1675SOL    HW2 5925   5.377   0.707   2.078
 1676SOL     OW 5926   1.178   2.477   3.501
 1676SOL    HW1 5927   1.107   2.406   3.507
 1676SOL    HW2 5928   1.252   2.455   3.564
 1677SOL     OW 5929   2.880   3.492   2.724
 1677SOL    HW1 5930   2.960   3.545   2.754
 1677SOL    HW2 5931   2.890   3.469   2.627
 1678SOL     OW 5932   6.664   6.918   6.877
 1678SOL    HW1 5933   6.708   6.934   6.788
 1678SOL    HW2 5934   6.734   6.907   6.947
 1679SOL     OW 5935   6.140   1.865   0.285
 1679SOL    HW1 5936   6.094   1.817   0.211
 1679SOL    HW2 5937   6.072   1.902   0.349
 1680SOL     OW 5938   6.133   2.735   2.755
 1680SOL    HW1 5939   6.072   2.668   2.796
 1680SOL    HW2 5940   6.108   2.827   2.786
 1681SOL     OW 5941   3.394   6.280   4.776
 1681SOL    HW1 5942   3.378   6.198   4.831
 1681SOL    HW2 5943   3.483   6.274   4.733
 1682SOL     OW 5944   4.350   1.174   4.611
 1682SOL    HW1 5945   4.361   1.272   4.591
 1682SOL    HW2 5946   4.261   1.160   4.655
 1683SOL     OW 5947   1.015   2.785   2.937
 1683SOL    HW1 5948   0.938   2.837   2.973
 1683SOL    HW2 5949   0.989   2.689   2.926
 1684SOL     OW 5950   2.559   5.399   1.296
 1684SOL    HW1 5951   2.485   5.354   1.245
 1684SOL    HW2 5952   2.618   5.330   1.337
 1685SOL     OW 5953   0.283   1.444   5.568
 1685SOL    HW1 5954   0.198   1.469   5.616
 1685SOL    HW2 5955   0.274   1.466   5.471
 1686SOL     OW 5956   3.698   5.232   2.008
 1686SOL    HW1 5957   3.767   5.298   1.979
 1686SOL    HW2 5958   3.697   5.155   1.945
 1687SOL     OW 5959   4.749   4.107   0.360
 1687SOL    HW1 5960   4.662   4.156   0.366
 1687SOL    HW2 5961   4.732   4.008   0.364
 1688SOL     OW 5962   2.687   0.276   3.124
 1688SOL    HW1 5963   2.666   0.250   3.030
 1688SOL    HW2 5964   2.602   0.299   3.172
 1689SOL     OW 5965   3.987   0.415   1.841
 1689SOL    HW1 5966   4.055   0.485   1.818
 1689SOL    HW2 5967   3.909   0.457   1.886
 1690SOL     OW 5968   0.016   5.206   4.190
 1690SOL    HW1 5969   0.011   5.147   4.109
 1690SOL    HW2 5970   0.103   5.192   4.237
 1691SOL     OW 5971   3.979   2.761   5.265
 1691SOL    HW1 5972   4.023   2.838   5.310
 1691SOL    HW2 5973   4.048   2.693   5.239
 1692SOL     OW 5974   6.255   5.617   2.328
 1692SOL    HW1 5975   6.282   5.557   2.404
 1692SOL    HW2 5976   6.293   5.583   2.243
 1693SOL     OW 5977   5.464   6.904   5.287
 1693SOL    HW1 5978   5.533   6.835   5.305
 1693SOL    HW2 5979   5.471   6.977   5.355
 1694SOL     OW 5980   4.779   1.283   6.362
 1694SOL    HW1 5981   4.776   1.323   6.454
 1694SOL    HW2 5982   4.768   1.184   6.369
 1695SOL     OW 5983   4.301   0.109   5.075
 1695SOL    HW1 5984   4.299   0.143   5.169
 1695SOL    HW2 5985   4.384   0.054   5.061
 1696SOL     OW 5986   5.251   6.831   0.898
 1696SOL    HW1 5987   5.199   6.752   0.931
 1696SOL    HW2 5988   5.311   6.803   0.824
 1697SOL     OW 5989   4.491   2.797   1.700
 1697SOL    HW1 5990   4.542   2.855   1.763
 1697SOL    HW2 5991   4.404   2.772   1.741
 1698SOL     OW 5992   4.142   1.441   1.792
 1698SOL    HW1 5993   4.187   1.444   1.703
 1698SOL    HW2 5994   4.066   1.506   1.794
 1699SOL     OW 5995   1.887   0.857   1.303
 1699SOL    HW1 5996   1.806   0.822   1.350
 1699SOL    HW2 5997   1.968   0.835   1.357
 1700SOL     OW 5998   5.545   3.391   2.797
 1700SOL    HW1 5999   5.453   3.400   2.834
 1700SOL    HW2 6000   5.545   3.421   2.701
 1701SOL     OW 6001   0.902   5.621   5.150
 1701SOL    HW1 6002   0.890   5.575   5.238
 1701SOL    HW2 6003   0.953   5.561   5.088
 1702SOL     OW 6004   1.841   2.506   6.806
 1702SOL    HW1 6005   1.867   2.542   6.896
 1702SOL    HW2 6006   1.742   2.512   6.795
 1703SOL     OW 6007   1.579   2.046   2.022
 1703SOL    HW1 6008   1.637   2.023   2.100
 1703SOL    HW2 6009   1.506   1.978   2.013
 1704SOL     OW 6010   3.016   2.891   6.740
 1704SOL    HW1 6011   2.953   2.950   6.690
 1704SOL    HW2 6012   2.972   2.860   6.825
 1705SOL     OW 6013   5.245   3.199   0.408
 1705SOL    HW1 6014   5.218   3.143   0.486
 1705SOL    HW2 6015   5.289   3.283   0.440
 1706SOL     OW 6016   5.595   0.963   6.033
 1706SOL    HW1 6017   5.606   0.864   6.018
 1706SOL    HW2 6018   5.658   1.012   5.974
 1707SOL     OW 6019   3.831   1.264   1.939
 1707SOL    HW1 6020   3.860   1.224   1.852
 1707SOL    HW2 6021   3.759   1.207   1.979
 1708SOL     OW 6022   2.550   4.530   1.930
 1708SOL    HW1 6023   2.639   4.571   1.950
 1708SOL    HW2 6024   2.479   4.578   1.980
 1709SOL     OW 6025   5.243   4.235   1.403
 1709SOL    HW1 6026   5.171   4.261   1.339
 1709SOL    HW2 6027   5.207   4.166   1.466
 1710SOL     OW 6028   4.775   2.911   2.278
 1710SOL    HW1 6029   4.763   2.951   2.187
 1710SOL    HW2 6030   4.734   2.820   2.280
 1711SOL     OW 6031   4.201   5.691   6.788
 1711SOL    HW1 6032   4.137   5.758   6.826
 1711SOL    HW2 6033   4.151   5.616   6.745
 1712SOL     OW 6034   7.018   2.024   1.904
 1712SOL    HW1 6035   6.999   1.927   1.919
 1712SOL    HW2 6036   6.934   2.077   1.918
 1713SOL     OW 6037   3.147   1.400   2.135
 1713SOL    HW1 6038   3.114   1.334   2.067
 1713SOL    HW2 6039   3.086   1.399   2.214
 1714SOL     OW 6040   2.543   4.449   0.971
 1714SOL    HW1 6041   2.527   4.535   0.921
 1714SOL    HW2 6042   2.600   4.468   1.050
 1715SOL     OW 6043   1.117   6.265   1.250
 1715SOL    HW1 6044   1.076   6.332   1.312
 1715SOL    HW2 6045   1.117   6.175   1.293
 1716SOL     OW 6046   4.793   1.804   2.733
 1716SOL    HW1 6047   4.704   1.765   2.705
 1716SOL    HW2 6048   4.866   1.758   2.683
 1717SOL     OW 6049   3.656   6.539   3.472
 1717SOL    HW1 6050   3.671   6.479   3.551
 1717SOL    HW2 6051   3.690   6.493   3.390
 1718SOL     OW 6052   1.592   3.514   1.909
 1718SOL    HW1 6053   1.648   3.563   1.842
 1718SOL    HW2 6054   1.642   3.509   1.996
 1719SOL     OW 6055   1.125   5.043   3.541
 1719SOL    HW1 6056   1.063   5.074   3.469
 1719SOL    HW2 6057   1.072   5.009   3.619
 1720SOL     OW 6058   1.034   3.153   5.506
 1720SOL    HW1 6059   1.013   3.125   5.600
 1720SOL    HW2 6060   1.133   3.161   5.495
 1721SOL     OW 6061   2.613   2.681   0.318
 1721SOL    HW1 6062   2.625   2.583   0.337
 1721SOL    HW2 6063   2.605   2.731   0.404
 1722SOL     OW 6064   3.029   2.228   3.495
 1722SOL    HW1 6065   3.001   2.174   3.416
 1722SOL    HW2 6066   3.086   2.304   3.465
 1723SOL     OW 6067   6.479   4.440   1.156
 1723SOL    HW1 6068   6.480   4.535   1.184
 1723SOL    HW2 6069   6.444   4.383   1.231
 1724SOL     OW 6070   5.772   3.378   0.649
 1724SOL    HW1 6071   5.833   3.454   0.672
 1724SOL    HW2 6072   5.822   3.292   0.656
 1725SOL     OW 6073   1.808   6.552   6.484
 1725SOL    HW1 6074   1.760   6.633   6.451
 1725SOL    HW2 6075   1.765   6.470   6.447
 1726SOL     OW 6076   4.991   4.838   3.605
 1726SOL    HW1 6077   5.078   4.814   3.647
 1726SOL    HW2 6078   4.957   4.760   3.553
 1727SOL     OW 6079   3.181   2.943   3.444
 1727SOL    HW1 6080   3.127   2.881   3.387
 1727SOL    HW2 6081   3.230   3.008   3.386
 1728SOL     OW 6082   5.667   2.160   4.429
 1728SOL    HW1 6083   5.612   2.234   4.468
 1728SOL    HW2 6084   5.648   2.153   4.331
 1729SOL     OW 6085   1.344   3.046   2.852
 1729SOL    HW1 6086   1.335   3.058   2.753
 1729SOL    HW2 6087   1.441   3.049   2.877
 1730SOL     OW 6088   2.738   0.487   4.604
 1730SOL    HW1 6089   2.696   0.485   4.694
 1730SOL    HW2 6090   2.716   0.403   4.554
 1731SOL     OW 6091   5.262   4.370   3.587
 1731SOL    HW1 6092   5.308   4.376   3.675
 1731SOL    HW2 6093   5.213   4.283   3.581
 1732SOL     OW 6094   4.217   3.536   5.097
 1732SOL    HW1 6095   4.187   3.476   5.022
 1732SOL    HW2 6096   4.154   3.526   5.174
 1733SOL     OW 6097   1.493   1.732   6.900
 1733SOL    HW1 6098   1.567   1.747   6.833
 1733SOL    HW2 6099   1.408   1.769   6.864
 1734SOL     OW 6100   0.616   4.258   1.374
 1734SOL    HW1 6101   0.611   4.159   1.384
 1734SOL    HW2 6102   0.689   4.294   1.432
 1735SOL     OW 6103   3.258   5.171   5.859
 1735SOL    HW1 6104   3.270   5.104   5.931
 1735SOL    HW2 6105   3.304   5.256   5.884
 1736SOL     OW 6106   4.857   2.126   5.998
 1736SOL    HW1 6107   4.928   2.057   5.987
 1736SOL    HW2 6108   4.873   2.201   5.934
 1737SOL     OW 6109   2.764   1.225   6.355
 1737SOL    HW1 6110   2.712   1.201   6.274
 1737SOL    HW2 6111   2.702   1.255   6.428
 1738SOL     OW 6112   0.888   3.748   2.044
 1738SOL    HW1 6113   0.953   3.738   1.969
 1738SOL    HW2 6114   0.803   3.700   2.021
 1739SOL     OW 6115   4.637   5.020   2.522
 1739SOL    HW1 6116   4.710   5.040   2.457
 1739SOL    HW2 6117   4.620   5.101   2.579
 1740SOL     OW 6118   6.910   1.996   5.021
 1740SOL    HW1 6119   6.876   2.064   4.956
 1740SOL    HW2 6120   6.975   2.039   5.083
 1741SOL     OW 6121   1.191   2.878   4.840
 1741SOL    HW1 6122   1.195   2.785   4.803
 1741SOL    HW2 6123   1.202   2.874   4.939
 1742SOL     OW 6124   5.925   0.283   0.109
 1742SOL    HW1 6125   5.945   0.376   0.079
 1742SOL    HW2 6126   5.910   0.282   0.208
 1743SOL     OW 6127   0.917   2.453   1.788
 1743SOL    HW1 6128   0.967   2.532   1.753
 1743SOL    HW2 6129   0.819   2.466   1.770
 1744SOL     OW 6130   3.015   2.157   5.288
 1744SOL    HW1 6131   2.917   2.176   5.275
 1744SOL    HW2 6132   3.069   2.226   5.240
 1745SOL     OW 6133   6.364   6.261   0.709
 1745SOL    HW1 6134   6.428   6.263   0.786
 1745SOL    HW2 6135   6.413   6.288   0.625
 1746SOL     OW 6136   2.462   5.193   2.597
 1746SOL    HW1 6137   2.517   5.224   2.520
 1746SOL    HW2 6138   2.505   5.114   2.640
 1747SOL     OW 6139   2.859   0.095   2.257
 1747SOL    HW1 6140   2.845   0.130   2.349
 1747SOL    HW2 6141   2.903   0.005   2.262
 1748SOL     OW 6142   6.792   1.557   3.648
 1748SOL    HW1 6143   6.855   1.504   3.591
 1748SOL    HW2 6144   6.743   1.623   3.591
 1749SOL     OW 6145   6.448   5.465   2.837
 1749SOL    HW1 6146   6.349   5.457   2.847
 1749SOL    HW2 6147   6.490   5.481   2.927
 1750SOL     OW 6148   3.427   1.499   0.993
 1750SOL    HW1 6149   3.348   1.553   0.962
 1750SOL    HW2 6150   3.467   1.542   1.073
 1751SOL     OW 6151   6.429   4.496   4.844
 1751SOL    HW1 6152   6.330   4.490   4.857
 1751SOL    HW2 6153   6.450   4.524   4.751
 1752SOL     OW 6154   6.123   0.924   2.367
 1752SOL    HW1 6155   6.047   0.927   2.432
 1752SOL    HW2 6156   6.201   0.876   2.409
 1753SOL     OW 6157   6.387   1.428   1.482
 1753SOL    HW1 6158   6.345   1.366   1.415
 1753SOL    HW2 6159   6.318   1.491   1.517
 1754SOL     OW 6160   2.849   5.296   3.647
 1754SOL    HW1 6161   2.890   5.377   3.690
 1754SOL    HW2 6162   2.760   5.320   3.609
 1755SOL     OW 6163   6.250   6.493   5.033
 1755SOL    HW1 6164   6.259   6.414   5.093
 1755SOL    HW2 6165   6.289   6.573   5.079
 1756SOL     OW 6166   4.414   6.268   1.485
 1756SOL    HW1 6167   4.431   6.172   1.506
 1756SOL    HW2 6168   4.478   6.298   1.415
 1757SOL     OW 6169   2.658   5.212   4.997
 1757SOL    HW1 6170   2.680   5.256   4.910
 1757SOL    HW2 6171   2.678   5.275   5.072
 1758SOL     OW 6172   0.616   5.987   4.067
 1758SOL    HW1 6173   0.662   5.899   4.073
 1758SOL    HW2 6174   0.532   5.976   4.013
 1759SOL     OW 6175   1.671   5.512   6.277
 1759SOL    HW1 6176   1.769   5.495   6.268
 1759SOL    HW2 6177   1.642   5.576   6.206
 1760SOL     OW 6178   6.126   1.944   3.811
 1760SOL    HW1 6179   6.137   2.035   3.771
 1760SOL    HW2 6180   6.189   1.933   3.888
 1761SOL     OW 6181   5.551   2.590   3.760
 1761SOL    HW1 6182   5.485   2.567   3.831
 1761SOL    HW2 6183   5.582   2.506   3.715
 1762SOL     OW 6184   0.868   1.226   5.842
 1762SOL    HW1 6185   0.886   1.230   5.940
 1762SOL    HW2 6186   0.773   1.197   5.828
 1763SOL     OW 6187   1.512   5.095   4.046
 1763SOL    HW1 6188   1.527   5.076   3.949
 1763SOL    HW2 6189   1.580   5.046   4.101
 1764SOL     OW 6190   1.405   5.673   3.259
 1764SOL    HW1 6191   1.369   5.755   3.213
 1764SOL    HW2 6192   1.396   5.685   3.358
 1765SOL     OW 6193   5.348   3.612   1.831
 1765SOL    HW1 6194   5.403   3.598   1.748
 1765SOL    HW2 6195   5.251   3.611   1.807
 1766SOL     OW 6196   4.264   4.935   3.899
 1766SOL    HW1 6197   4.255   4.927   3.800
 1766SOL    HW2 6198   4.269   4.844   3.940
 1767SOL     OW 6199   1.365   4.090   1.268
 1767SOL    HW1 6200   1.389   4.032   1.191
 1767SOL    HW2 6201   1.326   4.176   1.234
 1768SOL     OW 6202   3.710   4.943   2.798
 1768SOL    HW1 6203   3.636   4.882   2.825
 1768SOL    HW2 6204   3.741   4.996   2.878
 1769SOL     OW 6205   5.722   0.566   0.878
 1769SOL    HW1 6206   5.686   0.659   0.881
 1769SOL    HW2 6207   5.787   0.558   0.802
 1770SOL     OW 6208   2.189   4.864   0.617
 1770SOL    HW1 6209   2.134   4.901   0.691
 1770SOL    HW2 6210   2.264   4.810   0.654
 1771SOL     OW 6211   0.733   2.920   6.138
 1771SOL    HW1 6212   0.691   2.892   6.225
 1771SOL    HW2 6213   0.675   2.892   6.062
 1772SOL     OW 6214   2.454   4.640   2.677
 1772SOL    HW1 6215   2.373   4.644   2.735
 1772SOL    HW2 6216   2.448   4.560   2.617
 1773SOL     OW 6217   2.428   6.819   5.108
 1773SOL    HW1 6218   2.450   6.857   5.018
 1773SOL    HW2 6219   2.447   6.720   5.108
 1774SOL     OW 6220   5.505   5.723   1.969
 1774SOL    HW1 6221   5.565   5.656   2.012
 1774SOL    HW2 6222   5.557   5.806   1.950
 1775SOL     OW 6223   1.325   6.416   1.136
 1775SOL    HW1 6224   1.294   6.449   1.047
 1775SOL    HW2 6225   1.257   6.355   1.175
 1776SOL     OW 6226   4.504   3.226   6.207
 1776SOL    HW1 6227   4.552   3.148   6.167
 1776SOL    HW2 6228   4.405   3.210   6.204
 1777SOL     OW 6229   4.706   5.733   6.912
 1777SOL    HW1 6230   4.625   5.732   6.852
 1777SOL    HW2 6231   4.686   5.786   6.994
 1778SOL     OW 6232   6.957   7.014   2.723
 1778SOL    HW1 6233   6.859   0.012   2.729
 1778SOL    HW2 6234   6.973   6.918   2.698
 1779SOL     OW 6235   6.462   0.080   4.777
 1779SOL    HW1 6236   6.501   7.013   4.742
 1779SOL    HW2 6237   6.365   0.085   4.751
 1780SOL     OW 6238   3.429   6.724   4.770
 1780SOL    HW1 6239   3.446   6.822   4.754
 1780SOL    HW2 6240   3.516   6.677   4.783
 1781SOL     OW 6241   5.108   1.474   6.026
 1781SOL    HW1 6242   5.095   1.402   6.094
 1781SOL    HW2 6243   5.022   1.523   6.011
 1782SOL     OW 6244   5.261   0.673   2.640
 1782SOL    HW1 6245   5.168   0.648   2.668
 1782SOL    HW2 6246   5.281   0.765   2.673
 1783SOL     OW 6247   1.435   3.210   7.017
 1783SOL    HW1 6248   1.446   3.310   0.001
 1783SOL    HW2 6249   1.463   3.176   6.928
 1784SOL     OW 6250   2.221   6.303   1.626
 1784SOL    HW1 6251   2.196   6.215   1.585
 1784SOL    HW2 6252   2.147   6.369   1.613
 1785SOL     OW 6253   1.946   5.888   4.687
 1785SOL    HW1 6254   1.913   5.979   4.710
 1785SOL    HW2 6255   1.868   5.825   4.684
 1786SOL     OW 6256   0.382   5.917   1.811
 1786SOL    HW1 6257   0.418   5.910   1.719
 1786SOL    HW2 6258   0.317   5.992   1.817
 1787SOL     OW 6259   2.111   2.463   6.083
 1787SOL    HW1 6260   2.182   2.532   6.067
 1787SOL    HW2 6261   2.054   2.454   6.002
 1788SOL     OW 6262   3.302   4.037   0.839
 1788SOL    HW1 6263   3.239   4.080   0.775
 1788SOL    HW2 6264   3.384   4.008   0.791
 1789SOL     OW 6265   6.098   2.441   2.073
 1789SOL    HW1 6266   6.053   2.493   2.146
 1789SOL    HW2 6267   6.194   2.427   2.097
 1790SOL     OW 6268   2.464   1.698   4.645
 1790SOL    HW1 6269   2.496   1.685   4.551
 1790SOL    HW2 6270   2.533   1.663   4.708
 1791SOL     OW 6271   6.363   0.362   3.648
 1791SOL    HW1 6272   6.463   0.357   3.643
 1791SOL    HW2 6273   6.327   0.275   3.680
 1792SOL     OW 6274   6.729   2.647   6.060
 1792SOL    HW1 6275   6.635   2.613   6.049
 1792SOL    HW2 6276   6.778   2.636   5.973
 1793SOL     OW 6277   0.391   1.292   4.641
 1793SOL    HW1 6278   0.371   1.194   4.635
 1793SOL    HW2 6279   0.327   1.343   4.585
 1794SOL     OW 6280   0.062   1.681   6.703
 1794SOL    HW1 6281   0.130   1.726   6.646
 1794SOL    HW2 6282   0.083   1.697   6.799
 1795SOL     OW 6283   5.353   4.362   0.497
 1795SOL    HW1 6284   5.323   4.436   0.437
 1795SOL    HW2 6285   5.359   4.277   0.444
 1796SOL     OW 6286   6.045   6.980   6.937
 1796SOL    HW1 6287   6.072   0.044   6.886
 1796SOL    HW2 6288   5.964   7.001   6.992
 1797SOL     OW 6289   2.639   6.351   5.158
 1797SOL    HW1 6290   2.731   6.357   5.197
 1797SOL    HW2 6291   2.620   6.256   5.132
 1798SOL     OW 6292   2.160   3.729   6.024
 1798SOL    HW1 6293   2.251   3.754   5.991
 1798SOL    HW2 6294   2.099   3.808   6.017
 1799SOL     OW 6295   3.302   1.557   2.375
 1799SOL    HW1 6296   3.233   1.621   2.341
 1799SOL    HW2 6297   3.288   1.542   2.473
 1800SOL     OW 6298   5.875   2.416   5.467
 1800SOL    HW1 6299   5.794   2.441   5.414
 1800SOL    HW2 6300   5.938   2.494   5.470
 1801SOL     OW 6301   0.325   1.783   2.094
 1801SOL    HW1 6302   0.249   1.723   2.118
 1801SOL    HW2 6303   0.397   1.775   2.164
 1802SOL     OW 6304   6.887   4.781   4.172
 1802SOL    HW1 6305   6.866   4.853   4.238
 1802SOL    HW2 6306   6.839   4.697   4.198
 1803SOL     OW 6307   0.236   6.294   3.979
 1803SOL    HW1 6308   0.233   6.391   3.953
 1803SOL    HW2 6309   0.318   6.277   4.033
 1804SOL     OW 6310   0.862   2.750   6.648
 1804SOL    HW1 6311   0.906   2.773   6.561
 1804SOL    HW2 6312   0.763   2.748   6.635
 1805SOL     OW 6313   6.522   4.910   6.047
 1805SOL    HW1 6314   6.426   4.907   6.076
 1805SOL    HW2 6315   6.574   4.840   6.096
 1806SOL     OW 6316   0.534   1.659   1.624
 1806SOL    HW1 6317   0.466   1.599   1.582
 1806SOL    HW2 6318   0.487   1.727   1.680
 1807SOL     OW 6319   6.656   2.305   1.707
 1807SOL    HW1 6320   6.649   2.281   1.610
 1807SOL    HW2 6321   6.709   2.390   1.716
 1808SOL     OW 6322   6.323   0.583   6.472
 1808SOL    HW1 6323   6.242   0.559   6.420
 1808SOL    HW2 6324   6.369   0.660   6.429
 1809SOL     OW 6325   5.203   0.534   5.203
 1809SOL    HW1 6326   5.159   0.604   5.146
 1809SOL    HW2 6327   5.161   0.533   5.293
 1810SOL     OW 6328   1.065   1.391   4.689
 1810SOL    HW1 6329   1.149   1.407   4.638
 1810SOL    HW2 6330   1.019   1.309   4.653
 1811SOL     OW 6331   3.385   5.823   1.818
 1811SOL    HW1 6332   3.303   5.829   1.761
 1811SOL    HW2 6333   3.437   5.741   1.792
 1812SOL     OW 6334   4.348   0.731   6.355
 1812SOL    HW1 6335   4.312   0.658   6.413
 1812SOL    HW2 6336   4.366   0.812   6.410
 1813SOL     OW 6337   5.410   3.245   2.184
 1813SOL    HW1 6338   5.423   3.314   2.113
 1813SOL    HW2 6339   5.496   3.197   2.200
 1814SOL     OW 6340   6.182   5.470   0.711
 1814SOL    HW1 6341   6.197   5.478   0.613
 1814SOL    HW2 6342   6.089   5.436   0.727
 1815SOL     OW 6343   6.170   5.215   1.339
 1815SOL    HW1 6344   6.125   5.160   1.409
 1815SOL    HW2 6345   6.175   5.310   1.369
 1816SOL     OW 6346   3.666   5.126   4.550
 1816SOL    HW1 6347   3.683   5.224   4.557
 1816SOL    HW2 6348   3.644   5.089   4.640
 1817SOL     OW 6349   6.549   2.950   3.593
 1817SOL    HW1 6350   6.612   2.877   3.568
 1817SOL    HW2 6351   6.602   3.028   3.628
 1818SOL     OW 6352   2.175   1.466   1.150
 1818SOL    HW1 6353   2.217   1.392   1.098
 1818SOL    HW2 6354   2.076   1.451   1.154
 1819SOL     OW 6355   1.216   3.798   0.857
 1819SOL    HW1 6356   1.172   3.709   0.871
 1819SOL    HW2 6357   1.304   3.800   0.905
 1820SOL     OW 6358   4.048   6.863   5.227
 1820SOL    HW1 6359   4.145   6.870   5.206
 1820SOL    HW2 6360   3.997   6.844   5.143
 1821SOL     OW 6361   3.992   1.321   2.764
 1821SOL    HW1 6362   4.053   1.337   2.842
 1821SOL    HW2 6363   3.911   1.272   2.795
 1822SOL     OW 6364   1.884   3.532   4.215
 1822SOL    HW1 6365   1.809   3.597   4.207
 1822SOL    HW2 6366   1.864   3.469   4.290
 1823SOL     OW 6367   3.881   0.251   3.697
 1823SOL    HW1 6368   3.831   0.192   3.760
 1823SOL    HW2 6369   3.943   0.195   3.642
 1824SOL     OW 6370   4.697   2.702   1.921
 1824SOL    HW1 6371   4.696   2.800   1.940
 1824SOL    HW2 6372   4.756   2.684   1.842
 1825SOL     OW 6373   0.811   3.440   0.152
 1825SOL    HW1 6374   0.873   3.490   0.091
 1825SOL    HW2 6375   0.858   3.419   0.237
 1826SOL     OW 6376   3.680   3.316   0.379
 1826SOL    HW1 6377   3.735   3.236   0.402
 1826SOL    HW2 6378   3.732   3.399   0.402
 1827SOL     OW 6379   5.219   4.678   0.685
 1827SOL    HW1 6380   5.200   4.596   0.739
 1827SOL    HW2 6381   5.242   4.652   0.591
 1828SOL     OW 6382   2.781   4.963   4.735
 1828SOL    HW1 6383   2.725   5.045   4.723
 1828SOL    HW2 6384   2.815   4.961   4.829
 1829SOL     OW 6385   2.004   6.265   2.235
 1829SOL    HW1 6386   2.048   6.350   2.206
 1829SOL    HW2 6387   2.018   6.195   2.165
 1830SOL     OW 6388   4.564   1.551   6.520
 1830SOL    HW1 6389   4.657   1.565   6.554
 1830SOL    HW2 6390   4.499   1.567   6.594
 1831SOL     OW 6391   3.517   4.757   0.588
 1831SOL    HW1 6392   3.555   4.766   0.680
 1831SOL    HW2 6393   3.572   4.692   0.536
 1832SOL     OW 6394   1.592   3.109   5.876
 1832SOL    HW1 6395   1.685   3.131   5.847
 1832SOL    HW2 6396   1.529   3.179   5.841
 1833SOL     OW 6397   5.897   1.230   0.370
 1833SOL    HW1 6398   5.979   1.197   0.322
 1833SOL    HW2 6399   5.840   1.152   0.395
 1834SOL     OW 6400   2.098   3.793   6.487
 1834SOL    HW1 6401   2.098   3.712   6.429
 1834SOL    HW2 6402   2.012   3.800   6.537
 1835SOL     OW 6403   6.698   6.860   0.474
 1835SOL    HW1 6404   6.695   6.898   0.566
 1835SOL    HW2 6405   6.767   6.908   0.420
 1836SOL     OW 6406   6.311   2.033   4.006
 1836SOL    HW1 6407   6.318   1.978   4.089
 1836SOL    HW2 6408   6.233   2.095   4.013
 1837SOL     OW 6409   1.084   1.925   0.583
 1837SOL    HW1 6410   1.168   1.978   0.575
 1837SOL    HW2 6411   1.007   1.980   0.551
 1838SOL     OW 6412   5.341   0.327   1.009
 1838SOL    HW1 6413   5.295   0.248   0.970
 1838SOL    HW2 6414   5.315   0.337   1.105
 1839SOL     OW 6415   6.699   1.532   6.479
 1839SOL    HW1 6416   6.648   1.467   6.422
 1839SOL    HW2 6417   6.793   1.539   6.446
 1840SOL     OW 6418   3.330   0.476   5.114
 1840SOL    HW1 6419   3.397   0.457   5.186
 1840SOL    HW2 6420   3.287   0.564   5.132
 1841SOL     OW 6421   2.076   0.366   1.781
 1841SOL    HW1 6422   2.026   0.334   1.861
 1841SOL    HW2 6423   2.174   0.362   1.799
 1842SOL     OW 6424   0.162   4.974   1.436
 1842SOL    HW1 6425   0.250   4.932   1.417
 1842SOL    HW2 6426   0.102   4.906   1.479
 1843SOL     OW 6427   3.228   1.320   6.617
 1843SOL    HW1 6428   3.128   1.314   6.619
 1843SOL    HW2 6429   3.265   1.243   6.565
 1844SOL     OW 6430   4.992   3.391   0.586
 1844SOL    HW1 6431   4.944   3.397   0.498
 1844SOL    HW2 6432   5.061   3.463   0.591
 1845SOL     OW 6433   0.887   2.638   4.758
 1845SOL    HW1 6434   0.811   2.599   4.810
 1845SOL    HW2 6435   0.935   2.565   4.708
 1846SOL     OW 6436   3.751   1.664   2.296
 1846SOL    HW1 6437   3.714   1.578   2.330
 1846SOL    HW2 6438   3.832   1.690   2.350
 1847SOL     OW 6439   2.935   5.911   6.829
 1847SOL    HW1 6440   2.908   5.953   6.915
 1847SOL    HW2 6441   3.008   5.965   6.787
 1848SOL     OW 6442   3.362   5.940   4.558
 1848SOL    HW1 6443   3.422   5.915   4.635
 1848SOL    HW2 6444   3.406   6.010   4.503
 1849SOL     OW 6445   4.756   2.774   2.640
 1849SOL    HW1 6446   4.831   2.836   2.663
 1849SOL    HW2 6447   4.717   2.736   2.725
 1850SOL     OW 6448   4.542   1.859   0.923
 1850SOL    HW1 6449   4.564   1.935   0.862
 1850SOL    HW2 6450   4.512   1.894   1.012
 1851SOL     OW 6451   0.891   4.986   4.142
 1851SOL    HW1 6452   0.926   5.034   4.222
 1851SOL    HW2 6453   0.799   4.951   4.162
 1852SOL     OW 6454   0.350   0.198   3.946
 1852SOL    HW1 6455   0.403   0.282   3.937
 1852SOL    HW2 6456   0.357   0.145   3.861
 1853SOL     OW 6457   0.765   2.056   5.442
 1853SOL    HW1 6458   0.845   2.027   5.389
 1853SOL    HW2 6459   0.763   2.156   5.448
 1854SOL     OW 6460   0.340   0.021   4.232
 1854SOL    HW1 6461   0.325   6.989   4.147
 1854SOL    HW2 6462   0.259   0.074   4.255
 1855SOL     OW 6463   6.649   1.215   4.983
 1855SOL    HW1 6464   6.570   1.156   4.966
 1855SOL    HW2 6465   6.618   1.305   5.015
 1856SOL     OW 6466   5.205   4.191   6.550
 1856SOL    HW1 6467   5.191   4.259   6.478
 1856SOL    HW2 6468   5.259   4.115   6.514
 1857SOL     OW 6469   4.663   1.000   6.573
 1857SOL    HW1 6470   4.716   1.030   6.652
 1857SOL    HW2 6471   4.723   0.957   6.505
 1858SOL     OW 6472   5.695   1.936   4.578
 1858SOL    HW1 6473   5.625   1.867   4.561
 1858SOL    HW2 6474   5.683   2.012   4.514
 1859SOL     OW 6475   6.507   6.560   2.447
 1859SOL    HW1 6476   6.514   6.608   2.360
 1859SOL    HW2 6477   6.412   6.531   2.461
 1860SOL     OW 6478   2.287   0.776   6.829
 1860SOL    HW1 6479   2.327   0.868   6.826
 1860SOL    HW2 6480   2.360   0.708   6.817
 1861SOL     OW 6481   6.623   6.527   5.350
 1861SOL    HW1 6482   6.676   6.451   5.312
 1861SOL    HW2 6483   6.525   6.510   5.336
 1862SOL     OW 6484   3.894   5.653   5.745
 1862SOL    HW1 6485   3.993   5.637   5.745
 1862SOL    HW2 6486   3.859   5.641   5.652
 1863SOL     OW 6487   6.820   1.150   1.572
 1863SOL    HW1 6488   6.904   1.118   1.527
 1863SOL    HW2 6489   6.753   1.175   1.502
 1864SOL     OW 6490   2.089   6.172   2.880
 1864SOL    HW1 6491   2.074   6.193   2.783
 1864SOL    HW2 6492   2.151   6.094   2.888
 1865SOL     OW 6493   6.593   2.298   5.673
 1865SOL    HW1 6494   6.534   2.248   5.609
 1865SOL    HW2 6495   6.545   2.309   5.760
 1866SOL     OW 6496   0.175   4.175   4.926
 1866SOL    HW1 6497   0.152   4.250   4.864
 1866SOL    HW2 6498   0.175   4.209   5.020
 1867SOL     OW 6499   1.262   0.998   1.309
 1867SOL    HW1 6500   1.304   0.912   1.279
 1867SOL    HW2 6501   1.177   0.978   1.358
 1868SOL     OW 6502   5.214   3.708   5.854
 1868SOL    HW1 6503   5.141   3.766   5.819
 1868SOL    HW2 6504   5.239   3.739   5.947
 1869SOL     OW 6505   5.151   0.639   5.655
 1869SOL    HW1 6506   5.251   0.634   5.651
 1869SOL    HW2 6507   5.124   0.734   5.675
 1870SOL     OW 6508   6.012   0.227   5.586
 1870SOL    HW1 6509   5.990   0.222   5.489
 1870SOL    HW2 6510   6.010   0.323   5.616
 1871SOL     OW 6511   2.196   5.200   6.779
 1871SOL    HW1 6512   2.241   5.213   6.867
 1871SOL    HW2 6513   2.260   5.223   6.705
 1872SOL     OW 6514   2.632   3.346   0.878
 1872SOL    HW1 6515   2.583   3.293   0.947
 1872SOL    HW2 6516   2.706   3.291   0.839
 1873SOL     OW 6517   5.813   1.580   2.579
 1873SOL    HW1 6518   5.796   1.630   2.663
 1873SOL    HW2 6519   5.757   1.618   2.505
 1874SOL     OW 6520   1.940   5.328   6.677
 1874SOL    HW1 6521   2.022   5.306   6.730
 1874SOL    HW2 6522   1.943   5.279   6.590
 1875SOL     OW 6523   1.296   6.394   2.320
 1875SOL    HW1 6524   1.236   6.317   2.342
 1875SOL    HW2 6525   1.388   6.375   2.355
 1876SOL     OW 6526   0.904   4.654   6.755
 1876SOL    HW1 6527   0.849   4.628   6.676
 1876SOL    HW2 6528   0.844   4.687   6.828
 1877SOL     OW 6529   0.903   0.817   2.853
 1877SOL    HW1 6530   0.993   0.775   2.839
 1877SOL    HW2 6531   0.914   0.916   2.865
 1878SOL     OW 6532   6.032   4.019   4.210
 1878SOL    HW1 6533   6.096   4.095   4.224
 1878SOL    HW2 6534   6.009   3.979   4.299
 1879SOL     OW 6535   4.079   6.795   5.488
 1879SOL    HW1 6536   3.988   6.765   5.517
 1879SOL    HW2 6537   4.074   6.830   5.394
 1880SOL     OW 6538   1.761   2.788   4.290
 1880SOL    HW1 6539   1.798   2.742   4.371
 1880SOL    HW2 6540   1.739   2.883   4.313
 1881SOL     OW 6541   2.022   1.662   3.466
 1881SOL    HW1 6542   2.071   1.576   3.455
 1881SOL    HW2 6543   1.996   1.674   3.561
 1882SOL     OW 6544   3.745   5.885   0.749
 1882SOL    HW1 6545   3.804   5.966   0.742
 1882SOL    HW2 6546   3.650   5.912   0.735
 1883SOL     OW 6547   2.181   3.245   2.502
 1883SOL    HW1 6548   2.221   3.165   2.459
 1883SOL    HW2 6549   2.117   3.289   2.439
 1884SOL     OW 6550   5.170   1.011   6.909
 1884SOL    HW1 6551   5.073   0.997   6.890
 1884SOL    HW2 6552   5.223   0.999   6.826
 1885SOL     OW 6553   0.414   1.361   0.774
 1885SOL    HW1 6554   0.378   1.284   0.721
 1885SOL    HW2 6555   0.501   1.392   0.735
 1886SOL     OW 6556   3.253   2.990   5.077
 1886SOL    HW1 6557   3.292   2.959   5.163
 1886SOL    HW2 6558   3.154   2.989   5.082
 1887SOL     OW 6559   0.825   6.072   4.970
 1887SOL    HW1 6560   0.878   6.001   5.016
 1887SOL    HW2 6561   0.887   6.136   4.925
 1888SOL     OW 6562   2.031   1.484   5.966
 1888SOL    HW1 6563   1.999   1.532   6.048
 1888SOL    HW2 6564   1.967   1.410   5.944
 1889SOL     OW 6565   3.665   3.397   6.998
 1889SOL    HW1 6566   3.613   3.388   0.065
 1889SOL    HW2 6567   3.651   3.315   6.943
 1890SOL     OW 6568   6.134   6.018   6.547
 1890SOL    HW1 6569   6.058   6.019   6.612
 1890SOL    HW2 6570   6.220   6.007   6.597
 1891SOL     OW 6571   4.918   3.666   6.438
 1891SOL    HW1 6572   4.824   3.644   6.414
 1891SOL    HW2 6573   4.942   3.621   6.524
 1892SOL     OW 6574   4.538   0.346   3.317
 1892SOL    HW1 6575   4.497   0.315   3.402
 1892SOL    HW2 6576   4.476   0.408   3.270
 1893SOL     OW 6577   3.008   1.766   6.781
 1893SOL    HW1 6578   3.060   1.838   6.736
 1893SOL    HW2 6579   3.019   1.773   6.880
 1894SOL     OW 6580   5.003   3.157   0.318
 1894SOL    HW1 6581   4.964   3.249   0.318
 1894SOL    HW2 6582   5.092   3.159   0.364
 1895SOL     OW 6583   4.424   5.643   2.986
 1895SOL    HW1 6584   4.523   5.632   2.987
 1895SOL    HW2 6585   4.401   5.738   3.006
 1896SOL     OW 6586   6.523   1.424   5.088
 1896SOL    HW1 6587   6.529   1.516   5.050
 1896SOL    HW2 6588   6.466   1.425   5.170
 1897SOL     OW 6589   4.932   5.587   3.053
 1897SOL    HW1 6590   4.850   5.644   3.051
 1897SOL    HW2 6591   5.011   5.641   3.023
 1898SOL     OW 6592   5.365   6.407   0.076
 1898SOL    HW1 6593   5.297   6.353   0.024
 1898SOL    HW2 6594   5.431   6.446   0.013
 1899SOL     OW 6595   2.317   2.567   3.608
 1899SOL    HW1 6596   2.339   2.536   3.516
 1899SOL    HW2 6597   2.300   2.487   3.667
 1900SOL     OW 6598   2.872   5.335   1.646
 1900SOL    HW1 6599   2.923   5.249   1.654
 1900SOL    HW2 6600   2.930   5.411   1.674
 1901SOL     OW 6601   1.208   0.653   5.778
 1901SOL    HW1 6602   1.172   0.592   5.708
 1901SOL    HW2 6603   1.290   0.613   5.820
 1902SOL     OW 6604   1.395   2.426   4.498
 1902SOL    HW1 6605   1.315   2.442   4.556
 1902SOL    HW2 6606   1.431   2.334   4.516
 1903SOL     OW 6607   6.384   5.211   3.843
 1903SOL    HW1 6608   6.451   5.194   3.770
 1903SOL    HW2 6609   6.399   5.301   3.883
 1904SOL     OW 6610   0.642   0.522   4.370
 1904SOL    HW1 6611   0.587   0.605   4.377
 1904SOL    HW2 6612   0.736   0.542   4.395
 1905SOL     OW 6613   5.897   3.075   5.664
 1905SOL    HW1 6614   5.857   2.984   5.652
 1905SOL    HW2 6615   5.826   3.139   5.696
 1906SOL     OW 6616   2.275   6.794   5.667
 1906SOL    HW1 6617   2.283   6.880   5.616
 1906SOL    HW2 6618   2.354   6.784   5.728
 1907SOL     OW 6619   4.230   6.877   3.312
 1907SOL    HW1 6620   4.148   6.824   3.293
 1907SOL    HW2 6621   4.206   6.972   3.328
 1908SOL     OW 6622   4.989   4.937   0.555
 1908SOL    HW1 6623   4.985   4.956   0.653
 1908SOL    HW2 6624   5.008   5.022   0.506
 1909SOL     OW 6625   5.132   5.548   3.442
 1909SOL    HW1 6626   5.133   5.483   3.366
 1909SOL    HW2 6627   5.186   5.629   3.417
 1910SOL     OW 6628   4.906   3.898   4.588
 1910SOL    HW1 6629   4.970   3.911   4.512
 1910SOL    HW2 6630   4.870   3.805   4.587
 1911SOL     OW 6631   1.144   2.428   5.694
 1911SOL    HW1 6632   1.169   2.334   5.674
 1911SOL    HW2 6633   1.131   2.439   5.793
 1912SOL     OW 6634   3.067   6.229   2.639
 1912SOL    HW1 6635   3.002   6.233   2.563
 1912SOL    HW2 6636   3.148   6.283   2.616
 1913SOL     OW 6637   2.780   3.970   6.930
 1913SOL    HW1 6638   2.834   3.887   6.920
 1913SOL    HW2 6639   2.805   4.035   6.859
 1914SOL     OW 6640   4.727   1.400   4.836
 1914SOL    HW1 6641   4.715   1.498   4.852
 1914SOL    HW2 6642   4.789   1.386   4.759
 1915SOL     OW 6643   2.885   6.724   5.497
 1915SOL    HW1 6644   2.872   6.786   5.419
 1915SOL    HW2 6645   2.862   6.773   5.582
 1916SOL     OW 6646   3.330   6.321   2.592
 1916SOL    HW1 6647   3.375   6.410   2.586
 1916SOL    HW2 6648   3.337   6.273   2.504
 1917SOL     OW 6649   3.493   4.096   3.803
 1917SOL    HW1 6650   3.554   4.115   3.725
 1917SOL    HW2 6651   3.542   4.113   3.888
 1918SOL     OW 6652   0.506   6.352   5.528
 1918SOL    HW1 6653   0.587   6.411   5.524
 1918SOL    HW2 6654   0.496   6.315   5.620
 1919SOL     OW 6655   5.850   0.731   2.323
 1919SOL    HW1 6656   5.892   0.797   2.261
 1919SOL    HW2 6657   5.912   0.655   2.338
 1920SOL     OW 6658   6.470   6.537   4.843
 1920SOL    HW1 6659   6.522   6.452   4.830
 1920SOL    HW2 6660   6.389   6.518   4.898
 1921SOL     OW 6661   2.426   6.303   0.231
 1921SOL    HW1 6662   2.345   6.246   0.244
 1921SOL    HW2 6663   2.398   6.397   0.215
 1922SOL     OW 6664   3.866   4.531   0.234
 1922SOL    HW1 6665   3.794   4.590   0.196
 1922SOL    HW2 6666   3.849   4.516   0.331
 1923SOL     OW 6667   2.291   2.967   1.041
 1923SOL    HW1 6668   2.306   2.936   1.135
 1923SOL    HW2 6669   2.210   3.026   1.038
 1924SOL     OW 6670   0.803   3.429   0.997
 1924SOL    HW1 6671   0.825   3.458   0.904
 1924SOL    HW2 6672   0.719   3.375   0.996
 1925SOL     OW 6673   3.052   4.287   0.686
 1925SOL    HW1 6674   3.088   4.220   0.622
 1925SOL    HW2 6675   2.997   4.355   0.636
 1926SOL     OW 6676   0.607   0.711   3.843
 1926SOL    HW1 6677   0.696   0.681   3.875
 1926SOL    HW2 6678   0.611   0.808   3.818
 1927SOL     OW 6679   5.203   3.329   1.349
 1927SOL    HW1 6680   5.104   3.328   1.363
 1927SOL    HW2 6681   5.250   3.301   1.433
 1928SOL     OW 6682   0.263   5.542   4.440
 1928SOL    HW1 6683   0.185   5.584   4.484
 1928SOL    HW2 6684   0.296   5.601   4.366
 1929SOL     OW 6685   0.608   5.332   2.965
 1929SOL    HW1 6686   0.605   5.423   2.924
 1929SOL    HW2 6687   0.627   5.264   2.894
 1930SOL     OW 6688   6.823   5.344   6.046
 1930SOL    HW1 6689   6.730   5.367   6.075
 1930SOL    HW2 6690   6.829   5.246   6.027
 1931SOL     OW 6691   1.456   1.961   3.935
 1931SOL    HW1 6692   1.374   1.910   3.960
 1931SOL    HW2 6693   1.529   1.942   4.001
 1932SOL     OW 6694   5.781   3.806   2.754
 1932SOL    HW1 6695   5.797   3.710   2.733
 1932SOL    HW2 6696   5.703   3.814   2.815
 1933SOL     OW 6697   3.083   5.049   0.199
 1933SOL    HW1 6698   3.076   4.974   0.134
 1933SOL    HW2 6699   3.000   5.054   0.254
 1934SOL     OW 6700   0.138   5.928   2.949
 1934SOL    HW1 6701   0.093   6.014   2.974
 1934SOL    HW2 6702   0.226   5.922   2.995
 1935SOL     OW 6703   1.224   1.027   3.339
 1935SOL    HW1 6704   1.315   0.986   3.337
 1935SOL    HW2 6705   1.183   1.022   3.248
 1936SOL     OW 6706   0.219   5.447   5.264
 1936SOL    HW1 6707   0.210   5.495   5.351
 1936SOL    HW2 6708   0.158   5.489   5.197
 1937SOL     OW 6709   4.372   1.557   2.964
 1937SOL    HW1 6710   4.412   1.537   2.875
 1937SOL    HW2 6711   4.367   1.656   2.977
 1938SOL     OW 6712   5.445   0.014   4.160
 1938SOL    HW1 6713   5.519   7.001   4.219
 1938SOL    HW2 6714   5.459   0.110   4.136
 1939SOL     OW 6715   3.168   0.169   4.476
 1939SOL    HW1 6716   3.157   0.142   4.572
 1939SOL    HW2 6717   3.079   0.193   4.438
 1940SOL     OW 6718   6.529   6.296   6.647
 1940SOL    HW1 6719   6.583   6.217   6.674
 1940SOL    HW2 6720   6.465   6.320   6.720
 1941SOL     OW 6721   4.856   5.024   2.361
 1941SOL    HW1 6722   4.911   4.962   2.418
 1941SOL    HW2 6723   4.907   5.046   2.278
 1942SOL     OW 6724   0.200   3.697   2.170
 1942SOL    HW1 6725   0.220   3.607   2.209
 1942SOL    HW2 6726   0.276   3.760   2.188
 1943SOL     OW 6727   3.120   5.290   3.453
 1943SOL    HW1 6728   3.130   5.367   3.516
 1943SOL    HW2 6729   3.086   5.323   3.365
 1944SOL     OW 6730   6.876   6.503   1.745
 1944SOL    HW1 6731   6.780   6.530   1.743
 1944SOL    HW2 6732   6.885   6.409   1.711
 1945SOL     OW 6733   2.828   4.871   2.863
 1945SOL    HW1 6734   2.775   4.856   2.946
 1945SOL    HW2 6735   2.784   4.825   2.786
 1946SOL     OW 6736   1.753   6.794   6.809
 1946SOL    HW1 6737   1.847   6.763   6.798
 1946SOL    HW2 6738   1.717   6.761   6.896
 1947SOL     OW 6739   4.880   0.165   3.192
 1947SOL    HW1 6740   4.785   0.134   3.186
 1947SOL    HW2 6741   4.894   0.214   3.278
 1948SOL     OW 6742   5.980   3.173   5.399
 1948SOL    HW1 6743   5.894   3.166   5.349
 1948SOL    HW2 6744   5.967   3.143   5.493
 1949SOL     OW 6745   4.455   4.191   6.281
 1949SOL    HW1 6746   4.528   4.258   6.270
 1949SOL    HW2 6747   4.450   4.133   6.199
 1950SOL     OW 6748   3.502   5.167   0.522
 1950SOL    HW1 6749   3.493   5.219   0.608
 1950SOL    HW2 6750   3.597   5.171   0.491
 1951SOL     OW 6751   6.120   2.539   0.055
 1951SOL    HW1 6752   6.160   2.578   0.138
 1951SOL    HW2 6753   6.039   2.591   0.029
 1952SOL     OW 6754   3.550   2.911   4.252
 1952SOL    HW1 6755   3.465   2.934   4.301
 1952SOL    HW2 6756   3.528   2.864   4.167
 1953SOL     OW 6757   0.920   2.744   4.404
 1953SOL    HW1 6758   0.889   2.822   4.458
 1953SOL    HW2 6759   0.874   2.745   4.315
 1954SOL     OW 6760   2.366   1.627   4.305
 1954SOL    HW1 6761   2.450   1.663   4.346
 1954SOL    HW2 6762   2.286   1.670   4.348
 1955SOL     OW 6763   6.024   5.566   2.087
 1955SOL    HW1 6764   6.057   5.614   2.168
 1955SOL    HW2 6765   6.086   5.489   2.067
 1956SOL     OW 6766   4.918   6.512   2.706
 1956SOL    HW1 6767   4.849   6.471   2.766
 1956SOL    HW2 6768   4.997   6.452   2.700
 1957SOL     OW 6769   2.187   6.130   5.008
 1957SOL    HW1 6770   2.256   6.089   4.948
 1957SOL    HW2 6771   2.221   6.128   5.102
 1958SOL     OW 6772   3.468   3.647   6.255
 1958SOL    HW1 6773   3.405   3.578   6.220
 1958SOL    HW2 6774   3.560   3.627   6.221
 1959SOL     OW 6775   2.556   0.330   0.943
 1959SOL    HW1 6776   2.509   0.418   0.944
 1959SOL    HW2 6777   2.587   0.310   0.850
 1960SOL     OW 6778   5.041   5.975   2.671
 1960SOL    HW1 6779   5.029   5.896   2.732
 1960SOL    HW2 6780   4.962   5.981   2.610
 1961SOL     OW 6781   5.163   5.417   5.522
 1961SOL    HW1 6782   5.211   5.455   5.602
 1961SOL    HW2 6783   5.069   5.452   5.521
 1962SOL     OW 6784   0.284   6.525   4.540
 1962SOL    HW1 6785   0.226   6.532   4.459
 1962SOL    HW2 6786   0.337   6.609   4.549
 1963SOL     OW 6787   2.531   0.973   3.632
 1963SOL    HW1 6788   2.515   0.886   3.680
 1963SOL    HW2 6789   2.450   1.031   3.642
 1964SOL     OW 6790   6.071   3.300   2.712
 1964SOL    HW1 6791   6.087   3.315   2.615
 1964SOL    HW2 6792   5.981   3.257   2.725
 1965SOL     OW 6793   2.157   6.344   3.350
 1965SOL    HW1 6794   2.169   6.323   3.447
 1965SOL    HW2 6795   2.138   6.259   3.300
 1966SOL     OW 6796   6.436   6.842   6.474
 1966SOL    HW1 6797   6.338   6.833   6.463
 1966SOL    HW2 6798   6.456   6.876   6.566
 1967SOL     OW 6799   5.567   3.273   4.951
 1967SOL    HW1 6800   5.513   3.254   4.869
 1967SOL    HW2 6801   5.662   3.249   4.934
 1968SOL     OW 6802   3.917   5.503   4.969
 1968SOL    HW1 6803   3.933   5.591   5.013
 1968SOL    HW2 6804   4.002   5.469   4.929
 1969SOL     OW 6805   6.623   1.261   1.829
 1969SOL    HW1 6806   6.605   1.288   1.735
 1969SOL    HW2 6807   6.615   1.162   1.838
 1970SOL     OW 6808   1.539   0.342   3.829
 1970SOL    HW1 6809   1.536   0.404   3.750
 1970SOL    HW2 6810   1.547   0.396   3.913
 1971SOL     OW 6811   0.178   1.247   6.168
 1971SOL    HW1 6812   0.128   1.240   6.255
 1971SOL    HW2 6813   0.169   1.161   6.118
 1972SOL     OW 6814   1.352   0.192   3.661
 1972SOL    HW1 6815   1.422   0.126   3.634
 1972SOL    HW2 6816   1.393   0.264   3.718
 1973SOL     OW 6817   2.263   3.425   0.408
 1973SOL    HW1 6818   2.215   3.338   0.399
 1973SOL    HW2 6819   2.361   3.410   0.411
 1974SOL     OW 6820   6.148   6.570   4.620
 1974SOL    HW1 6821   6.116   6.615   4.537
 1974SOL    HW2 6822   6.214   6.499   4.595
 1975SOL     OW 6823   2.641   0.149   2.876
 1975SOL    HW1 6824   2.613   0.162   2.781
 1975SOL    HW2 6825   2.661   0.052   2.891
 1976SOL     OW 6826   6.395   4.126   6.230
 1976SOL    HW1 6827   6.391   4.129   6.329
 1976SOL    HW2 6828   6.366   4.035   6.198
 1977SOL     OW 6829   3.361   2.155   5.181
 1977SOL    HW1 6830   3.298   2.229   5.157
 1977SOL    HW2 6831   3.411   2.178   5.264
 1978SOL     OW 6832   0.127   2.555   5.012
 1978SOL    HW1 6833   0.208   2.591   5.058
 1978SOL    HW2 6834   0.058   2.627   5.003
 1979SOL     OW 6835   6.821   3.949   2.197
 1979SOL    HW1 6836   6.799   4.013   2.270
 1979SOL    HW2 6837   6.771   3.863   2.213
 1980SOL     OW 6838   2.660   0.805   2.299
 1980SOL    HW1 6839   2.755   0.782   2.277
 1980SOL    HW2 6840   2.604   0.722   2.293
 1981SOL     OW 6841   5.180   3.093   2.144
 1981SOL    HW1 6842   5.261   3.151   2.150
 1981SOL    HW2 6843   5.191   3.014   2.204
 1982SOL     OW 6844   0.171   6.606   5.407
 1982SOL    HW1 6845   0.123   6.571   5.326
 1982SOL    HW2 6846   0.241   6.672   5.378
 1983SOL     OW 6847   0.789   4.855   1.694
 1983SOL    HW1 6848   0.716   4.797   1.657
 1983SOL    HW2 6849   0.876   4.833   1.650
 1984SOL     OW 6850   5.190   1.038   5.046
 1984SOL    HW1 6851   5.190   1.039   4.946
 1984SOL    HW2 6852   5.100   1.066   5.080
 1985SOL     OW 6853   1.646   5.817   1.497
 1985SOL    HW1 6854   1.618   5.897   1.550
 1985SOL    HW2 6855   1.602   5.820   1.407
 1986SOL     OW 6856   6.795   2.348   0.260
 1986SOL    HW1 6857   6.842   2.331   0.174
 1986SOL    HW2 6858   6.860   2.345   0.336
 1987SOL     OW 6859   2.461   3.619   6.846
 1987SOL    HW1 6860   2.389   3.593   6.782
 1987SOL    HW2 6861   2.503   3.704   6.816
 1988SOL     OW 6862   4.576   3.042   0.885
 1988SOL    HW1 6863   4.557   3.133   0.920
 1988SOL    HW2 6864   4.624   2.988   0.955
 1989SOL     OW 6865   2.144   2.237   3.640
 1989SOL    HW1 6866   2.098   2.272   3.722
 1989SOL    HW2 6867   2.105   2.279   3.559
 1990SOL     OW 6868   0.787   0.311   3.421
 1990SOL    HW1 6869   0.706   0.321   3.479
 1990SOL    HW2 6870   0.801   0.394   3.367
 1991SOL     OW 6871   4.475   6.145   2.872
 1991SOL    HW1 6872   4.499   6.169   2.966
 1991SOL    HW2 6873   4.471   6.045   2.863
 1992SOL     OW 6874   2.360   5.652   5.599
 1992SOL    HW1 6875   2.317   5.742   5.604
 1992SOL    HW2 6876   2.342   5.602   5.684
 1993SOL     OW 6877   3.119   3.016   3.945
 1993SOL    HW1 6878   3.101   3.114   3.934
 1993SOL    HW2 6879   3.148   2.978   3.857
 1994SOL     OW 6880   6.378   2.455   2.178
 1994SOL    HW1 6881   6.423   2.395   2.111
 1994SOL    HW2 6882   6.435   2.461   2.260
 1995SOL     OW 6883   3.858   2.135   1.418
 1995SOL    HW1 6884   3.871   2.036   1.424
 1995SOL    HW2 6885   3.873   2.176   1.508
 1996SOL     OW 6886   2.362   4.461   5.108
 1996SOL    HW1 6887   2.395   4.375   5.146
 1996SOL    HW2 6888   2.433   4.530   5.115
 1997SOL     OW 6889   5.785   6.177   3.602
 1997SOL    HW1 6890   5.705   6.166   3.542
 1997SOL    HW2 6891   5.765   6.245   3.672
 1998SOL     OW 6892   3.010   4.812   5.265
 1998SOL    HW1 6893   2.968   4.724   5.241
 1998SOL    HW2 6894   3.104   4.814   5.232
 1999SOL     OW 6895   2.242   1.759   2.202
 1999SOL    HW1 6896   2.195   1.673   2.223
 1999SOL    HW2 6897   2.334   1.739   2.168
 2000SOL     OW 6898   3.270   0.971   5.248
 2000SOL    HW1 6899   3.234   1.015   5.331
 2000SOL    HW2 6900   3.354   1.016   5.220
 2001SOL     OW 6901   2.364   2.916   6.715
 2001SOL    HW1 6902   2.286   2.887   6.658
 2001SOL    HW2 6903   2.430   2.842   6.720
 2002SOL     OW 6904   1.630   4.976   4.852
 2002SOL    HW1 6905   1.575   4.931   4.782
 2002SOL    HW2 6906   1.726   4.976   4.824
 2003SOL     OW 6907   6.748   4.155   3.560
 2003SOL    HW1 6908   6.791   4.070   3.529
 2003SOL    HW2 6909   6.737   4.217   3.482
 2004SOL     OW 6910   3.449   0.176   6.680
 2004SOL    HW1 6911   3.414   0.253   6.627
 2004SOL    HW2 6912   3.392   0.095   6.662
 2005SOL     OW 6913   2.566   6.120   5.047
 2005SOL    HW1 6914   2.533   6.040   5.097
 2005SOL    HW2 6915   2.579   6.097   4.950
 2006SOL     OW 6916   4.901   6.541   3.187
 2006SOL    HW1 6917   4.898   6.640   3.189
 2006SOL    HW2 6918   4.820   6.505   3.140
 2007SOL     OW 6919   6.408   5.166   6.842
 2007SOL    HW1 6920   6.360   5.232   6.784
 2007SOL    HW2 6921   6.465   5.214   6.908
 2008SOL     OW 6922   0.141   5.896   5.654
 2008SOL    HW1 6923   0.041   5.890   5.654
 2008SOL    HW2 6924   0.168   5.992   5.647
 2009SOL     OW 6925   1.074   0.273   6.852
 2009SOL    HW1 6926   1.003   0.342   6.837
 2009SOL    HW2 6927   1.052   0.221   6.935
 2010SOL     OW 6928   2.137   0.982   1.166
 2010SOL    HW1 6929   2.057   0.954   1.112
 2010SOL    HW2 6930   2.108   1.044   1.239
 2011SOL     OW 6931   0.247   1.914   4.933
 2011SOL    HW1 6932   0.227   1.957   4.845
 2011SOL    HW2 6933   0.212   1.820   4.932
 2012SOL     OW 6934   6.797   3.178   1.395
 2012SOL    HW1 6935   6.702   3.157   1.420
 2012SOL    HW2 6936   6.821   3.127   1.313
 2013SOL     OW 6937   4.267   2.110   1.954
 2013SOL    HW1 6938   4.253   2.166   2.036
 2013SOL    HW2 6939   4.345   2.145   1.903
 2014SOL     OW 6940   3.623   5.529   3.394
 2014SOL    HW1 6941   3.592   5.484   3.478
 2014SOL    HW2 6942   3.555   5.596   3.365
 2015SOL     OW 6943   3.262   6.218   0.246
 2015SOL    HW1 6944   3.350   6.209   0.293
 2015SOL    HW2 6945   3.236   6.314   0.242
 2016SOL     OW 6946   6.172   5.701   4.070
 2016SOL    HW1 6947   6.220   5.788   4.072
 2016SOL    HW2 6948   6.169   5.666   3.976
 2017SOL     OW 6949   2.385   5.119   2.269
 2017SOL    HW1 6950   2.297   5.128   2.316
 2017SOL    HW2 6951   2.420   5.026   2.282
 2018SOL     OW 6952   0.406   3.552   6.340
 2018SOL    HW1 6953   0.471   3.477   6.354
 2018SOL    HW2 6954   0.397   3.570   6.242
 2019SOL     OW 6955   5.428   1.093   2.824
 2019SOL    HW1 6956   5.353   1.040   2.785
 2019SOL    HW2 6957   5.393   1.151   2.898
 2020SOL     OW 6958   2.540   5.559   3.171
 2020SOL    HW1 6959   2.562   5.462   3.156
 2020SOL    HW2 6960   2.520   5.602   3.083
 2021SOL     OW 6961   2.384   6.366   1.883
 2021SOL    HW1 6962   2.351   6.305   1.810
 2021SOL    HW2 6963   2.455   6.319   1.936
 2022SOL     OW 6964   3.361   5.360   1.062
 2022SOL    HW1 6965   3.306   5.392   1.138
 2022SOL    HW2 6966   3.381   5.262   1.074
 2023SOL     OW 6967   6.629   2.172   6.232
 2023SOL    HW1 6968   6.563   2.097   6.229
 2023SOL    HW2 6969   6.587   2.252   6.273
 2024SOL     OW 6970   6.232   0.557   2.932
 2024SOL    HW1 6971   6.304   0.499   2.893
 2024SOL    HW2 6972   6.163   0.575   2.863
 2025SOL     OW 6973   6.275   1.027   0.995
 2025SOL    HW1 6974   6.326   0.945   0.966
 2025SOL    HW2 6975   6.302   1.105   0.939
 2026SOL     OW 6976   2.341   2.090   4.972
 2026SOL    HW1 6977   2.368   2.043   4.888
 2026SOL    HW2 6978   2.286   2.171   4.949
 2027SOL     OW 6979   6.891   0.624   2.120
 2027SOL    HW1 6980   6.953   0.607   2.197
 2027SOL    HW2 6981   6.901   0.719   2.090
 2028SOL     OW 6982   3.491   3.791   5.919
 2028SOL    HW1 6983   3.447   3.811   6.006
 2028SOL    HW2 6984   3.522   3.696   5.918
 2029SOL     OW 6985   1.974   0.561   0.683
 2029SOL    HW1 6986   1.888   0.589   0.641
 2029SOL    HW2 6987   2.050   0.592   0.626
 2030SOL     OW 6988   1.531   2.802   3.142
 2030SOL    HW1 6989   1.452   2.778   3.086
 2030SOL    HW2 6990   1.576   2.718   3.175
 2031SOL     OW 6991   6.278   0.160   2.814
 2031SOL    HW1 6992   6.235   0.114   2.892
 2031SOL    HW2 6993   6.358   0.108   2.784
 2032SOL     OW 6994   4.507   5.802   2.037
 2032SOL    HW1 6995   4.419   5.787   1.991
 2032SOL    HW2 6996   4.519   5.899   2.055
 2033SOL     OW 6997   6.897   5.091   6.630
 2033SOL    HW1 6998   6.882   5.168   6.692
 2033SOL    HW2 6999   6.994   5.069   6.626
 2034SOL     OW 7000   2.296   5.589   3.659
 2034SOL    HW1 7001   2.341   5.559   3.743
 2034SOL    HW2 7002   2.362   5.636   3.600
 2035SOL     OW 7003   0.537   2.201   2.548
 2035SOL    HW1 7004   0.617   2.148   2.576
 2035SOL    HW2 7005   0.566   2.278   2.491
 2036SOL     OW 7006   0.888   5.160   0.880
 2036SOL    HW1 7007   0.816   5.151   0.812
 2036SOL    HW2 7008   0.977   5.169   0.835
 2037SOL     OW 7009   0.130   1.762   7.002
 2037SOL    HW1 7010   0.079   1.774   0.068
 2037SOL    HW2 7011   0.176   1.673   7.003
 2038SOL     OW 7012   1.385   0.034   4.889
 2038SOL    HW1 7013   1.330   6.970   4.900
 2038SOL    HW2 7014   1.354   0.104   4.953
 2039SOL     OW 7015   0.971   5.711   2.058
 2039SOL    HW1 7016   0.980   5.692   1.960
 2039SOL    HW2 7017   0.963   5.626   2.108
 2040SOL     OW 7018   3.684   3.969   4.421
 2040SOL    HW1 7019   3.751   3.971   4.495
 2040SOL    HW2 7020   3.656   4.062   4.399
 2041SOL     OW 7021   5.076   2.790   6.730
 2041SOL    HW1 7022   4.998   2.735   6.701
 2041SOL    HW2 7023   5.088   2.867   6.667
 2042SOL     OW 7024   3.112   5.735   0.512
 2042SOL    HW1 7025   3.151   5.650   0.547
 2042SOL    HW2 7026   3.135   5.746   0.415
 2043SOL     OW 7027   4.442   5.567   2.129
 2043SOL    HW1 7028   4.477   5.657   2.105
 2043SOL    HW2 7029   4.478   5.499   2.065
 2044SOL     OW 7030   6.541   0.803   2.095
 2044SOL    HW1 7031   6.563   0.737   2.023
 2044SOL    HW2 7032   6.442   0.820   2.095
 2045SOL     OW 7033   3.168   6.509   6.544
 2045SOL    HW1 7034   3.187   6.418   6.582
 2045SOL    HW2 7035   3.255   6.553   6.518
 2046SOL     OW 7036   6.359   6.842   5.898
 2046SOL    HW1 7037   6.351   6.939   5.874
 2046SOL    HW2 7038   6.445   6.826   5.945
 2047SOL     OW 7039   4.954   2.588   0.228
 2047SOL    HW1 7040   4.888   2.650   0.270
 2047SOL    HW2 7041   4.968   2.615   0.133
 2048SOL     OW 7042   4.861   6.037   5.786
 2048SOL    HW1 7043   4.790   6.100   5.756
 2048SOL    HW2 7044   4.915   6.008   5.708
 2049SOL     OW 7045   4.668   5.404   0.083
 2049SOL    HW1 7046   4.605   5.367   0.014
 2049SOL    HW2 7047   4.619   5.465   0.145
 2050SOL     OW 7048   5.722   0.414   3.657
 2050SOL    HW1 7049   5.732   0.480   3.731
 2050SOL    HW2 7050   5.647   0.440   3.597
 2051SOL     OW 7051   2.932   5.401   1.023
 2051SOL    HW1 7052   2.970   5.454   0.947
 2051SOL    HW2 7053   2.957   5.305   1.013
 2052SOL     OW 7054   1.771   2.841   0.993
 2052SOL    HW1 7055   1.672   2.853   0.996
 2052SOL    HW2 7056   1.810   2.866   1.082
 2053SOL     OW 7057   5.056   1.469   1.017
 2053SOL    HW1 7058   5.152   1.475   0.993
 2053SOL    HW2 7059   5.047   1.431   1.109
 2054SOL     OW 7060   0.509   3.196   1.021
 2054SOL    HW1 7061   0.599   3.162   1.047
 2054SOL    HW2 7062   0.502   3.199   0.921
 2055SOL     OW 7063   6.312   1.678   3.777
 2055SOL    HW1 7064   6.328   1.657   3.680
 2055SOL    HW2 7065   6.394   1.721   3.815
 2056SOL     OW 7066   0.884   0.145   2.352
 2056SOL    HW1 7067   0.812   0.076   2.356
 2056SOL    HW2 7068   0.842   0.236   2.345
 2057SOL     OW 7069   5.554   2.873   4.473
 2057SOL    HW1 7070   5.620   2.931   4.521
 2057SOL    HW2 7071   5.596   2.784   4.453
 2058SOL     OW 7072   0.441   1.310   1.452
 2058SOL    HW1 7073   0.387   1.355   1.524
 2058SOL    HW2 7074   0.427   1.212   1.456
 2059SOL     OW 7075   1.308   0.690   6.653
 2059SOL    HW1 7076   1.377   0.624   6.683
 2059SOL    HW2 7077   1.297   0.684   6.553
 2060SOL     OW 7078   0.389   5.357   2.547
 2060SOL    HW1 7079   0.400   5.265   2.509
 2060SOL    HW2 7080   0.477   5.405   2.545
 2061SOL     OW 7081   1.437   0.943   0.888
 2061SOL    HW1 7082   1.477   0.920   0.799
 2061SOL    HW2 7083   1.510   0.943   0.957
 2062SOL     OW 7084   4.464   0.342   4.156
 2062SOL    HW1 7085   4.563   0.353   4.163
 2062SOL    HW2 7086   4.434   0.357   4.062
 2063SOL     OW 7087   2.547   1.729   1.046
 2063SOL    HW1 7088   2.539   1.721   1.145
 2063SOL    HW2 7089   2.457   1.749   1.007
 2064SOL     OW 7090   0.875   2.130   0.553
 2064SOL    HW1 7091   0.878   2.177   0.465
 2064SOL    HW2 7092   0.866   2.197   0.626
 2065SOL     OW 7093   6.939   3.591   2.620
 2065SOL    HW1 7094   6.996   3.538   2.558
 2065SOL    HW2 7095   6.925   3.539   2.705
 2066SOL     OW 7096   1.384   6.185   2.824
 2066SOL    HW1 7097   1.466   6.241   2.817
 2066SOL    HW2 7098   1.373   6.154   2.919
 2067SOL     OW 7099   0.531   6.778   0.250
 2067SOL    HW1 7100   0.498   6.813   0.162
 2067SOL    HW2 7101   0.508   6.681   0.258
 2068SOL     OW 7102   1.622   1.521   4.925
 2068SOL    HW1 7103   1.657   1.433   4.893
 2068SOL    HW2 7104   1.630   1.527   5.025
 2069SOL     OW 7105   0.985   1.941   1.765
 2069SOL    HW1 7106   0.960   2.034   1.792
 2069SOL    HW2 7107   0.909   1.898   1.717
 2070SOL     OW 7108   0.716   1.121   2.568
 2070SOL    HW1 7109   0.684   1.062   2.642
 2070SOL    HW2 7110   0.785   1.184   2.604
 2071SOL     OW 7111   2.324   6.544   5.588
 2071SOL    HW1 7112   2.325   6.643   5.601
 2071SOL    HW2 7113   2.393   6.502   5.647
 2072SOL     OW 7114   4.986   4.533   2.213
 2072SOL    HW1 7115   5.016   4.591   2.138
 2072SOL    HW2 7116   4.982   4.438   2.182
 2073SOL     OW 7117   3.364   6.805   5.178
 2073SOL    HW1 7118   3.403   6.895   5.160
 2073SOL    HW2 7119   3.310   6.775   5.099
 2074SOL     OW 7120   5.851   2.483   2.711
 2074SOL    HW1 7121   5.894   2.534   2.785
 2074SOL    HW2 7122   5.752   2.489   2.719
 2075SOL     OW 7123   3.681   3.042   6.001
 2075SOL    HW1 7124   3.650   3.018   5.909
 2075SOL    HW2 7125   3.672   3.140   6.016
 2076SOL     OW 7126   5.792   0.278   0.835
 2076SOL    HW1 7127   5.745   0.226   0.764
 2076SOL    HW2 7128   5.738   0.359   0.859
 2077SOL     OW 7129   4.582   1.231   3.825
 2077SOL    HW1 7130   4.526   1.259   3.748
 2077SOL    HW2 7131   4.534   1.251   3.911
 2078SOL     OW 7132   3.755   5.854   5.068
 2078SOL    HW1 7133   3.755   5.897   5.158
 2078SOL    HW2 7134   3.834   5.887   5.016
 2079SOL     OW 7135   6.289   0.126   3.769
 2079SOL    HW1 7136   6.224   0.163   3.835
 2079SOL    HW2 7137   6.377   0.110   3.814
 2080SOL     OW 7138   2.975   1.518   3.462
 2080SOL    HW1 7139   3.047   1.519   3.532
 2080SOL    HW2 7140   2.931   1.429   3.460
 2081SOL     OW 7141   1.199   6.494   4.312
 2081SOL    HW1 7142   1.198   6.427   4.386
 2081SOL    HW2 7143   1.124   6.475   4.249
 2082SOL     OW 7144   4.747   0.450   1.701
 2082SOL    HW1 7145   4.762   0.536   1.750
 2082SOL    HW2 7146   4.713   0.381   1.765
 2083SOL     OW 7147   3.973   4.290   5.943
 2083SOL    HW1 7148   3.950   4.213   5.883
 2083SOL    HW2 7149   3.915   4.287   6.024
 2084SOL     OW 7150   6.844   2.500   2.679
 2084SOL    HW1 7151   6.933   2.528   2.716
 2084SOL    HW2 7152   6.803   2.432   2.739
 2085SOL     OW 7153   5.735   6.647   6.339
 2085SOL    HW1 7154   5.707   6.698   6.258
 2085SOL    HW2 7155   5.689   6.683   6.419
 2086SOL     OW 7156   3.644   5.339   0.201
 2086SOL    HW1 7157   3.636   5.244   0.231
 2086SOL    HW2 7158   3.739   5.369   0.210
 2087SOL     OW 7159   6.056   6.108   3.609
 2087SOL    HW1 7160   5.956   6.102   3.605
 2087SOL    HW2 7161   6.088   6.172   3.540
 2088SOL     OW 7162   2.507   6.710   1.416
 2088SOL    HW1 7163   2.448   6.765   1.357
 2088SOL    HW2 7164   2.517   6.619   1.377
 2089SOL     OW 7165   2.222   1.062   0.265
 2089SOL    HW1 7166   2.218   1.020   0.355
 2089SOL    HW2 7167   2.172   1.005   0.199
 2090SOL     OW 7168   3.209   3.735   3.977
 2090SOL    HW1 7169   3.210   3.694   3.885
 2090SOL    HW2 7170   3.282   3.693   4.032
 2091SOL     OW 7171   2.334   4.717   1.089
 2091SOL    HW1 7172   2.281   4.771   1.024
 2091SOL    HW2 7173   2.411   4.771   1.123
 2092SOL     OW 7174   0.343   5.895   1.191
 2092SOL    HW1 7175   0.285   5.814   1.190
 2092SOL    HW2 7176   0.391   5.903   1.104
 2093SOL     OW 7177   1.006   2.698   1.626
 2093SOL    HW1 7178   1.099   2.724   1.652
 2093SOL    HW2 7179   1.010   2.617   1.567
 2094SOL     OW 7180   5.924   0.636   1.801
 2094SOL    HW1 7181   5.826   0.649   1.785
 2094SOL    HW2 7182   5.951   0.544   1.773
 2095SOL     OW 7183   6.388   5.107   4.900
 2095SOL    HW1 7184   6.475   5.113   4.948
 2095SOL    HW2 7185   6.318   5.071   4.962
 2096SOL     OW 7186   4.886   4.062   3.703
 2096SOL    HW1 7187   4.848   4.029   3.789
 2096SOL    HW2 7188   4.882   4.162   3.701
 2097SOL     OW 7189   6.441   3.746   6.436
 2097SOL    HW1 7190   6.426   3.800   6.519
 2097SOL    HW2 7191   6.515   3.787   6.383
 2098SOL     OW 7192   4.243   0.148   4.176
 2098SOL    HW1 7193   4.287   0.090   4.108
 2098SOL    HW2 7194   4.296   0.232   4.188
 2099SOL     OW 7195   2.711   1.817   3.300
 2099SOL    HW1 7196   2.782   1.857   3.242
 2099SOL    HW2 7197   2.625   1.867   3.286
 2100SOL     OW 7198   3.865   4.733   6.641
 2100SOL    HW1 7199   3.947   4.761   6.693
 2100SOL    HW2 7200   3.854   4.634   6.647
 2101SOL     OW 7201   6.555   0.148   2.189
 2101SOL    HW1 7202   6.654   0.153   2.200
 2101SOL    HW2 7203   6.531   0.170   2.094
 2102SOL     OW 7204   6.537   5.098   1.742
 2102SOL    HW1 7205   6.469   5.084   1.670
 2102SOL    HW2 7206   6.626   5.117   1.700
 2103SOL     OW 7207   3.620   3.304   6.194
 2103SOL    HW1 7208   3.578   3.265   6.276
 2103SOL    HW2 7209   3.549   3.330   6.129
 2104SOL     OW 7210   1.605   4.439   5.819
 2104SOL    HW1 7211   1.673   4.413   5.751
 2104SOL    HW2 7212   1.597   4.367   5.888
 2105SOL     OW 7213   5.526   6.416   1.973
 2105SOL    HW1 7214   5.489   6.489   2.030
 2105SOL    HW2 7215   5.453   6.354   1.944
 2106SOL     OW 7216   5.711   5.951   6.417
 2106SOL    HW1 7217   5.720   5.896   6.500
 2106SOL    HW2 7218   5.797   5.948   6.366
 2107SOL     OW 7219   2.523   4.999   0.521
 2107SOL    HW1 7220   2.435   5.045   0.512
 2107SOL    HW2 7221   2.539   4.974   0.616
 2108SOL     OW 7222   5.865   4.220   6.614
 2108SOL    HW1 7223   5.892   4.306   6.570
 2108SOL    HW2 7224   5.930   4.148   6.589
 2109SOL     OW 7225   5.513   5.621   2.461
 2109SOL    HW1 7226   5.585   5.691   2.459
 2109SOL    HW2 7227   5.428   5.660   2.427
 2110SOL     OW 7228   1.334   4.948   5.362
 2110SOL    HW1 7229   1.272   5.023   5.338
 2110SOL    HW2 7230   1.283   4.861   5.359
 2111SOL     OW 7231   1.994   2.419   0.199
 2111SOL    HW1 7232   1.924   2.464   0.144
 2111SOL    HW2 7233   1.986   2.319   0.188
 2112SOL     OW 7234   5.166   3.759   0.356
 2112SOL    HW1 7235   5.245   3.719   0.309
 2112SOL    HW2 7236   5.155   3.716   0.445
 2113SOL     OW 7237   6.602   1.977   3.054
 2113SOL    HW1 7238   6.572   1.912   2.984
 2113SOL    HW2 7239   6.554   1.958   3.140
 2114SOL     OW 7240   1.451   3.486   6.991
 2114SOL    HW1 7241   1.474   3.575   0.010
 2114SOL    HW2 7242   1.446   3.492   6.891
 2115SOL     OW 7243   3.524   5.549   1.717
 2115SOL    HW1 7244   3.574   5.619   1.666
 2115SOL    HW2 7245   3.571   5.531   1.804
 2116SOL     OW 7246   0.799   3.713   4.269
 2116SOL    HW1 7247   0.827   3.773   4.195
 2116SOL    HW2 7248   0.739   3.762   4.332
 2117SOL     OW 7249   6.909   5.763   6.117
 2117SOL    HW1 7250   6.919   5.861   6.097
 2117SOL    HW2 7251   6.834   5.749   6.182
 2118SOL     OW 7252   0.019   3.608   1.904
 2118SOL    HW1 7253   6.994   3.559   1.979
 2118SOL    HW2 7254   6.979   3.603   1.822
 2119SOL     OW 7255   3.985   6.215   0.490
 2119SOL    HW1 7256   3.893   6.240   0.519
 2119SOL    HW2 7257   4.022   6.145   0.550
 2120SOL     OW 7258   6.461   4.323   2.124
 2120SOL    HW1 7259   6.417   4.234   2.136
 2120SOL    HW2 7260   6.474   4.341   2.027
 2121SOL     OW 7261   0.735   3.702   4.842
 2121SOL    HW1 7262   0.679   3.647   4.780
 2121SOL    HW2 7263   0.692   3.707   4.931
 2122SOL     OW 7264   4.302   5.342   5.627
 2122SOL    HW1 7265   4.242   5.286   5.569
 2122SOL    HW2 7266   4.321   5.293   5.712
 2123SOL     OW 7267   4.758   4.673   3.435
 2123SOL    HW1 7268   4.804   4.620   3.363
 2123SOL    HW2 7269   4.784   4.769   3.427
 2124SOL     OW 7270   2.786   1.854   1.572
 2124SOL    HW1 7271   2.701   1.899   1.545
 2124SOL    HW2 7272   2.858   1.877   1.507
 2125SOL     OW 7273   5.126   5.824   0.756
 2125SOL    HW1 7274   5.092   5.765   0.683
 2125SOL    HW2 7275   5.059   5.896   0.774
 2126SOL     OW 7276   3.229   1.073   1.623
 2126SOL    HW1 7277   3.231   1.060   1.722
 2126SOL    HW2 7278   3.177   1.155   1.601
 2127SOL     OW 7279   5.409   3.105   5.101
 2127SOL    HW1 7280   5.478   3.158   5.052
 2127SOL    HW2 7281   5.347   3.062   5.035
 2128SOL     OW 7282   0.235   3.781   4.500
 2128SOL    HW1 7283   0.179   3.856   4.466
 2128SOL    HW2 7284   0.235   3.781   4.600
 2129SOL     OW 7285   4.381   2.315   5.343
 2129SOL    HW1 7286   4.442   2.255   5.291
 2129SOL    HW2 7287   4.414   2.409   5.338
 2130SOL     OW 7288   5.331   0.779   3.549
 2130SOL    HW1 7289   5.276   0.697   3.535
 2130SOL    HW2 7290   5.271   0.859   3.549
 2131SOL     OW 7291   5.301   1.767   6.340
 2131SOL    HW1 7292   5.304   1.716   6.425
 2131SOL    HW2 7293   5.385   1.820   6.330
 2132SOL     OW 7294   1.792   3.614   0.912
 2132SOL    HW1 7295   1.778   3.596   0.814
 2132SOL    HW2 7296   1.809   3.528   0.959
 2133SOL     OW 7297   2.311   4.234   6.184
 2133SOL    HW1 7298   2.249   4.167   6.225
 2133SOL    HW2 7299   2.302   4.321   6.233
 2134SOL     OW 7300   7.017   6.505   0.634
 2134SOL    HW1 7301   0.099   6.505   0.632
 2134SOL    HW2 7302   6.983   6.414   0.610
 2135SOL     OW 7303   6.850   4.822   5.330
 2135SOL    HW1 7304   6.836   4.876   5.413
 2135SOL    HW2 7305   6.946   4.797   5.322
 2136SOL     OW 7306   1.639   5.392   0.116
 2136SOL    HW1 7307   1.600   5.476   0.079
 2136SOL    HW2 7308   1.624   5.317   0.051
 2137SOL     OW 7309   1.211   6.588   3.613
 2137SOL    HW1 7310   1.176   6.663   3.558
 2137SOL    HW2 7311   1.146   6.512   3.611
 2138SOL     OW 7312   5.202   2.130   2.211
 2138SOL    HW1 7313   5.146   2.206   2.179
 2138SOL    HW2 7314   5.199   2.055   2.145
 2139SOL     OW 7315   2.530   6.596   5.774
 2139SOL    HW1 7316   2.570   6.526   5.715
 2139SOL    HW2 7317   2.602   6.638   5.830
 2140SOL     OW 7318   2.540   1.722   3.884
 2140SOL    HW1 7319   2.496   1.769   3.961
 2140SOL    HW2 7320   2.549   1.785   3.807
 2141SOL     OW 7321   6.515   3.476   3.536
 2141SOL    HW1 7322   6.591   3.488   3.471
 2141SOL    HW2 7323   6.465   3.393   3.513
 2142SOL     OW 7324   1.734   2.645   2.221
 2142SOL    HW1 7325   1.695   2.589   2.294
 2142SOL    HW2 7326   1.793   2.589   2.163
 2143SOL     OW 7327   0.144   5.335   5.918
 2143SOL    HW1 7328   0.133   5.296   5.827
 2143SOL    HW2 7329   0.078   5.410   5.930
 2144SOL     OW 7330   6.413   4.742   3.197
 2144SOL    HW1 7331   6.483   4.676   3.225
 2144SOL    HW2 7332   6.424   4.764   3.100
 2145SOL     OW 7333   4.093   1.484   2.966
 2145SOL    HW1 7334   4.049   1.565   2.926
 2145SOL    HW2 7335   4.192   1.495   2.963
 2146SOL     OW 7336   1.937   1.987   6.513
 2146SOL    HW1 7337   2.003   2.030   6.575
 2146SOL    HW2 7338   1.854   2.043   6.510
 2147SOL     OW 7339   5.888   6.455   4.565
 2147SOL    HW1 7340   5.979   6.451   4.606
 2147SOL    HW2 7341   5.881   6.390   4.490
 2148SOL     OW 7342   0.398   2.135   4.990
 2148SOL    HW1 7343   0.353   2.187   5.063
 2148SOL    HW2 7344   0.331   2.074   4.947
 2149SOL     OW 7345   0.789   6.199   0.002
 2149SOL    HW1 7346   0.868   6.228   6.965
 2149SOL    HW2 7347   0.780   6.099   7.014
 2150SOL     OW 7348   1.861   3.042   0.818
 2150SOL    HW1 7349   1.809   3.027   0.734
 2150SOL    HW2 7350   1.822   2.986   0.891
 2151SOL     OW 7351   0.549   4.714   6.558
 2151SOL    HW1 7352   0.579   4.797   6.605
 2151SOL    HW2 7353   0.612   4.639   6.579
 2152SOL     OW 7354   4.989   6.237   3.824
 2152SOL    HW1 7355   4.982   6.172   3.748
 2152SOL    HW2 7356   5.073   6.219   3.875
 2153SOL     OW 7357   5.285   0.066   3.781
 2153SOL    HW1 7358   5.234   0.151   3.766
 2153SOL    HW2 7359   5.227   0.001   3.830
 2154SOL     OW 7360   2.336   6.592   2.467
 2154SOL    HW1 7361   2.311   6.503   2.505
 2154SOL    HW2 7362   2.433   6.593   2.444
 2155SOL     OW 7363   4.330   1.038   1.059
 2155SOL    HW1 7364   4.305   1.053   0.964
 2155SOL    HW2 7365   4.362   1.123   1.099
 2156SOL     OW 7366   6.186   2.327   5.139
 2156SOL    HW1 7367   6.183   2.246   5.198
 2156SOL    HW2 7368   6.098   2.374   5.143
 2157SOL     OW 7369   4.092   6.493   4.679
 2157SOL    HW1 7370   4.103   6.403   4.638
 2157SOL    HW2 7371   4.169   6.512   4.740
 2158SOL     OW 7372   2.852   6.968   0.773
 2158SOL    HW1 7373   2.757   6.998   0.772
 2158SOL    HW2 7374   2.857   6.874   0.806
 2159SOL     OW 7375   0.437   0.698   5.850
 2159SOL    HW1 7376   0.517   0.758   5.860
 2159SOL    HW2 7377   0.365   0.747   5.801
 2160SOL     OW 7378   5.182   0.025   6.663
 2160SOL    HW1 7379   5.130   6.993   6.732
 2160SOL    HW2 7380   5.125   0.098   6.626
 2161SOL     OW 7381   1.689   4.054   0.679
 2161SOL    HW1 7382   1.597   4.074   0.648
 2161SOL    HW2 7383   1.753   4.119   0.639
 2162SOL     OW 7384   2.156   0.125   0.922
 2162SOL    HW1 7385   2.156   0.192   0.848
 2162SOL    HW2 7386   2.069   0.130   0.972
 2163SOL     OW 7387   1.488   3.213   3.538
 2163SOL    HW1 7388   1.392   3.196   3.517
 2163SOL    HW2 7389   1.546   3.161   3.475
 2164SOL     OW 7390   2.053   3.595   2.125
 2164SOL    HW1 7391   2.119   3.565   2.056
 2164SOL    HW2 7392   2.045   3.526   2.197
 2165SOL     OW 7393   6.326   1.296   4.873
 2165SOL    HW1 7394   6.342   1.198   4.886
 2165SOL    HW2 7395   6.351   1.346   4.956
 2166SOL     OW 7396   0.293   2.999   1.779
 2166SOL    HW1 7397   0.232   3.076   1.797
 2166SOL    HW2 7398   0.260   2.948   1.699
 2167SOL     OW 7399   1.265   2.330   2.987
 2167SOL    HW1 7400   1.212   2.366   3.063
 2167SOL    HW2 7401   1.361   2.320   3.015
 2168SOL     OW 7402   1.880   2.128   3.449
 2168SOL    HW1 7403   1.803   2.104   3.508
 2168SOL    HW2 7404   1.935   2.047   3.432
 2169SOL     OW 7405   6.670   0.247   1.136
 2169SOL    HW1 7406   6.703   0.260   1.230
 2169SOL    HW2 7407   6.740   0.202   1.082
 2170SOL     OW 7408   1.440   3.428   6.391
 2170SOL    HW1 7409   1.412   3.334   6.372
 2170SOL    HW2 7410   1.479   3.469   6.308
 2171SOL     OW 7411   6.959   5.903   1.039
 2171SOL    HW1 7412   6.908   5.817   1.041
 2171SOL    HW2 7413   6.929   5.962   1.114
 2172SOL     OW 7414   2.683   2.370   4.927
 2172SOL    HW1 7415   2.617   2.392   4.999
 2172SOL    HW2 7416   2.673   2.275   4.900
 2173SOL     OW 7417   4.722   0.632   4.800
 2173SOL    HW1 7418   4.793   0.562   4.806
 2173SOL    HW2 7419   4.644   0.604   4.856
 2174SOL     OW 7420   5.477   0.591   6.238
 2174SOL    HW1 7421   5.554   0.545   6.193
 2174SOL    HW2 7422   5.443   0.533   6.312
 2175SOL     OW 7423   3.504   3.406   5.788
 2175SOL    HW1 7424   3.468   3.472   5.722
 2175SOL    HW2 7425   3.557   3.454   5.857
 2176SOL     OW 7426   5.863   1.995   3.304
 2176SOL    HW1 7427   5.828   2.089   3.300
 2176SOL    HW2 7428   5.894   1.974   3.396
 2177SOL     OW 7429   0.886   1.019   4.864
 2177SOL    HW1 7430   0.812   0.996   4.800
 2177SOL    HW2 7431   0.852   1.081   4.934
 2178SOL     OW 7432   1.748   2.563   2.658
 2178SOL    HW1 7433   1.672   2.603   2.709
 2178SOL    HW2 7434   1.718   2.539   2.566
 2179SOL     OW 7435   1.221   3.823   0.012
 2179SOL    HW1 7436   1.180   3.910   0.038
 2179SOL    HW2 7437   1.279   3.836   6.950
 2180SOL     OW 7438   0.391   5.706   2.715
 2180SOL    HW1 7439   0.443   5.688   2.631
 2180SOL    HW2 7440   0.294   5.692   2.698
 2181SOL     OW 7441   4.146   4.813   4.521
 2181SOL    HW1 7442   4.214   4.751   4.483
 2181SOL    HW2 7443   4.136   4.893   4.462
 2182SOL     OW 7444   6.672   6.279   1.274
 2182SOL    HW1 7445   6.614   6.198   1.266
 2182SOL    HW2 7446   6.637   6.351   1.213
 2183SOL     OW 7447   3.253   3.169   6.545
 2183SOL    HW1 7448   3.160   3.150   6.515
 2183SOL    HW2 7449   3.285   3.094   6.603
 2184SOL     OW 7450   6.187   1.655   0.493
 2184SOL    HW1 7451   6.156   1.740   0.449
 2184SOL    HW2 7452   6.154   1.652   0.587
 2185SOL     OW 7453   0.864   1.304   6.122
 2185SOL    HW1 7454   0.893   1.353   6.204
 2185SOL    HW2 7455   0.777   1.343   6.090
 2186SOL     OW 7456   6.599   6.161   5.409
 2186SOL    HW1 7457   6.622   6.069   5.378
 2186SOL    HW2 7458   6.683   6.212   5.427
 2187SOL     OW 7459   5.639   4.452   1.689
 2187SOL    HW1 7460   5.659   4.438   1.786
 2187SOL    HW2 7461   5.695   4.526   1.653
 2188SOL     OW 7462   3.031   0.810   0.818
 2188SOL    HW1 7463   3.073   0.822   0.908
 2188SOL    HW2 7464   2.980   0.892   0.794
 2189SOL     OW 7465   1.893   0.597   2.562
 2189SOL    HW1 7466   1.933   0.536   2.494
 2189SOL    HW2 7467   1.799   0.569   2.580
 2190SOL     OW 7468   6.328   4.595   2.125
 2190SOL    HW1 7469   6.287   4.592   2.034
 2190SOL    HW2 7470   6.382   4.513   2.140
 2191SOL     OW 7471   3.645   0.464   6.784
 2191SOL    HW1 7472   3.596   0.542   6.744
 2191SOL    HW2 7473   3.682   0.407   6.711
 2192SOL     OW 7474   5.086   1.962   1.917
 2192SOL    HW1 7475   5.002   1.998   1.959
 2192SOL    HW2 7476   5.126   2.031   1.857
 2193SOL     OW 7477   2.126   0.662   4.868
 2193SOL    HW1 7478   2.080   0.749   4.850
 2193SOL    HW2 7479   2.136   0.650   4.967
 2194SOL     OW 7480   0.295   4.115   5.228
 2194SOL    HW1 7481   0.223   4.051   5.254
 2194SOL    HW2 7482   0.384   4.071   5.240
 2195SOL     OW 7483   0.026   3.935   4.915
 2195SOL    HW1 7484   0.082   4.015   4.892
 2195SOL    HW2 7485   6.965   3.965   4.968
 2196SOL     OW 7486   4.150   0.571   6.564
 2196SOL    HW1 7487   4.077   0.567   6.633
 2196SOL    HW2 7488   4.143   0.490   6.506
 2197SOL     OW 7489   3.282   5.457   6.596
 2197SOL    HW1 7490   3.309   5.552   6.613
 2197SOL    HW2 7491   3.200   5.436   6.649
 2198SOL     OW 7492   1.147   1.130   6.914
 2198SOL    HW1 7493   1.215   1.103   6.846
 2198SOL    HW2 7494   1.056   1.132   6.871
 2199SOL     OW 7495   4.126   6.789   3.826
 2199SOL    HW1 7496   4.044   6.836   3.858
 2199SOL    HW2 7497   4.203   6.812   3.885
 2200SOL     OW 7498   2.249   2.543   4.337
 2200SOL    HW1 7499   2.324   2.581   4.283
 2200SOL    HW2 7500   2.179   2.506   4.276
 2201SOL     OW 7501   5.464   4.033   4.900
 2201SOL    HW1 7502   5.560   4.004   4.892
 2201SOL    HW2 7503   5.435   4.028   4.995
 2202SOL     OW 7504   3.377   6.480   3.441
 2202SOL    HW1 7505   3.371   6.380   3.444
 2202SOL    HW2 7506   3.473   6.508   3.433
 2203SOL     OW 7507   2.404   5.612   1.155
 2203SOL    HW1 7508   2.503   5.604   1.141
 2203SOL    HW2 7509   2.355   5.562   1.084
 2204SOL     OW 7510   5.609   2.522   1.131
 2204SOL    HW1 7511   5.641   2.431   1.160
 2204SOL    HW2 7512   5.588   2.520   1.033
 2205SOL     OW 7513   5.737   5.927   0.911
 2205SOL    HW1 7514   5.748   5.922   1.011
 2205SOL    HW2 7515   5.822   5.897   0.867
 2206SOL     OW 7516   3.661   2.485   5.736
 2206SOL    HW1 7517   3.743   2.442   5.774
 2206SOL    HW2 7518   3.661   2.473   5.637
 2207SOL     OW 7519   4.690   5.584   1.807
 2207SOL    HW1 7520   4.603   5.628   1.829
 2207SOL    HW2 7521   4.729   5.627   1.726
 2208SOL     OW 7522   0.007   6.510   2.932
 2208SOL    HW1 7523   7.005   6.516   3.029
 2208SOL    HW2 7524   0.006   6.601   2.892
 2209SOL     OW 7525   3.065   5.468   3.190
 2209SOL    HW1 7526   2.968   5.478   3.166
 2209SOL    HW2 7527   3.101   5.558   3.216
 2210SOL     OW 7528   5.312   0.095   1.419
 2210SOL    HW1 7529   5.226   0.054   1.447
 2210SOL    HW2 7530   5.376   0.023   1.392
 2211SOL     OW 7531   1.306   2.137   1.411
 2211SOL    HW1 7532   1.316   2.055   1.468
 2211SOL    HW2 7533   1.290   2.216   1.470
 2212SOL     OW 7534   2.876   5.898   6.175
 2212SOL    HW1 7535   2.921   5.934   6.094
 2212SOL    HW2 7536   2.922   5.814   6.204
 2213SOL     OW 7537   3.542   1.572   4.511
 2213SOL    HW1 7538   3.456   1.555   4.560
 2213SOL    HW2 7539   3.540   1.664   4.472
 2214SOL     OW 7540   4.176   4.157   6.514
 2214SOL    HW1 7541   4.127   4.074   6.539
 2214SOL    HW2 7542   4.230   4.189   6.592
 2215SOL     OW 7543   5.020   5.928   0.255
 2215SOL    HW1 7544   5.011   5.931   0.354
 2215SOL    HW2 7545   5.040   5.835   0.225
 2216SOL     OW 7546   0.388   5.767   0.077
 2216SOL    HW1 7547   0.338   5.800   7.015
 2216SOL    HW2 7548   0.485   5.764   0.057
 2217SOL     OW 7549   3.983   1.506   3.651
 2217SOL    HW1 7550   3.928   1.484   3.731
 2217SOL    HW2 7551   4.073   1.464   3.660
 2218SOL     OW 7552   6.054   5.470   5.338
 2218SOL    HW1 7553   6.137   5.524   5.349
 2218SOL    HW2 7554   5.986   5.524   5.287
 2219SOL     OW 7555   5.311   2.023   0.417
 2219SOL    HW1 7556   5.379   2.069   0.360
 2219SOL    HW2 7557   5.306   1.926   0.392
 2220SOL     OW 7558   6.613   6.201   4.373
 2220SOL    HW1 7559   6.517   6.176   4.381
 2220SOL    HW2 7560   6.624   6.269   4.301
 2221SOL     OW 7561   5.625   0.711   4.291
 2221SOL    HW1 7562   5.654   0.807   4.282
 2221SOL    HW2 7563   5.694   0.652   4.249
 2222SOL     OW 7564   3.332   0.803   3.399
 2222SOL    HW1 7565   3.236   0.773   3.393
 2222SOL    HW2 7566   3.340   0.897   3.366
 2223SOL     OW 7567   0.842   0.166   5.226
 2223SOL    HW1 7568   0.891   0.098   5.171
 2223SOL    HW2 7569   0.881   0.256   5.211
 2224SOL     OW 7570   5.420   4.555   6.739
 2224SOL    HW1 7571   5.444   4.525   6.647
 2224SOL    HW2 7572   5.372   4.481   6.787
 2225SOL     OW 7573   6.424   6.646   0.948
 2225SOL    HW1 7574   6.451   6.663   0.854
 2225SOL    HW2 7575   6.325   6.654   0.957
 2226SOL     OW 7576   2.544   3.583   0.113
 2226SOL    HW1 7577   2.626   3.535   0.081
 2226SOL    HW2 7578   2.567   3.680   0.128
 2227SOL     OW 7579   3.924   2.150   2.069
 2227SOL    HW1 7580   3.829   2.160   2.040
 2227SOL    HW2 7581   3.927   2.122   2.164
 2228SOL     OW 7582   5.531   6.213   6.476
 2228SOL    HW1 7583   5.523   6.260   6.564
 2228SOL    HW2 7584   5.566   6.120   6.491
 2229SOL     OW 7585   3.040   3.183   4.222
 2229SOL    HW1 7586   3.039   3.100   4.166
 2229SOL    HW2 7587   3.068   3.160   4.315
 2230SOL     OW 7588   6.310   0.421   6.144
 2230SOL    HW1 7589   6.404   0.439   6.118
 2230SOL    HW2 7590   6.297   0.323   6.162
 2231SOL     OW 7591   1.726   0.399   6.234
 2231SOL    HW1 7592   1.775   0.484   6.215
 2231SOL    HW2 7593   1.684   0.365   6.150
 2232SOL     OW 7594   1.919   1.064   6.118
 2232SOL    HW1 7595   1.978   1.081   6.197
 2232SOL    HW2 7596   1.836   1.017   6.148
 2233SOL     OW 7597   3.145   4.681   1.191
 2233SOL    HW1 7598   3.116   4.698   1.285
 2233SOL    HW2 7599   3.072   4.709   1.128
 2234SOL     OW 7600   5.159   1.990   1.504
 2234SOL    HW1 7601   5.203   2.022   1.588
 2234SOL    HW2 7602   5.066   2.027   1.500
 2235SOL     OW 7603   0.776   2.067   2.553
 2235SOL    HW1 7604   0.758   2.058   2.455
 2235SOL    HW2 7605   0.858   2.122   2.568
 2236SOL     OW 7606   2.838   5.203   5.289
 2236SOL    HW1 7607   2.791   5.118   5.313
 2236SOL    HW2 7608   2.770   5.271   5.259
 2237SOL     OW 7609   6.774   6.259   6.290
 2237SOL    HW1 7610   6.689   6.207   6.286
 2237SOL    HW2 7611   6.808   6.259   6.384
 2238SOL     OW 7612   5.986   3.631   2.456
 2238SOL    HW1 7613   5.947   3.621   2.547
 2238SOL    HW2 7614   5.973   3.725   2.424
 2239SOL     OW 7615   4.240   0.263   2.780
 2239SOL    HW1 7616   4.331   0.279   2.818
 2239SOL    HW2 7617   4.186   0.210   2.845
 2240SOL     OW 7618   4.811   5.359   2.469
 2240SOL    HW1 7619   4.751   5.419   2.523
 2240SOL    HW2 7620   4.904   5.395   2.471
 2241SOL     OW 7621   0.797   1.766   2.624
 2241SOL    HW1 7622   0.714   1.787   2.573
 2241SOL    HW2 7623   0.791   1.674   2.661
 2242SOL     OW 7624   5.512   2.355   4.562
 2242SOL    HW1 7625   5.440   2.367   4.630
 2242SOL    HW2 7626   5.591   2.410   4.588
 2243SOL     OW 7627   2.539   6.972   0.584
 2243SOL    HW1 7628   2.538   7.006   0.678
 2243SOL    HW2 7629   2.462   6.909   0.571
 2244SOL     OW 7630   2.803   1.613   1.346
 2244SOL    HW1 7631   2.862   1.692   1.329
 2244SOL    HW2 7632   2.852   1.529   1.321
 2245SOL     OW 7633   0.527   0.539   6.885
 2245SOL    HW1 7634   0.586   0.617   6.865
 2245SOL    HW2 7635   0.574   0.478   6.949
 2246SOL     OW 7636   4.693   1.786   5.852
 2246SOL    HW1 7637   4.602   1.757   5.823
 2246SOL    HW2 7638   4.732   1.847   5.784
 2247SOL     OW 7639   2.873   3.491   1.925
 2247SOL    HW1 7640   2.950   3.454   1.873
 2247SOL    HW2 7641   2.791   3.491   1.867
 2248SOL     OW 7642   5.173   3.332   4.834
 2248SOL    HW1 7643   5.248   3.336   4.768
 2248SOL    HW2 7644   5.090   3.297   4.790
 2249SOL     OW 7645   2.494   6.188   3.656
 2249SOL    HW1 7646   2.558   6.264   3.646
 2249SOL    HW2 7647   2.501   6.150   3.748
 2250SOL     OW 7648   4.215   5.986   6.172
 2250SOL    HW1 7649   4.251   6.067   6.220
 2250SOL    HW2 7650   4.141   6.014   6.111
 2251SOL     OW 7651   4.511   6.433   4.960
 2251SOL    HW1 7652   4.561   6.493   4.898
 2251SOL    HW2 7653   4.575   6.383   5.018
 2252SOL     OW 7654   3.802   0.904   2.364
 2252SOL    HW1 7655   3.758   0.828   2.411
 2252SOL    HW2 7656   3.750   0.988   2.380
 2253SOL     OW 7657   0.616   3.855   1.721
 2253SOL    HW1 7658   0.689   3.798   1.684
 2253SOL    HW2 7659   0.538   3.798   1.745
 2254SOL     OW 7660   3.474   2.866   2.868
 2254SOL    HW1 7661   3.484   2.854   2.967
 2254SOL    HW2 7662   3.402   2.805   2.835
 2255SOL     OW 7663   1.066   2.429   6.530
 2255SOL    HW1 7664   1.153   2.459   6.569
 2255SOL    HW2 7665   1.070   2.331   6.511
 2256SOL     OW 7666   5.540   0.631   1.295
 2256SOL    HW1 7667   5.476   0.629   1.371
 2256SOL    HW2 7668   5.614   0.565   1.311
 2257SOL     OW 7669   0.158   0.249   5.416
 2257SOL    HW1 7670   0.172   0.185   5.492
 2257SOL    HW2 7671   0.201   0.336   5.438
 2258SOL     OW 7672   2.273   6.775   4.297
 2258SOL    HW1 7673   2.309   6.784   4.204
 2258SOL    HW2 7674   2.314   6.844   4.356
 2259SOL     OW 7675   6.071   1.094   4.334
 2259SOL    HW1 7676   6.109   1.168   4.279
 2259SOL    HW2 7677   6.067   1.010   4.280
 2260SOL     OW 7678   1.191   3.995   0.663
 2260SOL    HW1 7679   1.210   3.913   0.717
 2260SOL    HW2 7680   1.092   4.012   0.662
 2261SOL     OW 7681   5.182   4.684   6.427
 2261SOL    HW1 7682   5.246   4.736   6.484
 2261SOL    HW2 7683   5.122   4.747   6.378
 2262SOL     OW 7684   6.810   6.791   4.301
 2262SOL    HW1 7685   6.887   6.809   4.239
 2262SOL    HW2 7686   6.784   6.876   4.347
 2263SOL     OW 7687   1.902   4.342   6.983
 2263SOL    HW1 7688   1.836   4.416   6.994
 2263SOL    HW2 7689   1.854   4.259   6.954
 2264SOL     OW 7690   2.198   0.224   5.723
 2264SOL    HW1 7691   2.185   0.255   5.630
 2264SOL    HW2 7692   2.182   0.125   5.728
 2265SOL     OW 7693   6.939   6.323   4.193
 2265SOL    HW1 7694   6.845   6.354   4.207
 2265SOL    HW2 7695   6.945   6.272   4.108
 2266SOL     OW 7696   4.675   2.847   6.571
 2266SOL    HW1 7697   4.751   2.782   6.574
 2266SOL    HW2 7698   4.639   2.852   6.478
 2267SOL     OW 7699   5.938   3.041   4.642
 2267SOL    HW1 7700   5.999   2.973   4.683
 2267SOL    HW2 7701   5.923   3.020   4.546
 2268SOL     OW 7702   1.134   6.463   4.783
 2268SOL    HW1 7703   1.203   6.509   4.728
 2268SOL    HW2 7704   1.083   6.530   4.836
 2269SOL     OW 7705   1.832   2.230   5.587
 2269SOL    HW1 7706   1.748   2.258   5.634
 2269SOL    HW2 7707   1.858   2.300   5.521
 2270SOL     OW 7708   4.970   1.692   6.660
 2270SOL    HW1 7709   4.887   1.747   6.647
 2270SOL    HW2 7710   4.961   1.608   6.607
 2271SOL     OW 7711   4.064   5.999   5.505
 2271SOL    HW1 7712   3.979   5.973   5.552
 2271SOL    HW2 7713   4.120   5.919   5.489
 2272SOL     OW 7714   5.986   1.341   6.046
 2272SOL    HW1 7715   6.037   1.261   6.078
 2272SOL    HW2 7716   6.050   1.405   6.003
 2273SOL     OW 7717   0.836   3.244   3.441
 2273SOL    HW1 7718   0.851   3.152   3.404
 2273SOL    HW2 7719   0.917   3.300   3.425
 2274SOL     OW 7720   1.154   0.860   0.319
 2274SOL    HW1 7721   1.201   0.935   0.368
 2274SOL    HW2 7722   1.155   0.879   0.221
 2275SOL     OW 7723   5.653   3.955   3.236
 2275SOL    HW1 7724   5.586   3.963   3.163
 2275SOL    HW2 7725   5.707   4.039   3.242
 2276SOL     OW 7726   1.908   2.027   1.181
 2276SOL    HW1 7727   1.835   1.962   1.201
 2276SOL    HW2 7728   1.896   2.109   1.236
 2277SOL     OW 7729   4.023   3.105   3.590
 2277SOL    HW1 7730   3.975   3.113   3.502
 2277SOL    HW2 7731   4.122   3.109   3.574
 2278SOL     OW 7732   0.483   2.484   3.947
 2278SOL    HW1 7733   0.545   2.443   3.880
 2278SOL    HW2 7734   0.388   2.463   3.921
 2279SOL     OW 7735   1.259   4.742   5.885
 2279SOL    HW1 7736   1.183   4.741   5.949
 2279SOL    HW2 7737   1.247   4.668   5.819
 2280SOL     OW 7738   5.211   2.112   5.433
 2280SOL    HW1 7739   5.155   2.187   5.396
 2280SOL    HW2 7740   5.246   2.138   5.522
 2281SOL     OW 7741   5.627   6.794   2.507
 2281SOL    HW1 7742   5.553   6.830   2.449
 2281SOL    HW2 7743   5.591   6.722   2.565
 2282SOL     OW 7744   3.672   5.568   5.929
 2282SOL    HW1 7745   3.754   5.608   5.887
 2282SOL    HW2 7746   3.694   5.538   6.022
 2283SOL     OW 7747   0.086   0.678   4.617
 2283SOL    HW1 7748   0.033   0.711   4.696
 2283SOL    HW2 7749   0.025   0.669   4.538
 2284SOL     OW 7750   1.365   3.601   6.596
 2284SOL    HW1 7751   1.272   3.601   6.635
 2284SOL    HW2 7752   1.368   3.540   6.518
 2285SOL     OW 7753   1.721   4.081   6.961
 2285SOL    HW1 7754   1.761   3.996   6.996
 2285SOL    HW2 7755   1.669   4.126   0.015
 2286SOL     OW 7756   4.321   4.999   2.735
 2286SOL    HW1 7757   4.337   4.911   2.780
 2286SOL    HW2 7758   4.350   5.073   2.794
 2287SOL     OW 7759   1.307   1.510   4.248
 2287SOL    HW1 7760   1.230   1.464   4.203
 2287SOL    HW2 7761   1.317   1.602   4.210
 2288SOL     OW 7762   6.638   5.433   2.652
 2288SOL    HW1 7763   6.590   5.388   2.578
 2288SOL    HW2 7764   6.575   5.450   2.728
 2289SOL     OW 7765   0.688   5.201   0.427
 2289SOL    HW1 7766   0.620   5.260   0.384
 2289SOL    HW2 7767   0.697   5.226   0.524
 2290SOL     OW 7768   0.852   5.211   6.671
 2290SOL    HW1 7769   0.952   5.218   6.668
 2290SOL    HW2 7770   0.825   5.166   6.756
 2291SOL     OW 7771   2.068   1.741   0.237
 2291SOL    HW1 7772   2.114   1.716   0.322
 2291SOL    HW2 7773   2.060   1.841   0.232
 2292SOL     OW 7774   2.380   0.898   4.262
 2292SOL    HW1 7775   2.307   0.913   4.329
 2292SOL    HW2 7776   2.378   0.802   4.233
 2293SOL     OW 7777   5.440   3.921   2.457
 2293SOL    HW1 7778   5.417   3.842   2.513
 2293SOL    HW2 7779   5.405   3.907   2.364
 2294SOL     OW 7780   4.422   6.287   0.390
 2294SOL    HW1 7781   4.471   6.290   0.302
 2294SOL    HW2 7782   4.481   6.245   0.459
 2295SOL     OW 7783   0.836   1.534   2.040
 2295SOL    HW1 7784   0.815   1.581   2.126
 2295SOL    HW2 7785   0.920   1.572   2.002
 2296SOL     OW 7786   3.037   6.670   0.425
 2296SOL    HW1 7787   2.949   6.625   0.437
 2296SOL    HW2 7788   3.072   6.699   0.514
 2297SOL     OW 7789   4.416   6.600   6.737
 2297SOL    HW1 7790   4.371   6.682   6.771
 2297SOL    HW2 7791   4.355   6.521   6.750
 2298SOL     OW 7792   4.353   3.089   6.908
 2298SOL    HW1 7793   4.390   3.018   6.968
 2298SOL    HW2 7794   4.342   3.053   6.816
 2299SOL     OW 7795   4.511   6.896   0.415
 2299SOL    HW1 7796   4.531   6.815   0.470
 2299SOL    HW2 7797   4.595   6.949   0.402
 2300SOL     OW 7798   1.254   4.304   1.083
 2300SOL    HW1 7799   1.154   4.301   1.092
 2300SOL    HW2 7800   1.283   4.241   1.012
 2301SOL     OW 7801   4.054   3.720   1.872
 2301SOL    HW1 7802   4.017   3.809   1.899
 2301SOL    HW2 7803   3.980   3.652   1.872
 2302SOL     OW 7804   2.205   5.148   2.489
 2302SOL    HW1 7805   2.216   5.050   2.508
 2302SOL    HW2 7806   2.282   5.198   2.528
 2303SOL     OW 7807   6.872   3.142   5.197
 2303SOL    HW1 7808   6.796   3.124   5.134
 2303SOL    HW2 7809   6.887   3.062   5.256
 2304SOL     OW 7810   2.220   1.325   4.499
 2304SOL    HW1 7811   2.308   1.280   4.485
 2304SOL    HW2 7812   2.233   1.403   4.561
 2305SOL     OW 7813   4.055   4.598   1.808
 2305SOL    HW1 7814   4.148   4.577   1.836
 2305SOL    HW2 7815   4.016   4.519   1.760
 2306SOL     OW 7816   0.145   4.086   0.079
 2306SOL    HW1 7817   0.222   4.103   0.141
 2306SOL    HW2 7818   0.075   4.034   0.127
 2307SOL     OW 7819   0.478   1.703   2.543
 2307SOL    HW1 7820   0.471   1.718   2.642
 2307SOL    HW2 7821   0.473   1.605   2.524
 2308SOL     OW 7822   0.240   6.775   0.402
 2308SOL    HW1 7823   0.334   6.801   0.425
 2308SOL    HW2 7824   0.225   6.786   0.304
 2309SOL     OW 7825   3.357   4.936   5.704
 2309SOL    HW1 7826   3.305   5.019   5.725
 2309SOL    HW2 7827   3.439   4.933   5.761
 2310SOL     OW 7828   5.588   1.437   2.762
 2310SOL    HW1 7829   5.585   1.517   2.701
 2310SOL    HW2 7830   5.557   1.464   2.853
 2311SOL     OW 7831   2.515   0.434   2.576
 2311SOL    HW1 7832   2.575   0.494   2.523
 2311SOL    HW2 7833   2.454   0.384   2.514
 2312SOL     OW 7834   2.206   1.066   2.518
 2312SOL    HW1 7835   2.271   1.022   2.456
 2312SOL    HW2 7836   2.207   1.019   2.606
 2313SOL     OW 7837   5.092   3.607   1.758
 2313SOL    HW1 7838   5.013   3.644   1.807
 2313SOL    HW2 7839   5.077   3.510   1.738
 2314SOL     OW 7840   6.796   6.292   2.912
 2314SOL    HW1 7841   6.796   6.300   3.011
 2314SOL    HW2 7842   6.715   6.337   2.874
 2315SOL     OW 7843   4.249   5.778   4.625
 2315SOL    HW1 7844   4.262   5.678   4.625
 2315SOL    HW2 7845   4.338   5.823   4.632
 2316SOL     OW 7846   2.754   1.390   5.688
 2316SOL    HW1 7847   2.658   1.359   5.694
 2316SOL    HW2 7848   2.813   1.322   5.731
 2317SOL     OW 7849   0.083   5.390   2.846
 2317SOL    HW1 7850   0.096   5.486   2.871
 2317SOL    HW2 7851   0.086   5.381   2.746
 2318SOL     OW 7852   0.984   4.841   4.932
 2318SOL    HW1 7853   0.931   4.825   4.849
 2318SOL    HW2 7854   0.976   4.761   4.992
 2319SOL     OW 7855   1.692   5.137   3.635
 2319SOL    HW1 7856   1.729   5.061   3.689
 2319SOL    HW2 7857   1.720   5.126   3.539
 2320SOL     OW 7858   0.847   1.970   5.043
 2320SOL    HW1 7859   0.880   2.045   5.100
 2320SOL    HW2 7860   0.920   1.940   4.982
 2321SOL     OW 7861   1.803   4.458   5.387
 2321SOL    HW1 7862   1.800   4.558   5.375
 2321SOL    HW2 7863   1.781   4.413   5.301
 2322SOL     OW 7864   1.564   3.878   2.131
 2322SOL    HW1 7865   1.655   3.858   2.095
 2322SOL    HW2 7866   1.540   3.972   2.109
 2323SOL     OW 7867   2.646   5.276   0.853
 2323SOL    HW1 7868   2.644   5.356   0.793
 2323SOL    HW2 7869   2.710   5.208   0.815
 2324SOL     OW 7870   6.449   5.062   2.837
 2324SOL    HW1 7871   6.433   5.109   2.924
 2324SOL    HW2 7872   6.440   4.963   2.851
 2325SOL     OW 7873   6.506   5.481   1.841
 2325SOL    HW1 7874   6.463   5.461   1.753
 2325SOL    HW2 7875   6.441   5.531   1.899
 2326SOL     OW 7876   1.898   0.351   0.431
 2326SOL    HW1 7877   1.862   0.443   0.439
 2326SOL    HW2 7878   1.895   0.322   0.335
 2327SOL     OW 7879   0.213   6.765   2.193
 2327SOL    HW1 7880   0.249   6.700   2.259
 2327SOL    HW2 7881   0.119   6.740   2.169
 2328SOL     OW 7882   2.118   3.548   2.733
 2328SOL    HW1 7883   2.095   3.645   2.747
 2328SOL    HW2 7884   2.181   3.540   2.656
 2329SOL     OW 7885   0.324   5.400   3.015
 2329SOL    HW1 7886   0.412   5.370   2.977
 2329SOL    HW2 7887   0.250   5.361   2.960
 2330SOL     OW 7888   6.518   3.278   1.066
 2330SOL    HW1 7889   6.604   3.248   1.024
 2330SOL    HW2 7890   6.506   3.376   1.050
 2331SOL     OW 7891   4.763   5.717   1.583
 2331SOL    HW1 7892   4.670   5.726   1.547
 2331SOL    HW2 7893   4.825   5.691   1.509
 2332SOL     OW 7894   6.091   6.849   5.907
 2332SOL    HW1 7895   6.075   6.943   5.875
 2332SOL    HW2 7896   6.187   6.825   5.892
 2333SOL     OW 7897   0.613   4.484   2.265
 2333SOL    HW1 7898   0.515   4.490   2.250
 2333SOL    HW2 7899   0.645   4.568   2.310
 2334SOL     OW 7900   2.611   1.701   6.455
 2334SOL    HW1 7901   2.676   1.761   6.502
 2334SOL    HW2 7902   2.519   1.740   6.459
 2335SOL     OW 7903   6.672   1.347   3.216
 2335SOL    HW1 7904   6.645   1.307   3.304
 2335SOL    HW2 7905   6.768   1.325   3.198
 2336SOL     OW 7906   1.525   1.613   3.109
 2336SOL    HW1 7907   1.464   1.570   3.175
 2336SOL    HW2 7908   1.604   1.653   3.157
 2337SOL     OW 7909   4.514   1.914   1.726
 2337SOL    HW1 7910   4.571   1.880   1.801
 2337SOL    HW2 7911   4.442   1.847   1.707
 2338SOL     OW 7912   0.267   3.934   3.434
 2338SOL    HW1 7913   0.224   3.898   3.351
 2338SOL    HW2 7914   0.209   4.006   3.473
 2339SOL     OW 7915   3.188   2.958   2.795
 2339SOL    HW1 7916   3.219   2.934   2.887
 2339SOL    HW2 7917   3.146   3.049   2.796
 2340SOL     OW 7918   2.105   4.629   0.079
 2340SOL    HW1 7919   2.144   4.555   0.025
 2340SOL    HW2 7920   2.148   4.633   0.169
 2341SOL     OW 7921   2.300   4.369   4.114
 2341SOL    HW1 7922   2.200   4.371   4.105
 2341SOL    HW2 7923   2.327   4.426   4.192
 2342SOL     OW 7924   3.191   1.103   3.760
 2342SOL    HW1 7925   3.255   1.086   3.835
 2342SOL    HW2 7926   3.097   1.091   3.791
 2343SOL     OW 7927   1.020   0.299   1.782
 2343SOL    HW1 7928   1.092   0.299   1.851
 2343SOL    HW2 7929   1.016   0.209   1.738
 2344SOL     OW 7930   5.526   3.768   0.652
 2344SOL    HW1 7931   5.508   3.851   0.600
 2344SOL    HW2 7932   5.614   3.775   0.697
 2345SOL     OW 7933   3.130   6.017   4.808
 2345SOL    HW1 7934   3.188   6.023   4.726
 2345SOL    HW2 7935   3.051   6.078   4.797
 2346SOL     OW 7936   4.296   3.570   6.715
 2346SOL    HW1 7937   4.226   3.523   6.661
 2346SOL    HW2 7938   4.333   3.646   6.662
 2347SOL     OW 7939   1.519   2.221   1.728
 2347SOL    HW1 7940   1.523   2.244   1.825
 2347SOL    HW2 7941   1.426   2.195   1.703
 2348SOL     OW 7942   0.163   5.082   2.538
 2348SOL    HW1 7943   0.248   5.102   2.488
 2348SOL    HW2 7944   0.107   5.020   2.484
 2349SOL     OW 7945   0.583   4.039   5.197
 2349SOL    HW1 7946   0.571   4.031   5.296
 2349SOL    HW2 7947   0.584   3.948   5.155
 2350SOL     OW 7948   5.783   2.973   6.911
 2350SOL    HW1 7949   5.779   3.021   6.824
 2350SOL    HW2 7950   5.693   2.977   6.955
 2351SOL     OW 7951   2.785   5.305   2.233
 2351SOL    HW1 7952   2.787   5.280   2.136
 2351SOL    HW2 7953   2.878   5.299   2.271
 2352SOL     OW 7954   0.383   2.715   3.387
 2352SOL    HW1 7955   0.457   2.782   3.378
 2352SOL    HW2 7956   0.318   2.727   3.312
 2353SOL     OW 7957   3.455   5.186   4.752
 2353SOL    HW1 7958   3.516   5.265   4.752
 2353SOL    HW2 7959   3.368   5.210   4.709
 2354SOL     OW 7960   2.067   2.909   3.608
 2354SOL    HW1 7961   1.983   2.893   3.660
 2354SOL    HW2 7962   2.097   3.004   3.620
 2355SOL     OW 7963   2.396   5.953   4.580
 2355SOL    HW1 7964   2.415   5.871   4.526
 2355SOL    HW2 7965   2.480   6.006   4.591
 2356SOL     OW 7966   6.458   2.876   6.999
 2356SOL    HW1 7967   6.408   2.961   6.985
 2356SOL    HW2 7968   6.556   2.893   6.988
 2357SOL     OW 7969   2.457   6.210   2.477
 2357SOL    HW1 7970   2.544   6.259   2.479
 2357SOL    HW2 7971   2.392   6.255   2.538
 2358SOL     OW 7972   3.448   4.834   6.431
 2358SOL    HW1 7973   3.485   4.797   6.346
 2358SOL    HW2 7974   3.418   4.758   6.490
 2359SOL     OW 7975   1.770   6.964   4.863
 2359SOL    HW1 7976   1.792   6.868   4.880
 2359SOL    HW2 7977   1.703   6.971   4.789
 2360SOL     OW 7978   6.472   3.842   0.133
 2360SOL    HW1 7979   6.474   3.764   0.196
 2360SOL    HW2 7980   6.534   3.913   0.166
 2361SOL     OW 7981   3.566   1.372   6.974
 2361SOL    HW1 7982   3.492   1.314   7.008
 2361SOL    HW2 7983   3.535   1.422   6.893
 2362SOL     OW 7984   3.102   5.567   3.572
 2362SOL    HW1 7985   3.086   5.634   3.499
 2362SOL    HW2 7986   3.020   5.556   3.627
 2363SOL     OW 7987   4.036   0.457   4.315
 2363SOL    HW1 7988   4.050   0.556   4.306
 2363SOL    HW2 7989   3.985   0.438   4.400
 2364SOL     OW 7990   1.036   2.478   0.850
 2364SOL    HW1 7991   1.091   2.468   0.933
 2364SOL    HW2 7992   1.076   2.549   0.792
 2365SOL     OW 7993   5.115   2.388   6.672
 2365SOL    HW1 7994   5.019   2.384   6.698
 2365SOL    HW2 7995   5.143   2.300   6.634
 2366SOL     OW 7996   4.285   5.423   0.772
 2366SOL    HW1 7997   4.366   5.366   0.762
 2366SOL    HW2 7998   4.263   5.467   0.685
 2367SOL     OW 7999   2.258   3.232   6.233
 2367SOL    HW1 8000   2.236   3.315   6.182
 2367SOL    HW2 8001   2.357   3.219   6.234
 2368SOL     OW 8002   6.087   5.829   2.260
 2368SOL    HW1 8003   6.004   5.807   2.311
 2368SOL    HW2 8004   6.153   5.754   2.270
 2369SOL     OW 8005   2.321   0.837   3.380
 2369SOL    HW1 8006   2.394   0.857   3.315
 2369SOL    HW2 8007   2.332   0.745   3.416
 2370SOL     OW 8008   6.558   1.984   6.490
 2370SOL    HW1 8009   6.622   1.943   6.425
 2370SOL    HW2 8010   6.466   1.949   6.471
 2371SOL     OW 8011   2.771   6.515   1.672
 2371SOL    HW1 8012   2.825   6.455   1.613
 2371SOL    HW2 8013   2.785   6.610   1.645
 2372SOL     OW 8014   6.451   2.893   2.784
 2372SOL    HW1 8015   6.383   2.820   2.787
 2372SOL    HW2 8016   6.535   2.859   2.740
 2373SOL     OW 8017   2.439   3.445   6.518
 2373SOL    HW1 8018   2.457   3.535   6.478
 2373SOL    HW2 8019   2.341   3.428   6.521
 2374SOL     OW 8020   5.796   3.171   4.834
 2374SOL    HW1 8021   5.845   3.139   4.915
 2374SOL    HW2 8022   5.830   3.123   4.753
 2375SOL     OW 8023   2.742   6.589   5.056
 2375SOL    HW1 8024   2.766   6.560   5.149
 2375SOL    HW2 8025   2.644   6.573   5.040
 2376SOL     OW 8026   6.603   3.007   4.471
 2376SOL    HW1 8027   6.687   3.057   4.491
 2376SOL    HW2 8028   6.573   3.027   4.378
 2377SOL     OW 8029   4.025   3.065   3.852
 2377SOL    HW1 8030   3.961   2.998   3.891
 2377SOL    HW2 8031   4.006   3.076   3.754
 2378SOL     OW 8032   5.336   2.690   0.109
 2378SOL    HW1 8033   5.398   2.630   0.057
 2378SOL    HW2 8034   5.281   2.635   0.171
 2379SOL     OW 8035   6.962   6.948   0.014
 2379SOL    HW1 8036   6.948   6.988   6.941
 2379SOL    HW2 8037   6.969   0.003   0.082
 2380SOL     OW 8038   6.160   1.816   2.335
 2380SOL    HW1 8039   6.127   1.755   2.407
 2380SOL    HW2 8040   6.087   1.877   2.306
 2381SOL     OW 8041   1.492   6.632   3.164
 2381SOL    HW1 8042   1.441   6.617   3.079
 2381SOL    HW2 8043   1.439   6.595   3.240
 2382SOL     OW 8044   1.632   3.769   5.600
 2382SOL    HW1 8045   1.560   3.823   5.644
 2382SOL    HW2 8046   1.684   3.827   5.537
 2383SOL     OW 8047   5.922   6.168   1.681
 2383SOL    HW1 8048   5.844   6.120   1.640
 2383SOL    HW2 8049   5.992   6.102   1.706
 2384SOL     OW 8050   4.688   1.876   1.944
 2384SOL    HW1 8051   4.766   1.911   1.996
 2384SOL    HW2 8052   4.614   1.851   2.006
 2385SOL     OW 8053   0.408   2.026   0.089
 2385SOL    HW1 8054   0.457   1.963   0.029
 2385SOL    HW2 8055   0.373   2.103   0.036
 2386SOL     OW 8056   4.168   5.243   3.836
 2386SOL    HW1 8057   4.210   5.208   3.751
 2386SOL    HW2 8058   4.115   5.170   3.879
 2387SOL     OW 8059   1.818   1.210   2.814
 2387SOL    HW1 8060   1.873   1.137   2.855
 2387SOL    HW2 8061   1.855   1.231   2.723
 2388SOL     OW 8062   6.816   1.365   3.832
 2388SOL    HW1 8063   6.810   1.429   3.755
 2388SOL    HW2 8064   6.751   1.392   3.903
 2389SOL     OW 8065   3.892   6.618   2.272
 2389SOL    HW1 8066   3.967   6.626   2.207
 2389SOL    HW2 8067   3.910   6.677   2.351
 2390SOL     OW 8068   2.865   4.171   1.461
 2390SOL    HW1 8069   2.891   4.259   1.422
 2390SOL    HW2 8070   2.928   4.147   1.535
 2391SOL     OW 8071   3.789   5.341   5.580
 2391SOL    HW1 8072   3.814   5.433   5.550
 2391SOL    HW2 8073   3.867   5.298   5.624
 2392SOL     OW 8074   4.202   1.049   6.292
 2392SOL    HW1 8075   4.171   1.087   6.379
 2392SOL    HW2 8076   4.301   1.064   6.282
 2393SOL     OW 8077   3.670   5.135   5.341
 2393SOL    HW1 8078   3.654   5.212   5.403
 2393SOL    HW2 8079   3.584   5.084   5.328
 2394SOL     OW 8080   6.731   4.824   5.602
 2394SOL    HW1 8081   6.703   4.888   5.674
 2394SOL    HW2 8082   6.818   4.782   5.628
 2395SOL     OW 8083   4.447   0.049   6.251
 2395SOL    HW1 8084   4.473   0.064   6.156
 2395SOL    HW2 8085   4.418   0.136   6.291
 2396SOL     OW 8086   3.885   4.779   0.625
 2396SOL    HW1 8087   3.981   4.781   0.598
 2396SOL    HW2 8088   3.877   4.739   0.717
 2397SOL     OW 8089   0.152   4.114   3.735
 2397SOL    HW1 8090   0.130   4.140   3.641
 2397SOL    HW2 8091   0.087   4.046   3.767
 2398SOL     OW 8092   4.427   4.171   5.733
 2398SOL    HW1 8093   4.504   4.206   5.785
 2398SOL    HW2 8094   4.342   4.206   5.771
 2399SOL     OW 8095   4.226   2.138   1.613
 2399SOL    HW1 8096   4.289   2.183   1.676
 2399SOL    HW2 8097   4.149   2.101   1.665
 2400SOL     OW 8098   2.090   5.249   1.230
 2400SOL    HW1 8099   2.178   5.247   1.183
 2400SOL    HW2 8100   2.085   5.172   1.293
 2401SOL     OW 8101   0.205   6.215   6.352
 2401SOL    HW1 8102   0.177   6.142   6.414
 2401SOL    HW2 8103   0.144   6.294   6.362
 2402SOL     OW 8104   6.681   6.389   4.204
 2402SOL    HW1 8105   6.628   6.356   4.126
 2402SOL    HW2 8106   6.644   6.476   4.235
 2403SOL     OW 8107   0.253   0.985   5.207
 2403SOL    HW1 8108   0.253   0.962   5.110
 2403SOL    HW2 8109   0.239   1.083   5.218
 2404SOL     OW 8110   1.439   0.744   0.271
 2404SOL    HW1 8111   1.433   0.706   0.179
 2404SOL    HW2 8112   1.348   0.745   0.313
 2405SOL     OW 8113   2.971   3.657   1.519
 2405SOL    HW1 8114   2.947   3.679   1.613
 2405SOL    HW2 8115   3.066   3.684   1.502
 2406SOL     OW 8116   4.708   1.135   1.510
 2406SOL    HW1 8117   4.638   1.106   1.444
 2406SOL    HW2 8118   4.711   1.071   1.586
 2407SOL     OW 8119   5.030   0.564   4.144
 2407SOL    HW1 8120   5.000   0.618   4.065
 2407SOL    HW2 8121   5.029   0.621   4.226
 2408SOL     OW 8122   4.519   4.512   2.195
 2408SOL    HW1 8123   4.489   4.594   2.146
 2408SOL    HW2 8124   4.511   4.432   2.136
 2409SOL     OW 8125   0.960   4.313   0.336
 2409SOL    HW1 8126   0.997   4.314   0.243
 2409SOL    HW2 8127   0.895   4.237   0.345
 2410SOL     OW 8128   2.950   3.222   2.560
 2410SOL    HW1 8129   2.990   3.150   2.502
 2410SOL    HW2 8130   2.875   3.266   2.510
 2411SOL     OW 8131   4.351   6.855   4.256
 2411SOL    HW1 8132   4.285   6.796   4.301
 2411SOL    HW2 8133   4.439   6.848   4.302
 2412SOL     OW 8134   3.957   3.596   0.985
 2412SOL    HW1 8135   4.010   3.620   1.066
 2412SOL    HW2 8136   3.947   3.497   0.979
 2413SOL     OW 8137   4.244   7.007   2.710
 2413SOL    HW1 8138   4.267   0.083   2.733
 2413SOL    HW2 8139   4.261   6.948   2.789
 2414SOL     OW 8140   5.582   3.255   4.465
 2414SOL    HW1 8141   5.662   3.233   4.409
 2414SOL    HW2 8142   5.500   3.217   4.422
 2415SOL     OW 8143   4.281   1.009   3.414
 2415SOL    HW1 8144   4.330   0.981   3.332
 2415SOL    HW2 8145   4.249   0.928   3.464
 2416SOL     OW 8146   5.514   2.033   6.598
 2416SOL    HW1 8147   5.529   1.980   6.514
 2416SOL    HW2 8148   5.476   1.973   6.669
 2417SOL     OW 8149   3.073   4.220   5.333
 2417SOL    HW1 8150   3.159   4.181   5.300
 2417SOL    HW2 8151   3.033   4.158   5.401
 2418SOL     OW 8152   3.536   3.182   2.937
 2418SOL    HW1 8153   3.553   3.129   2.855
 2418SOL    HW2 8154   3.438   3.185   2.956
 2419SOL     OW 8155   0.112   0.401   3.139
 2419SOL    HW1 8156   0.157   0.363   3.058
 2419SOL    HW2 8157   0.060   0.330   3.186
 2420SOL     OW 8158   2.146   6.855   1.866
 2420SOL    HW1 8159   2.209   6.795   1.817
 2420SOL    HW2 8160   2.198   6.920   1.922
 2421SOL     OW 8161   3.411   1.664   3.645
 2421SOL    HW1 8162   3.363   1.701   3.565
 2421SOL    HW2 8163   3.479   1.597   3.615
 2422SOL     OW 8164   4.874   1.782   0.951
 2422SOL    HW1 8165   4.903   1.753   1.042
 2422SOL    HW2 8166   4.797   1.725   0.921
 2423SOL     OW 8167   1.904   4.884   2.447
 2423SOL    HW1 8168   1.954   4.913   2.365
 2423SOL    HW2 8169   1.963   4.891   2.527
 2424SOL     OW 8170   6.662   0.169   0.494
 2424SOL    HW1 8171   6.601   0.110   0.546
 2424SOL    HW2 8172   6.628   0.263   0.499
 2425SOL     OW 8173   6.866   6.607   4.527
 2425SOL    HW1 8174   6.867   6.627   4.429
 2425SOL    HW2 8175   6.792   6.542   4.547
 2426SOL     OW 8176   2.649   4.709   4.112
 2426SOL    HW1 8177   2.698   4.790   4.081
 2426SOL    HW2 8178   2.558   4.735   4.142
 2427SOL     OW 8179   6.245   0.060   5.782
 2427SOL    HW1 8180   6.169   0.124   5.793
 2427SOL    HW2 8181   6.305   0.093   5.709
 2428SOL     OW 8182   5.847   1.361   0.627
 2428SOL    HW1 8183   5.899   1.338   0.545
 2428SOL    HW2 8184   5.751   1.371   0.603
 2429SOL     OW 8185   5.210   5.054   2.529
 2429SOL    HW1 8186   5.216   5.001   2.614
 2429SOL    HW2 8187   5.257   5.006   2.456
 2430SOL     OW 8188   5.335   0.068   2.838
 2430SOL    HW1 8189   5.383   0.140   2.788
 2430SOL    HW2 8190   5.394   0.035   2.912
 2431SOL     OW 8191   4.652   6.909   2.362
 2431SOL    HW1 8192   4.711   6.984   2.393
 2431SOL    HW2 8193   4.643   6.842   2.435
 2432SOL     OW 8194   2.635   5.845   2.693
 2432SOL    HW1 8195   2.569   5.771   2.679
 2432SOL    HW2 8196   2.625   5.913   2.619
 2433SOL     OW 8197   4.829   0.692   0.962
 2433SOL    HW1 8198   4.817   0.654   1.053
 2433SOL    HW2 8199   4.786   0.632   0.894
 2434SOL     OW 8200   3.948   3.098   4.923
 2434SOL    HW1 8201   3.908   3.040   4.993
 2434SOL    HW2 8202   3.957   3.045   4.838
 2435SOL     OW 8203   6.099   6.096   5.959
 2435SOL    HW1 8204   6.090   6.010   6.009
 2435SOL    HW2 8205   6.046   6.167   6.005
 2436SOL     OW 8206   2.826   5.047   0.837
 2436SOL    HW1 8207   2.900   5.007   0.782
 2436SOL    HW2 8208   2.738   5.013   0.803
 2437SOL     OW 8209   6.499   0.879   5.828
 2437SOL    HW1 8210   6.585   0.908   5.871
 2437SOL    HW2 8211   6.511   0.790   5.786
 2438SOL     OW 8212   3.028   3.388   0.893
 2438SOL    HW1 8213   3.082   3.335   0.958
 2438SOL    HW2 8214   3.025   3.484   0.924
 2439SOL     OW 8215   6.233   4.869   6.123
 2439SOL    HW1 8216   6.208   4.822   6.038
 2439SOL    HW2 8217   6.182   4.956   6.128
 2440SOL     OW 8218   5.667   4.718   5.488
 2440SOL    HW1 8219   5.569   4.710   5.505
 2440SOL    HW2 8220   5.693   4.815   5.483
 2441SOL     OW 8221   6.286   2.244   0.842
 2441SOL    HW1 8222   6.295   2.304   0.922
 2441SOL    HW2 8223   6.372   2.194   0.829
 2442SOL     OW 8224   0.236   1.967   5.195
 2442SOL    HW1 8225   0.252   1.955   5.097
 2442SOL    HW2 8226   0.322   1.956   5.244
 2443SOL     OW 8227   2.873   4.896   4.980
 2443SOL    HW1 8228   2.855   4.798   4.979
 2443SOL    HW2 8229   2.888   4.926   5.075
 2444SOL     OW 8230   3.608   2.722   5.828
 2444SOL    HW1 8231   3.606   2.718   5.928
 2444SOL    HW2 8232   3.615   2.630   5.791
 2445SOL     OW 8233   0.844   0.291   0.924
 2445SOL    HW1 8234   0.929   0.239   0.922
 2445SOL    HW2 8235   0.849   0.360   0.997
 2446SOL     OW 8236   5.027   3.193   6.312
 2446SOL    HW1 8237   5.102   3.222   6.371
 2446SOL    HW2 8238   5.059   3.121   6.251
 2447SOL     OW 8239   0.718   3.218   6.616
 2447SOL    HW1 8240   0.664   3.234   6.534
 2447SOL    HW2 8241   0.720   3.119   6.635
 2448SOL     OW 8242   0.411   6.742   4.620
 2448SOL    HW1 8243   0.486   6.800   4.588
 2448SOL    HW2 8244   0.397   6.757   4.718
 2449SOL     OW 8245   0.896   3.043   5.029
 2449SOL    HW1 8246   0.892   3.036   4.930
 2449SOL    HW2 8247   0.976   3.097   5.056
 2450SOL     OW 8248   1.927   3.362   1.420
 2450SOL    HW1 8249   2.003   3.368   1.356
 2450SOL    HW2 8250   1.923   3.270   1.459
 2451SOL     OW 8251   2.241   5.922   4.060
 2451SOL    HW1 8252   2.332   5.882   4.066
 2451SOL    HW2 8253   2.237   6.005   4.116
 2452SOL     OW 8254   2.441   2.298   4.727
 2452SOL    HW1 8255   2.403   2.259   4.810
 2452SOL    HW2 8256   2.436   2.398   4.731
 2453SOL     OW 8257   0.865   3.732   0.825
 2453SOL    HW1 8258   0.790   3.722   0.891
 2453SOL    HW2 8259   0.939   3.669   0.850
 2454SOL     OW 8260   1.766   6.780   1.839
 2454SOL    HW1 8261   1.796   6.875   1.848
 2454SOL    HW2 8262   1.841   6.719   1.863
 2455SOL     OW 8263   5.476   3.604   1.187
 2455SOL    HW1 8264   5.562   3.655   1.195
 2455SOL    HW2 8265   5.481   3.546   1.106
 2456SOL     OW 8266   2.934   6.535   0.976
 2456SOL    HW1 8267   2.942   6.443   0.940
 2456SOL    HW2 8268   2.889   6.594   0.908
 2457SOL     OW 8269   5.821   6.147   1.224
 2457SOL    HW1 8270   5.898   6.112   1.276
 2457SOL    HW2 8271   5.775   6.072   1.177
 2458SOL     OW 8272   0.581   6.519   1.896
 2458SOL    HW1 8273   0.607   6.424   1.912
 2458SOL    HW2 8274   0.659   6.579   1.912
 2459SOL     OW 8275   1.213   1.109   0.455
 2459SOL    HW1 8276   1.179   1.181   0.395
 2459SOL    HW2 8277   1.312   1.120   0.467
 2460SOL     OW 8278   2.738   4.711   1.385
 2460SOL    HW1 8279   2.820   4.742   1.433
 2460SOL    HW2 8280   2.720   4.616   1.409
 2461SOL     OW 8281   4.981   1.468   2.759
 2461SOL    HW1 8282   4.925   1.424   2.689
 2461SOL    HW2 8283   4.927   1.536   2.808
 2462SOL     OW 8284   2.789   3.803   6.270
 2462SOL    HW1 8285   2.796   3.870   6.344
 2462SOL    HW2 8286   2.793   3.851   6.182
 2463SOL     OW 8287   0.876   2.624   5.199
 2463SOL    HW1 8288   0.927   2.645   5.116
 2463SOL    HW2 8289   0.936   2.633   5.278
 2464SOL     OW 8290   0.865   3.224   0.417
 2464SOL    HW1 8291   0.868   3.323   0.424
 2464SOL    HW2 8292   0.946   3.185   0.461
 2465SOL     OW 8293   6.189   4.895   2.556
 2465SOL    HW1 8294   6.169   4.858   2.647
 2465SOL    HW2 8295   6.277   4.859   2.525
 2466SOL     OW 8296   3.568   1.339   1.724
 2466SOL    HW1 8297   3.494   1.405   1.716
 2466SOL    HW2 8298   3.647   1.370   1.672
 2467SOL     OW 8299   0.694   0.989   4.679
 2467SOL    HW1 8300   0.686   0.959   4.584
 2467SOL    HW2 8301   0.673   1.086   4.685
 2468SOL     OW 8302   6.192   4.598   0.057
 2468SOL    HW1 8303   6.252   4.573   0.134
 2468SOL    HW2 8304   6.207   4.695   0.034
 2469SOL     OW 8305   2.920   2.704   5.725
 2469SOL    HW1 8306   2.930   2.624   5.665
 2469SOL    HW2 8307   2.912   2.787   5.670
 2470SOL     OW 8308   5.388   3.111   1.160
 2470SOL    HW1 8309   5.416   3.186   1.220
 2470SOL    HW2 8310   5.291   3.119   1.140
 2471SOL     OW 8311   0.251   1.378   2.670
 2471SOL    HW1 8312   0.179   1.376   2.738
 2471SOL    HW2 8313   0.233   1.310   2.599
 2472SOL     OW 8314   6.100   1.078   3.811
 2472SOL    HW1 8315   6.135   1.164   3.774
 2472SOL    HW2 8316   6.101   1.008   3.739
 2473SOL     OW 8317   0.584   6.050   5.504
 2473SOL    HW1 8318   0.650   6.061   5.578
 2473SOL    HW2 8319   0.613   6.104   5.424
 2474SOL     OW 8320   6.183   6.809   4.316
 2474SOL    HW1 8321   6.166   6.908   4.309
 2474SOL    HW2 8322   6.275   6.795   4.352
 2475SOL     OW 8323   4.287   2.056   6.494
 2475SOL    HW1 8324   4.316   2.050   6.398
 2475SOL    HW2 8325   4.367   2.048   6.554
 2476SOL     OW 8326   0.654   1.346   3.284
 2476SOL    HW1 8327   0.579   1.304   3.233
 2476SOL    HW2 8328   0.710   1.274   3.326
 2477SOL     OW 8329   4.701   4.775   2.601
 2477SOL    HW1 8330   4.723   4.723   2.519
 2477SOL    HW2 8331   4.678   4.869   2.575
 2478SOL     OW 8332   0.051   0.521   2.288
 2478SOL    HW1 8333   0.146   0.532   2.316
 2478SOL    HW2 8334   0.040   0.434   2.240
 2479SOL     OW 8335   0.873   2.873   6.956
 2479SOL    HW1 8336   0.958   2.848   6.909
 2479SOL    HW2 8337   0.893   2.896   0.033
 2480SOL     OW 8338   6.482   5.147   1.430
 2480SOL    HW1 8339   6.545   5.196   1.369
 2480SOL    HW2 8340   6.489   5.049   1.414
 2481SOL     OW 8341   4.048   4.839   2.419
 2481SOL    HW1 8342   4.084   4.787   2.496
 2481SOL    HW2 8343   3.958   4.876   2.443
 2482SOL     OW 8344   4.361   2.178   4.964
 2482SOL    HW1 8345   4.334   2.100   4.907
 2482SOL    HW2 8346   4.287   2.245   4.966
 2483SOL     OW 8347   0.642   3.027   6.993
 2483SOL    HW1 8348   0.712   2.977   6.943
 2483SOL    HW2 8349   0.681   3.065   0.059
 2484SOL     OW 8350   3.684   3.917   5.735
 2484SOL    HW1 8351   3.664   3.873   5.647
 2484SOL    HW2 8352   3.628   3.874   5.806
 2485SOL     OW 8353   0.643   5.782   0.112
 2485SOL    HW1 8354   0.698   5.729   0.177
 2485SOL    HW2 8355   0.696   5.860   0.079
 2486SOL     OW 8356   0.772   5.553   3.509
 2486SOL    HW1 8357   0.809   5.478   3.454
 2486SOL    HW2 8358   0.769   5.525   3.605
 2487SOL     OW 8359   3.308   1.427   1.311
 2487SOL    HW1 8360   3.265   1.336   1.306
 2487SOL    HW2 8361   3.407   1.416   1.323
 2488SOL     OW 8362   3.111   5.853   6.527
 2488SOL    HW1 8363   3.137   5.816   6.438
 2488SOL    HW2 8364   3.021   5.896   6.521
 2489SOL     OW 8365   0.020   5.710   4.499
 2489SOL    HW1 8366   7.016   5.700   4.402
 2489SOL    HW2 8367   6.990   5.788   4.537
 2490SOL     OW 8368   5.803   3.220   1.172
 2490SOL    HW1 8369   5.801   3.232   1.073
 2490SOL    HW2 8370   5.733   3.278   1.214
 2491SOL     OW 8371   6.813   3.904   3.390
 2491SOL    HW1 8372   6.723   3.869   3.365
 2491SOL    HW2 8373   6.863   3.834   3.441
 2492SOL     OW 8374   4.177   1.183   6.557
 2492SOL    HW1 8375   4.185   1.104   6.618
 2492SOL    HW2 8376   4.151   1.264   6.611
 2493SOL     OW 8377   6.390   0.505   4.956
 2493SOL    HW1 8378   6.411   0.437   4.886
 2493SOL    HW2 8379   6.333   0.463   5.027
 2494SOL     OW 8380   4.874   4.808   1.024
 2494SOL    HW1 8381   4.853   4.901   1.053
 2494SOL    HW2 8382   4.799   4.747   1.050
 2495SOL     OW 8383   0.213   1.183   2.457
 2495SOL    HW1 8384   0.209   1.139   2.367
 2495SOL    HW2 8385   0.261   1.123   2.521
 2496SOL     OW 8386   2.025   5.009   0.833
 2496SOL    HW1 8387   1.980   5.071   0.898
 2496SOL    HW2 8388   1.969   4.927   0.821
 2497SOL     OW 8389   5.657   0.638   6.470
 2497SOL    HW1 8390   5.596   0.695   6.524
 2497SOL    HW2 8391   5.611   0.551   6.448
 2498SOL     OW 8392   0.939   3.311   4.605
 2498SOL    HW1 8393   0.877   3.311   4.683
 2498SOL    HW2 8394   0.903   3.370   4.533
 2499SOL     OW 8395   5.243   1.242   0.005
 2499SOL    HW1 8396   5.227   1.145   7.003
 2499SOL    HW2 8397   5.269   1.251   0.102
 2500SOL     OW 8398   4.687   3.724   6.159
 2500SOL    HW1 8399   4.708   3.627   6.168
 2500SOL    HW2 8400   4.589   3.739   6.176
 2501SOL     OW 8401   0.141   4.982   0.982
 2501SOL    HW1 8402   0.193   4.931   1.050
 2501SOL    HW2 8403   0.086   5.052   1.028
 2502SOL     OW 8404   0.575   0.303   3.570
 2502SOL    HW1 8405   0.566   0.284   3.668
 2502SOL    HW2 8406   0.507   0.370   3.543
 2503SOL     OW 8407   5.640   6.552   4.602
 2503SOL    HW1 8408   5.736   6.526   4.610
 2503SOL    HW2 8409   5.597   6.550   4.692
 2504SOL     OW 8410   2.323   4.303   3.250
 2504SOL    HW1 8411   2.296   4.276   3.158
 2504SOL    HW2 8412   2.242   4.310   3.308
 2505SOL     OW 8413   4.761   4.318   4.843
 2505SOL    HW1 8414   4.782   4.233   4.795
 2505SOL    HW2 8415   4.700   4.298   4.920
 2506SOL     OW 8416   0.627   0.754   0.484
 2506SOL    HW1 8417   0.578   0.685   0.538
 2506SOL    HW2 8418   0.700   0.794   0.540
 2507SOL     OW 8419   6.275   6.715   6.853
 2507SOL    HW1 8420   6.372   6.694   6.844
 2507SOL    HW2 8421   6.264   6.792   6.916
 2508SOL     OW 8422   1.490   2.307   1.984
 2508SOL    HW1 8423   1.525   2.215   2.005
 2508SOL    HW2 8424   1.392   2.309   1.998
 2509SOL     OW 8425   6.264   0.604   3.615
 2509SOL    HW1 8426   6.297   0.510   3.619
 2509SOL    HW2 8427   6.206   0.616   3.534
 2510SOL     OW 8428   4.269   6.192   2.216
 2510SOL    HW1 8429   4.302   6.163   2.306
 2510SOL    HW2 8430   4.331   6.159   2.145
 2511SOL     OW 8431   0.507   6.297   3.750
 2511SOL    HW1 8432   0.549   6.371   3.803
 2511SOL    HW2 8433   0.570   6.220   3.745
 2512SOL     OW 8434   6.161   3.486   4.289
 2512SOL    HW1 8435   6.093   3.500   4.217
 2512SOL    HW2 8436   6.119   3.437   4.365
 2513SOL     OW 8437   0.092   4.809   0.785
 2513SOL    HW1 8438   0.120   4.713   0.789
 2513SOL    HW2 8439   0.123   4.855   0.868
 2514SOL     OW 8440   6.896   2.001   3.409
 2514SOL    HW1 8441   6.968   1.960   3.352
 2514SOL    HW2 8442   6.823   1.934   3.423
 2515SOL     OW 8443   1.095   4.401   6.687
 2515SOL    HW1 8444   1.195   4.402   6.693
 2515SOL    HW2 8445   1.057   4.466   6.753
 2516SOL     OW 8446   5.089   6.956   3.904
 2516SOL    HW1 8447   5.062   6.862   3.921
 2516SOL    HW2 8448   5.122   6.997   3.989
 2517SOL     OW 8449   2.245   5.431   0.934
 2517SOL    HW1 8450   2.263   5.407   0.839
 2517SOL    HW2 8451   2.147   5.447   0.947
 2518SOL     OW 8452   2.478   2.347   0.171
 2518SOL    HW1 8453   2.529   2.391   0.246
 2518SOL    HW2 8454   2.384   2.383   0.169
 2519SOL     OW 8455   6.156   4.502   4.837
 2519SOL    HW1 8456   6.143   4.571   4.766
 2519SOL    HW2 8457   6.086   4.513   4.908
 2520SOL     OW 8458   3.830   5.278   1.075
 2520SOL    HW1 8459   3.781   5.237   0.998
 2520SOL    HW2 8460   3.766   5.304   1.146
 2521SOL     OW 8461   5.855   6.434   5.831
 2521SOL    HW1 8462   5.855   6.531   5.806
 2521SOL    HW2 8463   5.900   6.422   5.919
 2522SOL     OW 8464   2.469   4.893   5.225
 2522SOL    HW1 8465   2.456   4.979   5.177
 2522SOL    HW2 8466   2.478   4.819   5.159
 2523SOL     OW 8467   0.674   2.154   6.061
 2523SOL    HW1 8468   0.669   2.162   5.961
 2523SOL    HW2 8469   0.700   2.060   6.085
 2524SOL     OW 8470   1.581   7.013   4.559
 2524SOL    HW1 8471   1.500   6.961   4.585
 2524SOL    HW2 8472   1.643   6.955   4.506
 2525SOL     OW 8473   2.729   4.659   2.270
 2525SOL    HW1 8474   2.769   4.649   2.179
 2525SOL    HW2 8475   2.721   4.569   2.313
 2526SOL     OW 8476   1.420   2.830   4.504
 2526SOL    HW1 8477   1.420   2.913   4.560
 2526SOL    HW2 8478   1.348   2.836   4.435
 2527SOL     OW 8479   0.133   6.542   4.265
 2527SOL    HW1 8480   0.072   6.617   4.238
 2527SOL    HW2 8481   0.079   6.458   4.276
 2528SOL     OW 8482   5.336   5.244   0.876
 2528SOL    HW1 8483   5.313   5.160   0.926
 2528SOL    HW2 8484   5.254   5.282   0.834
 2529SOL     OW 8485   5.130   4.674   5.492
 2529SOL    HW1 8486   5.152   4.592   5.439
 2529SOL    HW2 8487   5.059   4.653   5.558
 2530SOL     OW 8488   1.106   6.241   3.043
 2530SOL    HW1 8489   1.108   6.278   3.136
 2530SOL    HW2 8490   1.192   6.194   3.023
 2531SOL     OW 8491   5.640   2.104   6.887
 2531SOL    HW1 8492   5.548   2.125   6.852
 2531SOL    HW2 8493   5.687   2.189   6.911
 2532SOL     OW 8494   0.765   5.380   5.661
 2532SOL    HW1 8495   0.697   5.435   5.612
 2532SOL    HW2 8496   0.777   5.293   5.614
 2533SOL     OW 8497   5.768   0.833   4.964
 2533SOL    HW1 8498   5.768   0.741   5.003
 2533SOL    HW2 8499   5.763   0.900   5.037
 2534SOL     OW 8500   6.771   1.079   3.504
 2534SOL    HW1 8501   6.805   1.119   3.589
 2534SOL    HW2 8502   6.841   1.087   3.434
 2535SOL     OW 8503   2.805   0.983   1.857
 2535SOL    HW1 8504   2.886   0.926   1.870
 2535SOL    HW2 8505   2.831   1.080   1.865
 2536SOL     OW 8506   0.394   0.507   3.867
 2536SOL    HW1 8507   0.361   0.502   3.961
 2536SOL    HW2 8508   0.479   0.559   3.864
 2537SOL     OW 8509   2.927   6.225   2.414
 2537SOL    HW1 8510   2.968   6.262   2.331
 2537SOL    HW2 8511   2.860   6.155   2.389
 2538SOL     OW 8512   0.307   5.054   5.240
 2538SOL    HW1 8513   0.369   4.982   5.270
 2538SOL    HW2 8514   0.317   5.067   5.141
 2539SOL     OW 8515   1.858   0.502   5.480
 2539SOL    HW1 8516   1.903   0.574   5.428
 2539SOL    HW2 8517   1.850   0.420   5.423
 2540SOL     OW 8518   5.018   2.841   2.413
 2540SOL    HW1 8519   4.935   2.871   2.367
 2540SOL    HW2 8520   4.998   2.818   2.508
 2541SOL     OW 8521   1.437   1.379   0.077
 2541SOL    HW1 8522   1.475   1.294   0.112
 2541SOL    HW2 8523   1.506   1.427   0.022
 2542SOL     OW 8524   3.860   1.563   3.417
 2542SOL    HW1 8525   3.919   1.521   3.486
 2542SOL    HW2 8526   3.768   1.526   3.426
 2543SOL     OW 8527   5.938   0.271   5.295
 2543SOL    HW1 8528   5.845   0.304   5.280
 2543SOL    HW2 8529   5.962   0.207   5.222
 2544SOL     OW 8530   0.150   6.723   1.005
 2544SOL    HW1 8531   0.175   6.820   0.998
 2544SOL    HW2 8532   0.121   6.703   1.098
 2545SOL     OW 8533   7.003   1.425   0.036
 2545SOL    HW1 8534   0.064   1.447   6.998
 2545SOL    HW2 8535   6.948   1.507   0.051
 2546SOL     OW 8536   6.384   3.754   2.570
 2546SOL    HW1 8537   6.450   3.705   2.627
 2546SOL    HW2 8538   6.334   3.688   2.513
 2547SOL     OW 8539   5.511   3.484   0.971
 2547SOL    HW1 8540   5.609   3.486   0.988
 2547SOL    HW2 8541   5.494   3.484   0.873
 2548SOL     OW 8542   6.772   0.180   5.612
 2548SOL    HW1 8543   6.748   0.268   5.652
 2548SOL    HW2 8544   6.827   0.195   5.530
 2549SOL     OW 8545   3.029   5.350   0.427
 2549SOL    HW1 8546   3.062   5.258   0.404
 2549SOL    HW2 8547   2.930   5.349   0.432
 2550SOL     OW 8548   3.769   0.198   1.000
 2550SOL    HW1 8549   3.692   0.169   0.943
 2550SOL    HW2 8550   3.805   0.120   1.051
 2551SOL     OW 8551   3.556   4.406   1.306
 2551SOL    HW1 8552   3.621   4.472   1.342
 2551SOL    HW2 8553   3.470   4.452   1.284
 2552SOL     OW 8554   2.439   4.613   1.558
 2552SOL    HW1 8555   2.383   4.537   1.591
 2552SOL    HW2 8556   2.497   4.582   1.484
 2553SOL     OW 8557   4.498   1.528   7.009
 2553SOL    HW1 8558   4.542   1.535   0.080
 2553SOL    HW2 8559   4.427   1.459   7.012
 2554SOL     OW 8560   0.918   5.757   0.701
 2554SOL    HW1 8561   0.846   5.745   0.632
 2554SOL    HW2 8562   0.985   5.824   0.667
 2555SOL     OW 8563   1.002   6.344   5.483
 2555SOL    HW1 8564   0.986   6.248   5.464
 2555SOL    HW2 8565   1.085   6.374   5.437
 2556SOL     OW 8566   5.502   0.439   0.786
 2556SOL    HW1 8567   5.436   0.427   0.860
 2556SOL    HW2 8568   5.576   0.499   0.815
 2557SOL     OW 8569   2.656   1.434   0.484
 2557SOL    HW1 8570   2.590   1.365   0.453
 2557SOL    HW2 8571   2.726   1.446   0.414
 2558SOL     OW 8572   5.610   1.900   1.554
 2558SOL    HW1 8573   5.709   1.915   1.555
 2558SOL    HW2 8574   5.590   1.808   1.587
 2559SOL     OW 8575   6.096   4.862   3.522
 2559SOL    HW1 8576   6.019   4.870   3.458
 2559SOL    HW2 8577   6.094   4.939   3.586
 2560SOL     OW 8578   4.289   2.593   1.755
 2560SOL    HW1 8579   4.352   2.538   1.809
 2560SOL    HW2 8580   4.235   2.533   1.696
 2561SOL     OW 8581   3.888   0.259   4.519
 2561SOL    HW1 8582   3.916   0.238   4.612
 2561SOL    HW2 8583   3.954   0.220   4.454
 2562SOL     OW 8584   1.416   6.582   4.871
 2562SOL    HW1 8585   1.479   6.581   4.793
 2562SOL    HW2 8586   1.435   6.503   4.930
 2563SOL     OW 8587   4.224   2.254   6.300
 2563SOL    HW1 8588   4.239   2.204   6.386
 2563SOL    HW2 8589   4.266   2.344   6.307
 2564SOL     OW 8590   1.590   1.409   1.091
 2564SOL    HW1 8591   1.517   1.369   1.035
 2564SOL    HW2 8592   1.677   1.362   1.071
 2565SOL     OW 8593   0.080   0.544   1.215
 2565SOL    HW1 8594   0.001   0.559   1.155
 2565SOL    HW2 8595   0.142   0.478   1.173
 2566SOL     OW 8596   2.962   1.214   1.026
 2566SOL    HW1 8597   3.036   1.197   0.961
 2566SOL    HW2 8598   2.935   1.129   1.069
 2567SOL     OW 8599   2.353   1.027   6.340
 2567SOL    HW1 8600   2.403   0.981   6.267
 2567SOL    HW2 8601   2.399   1.112   6.364
 2568SOL     OW 8602   2.833   6.074   0.777
 2568SOL    HW1 8603   2.821   5.985   0.819
 2568SOL    HW2 8604   2.809   6.069   0.680
 2569SOL     OW 8605   2.374   6.522   6.431
 2569SOL    HW1 8606   2.298   6.547   6.492
 2569SOL    HW2 8607   2.339   6.466   6.356
 2570SOL     OW 8608   0.245   6.891   3.991
 2570SOL    HW1 8609   0.299   6.826   3.938
 2570SOL    HW2 8610   0.262   6.984   3.957
 2571SOL     OW 8611   3.732   3.205   3.129
 2571SOL    HW1 8612   3.727   3.283   3.191
 2571SOL    HW2 8613   3.649   3.201   3.073
 2572SOL     OW 8614   2.625   5.540   2.457
 2572SOL    HW1 8615   2.674   5.604   2.398
 2572SOL    HW2 8616   2.603   5.458   2.405
 2573SOL     OW 8617   6.892   1.072   3.134
 2573SOL    HW1 8618   6.938   0.999   3.084
 2573SOL    HW2 8619   6.823   1.115   3.076
 2574SOL     OW 8620   0.155   4.103   1.889
 2574SOL    HW1 8621   0.078   4.114   1.952
 2574SOL    HW2 8622   0.150   4.013   1.845
 2575SOL     OW 8623   4.550   3.746   5.361
 2575SOL    HW1 8624   4.473   3.805   5.337
 2575SOL    HW2 8625   4.582   3.698   5.280
 2576SOL     OW 8626   0.252   0.215   2.938
 2576SOL    HW1 8627   0.286   0.211   2.844
 2576SOL    HW2 8628   0.312   0.274   2.993
 2577SOL     OW 8629   1.580   4.463   1.080
 2577SOL    HW1 8630   1.571   4.426   1.172
 2577SOL    HW2 8631   1.590   4.389   1.014
 2578SOL     OW 8632   4.517   2.671   4.986
 2578SOL    HW1 8633   4.446   2.738   5.006
 2578SOL    HW2 8634   4.489   2.581   5.020
 2579SOL     OW 8635   0.519   1.276   6.835
 2579SOL    HW1 8636   0.557   1.200   6.888
 2579SOL    HW2 8637   0.425   1.255   6.810
 2580SOL     OW 8638   1.895   1.967   5.544
 2580SOL    HW1 8639   1.887   1.914   5.629
 2580SOL    HW2 8640   1.875   2.063   5.563
 2581SOL     OW 8641   5.623   6.886   4.334
 2581SOL    HW1 8642   5.607   6.941   4.417
 2581SOL    HW2 8643   5.719   6.862   4.328
 2582SOL     OW 8644   6.485   4.030   3.255
 2582SOL    HW1 8645   6.457   4.059   3.164
 2582SOL    HW2 8646   6.522   3.938   3.252
 2583SOL     OW 8647   2.899   1.039   0.537
 2583SOL    HW1 8648   2.942   1.005   0.454
 2583SOL    HW2 8649   2.811   1.081   0.514
 2584SOL     OW 8650   3.978   0.865   3.229
 2584SOL    HW1 8651   4.067   0.821   3.231
 2584SOL    HW2 8652   3.914   0.809   3.175
 2585SOL     OW 8653   3.735   0.619   2.452
 2585SOL    HW1 8654   3.694   0.623   2.543
 2585SOL    HW2 8655   3.833   0.636   2.458
 2586SOL     OW 8656   0.825   1.507   4.084
 2586SOL    HW1 8657   0.847   1.594   4.038
 2586SOL    HW2 8658   0.890   1.491   4.157
 2587SOL     OW 8659   6.454   4.753   2.902
 2587SOL    HW1 8660   6.553   4.763   2.912
 2587SOL    HW2 8661   6.435   4.682   2.834
 2588SOL     OW 8662   3.670   6.733   2.677
 2588SOL    HW1 8663   3.635   6.781   2.757
 2588SOL    HW2 8664   3.741   6.788   2.634
 2589SOL     OW 8665   4.574   6.640   1.701
 2589SOL    HW1 8666   4.580   6.557   1.758
 2589SOL    HW2 8667   4.578   6.721   1.760
 2590SOL     OW 8668   4.155   6.003   3.984
 2590SOL    HW1 8669   4.201   5.947   4.053
 2590SOL    HW2 8670   4.176   5.968   3.893
 2591SOL     OW 8671   6.101   0.651   0.446
 2591SOL    HW1 8672   6.197   0.650   0.418
 2591SOL    HW2 8673   6.045   0.678   0.368
 2592SOL     OW 8674   2.684   4.714   1.759
 2592SOL    HW1 8675   2.588   4.689   1.761
 2592SOL    HW2 8676   2.728   4.687   1.845
 2593SOL     OW 8677   3.001   0.173   3.725
 2593SOL    HW1 8678   2.942   0.241   3.680
 2593SOL    HW2 8679   3.075   0.148   3.664
 2594SOL     OW 8680   1.993   6.072   6.877
 2594SOL    HW1 8681   2.080   6.086   6.925
 2594SOL    HW2 8682   2.009   6.016   6.796
 2595SOL     OW 8683   6.919   3.001   4.085
 2595SOL    HW1 8684   6.914   2.955   4.174
 2595SOL    HW2 8685   6.964   2.942   4.019
 2596SOL     OW 8686   4.285   1.828   1.123
 2596SOL    HW1 8687   4.287   1.798   1.028
 2596SOL    HW2 8688   4.318   1.922   1.128
 2597SOL     OW 8689   2.590   2.294   6.208
 2597SOL    HW1 8690   2.545   2.297   6.297
 2597SOL    HW2 8691   2.616   2.386   6.180
 2598SOL     OW 8692   6.755   1.246   2.967
 2598SOL    HW1 8693   6.722   1.325   3.019
 2598SOL    HW2 8694   6.739   1.261   2.869
 2599SOL     OW 8695   4.740   5.939   6.387
 2599SOL    HW1 8696   4.724   6.038   6.380
 2599SOL    HW2 8697   4.827   5.917   6.345
 2600SOL     OW 8698   0.651   2.435   4.827
 2600SOL    HW1 8699   0.654   2.405   4.732
 2600SOL    HW2 8700   0.678   2.359   4.887
 2601SOL     OW 8701   4.208   4.334   5.481
 2601SOL    HW1 8702   4.122   4.305   5.439
 2601SOL    HW2 8703   4.260   4.388   5.415
 2602SOL     OW 8704   5.700   6.750   6.049
 2602SOL    HW1 8705   5.769   6.724   5.982
 2602SOL    HW2 8706   5.701   6.849   6.062
 2603SOL     OW 8707   1.643   1.529   6.972
 2603SOL    HW1 8708   1.586   1.603   6.936
 2603SOL    HW2 8709   1.731   1.567   7.002
 2604SOL     OW 8710   5.325   1.626   0.509
 2604SOL    HW1 8711   5.365   1.637   0.600
 2604SOL    HW2 8712   5.240   1.679   0.504
 2605SOL     OW 8713   5.656   3.536   4.489
 2605SOL    HW1 8714   5.754   3.539   4.512
 2605SOL    HW2 8715   5.629   3.441   4.471
 2606SOL     OW 8716   6.744   4.564   1.276
 2606SOL    HW1 8717   6.687   4.588   1.197
 2606SOL    HW2 8718   6.807   4.491   1.249
 2607SOL     OW 8719   0.834   0.916   3.765
 2607SOL    HW1 8720   0.928   0.896   3.739
 2607SOL    HW2 8721   0.830   0.933   3.864
 2608SOL     OW 8722   4.685   0.490   0.500
 2608SOL    HW1 8723   4.756   0.520   0.563
 2608SOL    HW2 8724   4.713   0.510   0.406
 2609SOL     OW 8725   1.024   3.663   3.200
 2609SOL    HW1 8726   0.973   3.586   3.163
 2609SOL    HW2 8727   0.997   3.680   3.294
 2610SOL     OW 8728   5.164   5.719   4.734
 2610SOL    HW1 8729   5.263   5.730   4.745
 2610SOL    HW2 8730   5.144   5.632   4.690
 2611SOL     OW 8731   2.772   5.589   2.206
 2611SOL    HW1 8732   2.736   5.577   2.114
 2611SOL    HW2 8733   2.816   5.504   2.236
 2612SOL     OW 8734   0.510   0.075   5.293
 2612SOL    HW1 8735   0.605   0.049   5.279
 2612SOL    HW2 8736   0.496   0.169   5.260
 2613SOL     OW 8737   4.302   1.160   0.456
 2613SOL    HW1 8738   4.339   1.242   0.412
 2613SOL    HW2 8739   4.331   1.157   0.551
 2614SOL     OW 8740   6.247   6.288   6.790
 2614SOL    HW1 8741   6.209   6.277   6.882
 2614SOL    HW2 8742   6.173   6.292   6.723
 2615SOL     OW 8743   6.373   3.871   1.339
 2615SOL    HW1 8744   6.273   3.872   1.341
 2615SOL    HW2 8745   6.404   3.865   1.244
 2616SOL     OW 8746   3.948   3.991   1.907
 2616SOL    HW1 8747   3.963   4.027   1.999
 2616SOL    HW2 8748   3.991   4.051   1.840
 2617SOL     OW 8749   2.713   6.176   1.349
 2617SOL    HW1 8750   2.702   6.106   1.419
 2617SOL    HW2 8751   2.733   6.133   1.261
 2618SOL     OW 8752   0.974   6.168   0.201
 2618SOL    HW1 8753   0.884   6.175   0.158
 2618SOL    HW2 8754   0.976   6.087   0.260
 2619SOL     OW 8755   6.034   1.484   1.903
 2619SOL    HW1 8756   5.995   1.549   1.838
 2619SOL    HW2 8757   5.984   1.398   1.899
 2620SOL     OW 8758   1.636   5.830   4.065
 2620SOL    HW1 8759   1.557   5.773   4.087
 2620SOL    HW2 8760   1.665   5.812   3.971
 2621SOL     OW 8761   0.791   5.993   4.683
 2621SOL    HW1 8762   0.725   5.969   4.755
 2621SOL    HW2 8763   0.881   5.958   4.708
 2622SOL     OW 8764   2.381   2.642   4.749
 2622SOL    HW1 8765   2.344   2.720   4.697
 2622SOL    HW2 8766   2.447   2.676   4.817
 2623SOL     OW 8767   3.209   0.768   6.270
 2623SOL    HW1 8768   3.184   0.734   6.179
 2623SOL    HW2 8769   3.291   0.721   6.301
 2624SOL     OW 8770   5.887   1.973   4.116
 2624SOL    HW1 8771   5.791   1.972   4.145
 2624SOL    HW2 8772   5.903   1.895   4.055
 2625SOL     OW 8773   2.734   0.307   6.000
 2625SOL    HW1 8774   2.770   0.396   5.973
 2625SOL    HW2 8775   2.702   0.257   5.919
 2626SOL     OW 8776   1.668   6.948   3.090
 2626SOL    HW1 8777   1.742   6.979   3.149
 2626SOL    HW2 8778   1.671   6.849   3.081
 2627SOL     OW 8779   0.471   6.819   4.961
 2627SOL    HW1 8780   0.432   6.906   4.932
 2627SOL    HW2 8781   0.427   6.789   5.046
 2628SOL     OW 8782   4.287   5.756   0.046
 2628SOL    HW1 8783   4.275   5.726   6.970
 2628SOL    HW2 8784   4.300   5.676   0.105
 2629SOL     OW 8785   2.953   3.747   1.776
 2629SOL    HW1 8786   3.010   3.827   1.796
 2629SOL    HW2 8787   2.906   3.717   1.859
 2630SOL     OW 8788   3.369   2.013   2.758
 2630SOL    HW1 8789   3.425   2.046   2.835
 2630SOL    HW2 8790   3.417   2.030   2.672
 2631SOL     OW 8791   3.706   6.204   4.262
 2631SOL    HW1 8792   3.730   6.300   4.280
 2631SOL    HW2 8793   3.757   6.172   4.183
 2632SOL     OW 8794   4.909   1.315   1.253
 2632SOL    HW1 8795   4.953   1.390   1.302
 2632SOL    HW2 8796   4.947   1.228   1.286
 2633SOL     OW 8797   6.973   2.315   6.803
 2633SOL    HW1 8798   7.009   2.400   6.763
 2633SOL    HW2 8799   6.943   2.254   6.730
 2634SOL     OW 8800   3.010   4.856   0.688
 2634SOL    HW1 8801   2.951   4.801   0.629
 2634SOL    HW2 8802   3.100   4.864   0.646
 2635SOL     OW 8803   5.906   4.872   3.306
 2635SOL    HW1 8804   5.907   4.772   3.300
 2635SOL    HW2 8805   5.829   4.902   3.362
 2636SOL     OW 8806   6.003   5.874   5.215
 2636SOL    HW1 8807   5.929   5.808   5.202
 2636SOL    HW2 8808   6.080   5.850   5.156
 2637SOL     OW 8809   4.449   6.423   2.848
 2637SOL    HW1 8810   4.459   6.465   2.939
 2637SOL    HW2 8811   4.433   6.325   2.859
 2638SOL     OW 8812   4.929   5.494   1.101
 2638SOL    HW1 8813   5.025   5.470   1.117
 2638SOL    HW2 8814   4.890   5.434   1.032
 2639SOL     OW 8815   6.782   6.738   0.172
 2639SOL    HW1 8816   6.858   6.798   0.148
 2639SOL    HW2 8817   6.809   6.678   0.247
 2640SOL     OW 8818   6.584   6.579   6.541
 2640SOL    HW1 8819   6.576   6.480   6.550
 2640SOL    HW2 8820   6.534   6.623   6.616
 2641SOL     OW 8821   0.149   5.452   0.674
 2641SOL    HW1 8822   0.168   5.441   0.771
 2641SOL    HW2 8823   0.054   5.480   0.662
 2642SOL     OW 8824   6.556   0.508   3.895
 2642SOL    HW1 8825   6.502   0.469   3.820
 2642SOL    HW2 8826   6.627   0.567   3.858
 2643SOL     OW 8827   1.967   0.079   2.096
 2643SOL    HW1 8828   1.882   0.048   2.138
 2643SOL    HW2 8829   2.045   0.036   2.141
 2644SOL     OW 8830   6.658   6.061   4.686
 2644SOL    HW1 8831   6.637   6.124   4.761
 2644SOL    HW2 8832   6.652   6.110   4.599
 2645SOL     OW 8833   5.767   6.121   6.121
 2645SOL    HW1 8834   5.743   6.217   6.130
 2645SOL    HW2 8835   5.826   6.093   6.197
 2646SOL     OW 8836   5.982   6.035   6.295
 2646SOL    HW1 8837   6.034   6.022   6.379
 2646SOL    HW2 8838   6.019   5.977   6.223
 2647SOL     OW 8839   3.343   3.562   6.919
 2647SOL    HW1 8840   3.348   3.462   6.920
 2647SOL    HW2 8841   3.435   3.600   6.926
 2648SOL     OW 8842   4.102   1.593   3.308
 2648SOL    HW1 8843   4.009   1.595   3.344
 2648SOL    HW2 8844   4.115   1.669   3.244
 2649SOL     OW 8845   3.058   3.700   5.202
 2649SOL    HW1 8846   3.031   3.763   5.129
 2649SOL    HW2 8847   3.055   3.606   5.168
 2650SOL     OW 8848   0.589   6.695   2.351
 2650SOL    HW1 8849   0.501   6.656   2.321
 2650SOL    HW2 8850   0.663   6.651   2.301
 2651SOL     OW 8851   0.347   0.023   3.276
 2651SOL    HW1 8852   0.410   7.013   3.348
 2651SOL    HW2 8853   0.298   0.106   3.304
 2652SOL     OW 8854   3.333   3.483   2.711
 2652SOL    HW1 8855   3.307   3.528   2.796
 2652SOL    HW2 8856   3.375   3.395   2.731
 2653SOL     OW 8857   6.943   6.022   0.798
 2653SOL    HW1 8858   6.998   5.972   0.732
 2653SOL    HW2 8859   6.945   5.974   0.886
 2654SOL     OW 8860   6.767   2.084   5.991
 2654SOL    HW1 8861   6.731   2.106   6.082
 2654SOL    HW2 8862   6.699   2.030   5.941
 2655SOL     OW 8863   5.353   5.471   4.491
 2655SOL    HW1 8864   5.441   5.443   4.453
 2655SOL    HW2 8865   5.328   5.408   4.566
 2656SOL     OW 8866   5.886   3.432   4.896
 2656SOL    HW1 8867   5.868   3.340   4.862
 2656SOL    HW2 8868   5.800   3.482   4.906
 2657SOL     OW 8869   3.892   2.408   5.815
 2657SOL    HW1 8870   3.887   2.313   5.783
 2657SOL    HW2 8871   3.987   2.430   5.839
 2658SOL     OW 8872   6.080   3.961   4.981
 2658SOL    HW1 8873   5.993   3.972   5.028
 2658SOL    HW2 8874   6.098   3.864   4.964
 2659SOL     OW 8875   6.697   1.800   3.450
 2659SOL    HW1 8876   6.658   1.719   3.405
 2659SOL    HW2 8877   6.627   1.843   3.506
 2660SOL     OW 8878   0.589   2.409   3.287
 2660SOL    HW1 8879   0.527   2.331   3.294
 2660SOL    HW2 8880   0.656   2.405   3.362
 2661SOL     OW 8881   3.557   6.977   3.266
 2661SOL    HW1 8882   3.534   7.004   3.359
 2661SOL    HW2 8883   3.517   0.024   3.201
 2662SOL     OW 8884   3.829   0.955   3.927
 2662SOL    HW1 8885   3.751   0.984   3.871
 2662SOL    HW2 8886   3.834   0.855   3.927
 2663SOL     OW 8887   0.969   4.256   2.809
 2663SOL    HW1 8888   1.011   4.170   2.837
 2663SOL    HW2 8889   0.881   4.238   2.766
 2664SOL     OW 8890   4.339   4.322   1.557
 2664SOL    HW1 8891   4.371   4.280   1.641
 2664SOL    HW2 8892   4.346   4.422   1.565
 2665SOL     OW 8893   4.592   6.914   5.162
 2665SOL    HW1 8894   4.614   6.977   5.237
 2665SOL    HW2 8895   4.580   6.822   5.198
 2666SOL     OW 8896   5.133   5.541   1.717
 2666SOL    HW1 8897   5.090   5.536   1.807
 2666SOL    HW2 8898   5.195   5.620   1.714
 2667SOL     OW 8899   1.959   5.120   3.107
 2667SOL    HW1 8900   2.033   5.187   3.099
 2667SOL    HW2 8901   1.875   5.167   3.136
 2668SOL     OW 8902   6.922   2.404   5.111
 2668SOL    HW1 8903   6.987   2.330   5.129
 2668SOL    HW2 8904   6.971   2.483   5.074
 2669SOL     OW 8905   3.922   6.011   4.859
 2669SOL    HW1 8906   3.881   6.090   4.904
 2669SOL    HW2 8907   4.012   6.036   4.825
 2670SOL     OW 8908   2.746   6.487   4.283
 2670SOL    HW1 8909   2.808   6.412   4.305
 2670SOL    HW2 8910   2.754   6.558   4.353
 2671SOL     OW 8911   3.286   3.995   6.748
 2671SOL    HW1 8912   3.219   3.920   6.750
 2671SOL    HW2 8913   3.317   4.010   6.654
 2672SOL     OW 8914   0.647   4.468   0.251
 2672SOL    HW1 8915   0.646   4.381   0.201
 2672SOL    HW2 8916   0.600   4.456   0.339
 2673SOL     OW 8917   3.478   2.111   2.998
 2673SOL    HW1 8918   3.387   2.109   3.039
 2673SOL    HW2 8919   3.547   2.107   3.070
 2674SOL     OW 8920   5.829   5.666   5.262
 2674SOL    HW1 8921   5.795   5.600   5.195
 2674SOL    HW2 8922   5.789   5.646   5.351
 2675SOL     OW 8923   0.193   4.725   5.809
 2675SOL    HW1 8924   0.228   4.802   5.863
 2675SOL    HW2 8925   0.210   4.639   5.858
 2676SOL     OW 8926   4.373   0.555   1.731
 2676SOL    HW1 8927   4.388   0.523   1.825
 2676SOL    HW2 8928   4.283   0.596   1.724
 2677SOL     OW 8929   2.453   4.398   2.280
 2677SOL    HW1 8930   2.388   4.331   2.243
 2677SOL    HW2 8931   2.477   4.464   2.208
 2678SOL     OW 8932   0.431   6.310   6.471
 2678SOL    HW1 8933   0.358   6.299   6.403
 2678SOL    HW2 8934   0.408   6.259   6.554
 2679SOL     OW 8935   2.517   4.979   1.825
 2679SOL    HW1 8936   2.571   4.977   1.909
 2679SOL    HW2 8937   2.493   5.074   1.804
 2680SOL     OW 8938   0.775   2.570   1.036
 2680SOL    HW1 8939   0.851   2.505   1.034
 2680SOL    HW2 8940   0.728   2.565   1.124
 2681SOL     OW 8941   2.144   1.951   1.876
 2681SOL    HW1 8942   2.141   1.851   1.888
 2681SOL    HW2 8943   2.163   1.994   1.965
 2682SOL     OW 8944   6.717   2.726   3.929
 2682SOL    HW1 8945   6.808   2.748   3.894
 2682SOL    HW2 8946   6.725   2.658   4.001
 2683SOL     OW 8947   1.347   6.986   0.412
 2683SOL    HW1 8948   1.389   6.909   0.364
 2683SOL    HW2 8949   1.319   6.958   0.503
 2684SOL     OW 8950   2.191   5.717   2.717
 2684SOL    HW1 8951   2.267   5.691   2.656
 2684SOL    HW2 8952   2.158   5.808   2.692
 2685SOL     OW 8953   5.273   5.533   5.725
 2685SOL    HW1 8954   5.261   5.515   5.823
 2685SOL    HW2 8955   5.322   5.620   5.714
 2686SOL     OW 8956   1.131   3.193   5.078
 2686SOL    HW1 8957   1.109   3.226   4.986
 2686SOL    HW2 8958   1.230   3.180   5.086
 2687SOL     OW 8959   4.483   5.086   3.264
 2687SOL    HW1 8960   4.487   5.183   3.240
 2687SOL    HW2 8961   4.504   5.075   3.362
 2688SOL     OW 8962   3.435   4.466   5.585
 2688SOL    HW1 8963   3.396   4.527   5.655
 2688SOL    HW2 8964   3.446   4.374   5.623
 2689SOL     OW 8965   6.396   2.394   4.273
 2689SOL    HW1 8966   6.438   2.484   4.286
 2689SOL    HW2 8967   6.302   2.396   4.308
 2690SOL     OW 8968   3.018   3.917   3.652
 2690SOL    HW1 8969   2.991   3.931   3.747
 2690SOL    HW2 8970   3.109   3.956   3.636
 2691SOL     OW 8971   1.540   6.103   2.118
 2691SOL    HW1 8972   1.440   6.102   2.118
 2691SOL    HW2 8973   1.572   6.198   2.107
 2692SOL     OW 8974   6.962   4.429   3.352
 2692SOL    HW1 8975   6.899   4.354   3.336
 2692SOL    HW2 8976   6.995   4.465   3.265
 2693SOL     OW 8977   1.810   3.341   3.020
 2693SOL    HW1 8978   1.884   3.406   3.038
 2693SOL    HW2 8979   1.838   3.249   3.050
 2694SOL     OW 8980   2.107   1.869   2.741
 2694SOL    HW1 8981   2.023   1.824   2.710
 2694SOL    HW2 8982   2.090   1.912   2.830
 2695SOL     OW 8983   3.993   1.806   2.481
 2695SOL    HW1 8984   3.994   1.733   2.550
 2695SOL    HW2 8985   4.084   1.814   2.440
 2696SOL     OW 8986   3.651   3.563   5.948
 2696SOL    HW1 8987   3.679   3.612   6.031
 2696SOL    HW2 8988   3.730   3.516   5.908
 2697SOL     OW 8989   2.809   1.142   5.003
 2697SOL    HW1 8990   2.858   1.130   5.089
 2697SOL    HW2 8991   2.738   1.212   5.014
 2698SOL     OW 8992   1.552   1.913   6.644
 2698SOL    HW1 8993   1.633   1.971   6.638
 2698SOL    HW2 8994   1.578   1.818   6.624
 2699SOL     OW 8995   1.389   5.101   3.580
 2699SOL    HW1 8996   1.291   5.103   3.562
 2699SOL    HW2 8997   1.418   5.190   3.617
 2700SOL     OW 8998   2.253   4.264   2.981
 2700SOL    HW1 8999   2.275   4.252   2.884
 2700SOL    HW2 9000   2.164   4.223   3.001
 2701SOL     OW 9001   2.835   0.727   5.428
 2701SOL    HW1 9002   2.787   0.752   5.344
 2701SOL    HW2 9003   2.783   0.656   5.476
 2702SOL     OW 9004   6.507   6.338   2.775
 2702SOL    HW1 9005   6.558   6.366   2.693
 2702SOL    HW2 9006   6.514   6.239   2.787
 2703SOL     OW 9007   1.798   1.959   3.206
 2703SOL    HW1 9008   1.786   2.058   3.216
 2703SOL    HW2 9009   1.853   1.941   3.124
 2704SOL     OW 9010   1.372   6.152   0.830
 2704SOL    HW1 9011   1.369   6.154   0.730
 2704SOL    HW2 9012   1.416   6.235   0.864
 2705SOL     OW 9013   0.001   3.422   2.430
 2705SOL    HW1 9014   6.997   3.450   2.337
 2705SOL    HW2 9015   6.997   3.325   2.441
 2706SOL     OW 9016   6.705   2.261   3.563
 2706SOL    HW1 9017   6.666   2.254   3.654
 2706SOL    HW2 9018   6.632   2.252   3.495
 2707SOL     OW 9019   2.313   1.406   6.703
 2707SOL    HW1 9020   2.318   1.337   6.775
 2707SOL    HW2 9021   2.354   1.491   6.736
 2708SOL     OW 9022   1.485   4.818   0.000
 2708SOL    HW1 9023   1.536   4.862   0.074
 2708SOL    HW2 9024   1.484   4.877   6.938
 2709SOL     OW 9025   4.761   6.592   1.508
 2709SOL    HW1 9026   4.679   6.604   1.565
 2709SOL    HW2 9027   4.843   6.604   1.564
 2710SOL     OW 9028   6.612   4.317   2.704
 2710SOL    HW1 9029   6.603   4.398   2.645
 2710SOL    HW2 9030   6.523   4.274   2.716
 2711SOL     OW 9031   1.577   0.044   2.455
 2711SOL    HW1 9032   1.533   7.007   2.526
 2711SOL    HW2 9033   1.512   0.112   2.420
 2712SOL     OW 9034   3.273   5.507   2.669
 2712SOL    HW1 9035   3.179   5.530   2.692
 2712SOL    HW2 9036   3.289   5.524   2.572
 2713SOL     OW 9037   1.984   2.688   5.586
 2713SOL    HW1 9038   1.918   2.733   5.646
 2713SOL    HW2 9039   2.076   2.722   5.607
 2714SOL     OW 9040   5.425   0.157   6.846
 2714SOL    HW1 9041   5.389   0.250   6.859
 2714SOL    HW2 9042   5.361   0.103   6.793
 2715SOL     OW 9043   6.626   0.781   6.900
 2715SOL    HW1 9044   6.637   0.808   6.996
 2715SOL    HW2 9045   6.550   0.717   6.891
 2716SOL     OW 9046   6.344   6.740   2.022
 2716SOL    HW1 9047   6.289   6.715   2.102
 2716SOL    HW2 9048   6.284   6.763   1.946
 2717SOL     OW 9049   0.339   6.770   3.187
 2717SOL    HW1 9050   0.402   6.805   3.117
 2717SOL    HW2 9051   0.310   6.846   3.245
 2718SOL     OW 9052   0.793   4.109   3.227
 2718SOL    HW1 9053   0.817   4.194   3.275
 2718SOL    HW2 9054   0.778   4.036   3.294
 2719SOL     OW 9055   4.062   4.761   2.886
 2719SOL    HW1 9056   4.135   4.822   2.855
 2719SOL    HW2 9057   4.046   4.691   2.817
 2720SOL     OW 9058   0.773   6.117   4.259
 2720SOL    HW1 9059   0.748   6.130   4.355
 2720SOL    HW2 9060   0.710   6.050   4.217
 2721SOL     OW 9061   5.222   6.160   3.519
 2721SOL    HW1 9062   5.141   6.150   3.577
 2721SOL    HW2 9063   5.231   6.255   3.491
 2722SOL     OW 9064   0.845   6.049   1.767
 2722SOL    HW1 9065   0.856   6.006   1.857
 2722SOL    HW2 9066   0.868   5.982   1.696
 2723SOL     OW 9067   2.184   1.750   4.448
 2723SOL    HW1 9068   2.183   1.849   4.461
 2723SOL    HW2 9069   2.186   1.705   4.537
 2724SOL     OW 9070   4.471   5.865   6.085
 2724SOL    HW1 9071   4.385   5.917   6.088
 2724SOL    HW2 9072   4.500   5.843   6.178
 2725SOL     OW 9073   2.809   4.806   3.805
 2725SOL    HW1 9074   2.789   4.866   3.882
 2725SOL    HW2 9075   2.750   4.726   3.809
 2726SOL     OW 9076   4.321   6.414   2.586
 2726SOL    HW1 9077   4.226   6.403   2.617
 2726SOL    HW2 9078   4.381   6.423   2.665
 2727SOL     OW 9079   1.751   6.100   4.153
 2727SOL    HW1 9080   1.690   6.023   4.131
 2727SOL    HW2 9081   1.840   6.065   4.181
 2728SOL     OW 9082   2.835   6.923   5.312
 2728SOL    HW1 9083   2.863   7.014   5.279
 2728SOL    HW2 9084   2.739   6.927   5.342
 2729SOL     OW 9085   0.253   4.790   2.574
 2729SOL    HW1 9086   0.199   4.865   2.535
 2729SOL    HW2 9087   0.280   4.727   2.500
 2730SOL     OW 9088   1.294   4.582   1.084
 2730SOL    HW1 9089   1.384   4.585   1.041
 2730SOL    HW2 9090   1.270   4.487   1.104
 2731SOL     OW 9091   2.681   3.803   0.884
 2731SOL    HW1 9092   2.751   3.845   0.942
 2731SOL    HW2 9093   2.722   3.780   0.795
 2732SOL     OW 9094   5.323   3.179   4.351
 2732SOL    HW1 9095   5.261   3.235   4.405
 2732SOL    HW2 9096   5.275   3.144   4.271
 2733SOL     OW 9097   2.208   0.736   6.430
 2733SOL    HW1 9098   2.228   0.833   6.447
 2733SOL    HW2 9099   2.115   0.715   6.463
 2734SOL     OW 9100   1.758   0.037   4.255
 2734SOL    HW1 9101   1.809   6.982   4.302
 2734SOL    HW2 9102   1.798   0.053   4.165
 2735SOL     OW 9103   1.769   5.612   1.638
 2735SOL    HW1 9104   1.690   5.553   1.655
 2735SOL    HW2 9105   1.739   5.695   1.592
 2736SOL     OW 9106   4.215   6.855   6.750
 2736SOL    HW1 9107   4.136   6.860   6.812
 2736SOL    HW2 9108   4.182   6.833   6.658
 2737SOL     OW 9109   4.031   3.806   5.391
 2737SOL    HW1 9110   4.048   3.870   5.316
 2737SOL    HW2 9111   3.978   3.728   5.357
 2738SOL     OW 9112   6.269   4.143   4.261
 2738SOL    HW1 9113   6.298   4.142   4.357
 2738SOL    HW2 9114   6.348   4.165   4.203
 2739SOL     OW 9115   4.418   4.377   7.008
 2739SOL    HW1 9116   4.452   4.417   0.075
 2739SOL    HW2 9117   4.479   4.302   6.980
 2740SOL     OW 9118   5.987   2.641   4.422
 2740SOL    HW1 9119   5.964   2.672   4.330
 2740SOL    HW2 9120   6.066   2.580   4.418
 2741SOL     OW 9121   2.148   3.088   5.118
 2741SOL    HW1 9122   2.142   3.097   5.019
 2741SOL    HW2 9123   2.237   3.048   5.142
 2742SOL     OW 9124   2.702   6.010   5.413
 2742SOL    HW1 9125   2.712   6.098   5.458
 2742SOL    HW2 9126   2.721   5.936   5.478
 2743SOL     OW 9127   5.671   4.408   6.878
 2743SOL    HW1 9128   5.696   4.329   6.934
 2743SOL    HW2 9129   5.656   4.378   6.783
 2744SOL     OW 9130   4.771   6.533   0.433
 2744SOL    HW1 9131   4.851   6.522   0.492
 2744SOL    HW2 9132   4.801   6.558   0.341
 2745SOL     OW 9133   3.220   5.914   2.046
 2745SOL    HW1 9134   3.286   5.910   1.971
 2745SOL    HW2 9135   3.202   5.822   2.080
 2746SOL     OW 9136   0.879   1.936   6.461
 2746SOL    HW1 9137   0.813   1.973   6.527
 2746SOL    HW2 9138   0.830   1.905   6.379
 2747SOL     OW 9139   4.987   6.062   3.604
 2747SOL    HW1 9140   5.017   5.980   3.654
 2747SOL    HW2 9141   4.945   6.035   3.517
 2748SOL     OW 9142   5.898   1.306   4.870
 2748SOL    HW1 9143   5.840   1.225   4.868
 2748SOL    HW2 9144   5.942   1.319   4.781
 2749SOL     OW 9145   5.162   5.002   3.429
 2749SOL    HW1 9146   5.087   4.977   3.491
 2749SOL    HW2 9147   5.226   4.925   3.423
 2750SOL     OW 9148   1.162   6.339   0.557
 2750SOL    HW1 9149   1.066   6.326   0.582
 2750SOL    HW2 9150   1.193   6.428   0.590
 2751SOL     OW 9151   1.791   0.135   6.822
 2751SOL    HW1 9152   1.726   0.070   6.862
 2751SOL    HW2 9153   1.826   0.099   6.736
 2752SOL     OW 9154   0.929   6.616   6.223
 2752SOL    HW1 9155   0.918   6.680   6.299
 2752SOL    HW2 9156   0.967   6.530   6.256
 2753SOL     OW 9157   3.504   5.380   5.212
 2753SOL    HW1 9158   3.585   5.326   5.238
 2753SOL    HW2 9159   3.522   5.477   5.229
 2754SOL     OW 9160   1.032   6.056   4.305
 2754SOL    HW1 9161   1.090   6.076   4.225
 2754SOL    HW2 9162   0.936   6.061   4.278
 2755SOL     OW 9163   4.653   6.197   2.641
 2755SOL    HW1 9164   4.616   6.215   2.732
 2755SOL    HW2 9165   4.579   6.202   2.574
 2756SOL     OW 9166   0.353   2.949   5.087
 2756SOL    HW1 9167   0.342   2.869   5.146
 2756SOL    HW2 9168   0.451   2.966   5.073
 2757SOL     OW 9169   5.411   3.828   6.218
 2757SOL    HW1 9170   5.321   3.806   6.181
 2757SOL    HW2 9171   5.482   3.785   6.162
 2758SOL     OW 9172   0.053   6.320   1.460
 2758SOL    HW1 9173   6.992   6.308   1.519
 2758SOL    HW2 9174   0.037   6.275   1.372
 2759SOL     OW 9175   3.630   3.721   5.167
 2759SOL    HW1 9176   3.645   3.780   5.088
 2759SOL    HW2 9177   3.536   3.687   5.167
 2760SOL     OW 9178   5.067   5.420   2.420
 2760SOL    HW1 9179   5.138   5.377   2.475
 2760SOL    HW2 9180   5.109   5.486   2.358
 2761SOL     OW 9181   1.653   3.250   4.215
 2761SOL    HW1 9182   1.631   3.345   4.193
 2761SOL    HW2 9183   1.636   3.192   4.135
 2762SOL     OW 9184   4.512   1.509   2.065
 2762SOL    HW1 9185   4.586   1.518   2.130
 2762SOL    HW2 9186   4.448   1.438   2.096
 2763SOL     OW 9187   5.883   0.932   4.018
 2763SOL    HW1 9188   5.976   0.961   3.998
 2763SOL    HW2 9189   5.830   0.927   3.933
 2764SOL     OW 9190   6.713   2.764   3.487
 2764SOL    HW1 9191   6.706   2.686   3.550
 2764SOL    HW2 9192   6.810   2.785   3.470
 2765SOL     OW 9193   0.219   6.417   6.806
 2765SOL    HW1 9194   0.222   6.511   6.772
 2765SOL    HW2 9195   0.306   6.371   6.787
 2766SOL     OW 9196   4.966   0.278   0.647
 2766SOL    HW1 9197   4.875   0.240   0.658
 2766SOL    HW2 9198   4.963   0.355   0.583
 2767SOL     OW 9199   0.498   5.787   5.461
 2767SOL    HW1 9200   0.526   5.883   5.463
 2767SOL    HW2 9201   0.413   5.778   5.410
 2768SOL     OW 9202   4.005   6.623   1.444
 2768SOL    HW1 9203   4.098   6.587   1.444
 2768SOL    HW2 9204   3.990   6.677   1.527
 2769SOL     OW 9205   0.460   4.925   5.422
 2769SOL    HW1 9206   0.471   5.006   5.479
 2769SOL    HW2 9207   0.429   4.848   5.477
 2770SOL     OW 9208   2.551   6.629   0.321
 2770SOL    HW1 9209   2.501   6.621   0.407
 2770SOL    HW2 9210   2.494   6.595   0.246
 2771SOL     OW 9211   4.323   6.890   5.252
 2771SOL    HW1 9212   4.340   6.901   5.350
 2771SOL    HW2 9213   4.408   6.865   5.206
 2772SOL     OW 9214   5.343   2.055   3.590
 2772SOL    HW1 9215   5.354   1.968   3.637
 2772SOL    HW2 9216   5.250   2.063   3.555
 2773SOL     OW 9217   5.806   2.138   6.419
 2773SOL    HW1 9218   5.772   2.123   6.326
 2773SOL    HW2 9219   5.731   2.133   6.484
 2774SOL     OW 9220   6.807   0.476   4.092
 2774SOL    HW1 9221   6.714   0.442   4.080
 2774SOL    HW2 9222   6.805   0.575   4.105
 2775SOL     OW 9223   6.966   1.956   4.534
 2775SOL    HW1 9224   6.955   1.913   4.623
 2775SOL    HW2 9225   0.009   1.900   4.477
 2776SOL     OW 9226   4.434   3.805   6.240
 2776SOL    HW1 9227   4.387   3.732   6.289
 2776SOL    HW2 9228   4.372   3.846   6.173
 2777SOL     OW 9229   1.959   2.066   0.257
 2777SOL    HW1 9230   2.000   2.075   0.348
 2777SOL    HW2 9231   1.862   2.089   0.262
 2778SOL     OW 9232   3.208   0.358   5.763
 2778SOL    HW1 9233   3.221   0.432   5.696
 2778SOL    HW2 9234   3.295   0.311   5.777
 2779SOL     OW 9235   5.003   0.897   2.805
 2779SOL    HW1 9236   4.918   0.943   2.829
 2779SOL    HW2 9237   4.990   0.798   2.810
 2780SOL     OW 9238   0.646   1.249   4.699
 2780SOL    HW1 9239   0.675   1.329   4.751
 2780SOL    HW2 9240   0.556   1.266   4.659
 2781SOL     OW 9241   0.365   0.215   2.688
 2781SOL    HW1 9242   0.397   0.123   2.667
 2781SOL    HW2 9243   0.444   0.274   2.709
 2782SOL     OW 9244   5.730   0.149   5.013
 2782SOL    HW1 9245   5.658   0.170   5.079
 2782SOL    HW2 9246   5.805   0.101   5.060
 2783SOL     OW 9247   5.620   2.779   1.856
 2783SOL    HW1 9248   5.677   2.699   1.876
 2783SOL    HW2 9249   5.550   2.755   1.789
 2784SOL     OW 9250   0.437   2.889   1.982
 2784SOL    HW1 9251   0.374   2.929   1.916
 2784SOL    HW2 9252   0.390   2.816   2.033
 2785SOL     OW 9253   5.391   4.089   3.475
 2785SOL    HW1 9254   5.314   4.054   3.528
 2785SOL    HW2 9255   5.464   4.021   3.473
 2786SOL     OW 9256   6.891   5.542   0.653
 2786SOL    HW1 9257   6.910   5.447   0.680
 2786SOL    HW2 9258   6.800   5.569   0.687
 2787SOL     OW 9259   0.990   6.565   5.743
 2787SOL    HW1 9260   1.073   6.526   5.781
 2787SOL    HW2 9261   0.954   6.634   5.806
 2788SOL     OW 9262   2.919   6.361   0.262
 2788SOL    HW1 9263   2.905   6.446   0.313
 2788SOL    HW2 9264   2.893   6.283   0.319
 2789SOL     OW 9265   1.831   1.460   3.857
 2789SOL    HW1 9266   1.781   1.384   3.815
 2789SOL    HW2 9267   1.866   1.521   3.786
 2790SOL     OW 9268   6.623   5.310   1.274
 2790SOL    HW1 9269   6.616   5.333   1.177
 2790SOL    HW2 9270   6.704   5.354   1.313
 2791SOL     OW 9271   0.631   3.031   5.020
 2791SOL    HW1 9272   0.592   3.078   4.941
 2791SOL    HW2 9273   0.730   3.047   5.023
 2792SOL     OW 9274   3.322   2.401   6.167
 2792SOL    HW1 9275   3.277   2.312   6.158
 2792SOL    HW2 9276   3.397   2.407   6.101
 2793SOL     OW 9277   3.801   3.459   6.472
 2793SOL    HW1 9278   3.810   3.367   6.510
 2793SOL    HW2 9279   3.715   3.500   6.503
 2794SOL     OW 9280   1.925   1.972   6.923
 2794SOL    HW1 9281   1.854   1.922   6.973
 2794SOL    HW2 9282   1.888   2.061   6.894
 2795SOL     OW 9283   1.397   6.998   0.856
 2795SOL    HW1 9284   1.408   0.079   0.859
 2795SOL    HW2 9285   1.460   6.955   0.921
 2796SOL     OW 9286   3.041   6.251   6.869
 2796SOL    HW1 9287   2.952   6.296   6.868
 2796SOL    HW2 9288   3.049   6.194   6.952
 2797SOL     OW 9289   4.840   4.041   4.223
 2797SOL    HW1 9290   4.794   4.100   4.289
 2797SOL    HW2 9291   4.920   3.998   4.265
 2798SOL     OW 9292   5.347   2.317   1.878
 2798SOL    HW1 9293   5.413   2.376   1.833
 2798SOL    HW2 9294   5.392   2.264   1.950
 2799SOL     OW 9295   3.371   6.455   4.964
 2799SOL    HW1 9296   3.358   6.391   4.888
 2799SOL    HW2 9297   3.310   6.533   4.953
 2800SOL     OW 9298   5.128   1.671   6.873
 2800SOL    HW1 9299   5.116   1.577   6.905
 2800SOL    HW2 9300   5.067   1.688   6.796
 2801SOL     OW 9301   0.392   4.286   3.357
 2801SOL    HW1 9302   0.438   4.217   3.301
 2801SOL    HW2 9303   0.446   4.304   3.439
 2802SOL     OW 9304   1.226   4.898   4.347
 2802SOL    HW1 9305   1.323   4.880   4.362
 2802SOL    HW2 9306   1.196   4.848   4.265
 2803SOL     OW 9307   3.211   2.367   6.435
 2803SOL    HW1 9308   3.261   2.394   6.352
 2803SOL    HW2 9309   3.270   2.382   6.515
 2804SOL     OW 9310   5.878   2.727   4.189
 2804SOL    HW1 9311   5.950   2.758   4.127
 2804SOL    HW2 9312   5.790   2.764   4.160
 2805SOL     OW 9313   4.352   4.574   0.261
 2805SOL    HW1 9314   4.451   4.576   0.246
 2805SOL    HW2 9315   4.334   4.541   0.353
 2806SOL     OW 9316   0.235   3.240   4.611
 2806SOL    HW1 9317   0.228   3.319   4.671
 2806SOL    HW2 9318   0.331   3.218   4.596
 2807SOL     OW 9319   4.595   1.782   4.085
 2807SOL    HW1 9320   4.588   1.747   4.178
 2807SOL    HW2 9321   4.691   1.797   4.062
 2808SOL     OW 9322   1.318   6.136   6.180
 2808SOL    HW1 9323   1.362   6.050   6.205
 2808SOL    HW2 9324   1.223   6.134   6.210
 2809SOL     OW 9325   0.909   6.061   0.846
 2809SOL    HW1 9326   0.831   6.055   0.783
 2809SOL    HW2 9327   0.902   6.144   0.901
 2810SOL     OW 9328   0.791   6.209   2.370
 2810SOL    HW1 9329   0.703   6.227   2.324
 2810SOL    HW2 9330   0.776   6.204   2.469
 2811SOL     OW 9331   0.800   0.884   0.679
 2811SOL    HW1 9332   0.759   0.959   0.730
 2811SOL    HW2 9333   0.886   0.916   0.638
 2812SOL     OW 9334   1.904   1.269   1.154
 2812SOL    HW1 9335   1.890   1.199   1.084
 2812SOL    HW2 9336   1.952   1.229   1.232
 2813SOL     OW 9337   6.706   1.953   1.144
 2813SOL    HW1 9338   6.631   1.923   1.201
 2813SOL    HW2 9339   6.718   1.888   1.068
 2814SOL     OW 9340   2.500   4.309   0.005
 2814SOL    HW1 9341   2.563   4.235   0.027
 2814SOL    HW2 9342   2.453   4.289   6.937
 2815SOL     OW 9343   6.859   5.566   4.939
 2815SOL    HW1 9344   6.848   5.586   4.842
 2815SOL    HW2 9345   6.785   5.507   4.970
 2816SOL     OW 9346   1.195   4.927   4.630
 2816SOL    HW1 9347   1.211   4.899   4.535
 2816SOL    HW2 9348   1.215   4.851   4.691
 2817SOL     OW 9349   2.388   0.513   2.151
 2817SOL    HW1 9350   2.425   0.569   2.077
 2817SOL    HW2 9351   2.345   0.572   2.219
 2818SOL     OW 9352   1.537   0.845   0.645
 2818SOL    HW1 9353   1.581   0.847   0.555
 2818SOL    HW2 9354   1.568   0.765   0.696
 2819SOL     OW 9355   6.965   0.291   6.511
 2819SOL    HW1 9356   6.918   0.274   6.424
 2819SOL    HW2 9357   6.898   0.297   6.585
 2820SOL     OW 9358   1.986   1.859   0.655
 2820SOL    HW1 9359   1.888   1.846   0.639
 2820SOL    HW2 9360   2.026   1.773   0.686
 2821SOL     OW 9361   2.972   2.252   6.277
 2821SOL    HW1 9362   2.968   2.245   6.177
 2821SOL    HW2 9363   2.954   2.346   6.305
 2822SOL     OW 9364   4.162   2.916   1.342
 2822SOL    HW1 9365   4.217   2.837   1.370
 2822SOL    HW2 9366   4.212   2.968   1.273
 2823SOL     OW 9367   5.966   3.965   2.636
 2823SOL    HW1 9368   5.973   3.949   2.537
 2823SOL    HW2 9369   5.906   3.896   2.677
 2824SOL     OW 9370   0.422   4.495   5.177
 2824SOL    HW1 9371   0.398   4.457   5.088
 2824SOL    HW2 9372   0.376   4.444   5.250
 2825SOL     OW 9373   5.470   2.100   5.608
 2825SOL    HW1 9374   5.566   2.072   5.616
 2825SOL    HW2 9375   5.411   2.025   5.639
 2826SOL     OW 9376   2.753   3.177   6.810
 2826SOL    HW1 9377   2.821   3.249   6.822
 2826SOL    HW2 9378   2.673   3.213   6.762
 2827SOL     OW 9379   6.603   1.790   0.045
 2827SOL    HW1 9380   6.583   1.888   0.048
 2827SOL    HW2 9381   6.567   1.751   6.978
 2828SOL     OW 9382   1.630   4.207   0.174
 2828SOL    HW1 9383   1.671   4.125   0.215
 2828SOL    HW2 9384   1.578   4.257   0.243
 2829SOL     OW 9385   3.314   4.040   1.711
 2829SOL    HW1 9386   3.224   4.018   1.748
 2829SOL    HW2 9387   3.382   3.981   1.754
 2830SOL     OW 9388   3.186   5.629   4.259
 2830SOL    HW1 9389   3.227   5.627   4.350
 2830SOL    HW2 9390   3.093   5.593   4.263
 2831SOL     OW 9391   6.304   1.463   1.981
 2831SOL    HW1 9392   6.374   1.518   1.936
 2831SOL    HW2 9393   6.221   1.462   1.925
 2832SOL     OW 9394   1.283   4.105   1.746
 2832SOL    HW1 9395   1.371   4.060   1.737
 2832SOL    HW2 9396   1.253   4.100   1.842
 2833SOL     OW 9397   6.402   3.255   3.431
 2833SOL    HW1 9398   6.401   3.235   3.333
 2833SOL    HW2 9399   6.428   3.173   3.481
 2834SOL     OW 9400   3.017   0.435   4.536
 2834SOL    HW1 9401   3.038   0.446   4.439
 2834SOL    HW2 9402   2.918   0.438   4.549
 2835SOL     OW 9403   6.921   1.060   0.408
 2835SOL    HW1 9404   6.899   1.062   0.505
 2835SOL    HW2 9405   6.983   1.135   0.386
 2836SOL     OW 9406   3.466   5.598   1.320
 2836SOL    HW1 9407   3.472   5.647   1.233
 2836SOL    HW2 9408   3.381   5.547   1.325
 2837SOL     OW 9409   5.690   3.992   2.357
 2837SOL    HW1 9410   5.606   3.960   2.402
 2837SOL    HW2 9411   5.707   4.087   2.383
 2838SOL     OW 9412   6.802   3.995   5.790
 2838SOL    HW1 9413   6.840   4.052   5.718
 2838SOL    HW2 9414   6.781   4.052   5.870
 2839SOL     OW 9415   5.756   2.981   5.938
 2839SOL    HW1 9416   5.773   3.079   5.955
 2839SOL    HW2 9417   5.734   2.936   6.025
 2840SOL     OW 9418   6.367   6.464   5.347
 2840SOL    HW1 9419   6.321   6.384   5.311
 2840SOL    HW2 9420   6.301   6.523   5.393
 2841SOL     OW 9421   5.550   3.789   2.926
 2841SOL    HW1 9422   5.553   3.872   2.982
 2841SOL    HW2 9423   5.479   3.798   2.857
 2842SOL     OW 9424   0.877   6.557   3.838
 2842SOL    HW1 9425   0.800   6.516   3.887
 2842SOL    HW2 9426   0.854   6.565   3.741
 2843SOL     OW 9427   1.195   3.234   4.394
 2843SOL    HW1 9428   1.119   3.281   4.439
 2843SOL    HW2 9429   1.267   3.300   4.372
 2844SOL     OW 9430   5.427   4.012   0.393
 2844SOL    HW1 9431   5.383   3.987   0.307
 2844SOL    HW2 9432   5.521   4.042   0.376
 2845SOL     OW 9433   3.856   1.867   1.413
 2845SOL    HW1 9434   3.776   1.866   1.352
 2845SOL    HW2 9435   3.894   1.775   1.420
 2846SOL     OW 9436   4.884   6.885   0.138
 2846SOL    HW1 9437   4.892   6.917   0.043
 2846SOL    HW2 9438   4.890   6.785   0.140
 2847SOL     OW 9439   5.298   4.654   2.459
 2847SOL    HW1 9440   5.356   4.729   2.491
 2847SOL    HW2 9441   5.204   4.670   2.489
 2848SOL     OW 9442   0.301   3.391   6.972
 2848SOL    HW1 9443   0.390   3.424   6.941
 2848SOL    HW2 9444   0.311   3.298   7.007
 2849SOL     OW 9445   5.303   0.863   0.974
 2849SOL    HW1 9446   5.220   0.829   0.931
 2849SOL    HW2 9447   5.355   0.785   1.011
 2850SOL     OW 9448   0.778   0.940   1.117
 2850SOL    HW1 9449   0.756   0.985   1.030
 2850SOL    HW2 9450   0.693   0.912   1.162
 2851SOL     OW 9451   3.858   3.552   1.937
 2851SOL    HW1 9452   3.784   3.598   1.888
 2851SOL    HW2 9453   3.835   3.547   2.034
 2852SOL     OW 9454   0.690   5.094   4.730
 2852SOL    HW1 9455   0.690   5.183   4.686
 2852SOL    HW2 9456   0.674   5.105   4.828
 2853SOL     OW 9457   0.340   4.686   5.551
 2853SOL    HW1 9458   0.266   4.636   5.505
 2853SOL    HW2 9459   0.320   4.691   5.649
 2854SOL     OW 9460   3.310   0.460   6.839
 2854SOL    HW1 9461   3.380   0.505   6.895
 2854SOL    HW2 9462   3.227   0.515   6.839
 2855SOL     OW 9463   2.043   1.971   4.135
 2855SOL    HW1 9464   1.975   1.969   4.061
 2855SOL    HW2 9465   2.134   1.980   4.097
 2856SOL     OW 9466   1.428   5.714   5.003
 2856SOL    HW1 9467   1.403   5.715   5.100
 2856SOL    HW2 9468   1.467   5.625   4.979
 2857SOL     OW 9469   0.617   4.336   0.825
 2857SOL    HW1 9470   0.673   4.319   0.743
 2857SOL    HW2 9471   0.526   4.299   0.811
 2858SOL     OW 9472   5.459   4.637   3.679
 2858SOL    HW1 9473   5.433   4.559   3.735
 2858SOL    HW2 9474   5.531   4.610   3.615
 2859SOL     OW 9475   6.490   4.800   2.228
 2859SOL    HW1 9476   6.430   4.880   2.218
 2859SOL    HW2 9477   6.458   4.726   2.169
 2860SOL     OW 9478   1.033   6.774   3.469
 2860SOL    HW1 9479   1.003   6.813   3.381
 2860SOL    HW2 9480   1.049   6.848   3.534
 2861SOL     OW 9481   5.353   3.527   4.957
 2861SOL    HW1 9482   5.274   3.483   4.915
 2861SOL    HW2 9483   5.321   3.598   5.020
 2862SOL     OW 9484   4.589   0.656   0.077
 2862SOL    HW1 9485   4.521   0.671   0.149
 2862SOL    HW2 9486   4.555   0.693   7.009
 2863SOL     OW 9487   5.524   1.649   6.005
 2863SOL    HW1 9488   5.579   1.621   5.926
 2863SOL    HW2 9489   5.430   1.616   5.994
 2864SOL     OW 9490   4.024   4.541   1.036
 2864SOL    HW1 9491   3.983   4.471   1.095
 2864SOL    HW2 9492   4.109   4.506   0.998
 2865SOL     OW 9493   5.447   5.403   5.995
 2865SOL    HW1 9494   5.529   5.420   5.941
 2865SOL    HW2 9495   5.450   5.459   6.078
 2866SOL     OW 9496   4.015   5.783   1.037
 2866SOL    HW1 9497   4.084   5.717   1.067
 2866SOL    HW2 9498   3.974   5.751   0.951
 2867SOL     OW 9499   0.027   6.177   3.008
 2867SOL    HW1 9500   0.085   6.221   3.077
 2867SOL    HW2 9501   6.993   6.247   2.959
 2868SOL     OW 9502   6.701   6.935   5.548
 2868SOL    HW1 9503   6.679   6.897   5.637
 2868SOL    HW2 9504   6.743   0.007   5.559
 2869SOL     OW 9505   5.179   5.144   5.428
 2869SOL    HW1 9506   5.147   5.235   5.451
 2869SOL    HW2 9507   5.278   5.146   5.412
 2870SOL     OW 9508   0.601   1.415   1.202
 2870SOL    HW1 9509   0.616   1.513   1.218
 2870SOL    HW2 9510   0.579   1.370   1.289
 2871SOL     OW 9511   4.489   1.236   3.231
 2871SOL    HW1 9512   4.408   1.279   3.191
 2871SOL    HW2 9513   4.491   1.139   3.206
 2872SOL     OW 9514   3.623   1.587   2.653
 2872SOL    HW1 9515   3.639   1.588   2.751
 2872SOL    HW2 9516   3.559   1.660   2.629
 2873SOL     OW 9517   0.798   0.135   2.699
 2873SOL    HW1 9518   0.810   0.218   2.644
 2873SOL    HW2 9519   0.767   0.060   2.640
 2874SOL     OW 9520   2.064   0.840   3.188
 2874SOL    HW1 9521   2.002   0.831   3.266
 2874SOL    HW2 9522   2.148   0.884   3.218
 2875SOL     OW 9523   2.450   0.579   2.822
 2875SOL    HW1 9524   2.547   0.599   2.835
 2875SOL    HW2 9525   2.440   0.497   2.766
 2876SOL     OW 9526   0.683   6.965   0.964
 2876SOL    HW1 9527   0.782   6.954   0.964
 2876SOL    HW2 9528   0.652   6.993   1.055
 2877SOL     OW 9529   1.280   3.341   6.061
 2877SOL    HW1 9530   1.369   3.298   6.074
 2877SOL    HW2 9531   1.234   3.352   6.149
 2878SOL     OW 9532   3.085   3.058   4.504
 2878SOL    HW1 9533   3.041   3.121   4.568
 2878SOL    HW2 9534   3.153   3.004   4.553
 2879SOL     OW 9535   5.884   5.794   0.508
 2879SOL    HW1 9536   5.950   5.848   0.561
 2879SOL    HW2 9537   5.860   5.711   0.559
 2880SOL     OW 9538   1.443   1.744   2.881
 2880SOL    HW1 9539   1.478   1.709   2.968
 2880SOL    HW2 9540   1.377   1.678   2.844
 2881SOL     OW 9541   5.006   5.094   6.960
 2881SOL    HW1 9542   5.043   5.139   0.023
 2881SOL    HW2 9543   4.963   5.008   6.986
 2882SOL     OW 9544   4.675   6.527   0.032
 2882SOL    HW1 9545   4.721   6.555   6.966
 2882SOL    HW2 9546   4.603   6.592   0.055
 2883SOL     OW 9547   5.137   6.429   3.008
 2883SOL    HW1 9548   5.040   6.445   3.028
 2883SOL    HW2 9549   5.166   6.343   3.049
 2884SOL     OW 9550   6.135   5.670   3.541
 2884SOL    HW1 9551   6.121   5.581   3.497
 2884SOL    HW2 9552   6.047   5.710   3.566
 2885SOL     OW 9553   0.161   3.819   3.196
 2885SOL    HW1 9554   0.072   3.775   3.186
 2885SOL    HW2 9555   0.233   3.751   3.193
 2886SOL     OW 9556   2.250   4.187   4.806
 2886SOL    HW1 9557   2.317   4.171   4.733
 2886SOL    HW2 9558   2.251   4.110   4.869
 2887SOL     OW 9559   6.912   5.130   2.838
 2887SOL    HW1 9560   7.002   5.098   2.866
 2887SOL    HW2 9561   6.868   5.176   2.916
 2888SOL     OW 9562   4.280   6.228   6.296
 2888SOL    HW1 9563   4.305   6.253   6.202
 2888SOL    HW2 9564   4.359   6.238   6.356
 2889SOL     OW 9565   3.975   5.757   4.763
 2889SOL    HW1 9566   4.070   5.762   4.732
 2889SOL    HW2 9567   3.938   5.849   4.772
 2890SOL     OW 9568   1.901   2.294   0.611
 2890SOL    HW1 9569   1.955   2.231   0.555
 2890SOL    HW2 9570   1.824   2.329   0.558
 2891SOL     OW 9571   1.224   1.272   5.443
 2891SOL    HW1 9572   1.255   1.300   5.352
 2891SOL    HW2 9573   1.124   1.281   5.448
 2892SOL     OW 9574   5.741   4.191   2.024
 2892SOL    HW1 9575   5.836   4.183   1.993
 2892SOL    HW2 9576   5.706   4.282   2.002
 2893SOL     OW 9577   6.684   5.905   5.409
 2893SOL    HW1 9578   6.722   5.839   5.344
 2893SOL    HW2 9579   6.644   5.856   5.486
 2894SOL     OW 9580   1.573   5.716   0.992
 2894SOL    HW1 9581   1.637   5.669   1.051
 2894SOL    HW2 9582   1.584   5.815   1.003
 2895SOL     OW 9583   4.692   6.662   6.063
 2895SOL    HW1 9584   4.608   6.689   6.016
 2895SOL    HW2 9585   4.756   6.739   6.064
 2896SOL     OW 9586   6.313   0.428   5.667
 2896SOL    HW1 9587   6.305   0.485   5.586
 2896SOL    HW2 9588   6.350   0.338   5.641
 2897SOL     OW 9589   3.633   5.938   3.261
 2897SOL    HW1 9590   3.693   5.864   3.292
 2897SOL    HW2 9591   3.585   5.908   3.178
 2898SOL     OW 9592   4.980   2.740   2.988
 2898SOL    HW1 9593   5.064   2.756   3.040
 2898SOL    HW2 9594   4.981   2.648   2.950
 2899SOL     OW 9595   6.408   2.912   1.230
 2899SOL    HW1 9596   6.484   2.907   1.166
 2899SOL    HW2 9597   6.333   2.854   1.197
 2900SOL     OW 9598   3.012   3.051   5.329
 2900SOL    HW1 9599   3.107   3.070   5.351
 2900SOL    HW2 9600   2.992   2.954   5.347
 2901SOL     OW 9601   1.504   3.962   1.762
 2901SOL    HW1 9602   1.470   3.872   1.789
 2901SOL    HW2 9603   1.547   4.007   1.840
 2902SOL     OW 9604   5.296   6.253   3.160
 2902SOL    HW1 9605   5.299   6.336   3.214
 2902SOL    HW2 9606   5.268   6.176   3.218
 2903SOL     OW 9607   0.644   5.489   1.049
 2903SOL    HW1 9608   0.570   5.521   1.109
 2903SOL    HW2 9609   0.705   5.565   1.028
 2904SOL     OW 9610   2.720   4.706   4.714
 2904SOL    HW1 9611   2.740   4.804   4.718
 2904SOL    HW2 9612   2.742   4.663   4.802
 2905SOL     OW 9613   0.974   4.907   1.434
 2905SOL    HW1 9614   0.928   4.993   1.414
 2905SOL    HW2 9615   1.034   4.882   1.359
 2906SOL     OW 9616   6.922   6.024   6.035
 2906SOL    HW1 9617   6.881   6.093   6.094
 2906SOL    HW2 9618   6.941   6.064   5.945
 2907SOL     OW 9619   6.877   1.189   5.574
 2907SOL    HW1 9620   6.957   1.131   5.562
 2907SOL    HW2 9621   6.794   1.134   5.565
 2908SOL     OW 9622   4.187   6.354   3.993
 2908SOL    HW1 9623   4.237   6.433   3.958
 2908SOL    HW2 9624   4.250   6.292   4.038
 2909SOL     OW 9625   0.279   6.661   1.530
 2909SOL    HW1 9626   0.274   6.679   1.628
 2909SOL    HW2 9627   0.367   6.694   1.495
 2910SOL     OW 9628   1.232   0.963   4.346
 2910SOL    HW1 9629   1.292   0.893   4.307
 2910SOL    HW2 9630   1.167   0.919   4.407
 2911SOL     OW 9631   6.509   3.811   4.156
 2911SOL    HW1 9632   6.490   3.894   4.103
 2911SOL    HW2 9633   6.605   3.786   4.145
 2912SOL     OW 9634   0.524   1.311   2.168
 2912SOL    HW1 9635   0.548   1.247   2.241
 2912SOL    HW2 9636   0.425   1.327   2.169
 2913SOL     OW 9637   0.998   6.409   4.127
 2913SOL    HW1 9638   0.963   6.316   4.109
 2913SOL    HW2 9639   1.052   6.439   4.048
 2914SOL     OW 9640   3.639   4.270   1.084
 2914SOL    HW1 9641   3.601   4.313   1.166
 2914SOL    HW2 9642   3.593   4.184   1.066
 2915SOL     OW 9643   2.053   0.624   4.226
 2915SOL    HW1 9644   2.051   0.668   4.136
 2915SOL    HW2 9645   2.006   0.682   4.292
 2916SOL     OW 9646   0.162   5.401   6.470
 2916SOL    HW1 9647   0.069   5.438   6.463
 2916SOL    HW2 9648   0.216   5.432   6.392
 2917SOL     OW 9649   2.329   0.543   3.543
 2917SOL    HW1 9650   2.355   0.521   3.449
 2917SOL    HW2 9651   2.231   0.561   3.547
 2918SOL     OW 9652   5.049   2.257   1.162
 2918SOL    HW1 9653   5.100   2.260   1.076
 2918SOL    HW2 9654   5.103   2.300   1.234
 2919SOL     OW 9655   1.231   6.404   5.041
 2919SOL    HW1 9656   1.142   6.414   5.085
 2919SOL    HW2 9657   1.220   6.416   4.942
 2920SOL     OW 9658   2.646   2.367   1.927
 2920SOL    HW1 9659   2.741   2.393   1.916
 2920SOL    HW2 9660   2.623   2.362   2.024
 2921SOL     OW 9661   0.605   5.382   3.317
 2921SOL    HW1 9662   0.643   5.431   3.396
 2921SOL    HW2 9663   0.534   5.438   3.275
 2922SOL     OW 9664   3.954   4.868   3.221
 2922SOL    HW1 9665   4.046   4.828   3.212
 2922SOL    HW2 9666   3.926   4.907   3.134
 2923SOL     OW 9667   1.587   5.503   4.407
 2923SOL    HW1 9668   1.674   5.455   4.400
 2923SOL    HW2 9669   1.597   5.596   4.373
 2924SOL     OW 9670   5.400   1.663   6.584
 2924SOL    HW1 9671   5.388   1.733   6.655
 2924SOL    HW2 9672   5.409   1.574   6.628
 2925SOL     OW 9673   5.569   0.057   4.540
 2925SOL    HW1 9674   5.494   0.122   4.547
 2925SOL    HW2 9675   5.599   0.032   4.632
 2926SOL     OW 9676   6.368   2.794   4.511
 2926SOL    HW1 9677   6.384   2.791   4.610
 2926SOL    HW2 9678   6.394   2.883   4.476
 2927SOL     OW 9679   1.092   2.675   2.364
 2927SOL    HW1 9680   1.111   2.700   2.269
 2927SOL    HW2 9681   1.002   2.632   2.371
 2928SOL     OW 9682   5.194   4.427   0.807
 2928SOL    HW1 9683   5.182   4.417   0.905
 2928SOL    HW2 9684   5.281   4.385   0.780
 2929SOL     OW 9685   2.103   1.906   3.355
 2929SOL    HW1 9686   2.096   1.903   3.255
 2929SOL    HW2 9687   2.075   1.818   3.393
 2930SOL     OW 9688   0.730   3.197   4.204
 2930SOL    HW1 9689   0.782   3.185   4.289
 2930SOL    HW2 9690   0.737   3.293   4.174
 2931SOL     OW 9691   6.218   4.219   6.032
 2931SOL    HW1 9692   6.264   4.188   6.116
 2931SOL    HW2 9693   6.151   4.151   6.004
 2932SOL     OW 9694   6.562   6.046   1.026
 2932SOL    HW1 9695   6.511   6.112   0.971
 2932SOL    HW2 9696   6.543   6.060   1.123
 2933SOL     OW 9697   0.970   6.871   0.247
 2933SOL    HW1 9698   0.992   6.956   0.295
 2933SOL    HW2 9699   0.884   6.882   0.198
 2934SOL     OW 9700   5.840   5.069   2.020
 2934SOL    HW1 9701   5.840   5.150   2.078
 2934SOL    HW2 9702   5.755   5.018   2.032
 2935SOL     OW 9703   1.014   3.935   5.712
 2935SOL    HW1 9704   1.037   3.914   5.807
 2935SOL    HW2 9705   0.928   3.889   5.688
 2936SOL     OW 9706   3.815   5.729   2.132
 2936SOL    HW1 9707   3.757   5.809   2.119
 2936SOL    HW2 9708   3.800   5.691   2.224
 2937SOL     OW 9709   6.096   3.762   3.068
 2937SOL    HW1 9710   6.011   3.766   3.121
 2937SOL    HW2 9711   6.108   3.671   3.030
 2938SOL     OW 9712   0.542   5.249   0.792
 2938SOL    HW1 9713   0.458   5.194   0.793
 2938SOL    HW2 9714   0.551   5.296   0.880
 2939SOL     OW 9715   5.984   6.644   1.543
 2939SOL    HW1 9716   5.956   6.593   1.624
 2939SOL    HW2 9717   6.009   6.581   1.470
 2940SOL     OW 9718   4.641   6.602   4.111
 2940SOL    HW1 9719   4.711   6.545   4.155
 2940SOL    HW2 9720   4.567   6.544   4.078
 2941SOL     OW 9721   2.771   5.192   2.985
 2941SOL    HW1 9722   2.850   5.227   2.934
 2941SOL    HW2 9723   2.779   5.093   2.994
 2942SOL     OW 9724   3.495   2.015   1.398
 2942SOL    HW1 9725   3.396   2.000   1.397
 2942SOL    HW2 9726   3.529   2.005   1.492
 2943SOL     OW 9727   0.302   3.880   3.739
 2943SOL    HW1 9728   0.328   3.878   3.642
 2943SOL    HW2 9729   0.240   3.957   3.755
 2944SOL     OW 9730   0.610   5.767   3.085
 2944SOL    HW1 9731   0.627   5.750   2.988
 2944SOL    HW2 9732   0.568   5.686   3.126
 2945SOL     OW 9733   5.768   3.868   0.795
 2945SOL    HW1 9734   5.845   3.931   0.780
 2945SOL    HW2 9735   5.738   3.874   0.890
 2946SOL     OW 9736   3.364   4.018   4.374
 2946SOL    HW1 9737   3.380   3.919   4.368
 2946SOL    HW2 9738   3.277   4.041   4.331
 2947SOL     OW 9739   6.147   5.357   6.685
 2947SOL    HW1 9740   6.195   5.433   6.729
 2947SOL    HW2 9741   6.048   5.369   6.695
 2948SOL     OW 9742   6.369   4.153   0.719
 2948SOL    HW1 9743   6.386   4.128   0.624
 2948SOL    HW2 9744   6.429   4.229   0.745
 2949SOL     OW 9745   1.443   6.208   1.356
 2949SOL    HW1 9746   1.399   6.254   1.278
 2949SOL    HW2 9747   1.542   6.223   1.352
 2950SOL     OW 9748   5.672   5.385   2.395
 2950SOL    HW1 9749   5.597   5.442   2.427
 2950SOL    HW2 9750   5.729   5.357   2.473
 2951SOL     OW 9751   0.832   2.278   1.341
 2951SOL    HW1 9752   0.906   2.321   1.290
 2951SOL    HW2 9753   0.860   2.185   1.368
 2952SOL     OW 9754   0.499   1.427   4.361
 2952SOL    HW1 9755   0.548   1.418   4.448
 2952SOL    HW2 9756   0.404   1.398   4.373
 2953SOL     OW 9757   1.524   5.808   2.949
 2953SOL    HW1 9758   1.576   5.863   3.014
 2953SOL    HW2 9759   1.545   5.711   2.962
 2954SOL     OW 9760   0.947   4.413   6.130
 2954SOL    HW1 9761   0.871   4.465   6.170
 2954SOL    HW2 9762   1.032   4.461   6.148
 2955SOL     OW 9763   1.819   4.722   6.819
 2955SOL    HW1 9764   1.850   4.782   6.892
 2955SOL    HW2 9765   1.773   4.777   6.748
 2956SOL     OW 9766   5.561   4.017   4.524
 2956SOL    HW1 9767   5.636   3.951   4.515
 2956SOL    HW2 9768   5.585   4.085   4.593
 2957SOL     OW 9769   1.694   5.303   3.127
 2957SOL    HW1 9770   1.651   5.257   3.204
 2957SOL    HW2 9771   1.630   5.308   3.050
 2958SOL     OW 9772   1.615   4.391   1.662
 2958SOL    HW1 9773   1.655   4.328   1.730
 2958SOL    HW2 9774   1.579   4.338   1.586
 2959SOL     OW 9775   0.311   4.462   3.723
 2959SOL    HW1 9776   0.369   4.485   3.645
 2959SOL    HW2 9777   0.216   4.451   3.693
 2960SOL     OW 9778   5.018   6.088   0.888
 2960SOL    HW1 9779   4.995   6.010   0.946
 2960SOL    HW2 9780   4.939   6.149   0.882
 2961SOL     OW 9781   5.989   2.364   1.844
 2961SOL    HW1 9782   6.008   2.381   1.941
 2961SOL    HW2 9783   5.909   2.305   1.836
 2962SOL     OW 9784   0.013   6.882   4.159
 2962SOL    HW1 9785   0.082   6.887   4.086
 2962SOL    HW2 9786   6.994   6.973   4.176
 2963SOL     OW 9787   2.012   1.541   5.470
 2963SOL    HW1 9788   2.054   1.631   5.459
 2963SOL    HW2 9789   1.945   1.544   5.544
 2964SOL     OW 9790   1.456   0.484   6.365
 2964SOL    HW1 9791   1.400   0.403   6.384
 2964SOL    HW2 9792   1.520   0.464   6.291
 2965SOL     OW 9793   6.131   0.241   6.587
 2965SOL    HW1 9794   6.225   0.273   6.592
 2965SOL    HW2 9795   6.120   0.178   6.510
 2966SOL     OW 9796   3.658   6.040   2.724
 2966SOL    HW1 9797   3.642   6.113   2.790
 2966SOL    HW2 9798   3.585   6.040   2.656
 2967SOL     OW 9799   5.851   6.763   4.732
 2967SOL    HW1 9800   5.948   6.788   4.730
 2967SOL    HW2 9801   5.827   6.717   4.647
 2968SOL     OW 9802   1.178   4.350   1.674
 2968SOL    HW1 9803   1.239   4.279   1.708
 2968SOL    HW2 9804   1.106   4.309   1.618
 2969SOL     OW 9805   4.627   2.596   4.738
 2969SOL    HW1 9806   4.608   2.633   4.829
 2969SOL    HW2 9807   4.589   2.504   4.731
 2970SOL     OW 9808   2.482   2.208   5.809
 2970SOL    HW1 9809   2.527   2.172   5.891
 2970SOL    HW2 9810   2.541   2.192   5.729
 2971SOL     OW 9811   4.259   3.617   6.329
 2971SOL    HW1 9812   4.242   3.539   6.391
 2971SOL    HW2 9813   4.261   3.584   6.235
 2972SOL     OW 9814   0.546   5.859   6.270
 2972SOL    HW1 9815   0.467   5.919   6.286
 2972SOL    HW2 9816   0.592   5.886   6.186
 2973SOL     OW 9817   5.403   0.821   4.142
 2973SOL    HW1 9818   5.490   0.784   4.173
 2973SOL    HW2 9819   5.353   0.857   4.221
 2974SOL     OW 9820   5.311   5.956   2.557
 2974SOL    HW1 9821   5.333   6.051   2.579
 2974SOL    HW2 9822   5.213   5.941   2.567
 2975SOL     OW 9823   6.950   3.684   4.512
 2975SOL    HW1 9824   6.982   3.778   4.508
 2975SOL    HW2 9825   6.867   3.674   4.457
 2976SOL     OW 9826   3.852   0.545   1.506
 2976SOL    HW1 9827   3.907   0.566   1.425
 2976SOL    HW2 9828   3.895   0.587   1.586
 2977SOL     OW 9829   1.740   1.080   2.172
 2977SOL    HW1 9830   1.791   1.083   2.258
 2977SOL    HW2 9831   1.642   1.071   2.191
 2978SOL     OW 9832   3.699   6.138   0.420
 2978SOL    HW1 9833   3.610   6.094   0.429
 2978SOL    HW2 9834   3.739   6.115   0.331
 2979SOL     OW 9835   2.642   1.256   5.416
 2979SOL    HW1 9836   2.570   1.325   5.408
 2979SOL    HW2 9837   2.727   1.291   5.376
 2980SOL     OW 9838   3.479   2.872   3.983
 2980SOL    HW1 9839   3.445   2.890   3.890
 2980SOL    HW2 9840   3.407   2.892   4.049
 2981SOL     OW 9841   2.863   2.022   1.790
 2981SOL    HW1 9842   2.846   1.943   1.731
 2981SOL    HW2 9843   2.907   2.094   1.737
 2982SOL     OW 9844   1.722   0.558   1.453
 2982SOL    HW1 9845   1.810   0.561   1.501
 2982SOL    HW2 9846   1.675   0.472   1.475
 2983SOL     OW 9847   6.685   2.864   6.499
 2983SOL    HW1 9848   6.666   2.869   6.597
 2983SOL    HW2 9849   6.761   2.802   6.482
 2984SOL     OW 9850   0.371   6.232   1.111
 2984SOL    HW1 9851   0.331   6.185   1.190
 2984SOL    HW2 9852   0.469   6.240   1.124
 2985SOL     OW 9853   6.584   0.083   6.068
 2985SOL    HW1 9854   6.580   0.059   6.165
 2985SOL    HW2 9855   6.618   0.004   6.016
 2986SOL     OW 9856   3.884   3.215   2.893
 2986SOL    HW1 9857   3.876   3.298   2.837
 2986SOL    HW2 9858   3.807   3.211   2.957
 2987SOL     OW 9859   2.325   5.581   4.899
 2987SOL    HW1 9860   2.273   5.660   4.864
 2987SOL    HW2 9861   2.303   5.567   4.995
 2988SOL     OW 9862   0.982   1.322   6.508
 2988SOL    HW1 9863   0.952   1.405   6.460
 2988SOL    HW2 9864   1.042   1.347   6.583
 2989SOL     OW 9865   5.709   4.012   5.894
 2989SOL    HW1 9866   5.760   4.079   5.948
 2989SOL    HW2 9867   5.769   3.975   5.822
 2990SOL     OW 9868   5.009   0.875   5.708
 2990SOL    HW1 9869   4.985   0.968   5.735
 2990SOL    HW2 9870   4.933   0.834   5.659
 2991SOL     OW 9871   6.479   2.738   0.226
 2991SOL    HW1 9872   6.473   2.792   0.142
 2991SOL    HW2 9873   6.530   2.654   0.208
 2992SOL     OW 9874   1.092   4.232   5.281
 2992SOL    HW1 9875   1.100   4.148   5.334
 2992SOL    HW2 9876   1.001   4.236   5.238
 2993SOL     OW 9877   3.405   5.085   7.005
 2993SOL    HW1 9878   3.435   5.164   6.952
 2993SOL    HW2 9879   3.319   5.051   6.968
 2994SOL     OW 9880   2.429   5.077   5.022
 2994SOL    HW1 9881   2.505   5.136   4.997
 2994SOL    HW2 9882   2.415   5.008   4.951
 2995SOL     OW 9883   5.031   0.075   1.721
 2995SOL    HW1 9884   5.067   0.162   1.756
 2995SOL    HW2 9885   5.019   0.011   1.797
 2996SOL     OW 9886   6.868   1.007   4.114
 2996SOL    HW1 9887   6.940   1.071   4.140
 2996SOL    HW2 9888   6.778   1.049   4.130
 2997SOL     OW 9889   4.761   5.919   4.077
 2997SOL    HW1 9890   4.861   5.922   4.081
 2997SOL    HW2 9891   4.723   5.937   4.167
 2998SOL     OW 9892   2.570   0.110   2.184
 2998SOL    HW1 9893   2.665   0.095   2.213
 2998SOL    HW2 9894   2.509   0.091   2.260
 2999SOL     OW 9895   1.685   5.047   0.466
 2999SOL    HW1 9896   1.619   5.073   0.537
 2999SOL    HW2 9897   1.636   5.023   0.382
 3000SOL     OW 9898   1.933   4.128   6.219
 3000SOL    HW1 9899   1.941   4.227   6.229
 3000SOL    HW2 9900   1.861   4.094   6.281
 3001SOL     OW 9901   3.803   0.518   6.224
 3001SOL    HW1 9902   3.831   0.611   6.200
 3001SOL    HW2 9903   3.737   0.485   6.156
 3002SOL     OW 9904   1.235   2.381   2.234
 3002SOL    HW1 9905   1.174   2.303   2.248
 3002SOL    HW2 9906   1.199   2.440   2.161
 3003SOL     OW 9907   1.327   6.128   0.533
 3003SOL    HW1 9908   1.278   6.214   0.549
 3003SOL    HW2 9909   1.279   6.075   0.462
 3004SOL     OW 9910   3.215   6.875   4.375
 3004SOL    HW1 9911   3.151   6.811   4.333
 3004SOL    HW2 9912   3.165   6.948   4.420
 3005SOL     OW 9913   2.598   2.182   0.752
 3005SOL    HW1 9914   2.539   2.158   0.829
 3005SOL    HW2 9915   2.694   2.182   0.782
 3006SOL     OW 9916   5.636   1.119   5.751
 3006SOL    HW1 9917   5.613   1.094   5.657
 3006SOL    HW2 9918   5.720   1.072   5.778
 3007SOL     OW 9919   6.273   5.687   5.966
 3007SOL    HW1 9920   6.345   5.620   5.949
 3007SOL    HW2 9921   6.215   5.695   5.885
 3008SOL     OW 9922   5.443   4.446   5.588
 3008SOL    HW1 9923   5.425   4.543   5.601
 3008SOL    HW2 9924   5.367   4.405   5.537
 3009SOL     OW 9925   5.403   3.379   1.970
 3009SOL    HW1 9926   5.494   3.368   1.930
 3009SOL    HW2 9927   5.369   3.471   1.950
 3010SOL     OW 9928   4.161   4.550   1.371
 3010SOL    HW1 9929   4.073   4.536   1.416
 3010SOL    HW2 9930   4.234   4.551   1.439
 3011SOL     OW 9931   5.864   6.908   0.330
 3011SOL    HW1 9932   5.936   6.962   0.287
 3011SOL    HW2 9933   5.818   6.852   0.260
 3012SOL     OW 9934   2.724   1.374   4.538
 3012SOL    HW1 9935   2.655   1.336   4.477
 3012SOL    HW2 9936   2.767   1.300   4.590
 3013SOL     OW 9937   0.668   5.407   5.290
 3013SOL    HW1 9938   0.622   5.408   5.201
 3013SOL    HW2 9939   0.627   5.477   5.349
 3014SOL     OW 9940   3.834   0.469   0.368
 3014SOL    HW1 9941   3.752   0.521   0.393
 3014SOL    HW2 9942   3.809   0.394   0.307
 3015SOL     OW 9943   2.244   0.055   5.950
 3015SOL    HW1 9944   2.163   0.072   6.006
 3015SOL    HW2 9945   2.302   7.006   5.995
 3016SOL     OW 9946   3.236   1.112   4.262
 3016SOL    HW1 9947   3.294   1.124   4.181
 3016SOL    HW2 9948   3.234   1.197   4.314
 3017SOL     OW 9949   1.542   6.155   0.246
 3017SOL    HW1 9950   1.551   6.243   0.293
 3017SOL    HW2 9951   1.445   6.132   0.237
 3018SOL     OW 9952   2.424   2.399   1.707
 3018SOL    HW1 9953   2.501   2.411   1.645
 3018SOL    HW2 9954   2.450   2.429   1.799
 3019SOL     OW 9955   1.514   0.571   5.098
 3019SOL    HW1 9956   1.541   0.516   5.019
 3019SOL    HW2 9957   1.596   0.603   5.146
 3020SOL     OW 9958   4.829   4.247   6.819
 3020SOL    HW1 9959   4.791   4.324   6.768
 3020SOL    HW2 9960   4.870   4.182   6.755
 3021SOL     OW 9961   4.416   6.308   4.384
 3021SOL    HW1 9962   4.344   6.377   4.390
 3021SOL    HW2 9963   4.498   6.348   4.344
 3022SOL     OW 9964   3.881   6.862   3.565
 3022SOL    HW1 9965   3.787   6.856   3.598
 3022SOL    HW2 9966   3.883   6.841   3.467
 3023SOL     OW 9967   5.081   4.687   5.060
 3023SOL    HW1 9968   5.169   4.727   5.084
 3023SOL    HW2 9969   5.084   4.588   5.073
 3024SOL     OW 9970   6.355   1.379   0.198
 3024SOL    HW1 9971   6.348   1.383   0.099
 3024SOL    HW2 9972   6.434   1.432   0.228
 3025SOL     OW 9973   4.340   5.002   0.818
 3025SOL    HW1 9974   4.429   4.996   0.771
 3025SOL    HW2 9975   4.321   4.915   0.863
 3026SOL     OW 9976   0.253   0.169   2.399
 3026SOL    HW1 9977   0.344   0.210   2.389
 3026SOL    HW2 9978   0.193   0.204   2.328
 3027SOL     OW 9979   4.235   0.127   0.664
 3027SOL    HW1 9980   4.180   0.060   0.713
 3027SOL    HW2 9981   4.323   0.139   0.710
 3028SOL     OW 9982   3.940   3.327   4.574
 3028SOL    HW1 9983   3.991   3.265   4.513
 3028SOL    HW2 9984   3.941   3.419   4.536
 3029SOL     OW 9985   0.338   2.366   4.812
 3029SOL    HW1 9986   0.298   2.449   4.851
 3029SOL    HW2 9987   0.358   2.301   4.885
 3030SOL     OW 9988   0.595   3.296   6.350
 3030SOL    HW1 9989   0.568   3.208   6.311
 3030SOL    HW2 9990   0.676   3.330   6.301
 3031SOL     OW 9991   0.369   4.491   6.654
 3031SOL    HW1 9992   0.423   4.451   6.728
 3031SOL    HW2 9993   0.428   4.546   6.595
 3032SOL     OW 9994   3.800   0.069   3.938
 3032SOL    HW1 9995   3.813   0.004   4.013
 3032SOL    HW2 9996   3.706   0.102   3.937
 3033SOL     OW 9997   2.099   1.166   6.628
 3033SOL    HW1 9998   2.084   1.181   6.726
 3033SOL    HW2 9999   2.093   1.252   6.579
 3034SOL     OW10000   5.625   3.475   3.437
 3034SOL    HW110001   5.570   3.546   3.393
 3034SOL    HW210002   5.565   3.403   3.471
 3035SOL     OW10003   6.494   3.522   6.577
 3035SOL    HW110004   6.460   3.608   6.537
 3035SOL    HW210005   6.575   3.492   6.527
 3036SOL     OW10006   3.215   2.176   6.079
 3036SOL    HW110007   3.297   2.131   6.045
 3036SOL    HW210008   3.138   2.155   6.018
 3037SOL     OW10009   0.312   5.200   6.580
 3037SOL    HW110010   0.407   5.230   6.572
 3037SOL    HW210011   0.251   5.267   6.538
 3038SOL     OW10012   5.621   4.673   4.914
 3038SOL    HW110013   5.617   4.606   4.988
 3038SOL    HW210014   5.684   4.641   4.844
 3039SOL     OW10015   5.860   3.521   6.158
 3039SOL    HW110016   5.848   3.587   6.232
 3039SOL    HW210017   5.859   3.428   6.197
 3040SOL     OW10018   4.112   6.435   6.827
 3040SOL    HW110019   4.195   6.405   6.874
 3040SOL    HW210020   4.093   6.374   6.750
 3041SOL     OW10021   2.285   5.830   6.709
 3041SOL    HW110022   2.276   5.743   6.661
 3041SOL    HW210023   2.362   5.882   6.670
 3042SOL     OW10024   0.173   5.356   3.847
 3042SOL    HW110025   0.199   5.301   3.926
 3042SOL    HW210026   0.222   5.324   3.766
 3043SOL     OW10027   2.207   3.981   1.309
 3043SOL    HW110028   2.195   4.074   1.275
 3043SOL    HW210029   2.287   3.940   1.264
 3044SOL     OW10030   3.946   3.794   4.620
 3044SOL    HW110031   3.951   3.707   4.670
 3044SOL    HW210032   3.928   3.868   4.685
 3045SOL     OW10033   5.608   0.486   3.016
 3045SOL    HW110034   5.543   0.558   3.042
 3045SOL    HW210035   5.676   0.524   2.954
 3046SOL     OW10036   6.575   5.629   1.389
 3046SOL    HW110037   6.502   5.583   1.339
 3046SOL    HW210038   6.538   5.711   1.434
 3047SOL     OW10039   5.332   1.626   3.593
 3047SOL    HW110040   5.352   1.642   3.496
 3047SOL    HW210041   5.335   1.713   3.642
 3048SOL     OW10042   4.699   4.984   1.204
 3048SOL    HW110043   4.638   5.056   1.238
 3048SOL    HW210044   4.656   4.937   1.127
 3049SOL     OW10045   0.141   0.850   1.590
 3049SOL    HW110046   0.121   0.945   1.613
 3049SOL    HW210047   0.186   0.846   1.501
 3050SOL     OW10048   3.852   2.202   6.312
 3050SOL    HW110049   3.922   2.145   6.270
 3050SOL    HW210050   3.833   2.281   6.254
 3051SOL     OW10051   2.065   4.891   6.360
 3051SOL    HW110052   2.093   4.813   6.305
 3051SOL    HW210053   2.135   4.963   6.355
 3052SOL     OW10054   5.790   6.398   3.791
 3052SOL    HW110055   5.731   6.477   3.776
 3052SOL    HW210056   5.764   6.354   3.877
 3053SOL     OW10057   0.502   5.384   6.319
 3053SOL    HW110058   0.453   5.315   6.266
 3053SOL    HW210059   0.522   5.463   6.261
 3054SOL     OW10060   6.122   6.545   3.326
 3054SOL    HW110061   6.215   6.547   3.364
 3054SOL    HW210062   6.098   6.636   3.292
 3055SOL     OW10063   5.238   6.347   0.522
 3055SOL    HW110064   5.216   6.278   0.453
 3055SOL    HW210065   5.328   6.386   0.502
 3056SOL     OW10066   4.142   2.134   0.882
 3056SOL    HW110067   4.174   2.205   0.820
 3056SOL    HW210068   4.184   2.147   0.972
 3057SOL     OW10069   6.672   3.435   3.785
 3057SOL    HW110070   6.648   3.484   3.868
 3057SOL    HW210071   6.647   3.490   3.705
 3058SOL     OW10072   6.364   4.216   5.770
 3058SOL    HW110073   6.412   4.128   5.763
 3058SOL    HW210074   6.325   4.225   5.862
 3059SOL     OW10075   1.244   2.640   3.297
 3059SOL    HW110076   1.213   2.599   3.383
 3059SOL    HW210077   1.334   2.603   3.274
 3060SOL     OW10078   5.631   3.954   3.507
 3060SOL    HW110079   5.722   3.970   3.545
 3060SOL    HW210080   5.639   3.931   3.410
 3061SOL     OW10081   5.986   6.204   2.537
 3061SOL    HW110082   5.948   6.113   2.554
 3061SOL    HW210083   6.000   6.216   2.438
 3062SOL     OW10084   3.716   5.168   0.868
 3062SOL    HW110085   3.764   5.137   0.786
 3062SOL    HW210086   3.624   5.127   0.870
 3063SOL     OW10087   6.385   5.263   0.288
 3063SOL    HW110088   6.479   5.232   0.276
 3063SOL    HW210089   6.336   5.257   0.201
 3064SOL     OW10090   4.661   1.943   6.094
 3064SOL    HW110091   4.723   2.020   6.079
 3064SOL    HW210092   4.674   1.875   6.021
 3065SOL     OW10093   5.223   0.720   6.845
 3065SOL    HW110094   5.129   0.716   6.879
 3065SOL    HW210095   5.275   0.787   6.899
 3066SOL     OW10096   5.471   0.253   6.193
 3066SOL    HW110097   5.466   0.243   6.292
 3066SOL    HW210098   5.401   0.196   6.149
 3067SOL     OW10099   1.753   1.987   4.615
 3067SOL    HW110100   1.827   2.020   4.674
 3067SOL    HW210101   1.789   1.973   4.523
 3068SOL     OW10102   5.742   0.119   0.435
 3068SOL    HW110103   5.794   0.051   0.384
 3068SOL    HW210104   5.780   0.210   0.417
 3069SOL     OW10105   5.495   6.119   3.595
 3069SOL    HW110106   5.464   6.098   3.688
 3069SOL    HW210107   5.415   6.138   3.537
 3070SOL     OW10108   3.155   1.225   1.250
 3070SOL    HW110109   3.071   1.188   1.289
 3070SOL    HW210110   3.131   1.292   1.180
 3071SOL     OW10111   5.292   4.468   5.025
 3071SOL    HW110112   5.392   4.457   5.025
 3071SOL    HW210113   5.261   4.484   4.931
 3072SOL     OW10114   1.587   6.673   5.295
 3072SOL    HW110115   1.645   6.710   5.223
 3072SOL    HW210116   1.492   6.673   5.264
 3073SOL     OW10117   6.827   5.561   2.992
 3073SOL    HW110118   6.919   5.601   2.994
 3073SOL    HW210119   6.759   5.633   2.983
 3074SOL     OW10120   3.310   3.015   1.789
 3074SOL    HW110121   3.279   3.090   1.731
 3074SOL    HW210122   3.409   3.022   1.802
 3075SOL     OW10123   3.787   5.044   0.632
 3075SOL    HW110124   3.813   4.948   0.625
 3075SOL    HW210125   3.763   5.079   0.541
 3076SOL     OW10126   2.027   1.474   4.054
 3076SOL    HW110127   1.946   1.508   4.006
 3076SOL    HW210128   2.048   1.535   4.130
 3077SOL     OW10129   0.041   3.844   2.349
 3077SOL    HW110130   0.079   3.777   2.287
 3077SOL    HW210131   6.967   3.869   2.319
 3078SOL     OW10132   6.930   4.698   1.016
 3078SOL    HW110133   6.943   4.684   0.917
 3078SOL    HW210134   6.844   4.747   1.032
 3079SOL     OW10135   1.002   4.075   3.677
 3079SOL    HW110136   1.051   4.020   3.609
 3079SOL    HW210137   1.037   4.055   3.768
 3080SOL     OW10138   3.830   4.719   1.696
 3080SOL    HW110139   3.919   4.695   1.735
 3080SOL    HW210140   3.757   4.687   1.757
 3081SOL     OW10141   1.934   2.658   6.190
 3081SOL    HW110142   1.835   2.645   6.190
 3081SOL    HW210143   1.980   2.570   6.185
 3082SOL     OW10144   5.393   4.262   4.775
 3082SOL    HW110145   5.437   4.179   4.807
 3082SOL    HW210146   5.440   4.295   4.693
 3083SOL     OW10147   3.915   5.968   1.225
 3083SOL    HW110148   3.828   5.928   1.253
 3083SOL    HW210149   3.959   5.909   1.157
 3084SOL     OW10150   6.857   5.398   4.223
 3084SOL    HW110151   6.811   5.377   4.310
 3084SOL    HW210152   6.925   5.327   4.203
 3085SOL     OW10153   6.504   5.496   6.774
 3085SOL    HW110154   6.550   5.581   6.802
 3085SOL    HW210155   6.559   5.450   6.704
 3086SOL     OW10156   6.077   6.281   6.516
 3086SOL    HW110157   5.986   6.309   6.545
 3086SOL    HW210158   6.083   6.181   6.514
 3087SOL     OW10159   2.892   0.019   1.816
 3087SOL    HW110160   2.836   0.085   1.765
 3087SOL    HW210161   2.927   0.062   1.899
 3088SOL     OW10162   2.506   3.318   5.437
 3088SOL    HW110163   2.462   3.392   5.488
 3088SOL    HW210164   2.452   3.234   5.445
 3089SOL     OW10165   3.703   6.724   0.055
 3089SOL    HW110166   3.777   6.666   0.020
 3089SOL    HW210167   3.638   6.668   0.107
 3090SOL     OW10168   1.628   2.492   2.427
 3090SOL    HW110169   1.621   2.400   2.466
 3090SOL    HW210170   1.537   2.531   2.416
 3091SOL     OW10171   1.060   2.659   6.848
 3091SOL    HW110172   1.136   2.641   6.785
 3091SOL    HW210173   0.986   2.703   6.798
 3092SOL     OW10174   4.968   1.283   3.313
 3092SOL    HW110175   5.022   1.303   3.395
 3092SOL    HW210176   4.970   1.362   3.252
 3093SOL     OW10177   6.288   4.859   0.034
 3093SOL    HW110178   6.371   4.901   7.015
 3093SOL    HW210179   6.271   4.894   0.126
 3094SOL     OW10180   2.506   1.290   5.674
 3094SOL    HW110181   2.468   1.379   5.649
 3094SOL    HW210182   2.560   1.255   5.597
 3095SOL     OW10183   1.997   3.429   5.491
 3095SOL    HW110184   2.015   3.454   5.396
 3095SOL    HW210185   2.058   3.354   5.518
 3096SOL     OW10186   1.518   2.714   3.749
 3096SOL    HW110187   1.437   2.760   3.712
 3096SOL    HW210188   1.535   2.744   3.842
 3097SOL     OW10189   5.402   2.756   5.958
 3097SOL    HW110190   5.398   2.855   5.975
 3097SOL    HW210191   5.397   2.707   6.045
 3098SOL     OW10192   1.242   3.255   2.090
 3098SOL    HW110193   1.269   3.321   2.160
 3098SOL    HW210194   1.323   3.219   2.045
 3099SOL     OW10195   0.778   6.786   5.859
 3099SOL    HW110196   0.764   6.846   5.781
 3099SOL    HW210197   0.756   6.834   5.944
 3100SOL     OW10198   6.067   4.343   2.510
 3100SOL    HW110199   6.086   4.431   2.466
 3100SOL    HW210200   5.976   4.345   2.551
 3101SOL     OW10201   5.313   1.123   4.529
 3101SOL    HW110202   5.367   1.186   4.473
 3101SOL    HW210203   5.373   1.070   4.588
 3102SOL     OW10204   6.166   4.271   2.770
 3102SOL    HW110205   6.145   4.362   2.806
 3102SOL    HW210206   6.157   4.271   2.671
 3103SOL     OW10207   1.448   1.141   2.271
 3103SOL    HW110208   1.377   1.077   2.298
 3103SOL    HW210209   1.445   1.222   2.330
 3104SOL     OW10210   6.017   2.089   6.148
 3104SOL    HW110211   5.961   2.135   6.079
 3104SOL    HW210212   6.112   2.120   6.140
 3105SOL     OW10213   5.680   4.166   0.481
 3105SOL    HW110214   5.744   4.154   0.557
 3105SOL    HW210215   5.720   4.129   0.398
 3106SOL     OW10216   5.366   1.841   5.701
 3106SOL    HW110217   5.267   1.831   5.697
 3106SOL    HW210218   5.409   1.765   5.651
 3107SOL     OW10219   4.271   2.005   4.790
 3107SOL    HW110220   4.244   1.923   4.841
 3107SOL    HW210221   4.342   1.981   4.724
 3108SOL     OW10222   1.748   4.775   3.752
 3108SOL    HW110223   1.802   4.769   3.668
 3108SOL    HW210224   1.759   4.691   3.804
 3109SOL     OW10225   0.130   5.346   3.229
 3109SOL    HW110226   0.084   5.258   3.217
 3109SOL    HW210227   0.193   5.361   3.153
 3110SOL     OW10228   1.365   6.016   4.551
 3110SOL    HW110229   1.422   6.074   4.492
 3110SOL    HW210230   1.406   5.926   4.558
 3111SOL     OW10231   6.491   4.021   3.964
 3111SOL    HW110232   6.527   4.038   3.872
 3111SOL    HW210233   6.397   4.057   3.970
 3112SOL     OW10234   4.441   0.617   0.977
 3112SOL    HW110235   4.473   0.569   1.058
 3112SOL    HW210236   4.493   0.587   0.897
 3113SOL     OW10237   1.352   6.985   4.068
 3113SOL    HW110238   1.306   6.972   4.156
 3113SOL    HW210239   1.284   6.998   3.996
 3114SOL     OW10240   4.763   6.326   5.106
 3114SOL    HW110241   4.859   6.299   5.110
 3114SOL    HW210242   4.720   6.311   5.195
 3115SOL     OW10243   4.662   5.937   4.337
 3115SOL    HW110244   4.580   5.953   4.391
 3115SOL    HW210245   4.742   5.969   4.387
 3116SOL     OW10246   0.703   1.924   6.742
 3116SOL    HW110247   0.631   1.884   6.799
 3116SOL    HW210248   0.701   2.023   6.749
 3117SOL     OW10249   4.489   6.807   1.101
 3117SOL    HW110250   4.535   6.894   1.117
 3117SOL    HW210251   4.546   6.731   1.132
 3118SOL     OW10252   1.064   1.933   2.886
 3118SOL    HW110253   1.061   2.033   2.887
 3118SOL    HW210254   0.986   1.897   2.937
 3119SOL     OW10255   4.565   7.010   3.996
 3119SOL    HW110256   4.603   6.930   3.951
 3119SOL    HW210257   4.603   7.018   4.089
 3120SOL     OW10258   3.234   6.283   6.691
 3120SOL    HW110259   3.155   6.284   6.753
 3120SOL    HW210260   3.314   6.318   6.738
 3121SOL     OW10261   3.653   2.093   3.206
 3121SOL    HW110262   3.745   2.120   3.235
 3121SOL    HW210263   3.595   2.079   3.286
 3122SOL     OW10264   5.617   3.792   6.025
 3122SOL    HW110265   5.614   3.700   5.985
 3122SOL    HW210266   5.623   3.860   5.953
 3123SOL     OW10267   2.175   2.830   2.621
 3123SOL    HW110268   2.206   2.897   2.688
 3123SOL    HW210269   2.207   2.856   2.530
 3124SOL     OW10270   4.911   6.514   5.803
 3124SOL    HW110271   4.956   6.597   5.770
 3124SOL    HW210272   4.868   6.533   5.891
 3125SOL     OW10273   1.529   1.883   4.951
 3125SOL    HW110274   1.518   1.819   5.027
 3125SOL    HW210275   1.616   1.932   4.961
 3126SOL     OW10276   4.948   4.569   5.664
 3126SOL    HW110277   4.906   4.480   5.650
 3126SOL    HW210278   4.976   4.578   5.759
 3127SOL     OW10279   6.385   2.347   5.847
 3127SOL    HW110280   6.360   2.259   5.809
 3127SOL    HW210281   6.331   2.419   5.804
 3128SOL     OW10282   3.944   0.802   0.761
 3128SOL    HW110283   3.936   0.901   0.762
 3128SOL    HW210284   4.037   0.776   0.788
 3129SOL     OW10285   4.458   4.760   0.023
 3129SOL    HW110286   4.422   4.719   0.106
 3129SOL    HW210287   4.490   4.853   0.043
 3130SOL     OW10288   6.488   6.026   2.208
 3130SOL    HW110289   6.519   5.932   2.192
 3130SOL    HW210290   6.564   6.081   2.245
 3131SOL     OW10291   6.596   2.693   3.250
 3131SOL    HW110292   6.535   2.750   3.195
 3131SOL    HW210293   6.616   2.740   3.336
 3132SOL     OW10294   4.443   3.962   6.466
 3132SOL    HW110295   4.466   3.904   6.388
 3132SOL    HW210296   4.405   4.048   6.433
 3133SOL     OW10297   5.447   6.533   3.594
 3133SOL    HW110298   5.501   6.597   3.650
 3133SOL    HW210299   5.508   6.483   3.533
 3134SOL     OW10300   5.194   4.710   2.846
 3134SOL    HW110301   5.105   4.675   2.817
 3134SOL    HW210302   5.201   4.706   2.945
 3135SOL     OW10303   3.453   0.827   6.498
 3135SOL    HW110304   3.515   0.906   6.500
 3135SOL    HW210305   3.454   0.783   6.588
 3136SOL     OW10306   6.556   6.453   2.024
 3136SOL    HW110307   6.556   6.513   2.104
 3136SOL    HW210308   6.466   6.455   1.980
 3137SOL     OW10309   4.755   4.750   6.814
 3137SOL    HW110310   4.707   4.671   6.777
 3137SOL    HW210311   4.790   4.807   6.739
 3138SOL     OW10312   6.767   6.811   4.705
 3138SOL    HW110313   6.670   6.802   4.728
 3138SOL    HW210314   6.799   6.728   4.660
 3139SOL     OW10315   1.524   4.814   1.735
 3139SOL    HW110316   1.490   4.734   1.785
 3139SOL    HW210317   1.502   4.805   1.638
 3140SOL     OW10318   5.025   6.113   0.074
 3140SOL    HW110319   4.996   6.056   7.016
 3140SOL    HW210320   5.050   6.056   0.151
 3141SOL     OW10321   5.691   1.697   0.131
 3141SOL    HW110322   5.678   1.641   0.049
 3141SOL    HW210323   5.643   1.655   0.208
 3142SOL     OW10324   4.436   1.295   4.062
 3142SOL    HW110325   4.424   1.394   4.054
 3142SOL    HW210326   4.502   1.275   4.135
 3143SOL     OW10327   6.716   1.334   0.846
 3143SOL    HW110328   6.735   1.273   0.769
 3143SOL    HW210329   6.669   1.283   0.918
 3144SOL     OW10330   3.963   4.970   6.868
 3144SOL    HW110331   3.899   4.938   6.938
 3144SOL    HW210332   4.057   4.961   6.901
 3145SOL     OW10333   1.467   5.495   5.234
 3145SOL    HW110334   1.385   5.470   5.284
 3145SOL    HW210335   1.455   5.475   5.137
 3146SOL     OW10336   6.121   2.078   4.561
 3146SOL    HW110337   6.034   2.074   4.610
 3146SOL    HW210338   6.165   2.166   4.578
 3147SOL     OW10339   4.894   6.436   0.938
 3147SOL    HW110340   4.886   6.420   1.037
 3147SOL    HW210341   4.843   6.365   0.889
 3148SOL     OW10342   6.048   4.752   0.354
 3148SOL    HW110343   6.092   4.716   0.437
 3148SOL    HW210344   5.960   4.793   0.378
 3149SOL     OW10345   4.112   3.241   6.919
 3149SOL    HW110346   4.211   3.233   6.927
 3149SOL    HW210347   4.075   3.159   6.878
 3150SOL     OW10348   0.178   0.218   5.132
 3150SOL    HW110349   0.132   0.288   5.078
 3150SOL    HW210350   0.151   0.226   5.228
 3151SOL     OW10351   6.875   1.332   5.810
 3151SOL    HW110352   6.875   1.280   5.725
 3151SOL    HW210353   6.789   1.384   5.817
 3152SOL     OW10354   2.657   2.120   5.639
 3152SOL    HW110355   2.703   2.068   5.711
 3152SOL    HW210356   2.655   2.066   5.555
 3153SOL     OW10357   5.647   5.941   1.807
 3153SOL    HW110358   5.578   5.984   1.749
 3153SOL    HW210359   5.700   6.012   1.854
 3154SOL     OW10360   3.237   1.894   1.001
 3154SOL    HW110361   3.314   1.875   1.062
 3154SOL    HW210362   3.229   1.820   0.935
 3155SOL     OW10363   0.262   5.434   6.957
 3155SOL    HW110364   0.251   5.444   0.038
 3155SOL    HW210365   0.317   5.510   6.922
 3156SOL     OW10366   3.178   3.909   1.252
 3156SOL    HW110367   3.129   3.871   1.173
 3156SOL    HW210368   3.209   4.001   1.231
 3157SOL     OW10369   1.759   1.093   3.862
 3157SOL    HW110370   1.740   1.145   3.778
 3157SOL    HW210371   1.765   1.156   3.939
 3158SOL     OW10372   2.844   0.989   6.467
 3158SOL    HW110373   2.803   1.064   6.416
 3158SOL    HW210374   2.868   0.915   6.404
 3159SOL     OW10375   5.023   6.610   1.300
 3159SOL    HW110376   4.985   6.703   1.301
 3159SOL    HW210377   5.064   6.590   1.389
 3160SOL     OW10378   2.569   1.005   4.729
 3160SOL    HW110379   2.567   0.913   4.691
 3160SOL    HW210380   2.662   1.042   4.722
 3161SOL     OW10381   1.976   2.876   2.058
 3161SOL    HW110382   1.988   2.777   2.050
 3161SOL    HW210383   1.939   2.912   1.972
 3162SOL     OW10384   0.925   5.973   2.043
 3162SOL    HW110385   0.976   6.044   2.091
 3162SOL    HW210386   0.965   5.884   2.063
 3163SOL     OW10387   5.053   4.369   1.262
 3163SOL    HW110388   5.013   4.448   1.309
 3163SOL    HW210389   4.989   4.336   1.193
 3164SOL     OW10390   2.557   0.148   3.892
 3164SOL    HW110391   2.645   0.101   3.904
 3164SOL    HW210392   2.556   0.194   3.803
 3165SOL     OW10393   1.074   5.708   6.899
 3165SOL    HW110394   1.141   5.782   6.888
 3165SOL    HW210395   1.121   5.621   6.910
 3166SOL     OW10396   3.944   1.817   4.882
 3166SOL    HW110397   3.882   1.883   4.841
 3166SOL    HW210398   3.893   1.754   4.940
 3167SOL     OW10399   6.416   2.878   1.879
 3167SOL    HW110400   6.376   2.906   1.792
 3167SOL    HW210401   6.480   2.949   1.911
 3168SOL     OW10402   5.521   1.220   1.276
 3168SOL    HW110403   5.517   1.168   1.190
 3168SOL    HW210404   5.436   1.208   1.326
 3169SOL     OW10405   0.933   3.373   1.539
 3169SOL    HW110406   0.885   3.426   1.609
 3169SOL    HW210407   0.928   3.276   1.561
 3170SOL     OW10408   2.228   4.255   3.805
 3170SOL    HW110409   2.317   4.296   3.823
 3170SOL    HW210410   2.186   4.300   3.726
 3171SOL     OW10411   5.200   1.299   5.127
 3171SOL    HW110412   5.196   1.358   5.047
 3171SOL    HW210413   5.236   1.210   5.100
 3172SOL     OW10414   6.098   3.893   1.404
 3172SOL    HW110415   6.044   3.951   1.465
 3172SOL    HW210416   6.038   3.847   1.339
 3173SOL     OW10417   5.549   3.135   6.996
 3173SOL    HW110418   5.631   3.177   0.016
 3173SOL    HW210419   5.469   3.166   0.027
 3174SOL     OW10420   3.525   2.735   6.402
 3174SOL    HW110421   3.471   2.805   6.355
 3174SOL    HW210422   3.617   2.733   6.363
 3175SOL     OW10423   6.063   6.130   5.242
 3175SOL    HW110424   6.061   6.139   5.342
 3175SOL    HW210425   6.047   6.035   5.217
 3176SOL     OW10426   0.608   5.197   4.020
 3176SOL    HW110427   0.707   5.189   4.011
 3176SOL    HW210428   0.580   5.292   4.004
 3177SOL     OW10429   4.982   2.886   2.722
 3177SOL    HW110430   4.964   2.860   2.817
 3177SOL    HW210431   5.073   2.856   2.695
 3178SOL     OW10432   0.817   0.547   2.738
 3178SOL    HW110433   0.844   0.486   2.812
 3178SOL    HW210434   0.827   0.642   2.768
 3179SOL     OW10435   0.717   3.220   2.102
 3179SOL    HW110436   0.723   3.300   2.162
 3179SOL    HW210437   0.749   3.245   2.010
 3180SOL     OW10438   6.546   6.953   0.132
 3180SOL    HW110439   6.619   7.014   0.162
 3180SOL    HW210440   6.553   6.941   0.033
 3181SOL     OW10441   0.554   6.076   4.841
 3181SOL    HW110442   0.637   6.089   4.896
 3181SOL    HW210443   0.516   6.165   4.817
 3182SOL     OW10444   1.052   6.845   1.221
 3182SOL    HW110445   1.034   6.812   1.313
 3182SOL    HW210446   1.146   6.880   1.215
 3183SOL     OW10447   4.251   4.057   0.491
 3183SOL    HW110448   4.208   3.983   0.440
 3183SOL    HW210449   4.182   4.108   0.543
 3184SOL     OW10450   6.329   1.238   4.016
 3184SOL    HW110451   6.403   1.259   4.080
 3184SOL    HW210452   6.342   1.290   3.932
 3185SOL     OW10453   1.204   6.983   5.707
 3185SOL    HW110454   1.291   6.957   5.749
 3185SOL    HW210455   1.133   6.990   5.778
 3186SOL     OW10456   0.585   2.383   5.487
 3186SOL    HW110457   0.679   2.401   5.515
 3186SOL    HW210458   0.549   2.305   5.537
 3187SOL     OW10459   5.466   0.123   3.287
 3187SOL    HW110460   5.385   0.143   3.231
 3187SOL    HW210461   5.546   0.169   3.248
 3188SOL     OW10462   1.500   5.932   1.284
 3188SOL    HW110463   1.471   6.010   1.340
 3188SOL    HW210464   1.537   5.965   1.197
 3189SOL     OW10465   2.359   1.329   6.318
 3189SOL    HW110466   2.294   1.327   6.242
 3189SOL    HW210467   2.435   1.390   6.295
 3190SOL     OW10468   5.887   6.343   4.273
 3190SOL    HW110469   5.944   6.262   4.282
 3190SOL    HW210470   5.793   6.321   4.298
 3191SOL     OW10471   3.843   4.787   1.440
 3191SOL    HW110472   3.854   4.765   1.537
 3191SOL    HW210473   3.753   4.755   1.408
 3192SOL     OW10474   5.345   0.623   3.216
 3192SOL    HW110475   5.318   0.527   3.217
 3192SOL    HW210476   5.263   0.680   3.204
 3193SOL     OW10477   3.402   5.569   4.920
 3193SOL    HW110478   3.346   5.561   5.003
 3193SOL    HW210479   3.457   5.651   4.925
 3194SOL     OW10480   2.181   6.586   5.003
 3194SOL    HW110481   2.214   6.676   4.976
 3194SOL    HW210482   2.176   6.581   5.103
 3195SOL     OW10483   0.520   6.509   0.282
 3195SOL    HW110484   0.597   6.453   0.253
 3195SOL    HW210485   0.481   6.471   0.366
 3196SOL     OW10486   6.348   6.883   2.390
 3196SOL    HW110487   6.421   6.922   2.334
 3196SOL    HW210488   6.294   6.957   2.430
 3197SOL     OW10489   2.434   0.937   0.138
 3197SOL    HW110490   2.461   0.861   0.197
 3197SOL    HW210491   2.358   0.987   0.181
 3198SOL     OW10492   5.228   3.498   4.183
 3198SOL    HW110493   5.207   3.473   4.277
 3198SOL    HW210494   5.324   3.527   4.177
 3199SOL     OW10495   4.901   3.796   3.553
 3199SOL    HW110496   4.853   3.721   3.599
 3199SOL    HW210497   4.932   3.862   3.621
 3200SOL     OW10498   6.125   3.709   4.893
 3200SOL    HW110499   6.186   3.641   4.932
 3200SOL    HW210500   6.149   3.725   4.797
 3201SOL     OW10501   6.430   3.884   2.099
 3201SOL    HW110502   6.427   3.967   2.156
 3201SOL    HW210503   6.443   3.805   2.158
 3202SOL     OW10504   2.976   2.814   6.005
 3202SOL    HW110505   2.946   2.805   5.910
 3202SOL    HW210506   3.021   2.729   6.034
 3203SOL     OW10507   3.244   6.431   1.872
 3203SOL    HW110508   3.321   6.417   1.810
 3203SOL    HW210509   3.158   6.423   1.821
 3204SOL     OW10510   4.454   0.882   4.008
 3204SOL    HW110511   4.380   0.817   3.990
 3204SOL    HW210512   4.481   0.875   4.104
 3205SOL     OW10513   4.323   2.495   6.379
 3205SOL    HW110514   4.256   2.536   6.318
 3205SOL    HW210515   4.280   2.471   6.466
 3206SOL     OW10516   3.012   4.701   0.917
 3206SOL    HW110517   2.967   4.727   0.832
 3206SOL    HW210518   3.103   4.664   0.896
 3207SOL     OW10519   2.411   5.988   3.507
 3207SOL    HW110520   2.426   6.085   3.524
 3207SOL    HW210521   2.352   5.950   3.579
 3208SOL     OW10522   6.504   3.508   6.058
 3208SOL    HW110523   6.546   3.591   6.022
 3208SOL    HW210524   6.429   3.480   5.998
 3209SOL     OW10525   5.105   6.927   5.956
 3209SOL    HW110526   5.175   6.991   5.989
 3209SOL    HW210527   5.016   6.953   5.993
 3210SOL     OW10528   5.602   5.240   2.025
 3210SOL    HW110529   5.569   5.147   2.009
 3210SOL    HW210530   5.616   5.254   2.123
 3211SOL     OW10531   2.030   6.402   6.355
 3211SOL    HW110532   1.957   6.448   6.405
 3211SOL    HW210533   2.024   6.303   6.370
 3212SOL     OW10534   3.451   6.700   4.231
 3212SOL    HW110535   3.410   6.610   4.218
 3212SOL    HW210536   3.501   6.726   4.148
 3213SOL     OW10537   1.240   0.449   5.592
 3213SOL    HW110538   1.296   0.389   5.649
 3213SOL    HW210539   1.232   0.410   5.500
 3214SOL     OW10540   3.517   0.866   3.002
 3214SOL    HW110541   3.544   0.957   3.033
 3214SOL    HW210542   3.432   0.873   2.949
 3215SOL     OW10543   2.142   3.086   2.167
 3215SOL    HW110544   2.115   3.154   2.099
 3215SOL    HW210545   2.100   2.998   2.145
 3216SOL     OW10546   5.990   5.280   0.718
 3216SOL    HW110547   5.894   5.264   0.695
 3216SOL    HW210548   6.000   5.286   0.817
 3217SOL     OW10549   6.542   6.042   4.008
 3217SOL    HW110550   6.519   6.138   3.994
 3217SOL    HW210551   6.640   6.033   4.026
 3218SOL     OW10552   5.749   1.163   3.332
 3218SOL    HW110553   5.773   1.079   3.380
 3218SOL    HW210554   5.798   1.166   3.245
 3219SOL     OW10555   6.013   1.873   4.330
 3219SOL    HW110556   5.965   1.923   4.258
 3219SOL    HW210557   6.081   1.933   4.373
 3220SOL     OW10558   6.872   3.677   5.880
 3220SOL    HW110559   6.960   3.652   5.920
 3220SOL    HW210560   6.840   3.602   5.821
 3221SOL     OW10561   4.209   1.646   1.959
 3221SOL    HW110562   4.135   1.637   2.025
 3221SOL    HW210563   4.213   1.563   1.902
 3222SOL     OW10564   2.928   1.052   3.869
 3222SOL    HW110565   2.909   1.084   3.961
 3222SOL    HW210566   2.842   1.033   3.822
 3223SOL     OW10567   1.668   6.089   0.688
 3223SOL    HW110568   1.630   6.057   0.602
 3223SOL    HW210569   1.629   6.036   0.763
 3224SOL     OW10570   4.759   2.810   4.495
 3224SOL    HW110571   4.841   2.766   4.533
 3224SOL    HW210572   4.769   2.909   4.502
 3225SOL     OW10573   4.614   1.278   4.464
 3225SOL    HW110574   4.525   1.310   4.494
 3225SOL    HW210575   4.603   1.216   4.386
 3226SOL     OW10576   6.177   0.786   0.710
 3226SOL    HW110577   6.275   0.787   0.731
 3226SOL    HW210578   6.163   0.746   0.620
 3227SOL     OW10579   5.964   4.185   5.686
 3227SOL    HW110580   5.900   4.250   5.727
 3227SOL    HW210581   5.941   4.092   5.714
 3228SOL     OW10582   2.284   4.228   0.370
 3228SOL    HW110583   2.278   4.150   0.432
 3228SOL    HW210584   2.203   4.285   0.380
 3229SOL     OW10585   1.340   1.570   1.435
 3229SOL    HW110586   1.261   1.538   1.382
 3229SOL    HW210587   1.338   1.528   1.526
 3230SOL     OW10588   2.877   6.204   4.968
 3230SOL    HW110589   2.839   6.143   5.038
 3230SOL    HW210590   2.815   6.206   4.889
 3231SOL     OW10591   2.407   2.645   2.620
 3231SOL    HW110592   2.414   2.650   2.720
 3231SOL    HW210593   2.319   2.681   2.590
 3232SOL     OW10594   2.528   4.557   3.298
 3232SOL    HW110595   2.465   4.480   3.297
 3232SOL    HW210596   2.586   4.554   3.216
 3233SOL     OW10597   2.842   0.538   6.663
 3233SOL    HW110598   2.825   0.542   6.761
 3233SOL    HW210599   2.930   0.580   6.642
 3234SOL     OW10600   3.364   3.427   0.913
 3234SOL    HW110601   3.275   3.389   0.888
 3234SOL    HW210602   3.434   3.356   0.905
 3235SOL     OW10603   6.786   1.606   3.056
 3235SOL    HW110604   6.818   1.643   2.969
 3235SOL    HW210605   6.688   1.585   3.050
 3236SOL     OW10606   5.538   0.041   0.230
 3236SOL    HW110607   5.603   0.052   0.305
 3236SOL    HW210608   5.550   0.115   0.164
 3237SOL     OW10609   6.112   0.941   5.503
 3237SOL    HW110610   6.170   0.911   5.428
 3237SOL    HW210611   6.064   1.025   5.478
 3238SOL     OW10612   6.607   4.911   1.394
 3238SOL    HW110613   6.550   4.836   1.427
 3238SOL    HW210614   6.690   4.917   1.450
 3239SOL     OW10615   5.983   0.093   5.094
 3239SOL    HW110616   6.012   0.141   5.011
 3239SOL    HW210617   6.042   0.013   5.108
 3240SOL     OW10618   1.155   1.828   1.129
 3240SOL    HW110619   1.164   1.819   1.030
 3240SOL    HW210620   1.240   1.868   1.166
 3241SOL     OW10621   0.333   2.939   5.590
 3241SOL    HW110622   0.268   2.901   5.523
 3241SOL    HW210623   0.397   2.869   5.619
 3242SOL     OW10624   0.021   4.096   4.660
 3242SOL    HW110625   6.982   4.092   4.741
 3242SOL    HW210626   0.102   4.151   4.679
 3243SOL     OW10627   5.642   5.662   4.107
 3243SOL    HW110628   5.548   5.669   4.074
 3243SOL    HW210629   5.677   5.753   4.128
 3244SOL     OW10630   4.537   0.220   6.951
 3244SOL    HW110631   4.613   0.157   6.968
 3244SOL    HW210632   4.453   0.168   6.939
 3245SOL     OW10633   3.209   6.283   4.384
 3245SOL    HW110634   3.233   6.208   4.322
 3245SOL    HW210635   3.291   6.335   4.407
 3246SOL     OW10636   6.774   5.799   3.338
 3246SOL    HW110637   6.795   5.756   3.250
 3246SOL    HW210638   6.679   5.781   3.363
 3247SOL     OW10639   1.977   4.178   3.936
 3247SOL    HW110640   1.975   4.229   4.023
 3247SOL    HW210641   2.062   4.198   3.888
 3248SOL     OW10642   6.317   2.595   3.756
 3248SOL    HW110643   6.235   2.652   3.761
 3248SOL    HW210644   6.303   2.511   3.807
 3249SOL     OW10645   3.834   4.045   4.011
 3249SOL    HW110646   3.830   4.087   3.920
 3249SOL    HW210647   3.892   3.964   4.008
 3250SOL     OW10648   4.586   6.501   3.801
 3250SOL    HW110649   4.672   6.476   3.759
 3250SOL    HW210650   4.539   6.569   3.745
 3251SOL     OW10651   2.510   2.124   2.519
 3251SOL    HW110652   2.575   2.128   2.443
 3251SOL    HW210653   2.438   2.058   2.498
 3252SOL     OW10654   1.754   1.430   2.975
 3252SOL    HW110655   1.770   1.349   2.917
 3252SOL    HW210656   1.702   1.497   2.923
 3253SOL     OW10657   6.662   4.029   0.222
 3253SOL    HW110658   6.724   4.072   0.157
 3253SOL    HW210659   6.706   4.023   0.312
 3254SOL     OW10660   6.194   6.768   0.421
 3254SOL    HW110661   6.131   6.786   0.346
 3254SOL    HW210662   6.272   6.830   0.413
 3255SOL     OW10663   3.630   5.492   2.142
 3255SOL    HW110664   3.657   5.495   2.238
 3255SOL    HW210665   3.647   5.400   2.106
 3256SOL     OW10666   5.657   2.564   1.447
 3256SOL    HW110667   5.747   2.571   1.492
 3256SOL    HW210668   5.663   2.499   1.371
 3257SOL     OW10669   2.871   0.963   3.270
 3257SOL    HW110670   2.898   0.914   3.187
 3257SOL    HW210671   2.866   1.061   3.250
 3258SOL     OW10672   1.490   5.639   4.165
 3258SOL    HW110673   1.497   5.540   4.182
 3258SOL    HW210674   1.455   5.684   4.247
 3259SOL     OW10675   5.485   4.804   4.050
 3259SOL    HW110676   5.388   4.828   4.043
 3259SOL    HW210677   5.530   4.819   3.962
 3260SOL     OW10678   1.685   4.726   3.172
 3260SOL    HW110679   1.642   4.786   3.240
 3260SOL    HW210680   1.733   4.782   3.104
 3261SOL     OW10681   6.093   0.199   3.946
 3261SOL    HW110682   6.047   0.111   3.959
 3261SOL    HW210683   6.035   0.272   3.979
 3262SOL     OW10684   2.886   2.113   3.217
 3262SOL    HW110685   2.867   2.027   3.169
 3262SOL    HW210686   2.847   2.189   3.165
 3263SOL     OW10687   6.053   0.347   1.144
 3263SOL    HW110688   5.954   0.352   1.160
 3263SOL    HW210689   6.102   0.375   1.227
 3264SOL     OW10690   1.445   4.579   6.904
 3264SOL    HW110691   1.474   4.666   6.944
 3264SOL    HW210692   1.350   4.586   6.875
 3265SOL     OW10693   0.247   5.777   6.637
 3265SOL    HW110694   0.312   5.752   6.564
 3265SOL    HW210695   0.155   5.752   6.608
 3266SOL     OW10696   3.583   5.105   6.432
 3266SOL    HW110697   3.519   5.030   6.449
 3266SOL    HW210698   3.569   5.141   6.340
 3267SOL     OW10699   3.679   0.106   1.271
 3267SOL    HW110700   3.594   0.157   1.286
 3267SOL    HW210701   3.668   0.044   1.193
 3268SOL     OW10702   5.478   3.954   1.818
 3268SOL    HW110703   5.479   4.038   1.765
 3268SOL    HW210704   5.479   3.875   1.757
 3269SOL     OW10705   2.105   4.821   1.707
 3269SOL    HW110706   2.055   4.809   1.621
 3269SOL    HW210707   2.201   4.842   1.686
 3270SOL     OW10708   1.244   3.020   6.132
 3270SOL    HW110709   1.291   3.108   6.144
 3270SOL    HW210710   1.271   2.980   6.045
 3271SOL     OW10711   1.376   3.307   1.084
 3271SOL    HW110712   1.444   3.234   1.094
 3271SOL    HW210713   1.352   3.343   1.174
 3272SOL     OW10714   4.211   6.806   1.115
 3272SOL    HW110715   4.309   6.815   1.101
 3272SOL    HW210716   4.177   6.725   1.068
 3273SOL     OW10717   3.893   3.690   6.802
 3273SOL    HW110718   3.868   3.742   6.720
 3273SOL    HW210719   3.933   3.602   6.775
 3274SOL     OW10720   4.749   0.012   1.896
 3274SOL    HW110721   4.780   0.098   1.855
 3274SOL    HW210722   4.732   0.026   1.994
 3275SOL     OW10723   4.940   0.528   2.228
 3275SOL    HW110724   4.888   0.500   2.147
 3275SOL    HW210725   5.002   0.602   2.204
 3276SOL     OW10726   5.997   5.393   0.250
 3276SOL    HW110727   6.057   5.413   0.327
 3276SOL    HW210728   5.995   5.471   0.187
 3277SOL     OW10729   3.747   1.421   2.475
 3277SOL    HW110730   3.708   1.329   2.479
 3277SOL    HW210731   3.710   1.476   2.549
 3278SOL     OW10732   5.202   1.228   6.499
 3278SOL    HW110733   5.255   1.144   6.514
 3278SOL    HW210734   5.264   1.301   6.468
 3279SOL     OW10735   4.103   0.339   2.352
 3279SOL    HW110736   4.104   0.418   2.290
 3279SOL    HW210737   4.041   0.270   2.316
 3280SOL     OW10738   0.283   2.918   4.215
 3280SOL    HW110739   0.372   2.881   4.243
 3280SOL    HW210740   0.264   3.000   4.268
 3281SOL     OW10741   5.945   2.002   2.014
 3281SOL    HW110742   5.938   1.903   2.028
 3281SOL    HW210743   5.865   2.033   1.962
 3282SOL     OW10744   6.240   4.313   5.302
 3282SOL    HW110745   6.233   4.257   5.385
 3282SOL    HW210746   6.296   4.394   5.321
 3283SOL     OW10747   3.011   1.540   0.542
 3283SOL    HW110748   3.019   1.627   0.591
 3283SOL    HW210749   2.932   1.489   0.576
 3284SOL     OW10750   2.091   0.385   5.214
 3284SOL    HW110751   2.046   0.390   5.125
 3284SOL    HW210752   2.063   0.463   5.270
 3285SOL     OW10753   3.829   2.129   3.954
 3285SOL    HW110754   3.898   2.079   4.007
 3285SOL    HW210755   3.743   2.128   4.004
 3286SOL     OW10756   1.364   3.495   2.783
 3286SOL    HW110757   1.441   3.434   2.764
 3286SOL    HW210758   1.333   3.481   2.877
 3287SOL     OW10759   2.374   1.175   0.677
 3287SOL    HW110760   2.453   1.164   0.738
 3287SOL    HW210761   2.309   1.102   0.693
 3288SOL     OW10762   3.025   5.614   1.861
 3288SOL    HW110763   3.053   5.643   1.953
 3288SOL    HW210764   3.099   5.562   1.819
 3289SOL     OW10765   4.949   0.793   0.074
 3289SOL    HW110766   5.009   0.714   0.087
 3289SOL    HW210767   4.930   0.805   6.995
 3290SOL     OW10768   1.118   5.162   6.969
 3290SOL    HW110769   1.090   5.067   6.987
 3290SOL    HW210770   1.042   5.223   6.988
 3291SOL     OW10771   5.035   6.243   5.067
 3291SOL    HW110772   5.091   6.273   4.990
 3291SOL    HW210773   5.007   6.148   5.054
 3292SOL     OW10774   0.122   2.992   0.106
 3292SOL    HW110775   0.103   2.922   0.038
 3292SOL    HW210776   0.040   3.012   0.159
 3293SOL     OW10777   6.378   4.477   2.760
 3293SOL    HW110778   6.418   4.486   2.669
 3293SOL    HW210779   6.285   4.513   2.760
 3294SOL     OW10780   3.720   2.752   5.572
 3294SOL    HW110781   3.672   2.726   5.489
 3294SOL    HW210782   3.659   2.741   5.651
 3295SOL     OW10783   1.566   2.956   3.411
 3295SOL    HW110784   1.575   2.862   3.442
 3295SOL    HW210785   1.521   2.958   3.322
 3296SOL     OW10786   2.569   0.672   6.775
 3296SOL    HW110787   2.600   0.603   6.840
 3296SOL    HW210788   2.611   0.760   6.797
 3297SOL     OW10789   3.468   0.609   5.624
 3297SOL    HW110790   3.378   0.577   5.592
 3297SOL    HW210791   3.500   0.683   5.565
 3298SOL     OW10792   3.287   4.643   5.728
 3298SOL    HW110793   3.206   4.602   5.687
 3298SOL    HW210794   3.290   4.740   5.704
 3299SOL     OW10795   2.975   6.761   4.261
 3299SOL    HW110796   2.960   6.682   4.201
 3299SOL    HW210797   2.982   6.844   4.205
 3300SOL     OW10798   1.881   0.395   3.382
 3300SOL    HW110799   1.902   0.445   3.297
 3300SOL    HW210800   1.814   0.446   3.435
 3301SOL     OW10801   1.251   1.586   2.745
 3301SOL    HW110802   1.224   1.619   2.654
 3301SOL    HW210803   1.208   1.497   2.762
 3302SOL     OW10804   1.214   5.021   4.985
 3302SOL    HW110805   1.138   4.983   4.931
 3302SOL    HW210806   1.187   5.023   5.082
 3303SOL     OW10807   3.729   3.808   0.581
 3303SOL    HW110808   3.772   3.773   0.498
 3303SOL    HW210809   3.644   3.759   0.598
 3304SOL     OW10810   2.282   3.989   0.502
 3304SOL    HW110811   2.247   3.896   0.487
 3304SOL    HW210812   2.304   4.001   0.599
 3305SOL     OW10813   3.015   2.746   0.243
 3305SOL    HW110814   3.089   2.739   0.311
 3305SOL    HW210815   2.945   2.810   0.276
 3306SOL     OW10816   2.814   0.396   1.423
 3306SOL    HW110817   2.715   0.387   1.429
 3306SOL    HW210818   2.847   0.344   1.343
 3307SOL     OW10819   2.154   5.766   4.819
 3307SOL    HW110820   2.157   5.792   4.916
 3307SOL    HW210821   2.086   5.824   4.772
 3308SOL     OW10822   4.853   4.954   1.427
 3308SOL    HW110823   4.799   4.945   1.511
 3308SOL    HW210824   4.792   4.961   1.348
 3309SOL     OW10825   6.035   4.207   3.700
 3309SOL    HW110826   6.020   4.140   3.772
 3309SOL    HW210827   6.126   4.247   3.710
 3310SOL     OW10828   6.170   4.407   6.365
 3310SOL    HW110829   6.072   4.424   6.374
 3310SOL    HW210830   6.219   4.494   6.362
 3311SOL     OW10831   2.346   2.915   0.007
 3311SOL    HW110832   2.271   2.966   0.051
 3311SOL    HW210833   2.369   2.960   6.939
 3312SOL     OW10834   4.878   3.403   0.347
 3312SOL    HW110835   4.890   3.479   0.283
 3312SOL    HW210836   4.780   3.388   0.363
 3313SOL     OW10837   0.170   0.209   4.398
 3313SOL    HW110838   0.234   0.271   4.445
 3313SOL    HW210839   0.114   0.162   4.466
 3314SOL     OW10840   3.490   6.343   3.090
 3314SOL    HW110841   3.563   6.315   3.028
 3314SOL    HW210842   3.418   6.388   3.038
 3315SOL     OW10843   1.362   6.615   3.891
 3315SOL    HW110844   1.443   6.672   3.903
 3315SOL    HW210845   1.280   6.671   3.895
 3316SOL     OW10846   3.337   1.758   6.915
 3316SOL    HW110847   3.371   1.722   6.828
 3316SOL    HW210848   3.387   1.715   6.990
 3317SOL     OW10849   5.825   1.705   1.362
 3317SOL    HW110850   5.876   1.752   1.290
 3317SOL    HW210851   5.879   1.628   1.396
 3318SOL     OW10852   3.820   3.082   0.466
 3318SOL    HW110853   3.909   3.099   0.508
 3318SOL    HW210854   3.813   2.985   0.439
 3319SOL     OW10855   6.597   6.619   4.349
 3319SOL    HW110856   6.671   6.684   4.330
 3319SOL    HW210857   6.517   6.668   4.384
 3320SOL     OW10858   6.377   0.385   2.267
 3320SOL    HW110859   6.374   0.292   2.304
 3320SOL    HW210860   6.472   0.412   2.254
 3321SOL     OW10861   4.538   1.920   0.246
 3321SOL    HW110862   4.619   1.869   0.274
 3321SOL    HW210863   4.457   1.863   0.259
 3322SOL     OW10864   5.910   2.685   1.497
 3322SOL    HW110865   5.846   2.756   1.469
 3322SOL    HW210866   6.003   2.721   1.492
 3323SOL     OW10867   1.626   1.363   1.869
 3323SOL    HW110868   1.562   1.300   1.914
 3323SOL    HW210869   1.627   1.450   1.918
 3324SOL     OW10870   5.877   4.925   6.021
 3324SOL    HW110871   5.868   4.849   5.956
 3324SOL    HW210872   5.815   4.998   5.994
 3325SOL     OW10873   2.930   5.305   5.949
 3325SOL    HW110874   2.962   5.268   5.862
 3325SOL    HW210875   2.918   5.230   6.014
 3326SOL     OW10876   3.693   1.973   1.879
 3326SOL    HW110877   3.696   1.912   1.958
 3326SOL    HW210878   3.696   2.068   1.911
 3327SOL     OW10879   1.630   5.660   5.982
 3327SOL    HW110880   1.727   5.663   6.006
 3327SOL    HW210881   1.610   5.731   5.914
 3328SOL     OW10882   4.796   3.090   5.194
 3328SOL    HW110883   4.828   3.167   5.140
 3328SOL    HW210884   4.854   3.079   5.275
 3329SOL     OW10885   0.367   6.353   5.826
 3329SOL    HW110886   0.302   6.363   5.901
 3329SOL    HW210887   0.444   6.296   5.855
 3330SOL     OW10888   6.619   3.070   3.034
 3330SOL    HW110889   6.705   3.095   3.078
 3330SOL    HW210890   6.598   3.136   2.962
 3331SOL     OW10891   2.205   2.755   0.441
 3331SOL    HW110892   2.235   2.762   0.536
 3331SOL    HW210893   2.273   2.797   0.381
 3332SOL     OW10894   0.107   4.228   1.123
 3332SOL    HW110895   0.074   4.314   1.085
 3332SOL    HW210896   0.080   4.222   1.219
 3333SOL     OW10897   3.153   5.711   5.920
 3333SOL    HW110898   3.133   5.621   5.960
 3333SOL    HW210899   3.234   5.704   5.863
 3334SOL     OW10900   1.489   3.103   0.830
 3334SOL    HW110901   1.441   3.081   0.746
 3334SOL    HW210902   1.543   3.186   0.817
 3335SOL     OW10903   5.260   4.508   4.762
 3335SOL    HW110904   5.294   4.416   4.741
 3335SOL    HW210905   5.293   4.572   4.694
 3336SOL     OW10906   3.203   6.473   5.460
 3336SOL    HW110907   3.237   6.567   5.452
 3336SOL    HW210908   3.225   6.423   5.376
 3337SOL     OW10909   3.523   1.327   0.791
 3337SOL    HW110910   3.458   1.334   0.715
 3337SOL    HW210911   3.508   1.402   0.855
 3338SOL     OW10912   6.703   4.738   0.121
 3338SOL    HW110913   6.746   4.679   0.189
 3338SOL    HW210914   6.710   4.834   0.149
 3339SOL     OW10915   0.706   4.920   5.952
 3339SOL    HW110916   0.778   4.930   6.021
 3339SOL    HW210917   0.671   5.010   5.927
 3340SOL     OW10918   4.262   0.332   2.017
 3340SOL    HW110919   4.261   0.239   2.055
 3340SOL    HW210920   4.207   0.335   1.934
 3341SOL     OW10921   0.592   0.206   0.825
 3341SOL    HW110922   0.679   0.237   0.864
 3341SOL    HW210923   0.572   0.114   0.859
 3342SOL     OW10924   2.340   7.013   5.526
 3342SOL    HW110925   2.419   6.984   5.473
 3342SOL    HW210926   2.331   0.094   5.522
 3343SOL     OW10927   0.189   2.536   1.546
 3343SOL    HW110928   0.225   2.474   1.616
 3343SOL    HW210929   0.253   2.540   1.469
 3344SOL     OW10930   0.974   2.607   6.345
 3344SOL    HW110931   1.035   2.684   6.366
 3344SOL    HW210932   0.981   2.539   6.417
 3345SOL     OW10933   2.217   3.366   5.275
 3345SOL    HW110934   2.219   3.272   5.241
 3345SOL    HW210935   2.233   3.366   5.374
 3346SOL     OW10936   2.240   5.936   2.389
 3346SOL    HW110937   2.153   5.915   2.345
 3346SOL    HW210938   2.314   5.892   2.338
 3347SOL     OW10939   5.890   3.959   3.605
 3347SOL    HW110940   5.989   3.976   3.609
 3347SOL    HW210941   5.864   3.898   3.680
 3348SOL     OW10942   3.817   3.427   3.339
 3348SOL    HW110943   3.913   3.447   3.359
 3348SOL    HW210944   3.760   3.452   3.417
 3349SOL     OW10945   5.292   3.239   6.442
 3349SOL    HW110946   5.296   3.179   6.522
 3349SOL    HW210947   5.385   3.265   6.415
 3350SOL     OW10948   1.926   2.892   1.256
 3350SOL    HW110949   1.845   2.948   1.271
 3350SOL    HW210950   1.997   2.946   1.212
 3351SOL     OW10951   5.717   2.628   0.307
 3351SOL    HW110952   5.779   2.573   0.363
 3351SOL    HW210953   5.650   2.568   0.263
 3352SOL     OW10954   6.923   3.018   0.307
 3352SOL    HW110955   6.889   3.104   0.270
 3352SOL    HW210956   6.880   2.999   0.395
 3353SOL     OW10957   1.654   6.761   5.969
 3353SOL    HW110958   1.577   6.806   5.923
 3353SOL    HW210959   1.644   6.662   5.959
 3354SOL     OW10960   0.788   0.695   1.876
 3354SOL    HW110961   0.773   0.788   1.843
 3354SOL    HW210962   0.714   0.669   1.938
 3355SOL     OW10963   6.242   0.757   2.657
 3355SOL    HW110964   6.201   0.847   2.674
 3355SOL    HW210965   6.324   0.747   2.714
 3356SOL     OW10966   1.260   3.704   6.175
 3356SOL    HW110967   1.333   3.636   6.185
 3356SOL    HW210968   1.294   3.781   6.121
 3357SOL     OW10969   2.765   5.177   1.994
 3357SOL    HW110970   2.715   5.223   1.921
 3357SOL    HW210971   2.710   5.102   2.030
 3358SOL     OW10972   6.797   4.622   3.463
 3358SOL    HW110973   6.867   4.563   3.422
 3358SOL    HW210974   6.827   4.717   3.460
 3359SOL     OW10975   2.046   1.536   1.986
 3359SOL    HW110976   1.985   1.479   1.931
 3359SOL    HW210977   2.130   1.485   2.007
 3360SOL     OW10978   2.681   1.040   6.666
 3360SOL    HW110979   2.737   0.998   6.595
 3360SOL    HW210980   2.633   1.120   6.628
 3361SOL     OW10981   3.177   0.996   3.133
 3361SOL    HW110982   3.176   1.084   3.085
 3361SOL    HW210983   3.267   0.981   3.174
 3362SOL     OW10984   3.028   1.819   4.289
 3362SOL    HW110985   3.046   1.913   4.317
 3362SOL    HW210986   3.103   1.785   4.233
 3363SOL     OW10987   6.970   0.597   6.502
 3363SOL    HW110988   6.936   0.623   6.412
 3363SOL    HW210989   6.905   0.534   6.545
 3364SOL     OW10990   2.381   4.831   5.715
 3364SOL    HW110991   2.288   4.796   5.731
 3364SOL    HW210992   2.409   4.807   5.622
 3365SOL     OW10993   6.409   2.602   5.288
 3365SOL    HW110994   6.342   2.675   5.273
 3365SOL    HW210995   6.367   2.528   5.340
 3366SOL     OW10996   5.445   1.412   6.920
 3366SOL    HW110997   5.364   1.356   6.938
 3366SOL    HW210998   5.465   1.412   6.823
 3367SOL     OW10999   1.885   6.872   2.786
 3367SOL    HW111000   1.857   6.963   2.818
 3367SOL    HW211001   1.811   6.831   2.732
 3368SOL     OW11002   6.535   1.458   4.442
 3368SOL    HW111003   6.560   1.488   4.534
 3368SOL    HW211004   6.435   1.461   4.433
 3369SOL     OW11005   3.650   5.852   6.355
 3369SOL    HW111006   3.659   5.944   6.318
 3369SOL    HW211007   3.643   5.856   6.455
 3370SOL     OW11008   5.796   6.971   5.287
 3370SOL    HW111009   5.856   6.999   5.212
 3370SOL    HW211010   5.816   6.876   5.312
 3371SOL     OW11011   0.036   4.776   1.275
 3371SOL    HW111012   6.986   4.846   1.295
 3371SOL    HW211013   0.014   4.733   1.187
 3372SOL     OW11014   0.260   2.228   2.470
 3372SOL    HW111015   0.326   2.175   2.523
 3372SOL    HW211016   0.199   2.277   2.532
 3373SOL     OW11017   0.600   2.718   6.600
 3373SOL    HW111018   0.593   2.664   6.517
 3373SOL    HW211019   0.527   2.692   6.663
 3374SOL     OW11020   3.473   6.096   5.225
 3374SOL    HW111021   3.561   6.049   5.226
 3374SOL    HW211022   3.483   6.185   5.180
 3375SOL     OW11023   3.568   3.721   4.498
 3375SOL    HW111024   3.634   3.655   4.463
 3375SOL    HW211025   3.592   3.813   4.467
 3376SOL     OW11026   3.019   3.143   1.815
 3376SOL    HW111027   3.021   3.238   1.783
 3376SOL    HW211028   2.932   3.101   1.788
 3377SOL     OW11029   2.754   5.443   5.778
 3377SOL    HW111030   2.790   5.380   5.846
 3377SOL    HW211031   2.780   5.413   5.686
 3378SOL     OW11032   0.698   1.085   0.838
 3378SOL    HW111033   0.721   1.175   0.802
 3378SOL    HW211034   0.630   1.094   0.911
 3379SOL     OW11035   5.997   4.833   5.517
 3379SOL    HW111036   5.942   4.749   5.507
 3379SOL    HW211037   6.094   4.809   5.523
 3380SOL     OW11038   0.704   3.719   5.152
 3380SOL    HW111039   0.738   3.625   5.158
 3380SOL    HW211040   0.741   3.772   5.228
 3381SOL     OW11041   3.194   2.436   1.655
 3381SOL    HW111042   3.240   2.524   1.642
 3381SOL    HW211043   3.259   2.370   1.694
 3382SOL     OW11044   0.217   6.808   0.142
 3382SOL    HW111045   0.305   6.821   0.096
 3382SOL    HW211046   0.156   6.755   0.083
 3383SOL     OW11047   0.740   4.399   1.782
 3383SOL    HW111048   0.713   4.326   1.719
 3383SOL    HW211049   0.683   4.394   1.864
 3384SOL     OW11050   3.320   2.905   4.452
 3384SOL    HW111051   3.305   2.941   4.360
 3384SOL    HW211052   3.240   2.853   4.481
 3385SOL     OW11053   6.841   4.652   3.785
 3385SOL    HW111054   6.812   4.558   3.764
 3385SOL    HW211055   6.760   4.708   3.803
 3386SOL     OW11056   6.004   4.311   4.470
 3386SOL    HW111057   6.059   4.392   4.449
 3386SOL    HW211058   5.989   4.306   4.568
 3387SOL     OW11059   3.330   1.724   2.801
 3387SOL    HW111060   3.303   1.710   2.896
 3387SOL    HW211061   3.363   1.818   2.790
 3388SOL     OW11062   5.471   2.097   1.438
 3388SOL    HW111063   5.512   2.009   1.460
 3388SOL    HW211064   5.526   2.171   1.476
 3389SOL     OW11065   4.208   5.448   2.643
 3389SOL    HW111066   4.199   5.353   2.611
 3389SOL    HW211067   4.164   5.509   2.578
 3390SOL     OW11068   4.641   2.062   5.554
 3390SOL    HW111069   4.697   2.136   5.518
 3390SOL    HW211070   4.545   2.079   5.533
 3391SOL     OW11071   3.441   2.129   3.839
 3391SOL    HW111072   3.443   2.034   3.871
 3391SOL    HW211073   3.394   2.134   3.751
 3392SOL     OW11074   4.687   5.731   3.045
 3392SOL    HW111075   4.684   5.804   2.976
 3392SOL    HW211076   4.714   5.771   3.133
 3393SOL     OW11077   0.210   0.544   0.299
 3393SOL    HW111078   0.230   0.607   0.374
 3393SOL    HW211079   0.244   0.583   0.214
 3394SOL     OW11080   5.883   1.002   2.593
 3394SOL    HW111081   5.980   1.022   2.612
 3394SOL    HW211082   5.847   0.944   2.666
 3395SOL     OW11083   1.208   3.747   5.437
 3395SOL    HW111084   1.273   3.723   5.365
 3395SOL    HW211085   1.173   3.663   5.480
 3396SOL     OW11086   6.599   3.332   4.493
 3396SOL    HW111087   6.636   3.340   4.585
 3396SOL    HW211088   6.666   3.365   4.427
 3397SOL     OW11089   3.452   5.699   6.134
 3397SOL    HW111090   3.448   5.740   6.042
 3397SOL    HW211091   3.533   5.732   6.182
 3398SOL     OW11092   0.611   0.998   2.764
 3398SOL    HW111093   0.643   0.913   2.806
 3398SOL    HW211094   0.571   1.057   2.834
 3399SOL     OW11095   4.097   5.713   5.115
 3399SOL    HW111096   4.079   5.809   5.133
 3399SOL    HW211097   4.160   5.677   5.184
 3400SOL     OW11098   5.197   2.529   0.271
 3400SOL    HW111099   5.215   2.477   0.355
 3400SOL    HW211100   5.099   2.541   0.261
 3401SOL     OW11101   6.771   4.274   6.290
 3401SOL    HW111102   6.828   4.355   6.289
 3401SOL    HW211103   6.698   4.285   6.357
 3402SOL     OW11104   5.412   5.315   2.338
 3402SOL    HW111105   5.503   5.321   2.378
 3402SOL    HW211106   5.342   5.318   2.410
 3403SOL     OW11107   3.401   1.562   5.336
 3403SOL    HW111108   3.355   1.579   5.249
 3403SOL    HW211109   3.457   1.641   5.361
 3404SOL     OW11110   4.758   0.011   1.406
 3404SOL    HW111111   4.710   7.002   1.490
 3404SOL    HW211112   4.816   0.090   1.425
 3405SOL     OW11113   5.970   3.784   0.134
 3405SOL    HW111114   5.935   3.694   0.109
 3405SOL    HW211115   5.917   3.854   0.086
 3406SOL     OW11116   0.889   4.088   1.305
 3406SOL    HW111117   0.963   4.047   1.359
 3406SOL    HW211118   0.908   4.186   1.293
 3407SOL     OW11119   1.543   4.862   2.897
 3407SOL    HW111120   1.488   4.943   2.919
 3407SOL    HW211121   1.635   4.874   2.933
 3408SOL     OW11122   5.190   3.986   3.125
 3408SOL    HW111123   5.111   3.949   3.077
 3408SOL    HW211124   5.229   3.915   3.184
 3409SOL     OW11125   2.763   0.999   5.569
 3409SOL    HW111126   2.764   0.928   5.498
 3409SOL    HW211127   2.722   1.083   5.531
 3410SOL     OW11128   6.970   1.340   0.313
 3410SOL    HW111129   6.972   1.358   0.214
 3410SOL    HW211130   0.032   1.382   0.356
 3411SOL     OW11131   4.441   2.399   2.257
 3411SOL    HW111132   4.475   2.330   2.193
 3411SOL    HW211133   4.391   2.469   2.206
 3412SOL     OW11134   4.035   5.508   6.673
 3412SOL    HW111135   4.000   5.446   6.743
 3412SOL    HW211136   3.960   5.563   6.636
 3413SOL     OW11137   4.749   1.441   2.404
 3413SOL    HW111138   4.724   1.524   2.355
 3413SOL    HW211139   4.844   1.447   2.433
 3414SOL     OW11140   3.942   0.813   5.201
 3414SOL    HW111141   4.028   0.796   5.153
 3414SOL    HW211142   3.954   0.792   5.298
 3415SOL     OW11143   1.046   5.108   4.371
 3415SOL    HW111144   1.093   5.021   4.358
 3415SOL    HW211145   1.021   5.119   4.468
 3416SOL     OW11146   2.363   4.284   5.912
 3416SOL    HW111147   2.267   4.292   5.885
 3416SOL    HW211148   2.369   4.274   6.011
 3417SOL     OW11149   5.612   1.124   1.022
 3417SOL    HW111150   5.650   1.045   1.070
 3417SOL    HW211151   5.555   1.092   0.946
 3418SOL     OW11152   3.234   2.943   6.041
 3418SOL    HW111153   3.139   2.913   6.030
 3418SOL    HW211154   3.285   2.921   5.958
 3419SOL     OW11155   4.831   3.746   6.949
 3419SOL    HW111156   4.754   3.792   6.993
 3419SOL    HW211157   4.802   3.706   6.862
 3420SOL     OW11158   4.280   1.621   3.785
 3420SOL    HW111159   4.356   1.639   3.723
 3420SOL    HW211160   4.230   1.540   3.755
 3421SOL     OW11161   0.306   6.565   2.374
 3421SOL    HW111162   0.338   6.612   2.456
 3421SOL    HW211163   0.227   6.509   2.396
 3422SOL     OW11164   2.827   2.200   2.872
 3422SOL    HW111165   2.917   2.164   2.899
 3422SOL    HW211166   2.823   2.206   2.772
 3423SOL     OW11167   3.008   0.806   1.881
 3423SOL    HW111168   3.100   0.838   1.858
 3423SOL    HW211169   2.994   0.716   1.842
 3424SOL     OW11170   4.653   1.048   1.813
 3424SOL    HW111171   4.554   1.060   1.815
 3424SOL    HW211172   4.675   0.958   1.774
 3425SOL     OW11173   4.606   4.169   1.698
 3425SOL    HW111174   4.540   4.215   1.756
 3425SOL    HW211175   4.561   4.096   1.647
 3426SOL     OW11176   4.613   3.779   0.810
 3426SOL    HW111177   4.586   3.773   0.907
 3426SOL    HW211178   4.544   3.831   0.760
 3427SOL     OW11179   1.080   1.656   0.605
 3427SOL    HW111180   1.107   1.752   0.615
 3427SOL    HW211181   0.981   1.650   0.598
 3428SOL     OW11182   4.163   4.720   3.154
 3428SOL    HW111183   4.251   4.763   3.137
 3428SOL    HW211184   4.113   4.711   3.068
 3429SOL     OW11185   0.103   2.876   0.532
 3429SOL    HW111186   0.104   2.848   0.436
 3429SOL    HW211187   0.009   2.893   0.560
 3430SOL     OW11188   1.405   5.209   6.429
 3430SOL    HW111189   1.398   5.278   6.501
 3430SOL    HW211190   1.314   5.192   6.391
 3431SOL     OW11191   1.801   6.360   6.713
 3431SOL    HW111192   1.821   6.282   6.654
 3431SOL    HW211193   1.783   6.440   6.656
 3432SOL     OW11194   2.779   1.816   6.994
 3432SOL    HW111195   2.815   1.823   6.901
 3432SOL    HW211196   2.683   1.846   6.995
 3433SOL     OW11197   5.278   1.366   4.693
 3433SOL    HW111198   5.211   1.292   4.688
 3433SOL    HW211199   5.370   1.327   4.697
 3434SOL     OW11200   4.181   1.830   3.164
 3434SOL    HW111201   4.090   1.872   3.154
 3434SOL    HW211202   4.246   1.899   3.194
 3435SOL     OW11203   0.781   1.027   0.164
 3435SOL    HW111204   0.821   1.068   0.246
 3435SOL    HW211205   0.812   1.076   0.083
 3436SOL     OW11206   4.750   6.839   3.023
 3436SOL    HW111207   4.835   6.801   2.987
 3436SOL    HW211208   4.769   6.890   3.107
 3437SOL     OW11209   4.845   0.745   6.833
 3437SOL    HW111210   4.834   0.688   6.751
 3437SOL    HW211211   4.772   0.726   6.897
 3438SOL     OW11212   1.249   4.889   6.699
 3438SOL    HW111213   1.234   4.799   6.741
 3438SOL    HW211214   1.167   4.916   6.648
 3439SOL     OW11215   2.717   0.085   3.587
 3439SOL    HW111216   2.622   0.068   3.560
 3439SOL    HW211217   2.722   0.092   3.687
 3440SOL     OW11218   3.191   2.055   0.640
 3440SOL    HW111219   3.162   2.119   0.711
 3440SOL    HW211220   3.134   2.067   0.559
 3441SOL     OW11221   4.730   0.436   4.129
 3441SOL    HW111222   4.754   0.510   4.067
 3441SOL    HW211223   4.774   0.450   4.218
 3442SOL     OW11224   0.892   4.799   3.147
 3442SOL    HW111225   0.958   4.841   3.084
 3442SOL    HW211226   0.921   4.814   3.241
 3443SOL     OW11227   5.514   6.349   4.263
 3443SOL    HW111228   5.516   6.446   4.241
 3443SOL    HW211229   5.483   6.337   4.358
 3444SOL     OW11230   4.562   4.985   0.422
 3444SOL    HW111231   4.592   4.932   0.501
 3444SOL    HW211232   4.641   5.009   0.366
 3445SOL     OW11233   5.508   5.246   4.428
 3445SOL    HW111234   5.500   5.190   4.511
 3445SOL    HW211235   5.602   5.246   4.396
 3446SOL     OW11236   2.945   6.562   2.490
 3446SOL    HW111237   3.030   6.573   2.438
 3446SOL    HW211238   2.938   6.634   2.558
 3447SOL     OW11239   6.134   4.500   5.729
 3447SOL    HW111240   6.111   4.434   5.801
 3447SOL    HW211241   6.064   4.499   5.659
 3448SOL     OW11242   3.387   3.097   1.046
 3448SOL    HW111243   3.451   3.162   1.004
 3448SOL    HW211244   3.437   3.032   1.102
 3449SOL     OW11245   6.857   6.041   2.804
 3449SOL    HW111246   6.820   5.973   2.866
 3449SOL    HW211247   6.829   6.133   2.835
 3450SOL     OW11248   0.910   2.021   1.382
 3450SOL    HW111249   0.890   1.954   1.310
 3450SOL    HW211250   0.979   1.984   1.444
 3451SOL     OW11251   1.528   4.569   4.288
 3451SOL    HW111252   1.584   4.512   4.229
 3451SOL    HW211253   1.466   4.625   4.233
 3452SOL     OW11254   6.830   1.840   0.892
 3452SOL    HW111255   6.906   1.903   0.874
 3452SOL    HW211256   6.846   1.754   0.844
 3453SOL     OW11257   6.149   6.158   5.531
 3453SOL    HW111258   6.125   6.241   5.580
 3453SOL    HW211259   6.245   6.136   5.546
 3454SOL     OW11260   1.485   1.287   0.568
 3454SOL    HW111261   1.395   1.325   0.591
 3454SOL    HW211262   1.554   1.359   0.575
 3455SOL     OW11263   2.421   2.725   3.944
 3455SOL    HW111264   2.428   2.758   3.850
 3455SOL    HW211265   2.369   2.791   3.998
 3456SOL     OW11266   6.934   7.006   0.697
 3456SOL    HW111267   6.942   0.031   0.607
 3456SOL    HW211268   6.956   6.909   0.690
 3457SOL     OW11269   2.139   6.457   3.753
 3457SOL    HW111270   2.079   6.498   3.821
 3457SOL    HW211271   2.133   6.508   3.667
 3458SOL     OW11272   5.303   4.637   0.393
 3458SOL    HW111273   5.266   4.616   0.303
 3458SOL    HW211274   5.341   4.729   0.393
 3459SOL     OW11275   6.742   6.317   3.176
 3459SOL    HW111276   6.767   6.265   3.258
 3459SOL    HW211277   6.644   6.335   3.178
 3460SOL     OW11278   3.852   2.854   6.116
 3460SOL    HW111279   3.805   2.938   6.089
 3460SOL    HW211280   3.947   2.857   6.086
 3461SOL     OW11281   2.521   5.305   3.021
 3461SOL    HW111282   2.497   5.376   2.955
 3461SOL    HW211283   2.612   5.270   3.000
 3462SOL     OW11284   5.237   2.831   2.250
 3462SOL    HW111285   5.148   2.823   2.294
 3462SOL    HW211286   5.234   2.786   2.161
 3463SOL     OW11287   1.668   3.039   1.274
 3463SOL    HW111288   1.649   3.136   1.290
 3463SOL    HW211289   1.638   2.986   1.353
 3464SOL     OW11290   5.256   2.056   6.035
 3464SOL    HW111291   5.246   1.964   5.996
 3464SOL    HW211292   5.346   2.064   6.079
 3465SOL     OW11293   1.498   4.315   1.403
 3465SOL    HW111294   1.454   4.228   1.381
 3465SOL    HW211295   1.596   4.308   1.388
 3466SOL     OW11296   6.292   4.375   4.058
 3466SOL    HW111297   6.323   4.356   4.151
 3466SOL    HW211298   6.353   4.442   4.015
 3467SOL     OW11299   3.248   2.840   1.302
 3467SOL    HW111300   3.192   2.829   1.220
 3467SOL    HW211301   3.213   2.917   1.355
 3468SOL     OW11302   3.781   1.442   0.811
 3468SOL    HW111303   3.828   1.403   0.890
 3468SOL    HW211304   3.694   1.394   0.797
 3469SOL     OW11305   3.732   5.958   5.334
 3469SOL    HW111306   3.701   5.943   5.428
 3469SOL    HW211307   3.787   6.042   5.330
 3470SOL     OW11308   0.613   2.445   2.323
 3470SOL    HW111309   0.540   2.401   2.270
 3470SOL    HW211310   0.594   2.543   2.330
 3471SOL     OW11311   4.914   3.062   4.872
 3471SOL    HW111312   4.856   3.054   4.953
 3471SOL    HW211313   5.006   3.029   4.894
 3472SOL     OW11314   3.917   1.912   3.082
 3472SOL    HW111315   3.861   1.989   3.112
 3472SOL    HW211316   3.929   1.916   2.982
 3473SOL     OW11317   5.973   4.543   1.884
 3473SOL    HW111318   5.959   4.640   1.863
 3473SOL    HW211319   5.891   4.506   1.927
 3474SOL     OW11320   4.781   4.584   3.919
 3474SOL    HW111321   4.873   4.562   3.889
 3474SOL    HW211322   4.778   4.678   3.953
 3475SOL     OW11323   7.000   4.433   3.980
 3475SOL    HW111324   6.967   4.436   3.886
 3475SOL    HW211325   6.928   4.397   4.040
 3476SOL     OW11326   1.545   1.225   3.404
 3476SOL    HW111327   1.451   1.249   3.428
 3476SOL    HW211328   1.601   1.308   3.405
 3477SOL     OW11329   0.551   4.613   1.974
 3477SOL    HW111330   0.602   4.552   2.034
 3477SOL    HW211331   0.589   4.705   1.980
 3478SOL     OW11332   2.156   0.431   1.317
 3478SOL    HW111333   2.229   0.377   1.277
 3478SOL    HW211334   2.092   0.459   1.245
 3479SOL     OW11335   1.363   4.571   4.982
 3479SOL    HW111336   1.415   4.589   5.066
 3479SOL    HW211337   1.273   4.534   5.006
 3480SOL     OW11338   1.328   4.683   6.380
 3480SOL    HW111339   1.282   4.666   6.292
 3480SOL    HW211340   1.350   4.780   6.387
 3481SOL     OW11341   6.035   0.519   4.758
 3481SOL    HW111342   6.104   0.446   4.759
 3481SOL    HW211343   5.945   0.479   4.743
 3482SOL     OW11344   5.845   3.419   6.516
 3482SOL    HW111345   5.811   3.512   6.501
 3482SOL    HW211346   5.774   3.365   6.561
 3483SOL     OW11347   5.802   2.840   5.487
 3483SOL    HW111348   5.753   2.769   5.537
 3483SOL    HW211349   5.770   2.843   5.392
 3484SOL     OW11350   1.229   3.720   4.946
 3484SOL    HW111351   1.191   3.655   5.012
 3484SOL    HW211352   1.155   3.763   4.895
 3485SOL     OW11353   7.008   2.792   6.888
 3485SOL    HW111354   6.928   2.757   6.937
 3485SOL    HW211355   6.979   2.854   6.815
 3486SOL     OW11356   1.620   6.548   5.645
 3486SOL    HW111357   1.542   6.578   5.700
 3486SOL    HW211358   1.692   6.514   5.705
 3487SOL     OW11359   4.684   1.226   0.282
 3487SOL    HW111360   4.701   1.206   0.185
 3487SOL    HW211361   4.675   1.141   0.332
 3488SOL     OW11362   5.808   0.092   4.360
 3488SOL    HW111363   5.741   0.081   4.433
 3488SOL    HW211364   5.785   0.173   4.306
 3489SOL     OW11365   3.246   6.014   0.963
 3489SOL    HW111366   3.269   5.952   0.888
 3489SOL    HW211367   3.330   6.048   1.005
 3490SOL     OW11368   3.264   6.444   0.804
 3490SOL    HW111369   3.179   6.460   0.854
 3490SOL    HW211370   3.342   6.456   0.865
 3491SOL     OW11371   4.057   4.774   6.139
 3491SOL    HW111372   4.057   4.681   6.176
 3491SOL    HW211373   4.045   4.771   6.040
 3492SOL     OW11374   6.095   4.363   3.066
 3492SOL    HW111375   6.008   4.318   3.048
 3492SOL    HW211376   6.122   4.346   3.161
 3493SOL     OW11377   6.703   2.775   5.376
 3493SOL    HW111378   6.660   2.687   5.393
 3493SOL    HW211379   6.638   2.837   5.331
 3494SOL     OW11380   4.169   1.579   2.337
 3494SOL    HW111381   4.154   1.631   2.253
 3494SOL    HW211382   4.136   1.485   2.325
 3495SOL     OW11383   1.305   3.448   3.043
 3495SOL    HW111384   1.400   3.455   3.073
 3495SOL    HW211385   1.276   3.352   3.045
 3496SOL     OW11386   6.333   4.833   1.439
 3496SOL    HW111387   6.342   4.880   1.352
 3496SOL    HW211388   6.244   4.854   1.479
 3497SOL     OW11389   3.239   0.082   2.266
 3497SOL    HW111390   3.306   0.034   2.209
 3497SOL    HW211391   3.154   0.029   2.268
 3498SOL     OW11392   1.844   2.827   1.542
 3498SOL    HW111393   1.754   2.783   1.538
 3498SOL    HW211394   1.908   2.778   1.483
 3499SOL     OW11395   5.919   6.757   4.439
 3499SOL    HW111396   6.009   6.800   4.432
 3499SOL    HW211397   5.903   6.701   4.358
 3500SOL     OW11398   2.252   2.251   4.049
 3500SOL    HW111399   2.221   2.172   3.996
 3500SOL    HW211400   2.314   2.306   3.992
 3501SOL     OW11401   1.197   0.177   6.077
 3501SOL    HW111402   1.135   0.195   6.001
 3501SOL    HW211403   1.186   0.248   6.147
 3502SOL     OW11404   4.368   2.342   2.538
 3502SOL    HW111405   4.273   2.315   2.548
 3502SOL    HW211406   4.386   2.369   2.443
 3503SOL     OW11407   0.015   5.724   6.533
 3503SOL    HW111408   6.981   5.804   6.501
 3503SOL    HW211409   7.016   5.647   6.471
 3504SOL     OW11410   1.824   0.622   0.428
 3504SOL    HW111411   1.816   0.708   0.477
 3504SOL    HW211412   1.899   0.627   0.362
 3505SOL     OW11413   4.930   3.891   6.140
 3505SOL    HW111414   4.852   3.841   6.177
 3505SOL    HW211415   4.898   3.966   6.082
 3506SOL     OW11416   4.139   4.917   5.131
 3506SOL    HW111417   4.056   4.899   5.078
 3506SOL    HW211418   4.118   4.985   5.202
 3507SOL     OW11419   3.148   1.154   0.857
 3507SOL    HW111420   3.199   1.069   0.858
 3507SOL    HW211421   3.156   1.197   0.767
 3508SOL     OW11422   3.522   1.096   5.232
 3508SOL    HW111423   3.562   1.184   5.257
 3508SOL    HW211424   3.587   1.044   5.176
 3509SOL     OW11425   3.849   5.800   6.154
 3509SOL    HW111426   3.809   5.711   6.129
 3509SOL    HW211427   3.795   5.841   6.228
 3510SOL     OW11428   2.578   1.605   1.562
 3510SOL    HW111429   2.513   1.577   1.491
 3510SOL    HW211430   2.665   1.630   1.520
 3511SOL     OW11431   2.793   4.440   1.606
 3511SOL    HW111432   2.816   4.343   1.613
 3511SOL    HW211433   2.834   4.489   1.683
 3512SOL     OW11434   6.804   5.158   5.551
 3512SOL    HW111435   6.750   5.215   5.613
 3512SOL    HW211436   6.808   5.065   5.587
 3513SOL     OW11437   6.205   1.967   1.007
 3513SOL    HW111438   6.220   2.056   0.965
 3513SOL    HW211439   6.208   1.896   0.936
 3514SOL     OW11440   3.340   1.518   1.756
 3514SOL    HW111441   3.316   1.514   1.853
 3514SOL    HW211442   3.341   1.613   1.725
 3515SOL     OW11443   0.282   5.192   4.353
 3515SOL    HW111444   0.346   5.116   4.371
 3515SOL    HW211445   0.284   5.255   4.430
 3516SOL     OW11446   4.880   0.628   1.378
 3516SOL    HW111447   4.829   0.691   1.319
 3516SOL    HW211448   4.891   0.670   1.469
 3517SOL     OW11449   5.626   0.845   1.171
 3517SOL    HW111450   5.628   0.768   1.235
 3517SOL    HW211451   5.535   0.886   1.170
 3518SOL     OW11452   5.454   0.974   5.146
 3518SOL    HW111453   5.356   0.994   5.142
 3518SOL    HW211454   5.506   1.057   5.128
 3519SOL     OW11455   3.487   0.781   1.164
 3519SOL    HW111456   3.490   0.733   1.252
 3519SOL    HW211457   3.579   0.809   1.138
 3520SOL     OW11458   3.147   5.937   4.341
 3520SOL    HW111459   3.078   5.972   4.404
 3520SOL    HW211460   3.222   5.896   4.392
 3521SOL     OW11461   2.621   2.849   6.260
 3521SOL    HW111462   2.653   2.899   6.179
 3521SOL    HW211463   2.631   2.907   6.341
 3522SOL     OW11464   1.062   6.140   6.262
 3522SOL    HW111465   0.997   6.066   6.281
 3522SOL    HW211466   1.017   6.228   6.273
 3523SOL     OW11467   3.055   6.601   6.931
 3523SOL    HW111468   3.077   6.504   6.935
 3523SOL    HW211469   2.990   6.617   6.856
 3524SOL     OW11470   4.806   1.398   3.917
 3524SOL    HW111471   4.742   1.322   3.904
 3524SOL    HW211472   4.885   1.385   3.857
 3525SOL     OW11473   0.089   3.393   3.128
 3525SOL    HW111474   0.109   3.337   3.207
 3525SOL    HW211475   0.174   3.413   3.079
 3526SOL     OW11476   0.092   6.513   1.935
 3526SOL    HW111477   0.032   6.501   1.855
 3526SOL    HW211478   0.047   6.574   2.000
 3527SOL     OW11479   0.479   3.067   6.268
 3527SOL    HW111480   0.392   3.039   6.227
 3527SOL    HW211481   0.492   3.020   6.356
 3528SOL     OW11482   2.457   5.771   4.392
 3528SOL    HW111483   2.436   5.697   4.456
 3528SOL    HW211484   2.400   5.762   4.310
 3529SOL     OW11485   4.268   4.491   0.897
 3529SOL    HW111486   4.277   4.428   0.820
 3529SOL    HW211487   4.304   4.447   0.979
 3530SOL     OW11488   6.645   6.979   0.714
 3530SOL    HW111489   6.577   6.975   0.787
 3530SOL    HW211490   6.737   6.979   0.754
 3531SOL     OW11491   4.871   2.348   0.464
 3531SOL    HW111492   4.810   2.414   0.421
 3531SOL    HW211493   4.923   2.394   0.537
 3532SOL     OW11494   1.823   0.974   1.578
 3532SOL    HW111495   1.801   1.033   1.656
 3532SOL    HW211496   1.742   0.965   1.520
 3533SOL     OW11497   1.065   1.606   3.091
 3533SOL    HW111498   1.113   1.551   3.023
 3533SOL    HW211499   1.131   1.663   3.141
 3534SOL     OW11500   0.307   1.100   1.175
 3534SOL    HW111501   0.233   1.046   1.134
 3534SOL    HW211502   0.375   1.120   1.105
 3535SOL     OW11503   3.301   5.797   4.089
 3535SOL    HW111504   3.239   5.752   4.153
 3535SOL    HW211505   3.369   5.850   4.139
 3536SOL     OW11506   3.855   1.483   3.126
 3536SOL    HW111507   3.844   1.547   3.202
 3536SOL    HW211508   3.946   1.495   3.086
 3537SOL     OW11509   1.849   7.013   3.848
 3537SOL    HW111510   1.858   6.936   3.785
 3537SOL    HW211511   1.752   0.018   3.858
 3538SOL     OW11512   2.809   5.871   2.124
 3538SOL    HW111513   2.804   5.773   2.141
 3538SOL    HW211514   2.894   5.908   2.160
 3539SOL     OW11515   3.498   3.807   3.989
 3539SOL    HW111516   3.470   3.788   4.083
 3539SOL    HW211517   3.571   3.876   3.990
 3540SOL     OW11518   1.531   2.065   3.716
 3540SOL    HW111519   1.580   2.152   3.718
 3540SOL    HW211520   1.499   2.043   3.808
 3541SOL     OW11521   4.016   3.829   4.124
 3541SOL    HW111522   4.060   3.830   4.214
 3541SOL    HW211523   4.077   3.784   4.058
 3542SOL     OW11524   6.577   5.389   0.997
 3542SOL    HW111525   6.665   5.434   0.981
 3542SOL    HW211526   6.531   5.375   0.910
 3543SOL     OW11527   5.433   2.704   4.896
 3543SOL    HW111528   5.530   2.725   4.882
 3543SOL    HW211529   5.378   2.762   4.835
 3544SOL     OW11530   2.346   6.490   6.897
 3544SOL    HW111531   2.412   6.418   6.875
 3544SOL    HW211532   2.288   6.507   6.817
 3545SOL     OW11533   3.290   4.927   0.606
 3545SOL    HW111534   3.379   4.881   0.608
 3545SOL    HW211535   3.301   5.019   0.567
 3546SOL     OW11536   0.048   4.877   2.413
 3546SOL    HW111537   0.092   4.847   2.328
 3546SOL    HW211538   7.009   4.804   2.448
 3547SOL     OW11539   4.873   4.704   4.529
 3547SOL    HW111540   4.891   4.674   4.622
 3547SOL    HW211541   4.868   4.624   4.468
 3548SOL     OW11542   4.884   3.573   5.972
 3548SOL    HW111543   4.924   3.512   6.040
 3548SOL    HW211544   4.866   3.662   6.014
 3549SOL     OW11545   5.573   3.522   2.556
 3549SOL    HW111546   5.579   3.564   2.465
 3549SOL    HW211547   5.477   3.512   2.581
 3550SOL     OW11548   5.457   1.373   3.083
 3550SOL    HW111549   5.518   1.447   3.110
 3550SOL    HW211550   5.381   1.411   3.029
 3551SOL     OW11551   2.141   6.407   3.033
 3551SOL    HW111552   2.204   6.404   3.111
 3551SOL    HW211553   2.124   6.313   3.001
 3552SOL     OW11554   6.752   4.257   3.284
 3552SOL    HW111555   6.815   4.182   3.262
 3552SOL    HW211556   6.660   4.232   3.255
 3553SOL     OW11557   5.716   2.237   3.285
 3553SOL    HW111558   5.693   2.193   3.198
 3553SOL    HW211559   5.809   2.275   3.279
 3554SOL     OW11560   3.984   5.830   6.860
 3554SOL    HW111561   3.985   5.929   6.855
 3554SOL    HW211562   3.908   5.799   6.916
 3555SOL     OW11563   0.151   2.185   3.207
 3555SOL    HW111564   0.073   2.244   3.228
 3555SOL    HW211565   0.127   2.089   3.224
 3556SOL     OW11566   4.391   0.915   6.527
 3556SOL    HW111567   4.326   0.943   6.597
 3556SOL    HW211568   4.482   0.951   6.550
 3557SOL     OW11569   0.983   0.303   4.464
 3557SOL    HW111570   1.030   0.231   4.515
 3557SOL    HW211571   0.909   0.262   4.410
 3558SOL     OW11572   6.588   6.514   1.696
 3558SOL    HW111573   6.542   6.482   1.779
 3558SOL    HW211574   6.598   6.437   1.633
 3559SOL     OW11575   1.193   0.225   5.312
 3559SOL    HW111576   1.172   0.170   5.392
 3559SOL    HW211577   1.109   0.263   5.274
 3560SOL     OW11578   6.426   6.966   1.448
 3560SOL    HW111579   6.328   6.970   1.467
 3560SOL    HW211580   6.467   6.892   1.502
 3561SOL     OW11581   5.365   4.442   3.848
 3561SOL    HW111582   5.338   4.467   3.940
 3561SOL    HW211583   5.403   4.349   3.849
 3562SOL     OW11584   3.915   2.137   3.307
 3562SOL    HW111585   3.997   2.175   3.263
 3562SOL    HW211586   3.934   2.122   3.404
 3563SOL     OW11587   5.115   6.932   1.515
 3563SOL    HW111588   5.081   6.841   1.537
 3563SOL    HW211589   5.111   6.990   1.597
 3564SOL     OW11590   6.841   4.121   3.031
 3564SOL    HW111591   6.772   4.192   3.017
 3564SOL    HW211592   6.880   4.094   2.944
 3565SOL     OW11593   1.277   0.848   5.376
 3565SOL    HW111594   1.248   0.899   5.457
 3565SOL    HW211595   1.334   0.770   5.404
 3566SOL     OW11596   0.890   4.762   6.388
 3566SOL    HW111597   0.810   4.704   6.392
 3566SOL    HW211598   0.970   4.712   6.423
 3567SOL     OW11599   0.233   2.820   1.220
 3567SOL    HW111600   0.212   2.914   1.247
 3567SOL    HW211601   0.325   2.817   1.180
 3568SOL     OW11602   4.791   4.060   3.457
 3568SOL    HW111603   4.823   4.075   3.550
 3568SOL    HW211604   4.838   3.981   3.418
 3569SOL     OW11605   4.090   3.416   3.415
 3569SOL    HW111606   4.087   3.324   3.378
 3569SOL    HW211607   4.111   3.412   3.513
 3570SOL     OW11608   0.488   1.957   5.295
 3570SOL    HW111609   0.536   2.041   5.270
 3570SOL    HW211610   0.523   1.881   5.240
 3571SOL     OW11611   2.728   6.913   4.672
 3571SOL    HW111612   2.776   6.852   4.735
 3571SOL    HW211613   2.725   7.005   4.710
 3572SOL     OW11614   4.955   3.895   1.746
 3572SOL    HW111615   4.890   3.906   1.822
 3572SOL    HW211616   5.043   3.865   1.782
 3573SOL     OW11617   0.047   4.751   3.649
 3573SOL    HW111618   7.005   4.687   3.697
 3573SOL    HW211619   0.108   4.794   3.715
 3574SOL     OW11620   1.918   1.869   5.840
 3574SOL    HW111621   1.836   1.817   5.863
 3574SOL    HW211622   1.999   1.814   5.858
 3575SOL     OW11623   5.326   0.409   6.815
 3575SOL    HW111624   5.235   0.376   6.791
 3575SOL    HW211625   5.334   0.418   6.914
 3576SOL     OW11626   1.277   2.846   0.426
 3576SOL    HW111627   1.359   2.814   0.379
 3576SOL    HW211628   1.218   2.893   0.361
 3577SOL     OW11629   1.447   2.692   4.952
 3577SOL    HW111630   1.373   2.739   5.000
 3577SOL    HW211631   1.424   2.685   4.855
 3578SOL     OW11632   3.739   2.926   6.698
 3578SOL    HW111633   3.823   2.919   6.752
 3578SOL    HW211634   3.762   2.930   6.601
 3579SOL     OW11635   0.954   4.121   0.905
 3579SOL    HW111636   0.892   4.190   0.942
 3579SOL    HW211637   0.980   4.057   0.977
 3580SOL     OW11638   6.944   4.189   2.077
 3580SOL    HW111639   6.968   4.254   2.149
 3580SOL    HW211640   6.875   4.125   2.112
 3581SOL     OW11641   1.308   0.587   2.776
 3581SOL    HW111642   1.229   0.611   2.833
 3581SOL    HW211643   1.391   0.595   2.831
 3582SOL     OW11644   4.457   6.137   6.754
 3582SOL    HW111645   4.552   6.127   6.782
 3582SOL    HW211646   4.402   6.067   6.800
 3583SOL     OW11647   1.531   5.564   1.406
 3583SOL    HW111648   1.517   5.582   1.504
 3583SOL    HW211649   1.445   5.531   1.366
 3584SOL     OW11650   5.932   4.949   4.659
 3584SOL    HW111651   5.856   4.911   4.607
 3584SOL    HW211652   5.896   5.002   4.736
 3585SOL     OW11653   3.521   2.001   3.416
 3585SOL    HW111654   3.578   2.054   3.479
 3585SOL    HW211655   3.560   1.910   3.403
 3586SOL     OW11656   6.731   1.921   5.580
 3586SOL    HW111657   6.809   1.867   5.548
 3586SOL    HW211658   6.646   1.871   5.562
 3587SOL     OW11659   2.876   0.989   5.907
 3587SOL    HW111660   2.910   0.909   5.858
 3587SOL    HW211661   2.950   1.031   5.959
 3588SOL     OW11662   5.712   4.845   4.495
 3588SOL    HW111663   5.800   4.863   4.451
 3588SOL    HW211664   5.644   4.821   4.426
 3589SOL     OW11665   0.815   0.036   6.246
 3589SOL    HW111666   0.906   0.008   6.275
 3589SOL    HW211667   0.786   6.998   6.168
 3590SOL     OW11668   6.294   5.641   5.321
 3590SOL    HW111669   6.244   5.718   5.361
 3590SOL    HW211670   6.386   5.637   5.360
 3591SOL     OW11671   4.589   2.031   0.662
 3591SOL    HW111672   4.574   2.111   0.604
 3591SOL    HW211673   4.664   1.976   0.625
 3592SOL     OW11674   1.101   5.977   1.306
 3592SOL    HW111675   1.010   5.945   1.280
 3592SOL    HW211676   1.103   5.996   1.404
 3593SOL     OW11677   3.908   3.320   5.675
 3593SOL    HW111678   3.977   3.381   5.637
 3593SOL    HW211679   3.954   3.239   5.714
 3594SOL     OW11680   4.655   5.078   5.242
 3594SOL    HW111681   4.574   5.124   5.207
 3594SOL    HW211682   4.682   5.120   5.329
 3595SOL     OW11683   4.905   6.306   4.538
 3595SOL    HW111684   4.831   6.370   4.520
 3595SOL    HW211685   4.962   6.341   4.613
 3596SOL     OW11686   3.928   1.671   2.880
 3596SOL    HW111687   3.830   1.685   2.872
 3596SOL    HW211688   3.977   1.752   2.847
 3597SOL     OW11689   3.430   4.213   5.683
 3597SOL    HW111690   3.404   4.151   5.609
 3597SOL    HW211691   3.366   4.203   5.759
 3598SOL     OW11692   6.807   5.748   5.197
 3598SOL    HW111693   6.854   5.663   5.173
 3598SOL    HW211694   6.861   5.826   5.165
 3599SOL     OW11695   2.613   1.717   4.923
 3599SOL    HW111696   2.688   1.770   4.884
 3599SOL    HW211697   2.650   1.641   4.976
 3600SOL     OW11698   2.878   3.689   6.869
 3600SOL    HW111699   2.818   3.642   6.934
 3600SOL    HW211700   2.827   3.708   6.785
 3601SOL     OW11701   4.856   0.752   4.990
 3601SOL    HW111702   4.821   0.841   5.017
 3601SOL    HW211703   4.814   0.724   4.904
 3602SOL     OW11704   1.282   2.382   1.580
 3602SOL    HW111705   1.352   2.432   1.529
 3602SOL    HW211706   1.262   2.430   1.665
 3603SOL     OW11707   2.236   0.698   5.559
 3603SOL    HW111708   2.222   0.608   5.519
 3603SOL    HW211709   2.330   0.728   5.542
 3604SOL     OW11710   0.012   1.123   3.363
 3604SOL    HW111711   0.103   1.092   3.335
 3604SOL    HW211712   6.966   1.108   3.288
 3605SOL     OW11713   1.307   0.244   5.064
 3605SOL    HW111714   1.265   0.199   5.142
 3605SOL    HW211715   1.239   0.300   5.016
 3606SOL     OW11716   2.077   6.928   2.312
 3606SOL    HW111717   2.162   6.876   2.307
 3606SOL    HW211718   2.020   6.892   2.386
 3607SOL     OW11719   6.301   1.424   3.293
 3607SOL    HW111720   6.386   1.396   3.249
 3607SOL    HW211721   6.254   1.492   3.236
 3608SOL     OW11722   3.504   1.803   5.413
 3608SOL    HW111723   3.506   1.852   5.325
 3608SOL    HW211724   3.597   1.796   5.449
 3609SOL     OW11725   3.721   0.228   5.639
 3609SOL    HW111726   3.816   0.231   5.669
 3609SOL    HW211727   3.668   0.294   5.692
 3610SOL     OW11728   2.214   1.052   5.676
 3610SOL    HW111729   2.175   1.144   5.678
 3610SOL    HW211730   2.275   1.043   5.597
 3611SOL     OW11731   5.466   4.008   3.057
 3611SOL    HW111732   5.372   3.973   3.060
 3611SOL    HW211733   5.466   4.100   3.018
 3612SOL     OW11734   4.262   1.995   0.543
 3612SOL    HW111735   4.317   2.032   0.617
 3612SOL    HW211736   4.222   1.907   0.571
 3613SOL     OW11737   3.649   0.044   2.812
 3613SOL    HW111738   3.680   6.998   2.883
 3613SOL    HW211739   3.556   0.019   2.783
 3614SOL     OW11740   3.359   6.007   6.998
 3614SOL    HW111741   3.414   6.091   7.008
 3614SOL    HW211742   3.267   6.024   0.015
 3615SOL     OW11743   4.881   3.184   5.612
 3615SOL    HW111744   4.967   3.183   5.561
 3615SOL    HW211745   4.855   3.278   5.633
 3616SOL     OW11746   1.487   2.318   1.030
 3616SOL    HW111747   1.465   2.222   1.015
 3616SOL    HW211748   1.524   2.330   1.122
 3617SOL     OW11749   4.271   5.576   5.283
 3617SOL    HW111750   4.295   5.500   5.222
 3617SOL    HW211751   4.335   5.578   5.360
 3618SOL     OW11752   1.306   5.484   4.733
 3618SOL    HW111753   1.286   5.392   4.700
 3618SOL    HW211754   1.220   5.529   4.759
 3619SOL     OW11755   6.345   1.982   2.415
 3619SOL    HW111756   6.426   1.978   2.357
 3619SOL    HW211757   6.274   1.922   2.379
 3620SOL     OW11758   5.342   6.114   5.167
 3620SOL    HW111759   5.303   6.080   5.081
 3620SOL    HW211760   5.314   6.054   5.242
 3621SOL     OW11761   3.795   2.991   3.958
 3621SOL    HW111762   3.842   3.012   4.044
 3621SOL    HW211763   3.716   2.934   3.976
 3622SOL     OW11764   1.938   5.441   6.211
 3622SOL    HW111765   1.921   5.537   6.188
 3622SOL    HW211766   2.035   5.420   6.198
 3623SOL     OW11767   1.444   5.934   6.315
 3623SOL    HW111768   1.525   5.974   6.273
 3623SOL    HW211769   1.470   5.854   6.369
 3624SOL     OW11770   2.361   1.753   2.763
 3624SOL    HW111771   2.271   1.793   2.748
 3624SOL    HW211772   2.396   1.716   2.677
 3625SOL     OW11773   6.302   2.653   1.554
 3625SOL    HW111774   6.243   2.696   1.486
 3625SOL    HW211775   6.248   2.586   1.606
 3626SOL     OW11776   1.666   2.576   6.159
 3626SOL    HW111777   1.568   2.593   6.162
 3626SOL    HW211778   1.690   2.537   6.070
 3627SOL     OW11779   3.403   1.303   2.739
 3627SOL    HW111780   3.402   1.345   2.829
 3627SOL    HW211781   3.332   1.345   2.682
 3628SOL     OW11782   6.829   1.419   1.644
 3628SOL    HW111783   6.825   1.322   1.620
 3628SOL    HW211784   6.921   1.440   1.679
 3629SOL     OW11785   1.391   0.739   4.221
 3629SOL    HW111786   1.415   0.653   4.176
 3629SOL    HW211787   1.463   0.764   4.286
 3630SOL     OW11788   6.187   2.377   3.087
 3630SOL    HW111789   6.252   2.447   3.117
 3630SOL    HW211790   6.199   2.294   3.142
 3631SOL     OW11791   2.132   6.086   2.568
 3631SOL    HW111792   2.035   6.089   2.544
 3631SOL    HW211793   2.181   6.029   2.502
 3632SOL     OW11794   5.020   3.446   2.511
 3632SOL    HW111795   5.069   3.365   2.479
 3632SOL    HW211796   4.957   3.477   2.439
 3633SOL     OW11797   3.905   4.370   6.578
 3633SOL    HW111798   3.882   4.308   6.503
 3633SOL    HW211799   4.003   4.365   6.597
 3634SOL     OW11800   2.879   5.424   6.496
 3634SOL    HW111801   2.881   5.524   6.504
 3634SOL    HW211802   2.941   5.396   6.422
 3635SOL     OW11803   1.286   6.880   2.856
 3635SOL    HW111804   1.360   6.944   2.877
 3635SOL    HW211805   1.313   6.788   2.882
 3636SOL     OW11806   0.199   5.715   4.777
 3636SOL    HW111807   0.233   5.809   4.773
 3636SOL    HW211808   0.139   5.698   4.699
 3637SOL     OW11809   5.784   2.596   6.820
 3637SOL    HW111810   5.859   2.661   6.811
 3637SOL    HW211811   5.755   2.566   6.730
 3638SOL     OW11812   0.339   3.036   3.307
 3638SOL    HW111813   0.350   3.130   3.273
 3638SOL    HW211814   0.384   3.028   3.395
 3639SOL     OW11815   4.098   3.806   4.392
 3639SOL    HW111816   4.182   3.857   4.413
 3639SOL    HW211817   4.043   3.797   4.474
 3640SOL     OW11818   4.466   1.773   2.087
 3640SOL    HW111819   4.480   1.674   2.089
 3640SOL    HW211820   4.374   1.794   2.054
 3641SOL     OW11821   6.375   3.317   2.061
 3641SOL    HW111822   6.351   3.411   2.040
 3641SOL    HW211823   6.455   3.290   2.009
 3642SOL     OW11824   5.160   4.162   6.264
 3642SOL    HW111825   5.074   4.137   6.308
 3642SOL    HW211826   5.184   4.256   6.288
 3643SOL     OW11827   4.185   6.039   4.738
 3643SOL    HW111828   4.192   5.940   4.748
 3643SOL    HW211829   4.246   6.084   4.803
 3644SOL     OW11830   2.615   0.865   2.029
 3644SOL    HW111831   2.693   0.907   1.983
 3644SOL    HW211832   2.639   0.845   2.124
 3645SOL     OW11833   2.078   4.360   3.350
 3645SOL    HW111834   2.013   4.290   3.376
 3645SOL    HW211835   2.030   4.446   3.331
 3646SOL     OW11836   1.954   5.304   5.688
 3646SOL    HW111837   1.956   5.205   5.677
 3646SOL    HW211838   1.865   5.339   5.657
 3647SOL     OW11839   3.689   6.888   0.579
 3647SOL    HW111840   3.772   6.900   0.525
 3647SOL    HW211841   3.626   6.964   0.562
 3648SOL     OW11842   5.105   4.530   3.422
 3648SOL    HW111843   5.147   4.479   3.497
 3648SOL    HW211844   5.029   4.478   3.384
 3649SOL     OW11845   5.256   2.364   0.724
 3649SOL    HW111846   5.293   2.374   0.632
 3649SOL    HW211847   5.311   2.419   0.788
 3650SOL     OW11848   5.523   6.165   6.022
 3650SOL    HW111849   5.490   6.175   6.116
 3650SOL    HW211850   5.618   6.135   6.023
 3651SOL     OW11851   1.105   2.185   6.217
 3651SOL    HW111852   1.084   2.164   6.312
 3651SOL    HW211853   1.187   2.243   6.212
 3652SOL     OW11854   5.157   2.535   2.674
 3652SOL    HW111855   5.086   2.467   2.656
 3652SOL    HW211856   5.188   2.526   2.768
 3653SOL     OW11857   2.077   1.166   0.841
 3653SOL    HW111858   2.117   1.076   0.823
 3653SOL    HW211859   2.122   1.207   0.920
 3654SOL     OW11860   4.241   6.496   1.479
 3654SOL    HW111861   4.276   6.402   1.487
 3654SOL    HW211862   4.317   6.560   1.478
 3655SOL     OW11863   1.146   0.788   4.088
 3655SOL    HW111864   1.124   0.704   4.039
 3655SOL    HW211865   1.220   0.770   4.154
 3656SOL     OW11866   0.172   0.109   0.725
 3656SOL    HW111867   0.189   0.103   0.627
 3656SOL    HW211868   0.074   0.099   0.744
 3657SOL     OW11869   5.898   5.036   6.346
 3657SOL    HW111870   5.909   4.993   6.256
 3657SOL    HW211871   5.988   5.048   6.389
 3658SOL     OW11872   1.628   4.004   5.341
 3658SOL    HW111873   1.656   3.943   5.268
 3658SOL    HW211874   1.639   4.099   5.311
 3659SOL     OW11875   1.061   2.103   6.754
 3659SOL    HW111876   0.996   2.178   6.767
 3659SOL    HW211877   1.011   2.017   6.749
 3660SOL     OW11878   3.985   5.113   5.258
 3660SOL    HW111879   3.928   5.036   5.229
 3660SOL    HW211880   3.932   5.198   5.255
 3661SOL     OW11881   0.849   1.419   4.865
 3661SOL    HW111882   0.821   1.512   4.841
 3661SOL    HW211883   0.937   1.399   4.822
 3662SOL     OW11884   3.870   1.496   5.384
 3662SOL    HW111885   3.962   1.456   5.377
 3662SOL    HW211886   3.841   1.496   5.480
 3663SOL     OW11887   1.596   2.347   6.394
 3663SOL    HW111888   1.636   2.438   6.408
 3663SOL    HW211889   1.640   2.304   6.315
 3664SOL     OW11890   2.964   1.900   1.348
 3664SOL    HW111891   2.992   1.991   1.378
 3664SOL    HW211892   2.992   1.885   1.253
 3665SOL     OW11893   6.948   5.990   5.107
 3665SOL    HW111894   6.903   6.074   5.137
 3665SOL    HW211895   6.969   5.996   5.009
 3666SOL     OW11896   2.043   3.733   4.438
 3666SOL    HW111897   2.090   3.665   4.494
 3666SOL    HW211898   2.019   3.692   4.350
 3667SOL     OW11899   1.974   6.709   1.137
 3667SOL    HW111900   1.952   6.801   1.169
 3667SOL    HW211901   2.054   6.674   1.186
 3668SOL     OW11902   5.340   1.456   0.971
 3668SOL    HW111903   5.292   1.501   1.047
 3668SOL    HW211904   5.427   1.418   1.003
 3669SOL     OW11905   6.234   0.838   1.626
 3669SOL    HW111906   6.256   0.891   1.708
 3669SOL    HW211907   6.215   0.900   1.550
 3670SOL     OW11908   1.998   6.738   2.098
 3670SOL    HW111909   2.011   6.794   2.180
 3670SOL    HW211910   2.049   6.778   2.022
 3671SOL     OW11911   0.024   0.569   5.110
 3671SOL    HW111912   0.115   0.587   5.148
 3671SOL    HW211913   0.029   0.493   5.046
 3672SOL     OW11914   4.353   0.210   3.551
 3672SOL    HW111915   4.347   0.128   3.493
 3672SOL    HW211916   4.341   0.184   3.646
 3673SOL     OW11917   3.412   1.277   1.949
 3673SOL    HW111918   3.485   1.214   1.973
 3673SOL    HW211919   3.447   1.346   1.885
 3674SOL     OW11920   0.201   4.475   5.918
 3674SOL    HW111921   0.158   4.433   5.997
 3674SOL    HW211922   0.284   4.423   5.894
 3675SOL     OW11923   6.700   0.907   4.682
 3675SOL    HW111924   6.610   0.887   4.721
 3675SOL    HW211925   6.729   0.998   4.711
 3676SOL     OW11926   2.613   0.913   5.787
 3676SOL    HW111927   2.702   0.900   5.830
 3676SOL    HW211928   2.624   0.963   5.701
 3677SOL     OW11929   1.653   0.963   4.490
 3677SOL    HW111930   1.625   0.871   4.462
 3677SOL    HW211931   1.577   1.026   4.479
 3678SOL     OW11932   2.664   0.731   3.067
 3678SOL    HW111933   2.749   0.767   3.028
 3678SOL    HW211934   2.666   0.631   3.065
 3679SOL     OW11935   3.039   1.101   2.134
 3679SOL    HW111936   3.106   1.114   2.206
 3679SOL    HW211937   2.947   1.120   2.170
 3680SOL     OW11938   3.726   2.146   4.404
 3680SOL    HW111939   3.643   2.140   4.460
 3680SOL    HW211940   3.701   2.156   4.308
 3681SOL     OW11941   0.940   6.308   3.466
 3681SOL    HW111942   0.897   6.396   3.487
 3681SOL    HW211943   0.945   6.253   3.549
 3682SOL     OW11944   5.612   1.671   1.718
 3682SOL    HW111945   5.560   1.723   1.787
 3682SOL    HW211946   5.551   1.608   1.671
 3683SOL     OW11947   6.600   1.696   1.067
 3683SOL    HW111948   6.508   1.698   1.106
 3683SOL    HW211949   6.594   1.673   0.970
 3684SOL     OW11950   2.648   6.375   5.627
 3684SOL    HW111951   2.642   6.280   5.657
 3684SOL    HW211952   2.740   6.393   5.590
 3685SOL     OW11953   2.268   7.015   3.704
 3685SOL    HW111954   2.271   6.936   3.643
 3685SOL    HW211955   2.285   6.986   3.798
 3686SOL     OW11956   0.024   4.321   0.138
 3686SOL    HW111957   0.079   4.239   0.117
 3686SOL    HW211958   6.948   4.293   0.159
 3687SOL     OW11959   6.728   4.623   4.344
 3687SOL    HW111960   6.633   4.647   4.324
 3687SOL    HW211961   6.745   4.632   4.442
 3688SOL     OW11962   6.946   3.007   1.541
 3688SOL    HW111963   0.012   3.059   1.555
 3688SOL    HW211964   6.875   3.068   1.507
 3689SOL     OW11965   1.803   1.499   5.672
 3689SOL    HW111966   1.765   1.419   5.626
 3689SOL    HW211967   1.753   1.516   5.757
 3690SOL     OW11968   6.381   4.583   1.527
 3690SOL    HW111969   6.360   4.675   1.496
 3690SOL    HW211970   6.310   4.520   1.496
 3691SOL     OW11971   1.924   2.110   0.811
 3691SOL    HW111972   1.915   2.175   0.735
 3691SOL    HW211973   1.988   2.038   0.785
 3692SOL     OW11974   1.037   2.894   5.251
 3692SOL    HW111975   0.991   2.863   5.334
 3692SOL    HW211976   0.970   2.933   5.188
 3693SOL     OW11977   6.932   1.648   2.796
 3693SOL    HW111978   7.006   1.697   2.751
 3693SOL    HW211979   6.845   1.696   2.778
 3694SOL     OW11980   0.129   6.899   1.517
 3694SOL    HW111981   0.185   6.816   1.509
 3694SOL    HW211982   0.040   6.875   1.555
 3695SOL     OW11983   6.176   3.918   3.604
 3695SOL    HW111984   6.253   3.976   3.577
 3695SOL    HW211985   6.191   3.885   3.698
 3696SOL     OW11986   4.715   0.052   4.211
 3696SOL    HW111987   4.796   0.106   4.232
 3696SOL    HW211988   4.637   0.088   4.263
 3697SOL     OW11989   6.076   5.513   3.156
 3697SOL    HW111990   6.149   5.492   3.091
 3697SOL    HW211991   5.997   5.549   3.107
 3698SOL     OW11992   1.155   6.848   4.407
 3698SOL    HW111993   1.213   6.827   4.485
 3698SOL    HW211994   1.189   6.930   4.361
 3699SOL     OW11995   3.099   2.088   2.891
 3699SOL    HW111996   3.127   2.076   2.986
 3699SOL    HW211997   3.174   2.063   2.830
 3700SOL     OW11998   1.133   5.330   4.213
 3700SOL    HW111999   1.105   5.244   4.256
 3700SOL    HW212000   1.164   5.394   4.283
 3701SOL     OW12001   6.655   0.507   1.978
 3701SOL    HW112002   6.698   0.555   2.055
 3701SOL    HW212003   6.665   0.563   1.895
 3702SOL     OW12004   6.530   4.633   3.551
 3702SOL    HW112005   6.489   4.724   3.547
 3702SOL    HW212006   6.626   4.638   3.524
 3703SOL     OW12007   0.840   2.364   3.193
 3703SOL    HW112008   0.863   2.296   3.123
 3703SOL    HW212009   0.747   2.397   3.179
 3704SOL     OW12010   6.152   0.089   0.656
 3704SOL    HW112011   6.111   7.016   0.663
 3704SOL    HW212012   6.128   0.143   0.737
 3705SOL     OW12013   6.363   4.088   3.496
 3705SOL    HW112014   6.417   4.074   3.413
 3705SOL    HW212015   6.348   4.185   3.511
 3706SOL     OW12016   0.812   5.688   6.755
 3706SOL    HW112017   0.867   5.651   6.680
 3706SOL    HW212018   0.872   5.711   6.831
 3707SOL     OW12019   0.593   4.619   3.333
 3707SOL    HW112020   0.645   4.614   3.418
 3707SOL    HW212021   0.627   4.550   3.269
 3708SOL     OW12022   1.919   5.835   0.569
 3708SOL    HW112023   1.884   5.867   0.658
 3708SOL    HW212024   1.944   5.913   0.513
 3709SOL     OW12025   0.774   1.679   2.280
 3709SOL    HW112026   0.839   1.740   2.326
 3709SOL    HW212027   0.774   1.590   2.325
 3710SOL     OW12028   2.225   3.894   5.518
 3710SOL    HW112029   2.233   3.898   5.418
 3710SOL    HW212030   2.193   3.803   5.545
 3711SOL     OW12031   2.121   5.323   5.470
 3711SOL    HW112032   2.082   5.314   5.562
 3711SOL    HW212033   2.119   5.233   5.425
 3712SOL     OW12034   3.240   4.939   4.252
 3712SOL    HW112035   3.253   5.030   4.292
 3712SOL    HW212036   3.321   4.913   4.200
 3713SOL     OW12037   6.192   0.321   5.350
 3713SOL    HW112038   6.229   0.228   5.345
 3713SOL    HW212039   6.093   0.317   5.364
 3714SOL     OW12040   0.196   5.096   0.180
 3714SOL    HW112041   0.110   5.045   0.178
 3714SOL    HW212042   0.230   5.109   0.087
 3715SOL     OW12043   6.609   4.558   3.242
 3715SOL    HW112044   6.588   4.470   3.201
 3715SOL    HW212045   6.636   4.545   3.337
 3716SOL     OW12046   5.651   5.865   5.557
 3716SOL    HW112047   5.680   5.942   5.500
 3716SOL    HW212048   5.551   5.865   5.563
 3717SOL     OW12049   4.815   0.185   1.072
 3717SOL    HW112050   4.828   0.243   1.152
 3717SOL    HW212051   4.737   0.124   1.087
 3718SOL     OW12052   5.488   6.957   6.323
 3718SOL    HW112053   5.527   6.900   6.395
 3718SOL    HW212054   5.391   6.935   6.312
 3719SOL     OW12055   2.498   4.376   0.270
 3719SOL    HW112056   2.479   4.351   0.175
 3719SOL    HW212057   2.429   4.335   0.329
 3720SOL     OW12058   0.624   2.235   0.954
 3720SOL    HW112059   0.615   2.209   1.050
 3720SOL    HW212060   0.535   2.232   0.910
 3721SOL     OW12061   6.316   6.671   6.234
 3721SOL    HW112062   6.304   6.713   6.324
 3721SOL    HW212063   6.377   6.728   6.178
 3722SOL     OW12064   5.848   6.774   0.947
 3722SOL    HW112065   5.899   6.860   0.938
 3722SOL    HW212066   5.892   6.704   0.890
 3723SOL     OW12067   4.647   4.485   6.109
 3723SOL    HW112068   4.720   4.544   6.073
 3723SOL    HW212069   4.680   4.439   6.191
 3724SOL     OW12070   6.601   4.978   4.718
 3724SOL    HW112071   6.682   5.021   4.758
 3724SOL    HW212072   6.519   5.013   4.762
 3725SOL     OW12073   0.245   6.160   0.615
 3725SOL    HW112074   0.226   6.062   0.624
 3725SOL    HW212075   0.231   6.205   0.704
 3726SOL     OW12076   5.980   3.702   5.193
 3726SOL    HW112077   5.923   3.634   5.238
 3726SOL    HW212078   5.926   3.783   5.173
 3727SOL     OW12079   6.746   1.500   4.073
 3727SOL    HW112080   6.721   1.584   4.121
 3727SOL    HW212081   6.844   1.501   4.052
 3728SOL     OW12082   1.867   4.835   0.546
 3728SOL    HW112083   1.875   4.801   0.640
 3728SOL    HW212084   1.813   4.919   0.546
 3729SOL     OW12085   0.463   6.965   6.239
 3729SOL    HW112086   0.476   6.918   6.326
 3729SOL    HW212087   0.367   6.993   6.231
 3730SOL     OW12088   4.792   4.945   4.590
 3730SOL    HW112089   4.701   4.965   4.553
 3730SOL    HW212090   4.821   4.854   4.559
 3731SOL     OW12091   0.208   1.780   1.414
 3731SOL    HW112092   0.298   1.823   1.427
 3731SOL    HW212093   0.150   1.840   1.358
 3732SOL     OW12094   4.008   2.944   0.077
 3732SOL    HW112095   3.951   3.019   0.045
 3732SOL    HW212096   3.951   2.863   0.093
 3733SOL     OW12097   1.724   0.602   3.239
 3733SOL    HW112098   1.653   0.534   3.223
 3733SOL    HW212099   1.794   0.595   3.167
 3734SOL     OW12100   3.777   0.502   2.019
 3734SOL    HW112101   3.735   0.487   2.108
 3734SOL    HW212102   3.710   0.543   1.957
 3735SOL     OW12103   4.522   1.122   2.776
 3735SOL    HW112104   4.478   1.070   2.703
 3735SOL    HW212105   4.583   1.190   2.735
 3736SOL     OW12106   0.902   1.910   0.101
 3736SOL    HW112107   0.844   1.872   0.174
 3736SOL    HW212108   0.860   1.994   0.066
 3737SOL     OW12109   5.606   2.127   4.174
 3737SOL    HW112110   5.506   2.132   4.170
 3737SOL    HW212111   5.644   2.172   4.093
 3738SOL     OW12112   0.390   0.843   1.084
 3738SOL    HW112113   0.455   0.837   1.160
 3738SOL    HW212114   0.433   0.808   1.001
 3739SOL     OW12115   3.212   4.532   0.058
 3739SOL    HW112116   3.261   4.488   7.000
 3739SOL    HW212117   3.214   4.472   0.138
 3740SOL     OW12118   5.394   6.296   6.707
 3740SOL    HW112119   5.311   6.333   6.667
 3740SOL    HW212120   5.374   6.260   6.799
 3741SOL     OW12121   5.710   4.022   0.243
 3741SOL    HW112122   5.785   4.050   0.182
 3741SOL    HW212123   5.681   3.929   0.219
 3742SOL     OW12124   5.140   5.351   1.162
 3742SOL    HW112125   5.238   5.345   1.179
 3742SOL    HW212126   5.090   5.319   1.242
 3743SOL     OW12127   2.323   4.006   0.780
 3743SOL    HW112128   2.337   4.105   0.772
 3743SOL    HW212129   2.233   3.989   0.821
 3744SOL     OW12130   6.643   6.050   2.471
 3744SOL    HW112131   6.586   6.105   2.532
 3744SOL    HW212132   6.592   5.968   2.443
 3745SOL     OW12133   5.565   1.774   2.942
 3745SOL    HW112134   5.550   1.777   3.041
 3745SOL    HW212135   5.535   1.860   2.901
 3746SOL     OW12136   5.202   0.195   5.326
 3746SOL    HW112137   5.111   0.196   5.367
 3746SOL    HW212138   5.198   0.146   5.239
 3747SOL     OW12139   2.436   5.974   5.294
 3747SOL    HW112140   2.440   5.891   5.238
 3747SOL    HW212141   2.516   5.978   5.353
 3748SOL     OW12142   4.931   2.448   3.163
 3748SOL    HW112143   4.956   2.523   3.224
 3748SOL    HW212144   4.833   2.451   3.143
 3749SOL     OW12145   6.267   0.027   1.774
 3749SOL    HW112146   6.221   0.114   1.793
 3749SOL    HW212147   6.199   6.977   1.746
 3750SOL     OW12148   5.747   4.132   1.291
 3750SOL    HW112149   5.796   4.207   1.246
 3750SOL    HW212150   5.650   4.138   1.270
 3751SOL     OW12151   1.436   4.705   0.505
 3751SOL    HW112152   1.406   4.800   0.513
 3751SOL    HW212153   1.535   4.700   0.517
 3752SOL     OW12154   1.056   6.727   6.002
 3752SOL    HW112155   1.151   6.714   6.029
 3752SOL    HW212156   0.997   6.674   6.063
 3753SOL     OW12157   0.594   0.540   5.674
 3753SOL    HW112158   0.564   0.614   5.735
 3753SOL    HW212159   0.687   0.512   5.699
 3754SOL     OW12160   6.499   5.902   1.750
 3754SOL    HW112161   6.551   5.826   1.789
 3754SOL    HW212162   6.502   5.980   1.812
 3755SOL     OW12163   4.472   2.476   2.990
 3755SOL    HW112164   4.571   2.467   2.975
 3755SOL    HW212165   4.425   2.401   2.943
 3756SOL     OW12166   3.531   6.651   0.501
 3756SOL    HW112167   3.608   6.710   0.528
 3756SOL    HW212168   3.460   6.657   0.570
 3757SOL     OW12169   3.087   4.352   6.537
 3757SOL    HW112170   3.087   4.449   6.513
 3757SOL    HW212171   3.060   4.341   6.633
 3758SOL     OW12172   6.821   0.869   2.408
 3758SOL    HW112173   6.831   0.965   2.435
 3758SOL    HW212174   6.763   0.822   2.474
 3759SOL     OW12175   4.855   4.189   0.781
 3759SOL    HW112176   4.777   4.158   0.835
 3759SOL    HW212177   4.936   4.134   0.803
 3760SOL     OW12178   1.604   1.763   5.917
 3760SOL    HW112179   1.617   1.787   6.013
 3760SOL    HW212180   1.607   1.664   5.906
 3761SOL     OW12181   6.513   6.318   4.008
 3761SOL    HW112182   6.550   6.374   3.934
 3761SOL    HW212183   6.413   6.325   4.008
 3762SOL     OW12184   0.187   2.723   0.290
 3762SOL    HW112185   0.202   2.631   0.254
 3762SOL    HW212186   0.196   2.790   0.216
 3763SOL     OW12187   0.107   3.086   4.413
 3763SOL    HW112188   0.126   3.144   4.334
 3763SOL    HW212189   0.152   3.124   4.494
 3764SOL     OW12190   2.323   0.255   4.188
 3764SOL    HW112191   2.281   0.308   4.115
 3764SOL    HW212192   2.274   0.168   4.198
 3765SOL     OW12193   6.283   1.248   3.514
 3765SOL    HW112194   6.277   1.152   3.488
 3765SOL    HW212195   6.241   1.305   3.443
 3766SOL     OW12196   1.875   1.168   5.061
 3766SOL    HW112197   1.817   1.205   4.988
 3766SOL    HW212198   1.927   1.242   5.103
 3767SOL     OW12199   0.238   4.403   0.384
 3767SOL    HW112200   0.283   4.471   0.442
 3767SOL    HW212201   0.268   4.416   0.289
 3768SOL     OW12202   4.590   6.303   1.296
 3768SOL    HW112203   4.681   6.325   1.261
 3768SOL    HW212204   4.526   6.298   1.219
 3769SOL     OW12205   4.251   6.816   4.646
 3769SOL    HW112206   4.330   6.876   4.661
 3769SOL    HW212207   4.256   6.738   4.708
 3770SOL     OW12208   1.954   2.836   0.387
 3770SOL    HW112209   2.044   2.796   0.402
 3770SOL    HW212210   1.932   2.833   0.289
 3771SOL     OW12211   4.303   1.421   5.710
 3771SOL    HW112212   4.261   1.494   5.655
 3771SOL    HW212213   4.386   1.457   5.754
 3772SOL     OW12214   5.003   0.599   2.699
 3772SOL    HW112215   4.918   0.606   2.648
 3772SOL    HW212216   4.998   0.521   2.762
 3773SOL     OW12217   6.165   2.893   0.901
 3773SOL    HW112218   6.180   2.831   0.824
 3773SOL    HW212219   6.068   2.895   0.924
 3774SOL     OW12220   1.144   1.615   2.067
 3774SOL    HW112221   1.124   1.615   1.969
 3774SOL    HW212222   1.163   1.708   2.098
 3775SOL     OW12223   5.179   2.844   3.507
 3775SOL    HW112224   5.268   2.853   3.462
 3775SOL    HW212225   5.107   2.870   3.442
 3776SOL     OW12226   2.556   1.953   6.775
 3776SOL    HW112227   2.512   2.037   6.744
 3776SOL    HW212228   2.519   1.925   6.863
 3777SOL     OW12229   1.323   4.251   2.930
 3777SOL    HW112230   1.249   4.186   2.916
 3777SOL    HW212231   1.338   4.265   3.027
 3778SOL     OW12232   1.969   0.347   2.039
 3778SOL    HW112233   1.938   0.254   2.056
 3778SOL    HW212234   1.892   0.405   2.012
 3779SOL     OW12235   1.932   4.965   6.924
 3779SOL    HW112236   1.961   4.986   6.830
 3779SOL    HW212237   1.865   5.032   6.954
 3780SOL     OW12238   2.431   0.276   4.424
 3780SOL    HW112239   2.351   0.251   4.478
 3780SOL    HW212240   2.408   0.273   4.327
 3781SOL     OW12241   3.028   5.337   4.771
 3781SOL    HW112242   3.073   5.312   4.685
 3781SOL    HW212243   2.929   5.341   4.757
 3782SOL     OW12244   2.433   1.005   2.394
 3782SOL    HW112245   2.513   0.955   2.427
 3782SOL    HW212246   2.447   1.031   2.298
 3783SOL     OW12247   4.971   5.193   4.578
 3783SOL    HW112248   4.947   5.096   4.587
 3783SOL    HW212249   4.890   5.244   4.547
 3784SOL     OW12250   4.809   2.084   4.211
 3784SOL    HW112251   4.793   2.130   4.299
 3784SOL    HW212252   4.740   2.114   4.145
 3785SOL     OW12253   0.957   0.593   2.085
 3785SOL    HW112254   1.016   0.516   2.063
 3785SOL    HW212255   0.917   0.630   2.000
 3786SOL     OW12256   2.698   6.355   2.215
 3786SOL    HW112257   2.743   6.400   2.138
 3786SOL    HW212258   2.724   6.258   2.217
 3787SOL     OW12259   4.941   1.199   4.207
 3787SOL    HW112260   4.998   1.160   4.279
 3787SOL    HW212261   4.947   1.299   4.210
 3788SOL     OW12262   6.545   3.605   2.743
 3788SOL    HW112263   6.603   3.614   2.823
 3788SOL    HW212264   6.601   3.602   2.660
 3789SOL     OW12265   1.423   5.289   1.954
 3789SOL    HW112266   1.509   5.332   1.980
 3789SOL    HW212267   1.436   5.189   1.951
 3790SOL     OW12268   2.117   3.234   3.181
 3790SOL    HW112269   2.148   3.258   3.274
 3790SOL    HW212270   2.089   3.318   3.133
 3791SOL     OW12271   6.233   0.489   2.527
 3791SOL    HW112272   6.301   0.419   2.504
 3791SOL    HW212273   6.278   0.578   2.536
 3792SOL     OW12274   0.861   5.981   6.346
 3792SOL    HW112275   0.917   5.898   6.350
 3792SOL    HW212276   0.797   5.973   6.270
 3793SOL     OW12277   0.529   5.740   2.469
 3793SOL    HW112278   0.610   5.756   2.413
 3793SOL    HW212279   0.449   5.731   2.409
 3794SOL     OW12280   4.723   0.236   3.924
 3794SOL    HW112281   4.736   0.301   3.998
 3794SOL    HW212282   4.681   0.152   3.959
 3795SOL     OW12283   5.358   0.520   0.305
 3795SOL    HW112284   5.436   0.476   0.349
 3795SOL    HW212285   5.278   0.513   0.365
 3796SOL     OW12286   0.045   2.886   0.867
 3796SOL    HW112287   0.111   2.960   0.868
 3796SOL    HW212288   0.024   2.859   0.961
 3797SOL     OW12289   0.124   5.378   2.580
 3797SOL    HW112290   0.223   5.380   2.568
 3797SOL    HW212291   0.086   5.298   2.533
 3798SOL     OW12292   1.307   4.169   0.863
 3798SOL    HW112293   1.251   4.121   0.796
 3798SOL    HW212294   1.404   4.158   0.840
 3799SOL     OW12295   1.432   0.646   5.479
 3799SOL    HW112296   1.379   0.594   5.547
 3799SOL    HW212297   1.488   0.584   5.425
 3800SOL     OW12298   5.459   2.694   5.169
 3800SOL    HW112299   5.437   2.712   5.073
 3800SOL    HW212300   5.392   2.632   5.208
 3801SOL     OW12301   6.895   6.957   6.226
 3801SOL    HW112302   6.799   6.929   6.230
 3801SOL    HW212303   6.930   6.942   6.133
 3802SOL     OW12304   1.727   2.486   5.328
 3802SOL    HW112305   1.686   2.560   5.275
 3802SOL    HW212306   1.824   2.506   5.345
 3803SOL     OW12307   4.043   1.340   1.427
 3803SOL    HW112308   4.135   1.305   1.409
 3803SOL    HW212309   3.984   1.320   1.349
 3804SOL     OW12310   5.053   3.527   5.146
 3804SOL    HW112311   5.071   3.558   5.239
 3804SOL    HW212312   4.969   3.571   5.112
 3805SOL     OW12313   1.840   3.463   1.662
 3805SOL    HW112314   1.872   3.428   1.574
 3805SOL    HW212315   1.815   3.559   1.652
 3806SOL     OW12316   3.673   1.095   6.910
 3806SOL    HW112317   3.610   1.163   6.872
 3806SOL    HW212318   3.748   1.079   6.846
 3807SOL     OW12319   1.142   0.060   2.667
 3807SOL    HW112320   1.046   0.055   2.641
 3807SOL    HW212321   1.162   7.009   2.736
 3808SOL     OW12322   3.521   0.790   0.408
 3808SOL    HW112323   3.596   0.824   0.464
 3808SOL    HW212324   3.512   0.691   0.421
 3809SOL     OW12325   4.297   0.595   0.589
 3809SOL    HW112326   4.240   0.539   0.648
 3809SOL    HW212327   4.293   0.560   0.495
 3810SOL     OW12328   1.881   3.747   6.635
 3810SOL    HW112329   1.812   3.675   6.625
 3810SOL    HW212330   1.954   3.715   6.695
 3811SOL     OW12331   0.423   0.317   6.701
 3811SOL    HW112332   0.339   0.333   6.649
 3811SOL    HW212333   0.442   0.396   6.759
 3812SOL     OW12334   5.010   1.016   5.291
 3812SOL    HW112335   5.036   1.075   5.368
 3812SOL    HW212336   5.027   0.920   5.315
 3813SOL     OW12337   3.817   4.883   2.122
 3813SOL    HW112338   3.728   4.866   2.079
 3813SOL    HW212339   3.862   4.796   2.140
 3814SOL     OW12340   2.401   0.899   1.440
 3814SOL    HW112341   2.414   0.916   1.537
 3814SOL    HW212342   2.349   0.974   1.399
 3815SOL     OW12343   5.574   1.974   2.143
 3815SOL    HW112344   5.567   1.965   2.243
 3815SOL    HW212345   5.621   1.894   2.106
 3816SOL     OW12346   0.118   6.336   0.375
 3816SOL    HW112347   0.066   6.285   0.306
 3816SOL    HW212348   0.152   6.272   0.445
 3817SOL     OW12349   5.412   2.001   5.023
 3817SOL    HW112350   5.378   2.012   5.116
 3817SOL    HW212351   5.372   1.919   4.982
 3818SOL     OW12352   3.789   5.514   2.755
 3818SOL    HW112353   3.844   5.439   2.792
 3818SOL    HW212354   3.734   5.481   2.678
 3819SOL     OW12355   5.994   4.054   6.006
 3819SOL    HW112356   5.971   3.966   6.047
 3819SOL    HW212357   5.985   4.126   6.074
 3820SOL     OW12358   4.915   6.469   3.444
 3820SOL    HW112359   4.916   6.486   3.346
 3820SOL    HW212360   4.933   6.555   3.493
 3821SOL     OW12361   0.412   4.894   1.332
 3821SOL    HW112362   0.436   4.863   1.424
 3821SOL    HW212363   0.470   4.972   1.307
 3822SOL     OW12364   0.686   4.561   1.206
 3822SOL    HW112365   0.719   4.487   1.147
 3822SOL    HW212366   0.732   4.556   1.295
 3823SOL     OW12367   2.818   3.706   5.683
 3823SOL    HW112368   2.802   3.609   5.700
 3823SOL    HW212369   2.843   3.719   5.587
 3824SOL     OW12370   0.447   2.210   5.628
 3824SOL    HW112371   0.399   2.136   5.581
 3824SOL    HW212372   0.401   2.230   5.714
 3825SOL     OW12373   0.249   6.573   6.176
 3825SOL    HW112374   0.324   6.578   6.242
 3825SOL    HW212375   0.246   6.658   6.123
 3826SOL     OW12376   6.846   1.666   1.171
 3826SOL    HW112377   6.761   1.655   1.120
 3826SOL    HW212378   6.913   1.714   1.114
 3827SOL     OW12379   5.480   1.511   2.343
 3827SOL    HW112380   5.543   1.584   2.369
 3827SOL    HW212381   5.442   1.531   2.253
 3828SOL     OW12382   4.393   1.130   1.819
 3828SOL    HW112383   4.330   1.133   1.897
 3828SOL    HW212384   4.417   1.224   1.793
 3829SOL     OW12385   0.911   5.078   3.364
 3829SOL    HW112386   0.819   5.112   3.384
 3829SOL    HW212387   0.923   5.073   3.264
 3830SOL     OW12388   3.116   0.722   5.398
 3830SOL    HW112389   3.152   0.757   5.311
 3830SOL    HW212390   3.017   0.735   5.400
 3831SOL     OW12391   4.959   1.748   2.279
 3831SOL    HW112392   4.859   1.758   2.274
 3831SOL    HW212393   4.995   1.729   2.187
 3832SOL     OW12394   5.744   6.717   1.983
 3832SOL    HW112395   5.663   6.771   2.008
 3832SOL    HW212396   5.827   6.768   2.008
 3833SOL     OW12397   1.520   6.292   2.410
 3833SOL    HW112398   1.594   6.294   2.343
 3833SOL    HW212399   1.523   6.205   2.460
 3834SOL     OW12400   2.752   2.725   0.691
 3834SOL    HW112401   2.739   2.626   0.686
 3834SOL    HW212402   2.848   2.747   0.670
 3835SOL     OW12403   3.512   5.353   2.883
 3835SOL    HW112404   3.427   5.304   2.900
 3835SOL    HW212405   3.590   5.301   2.919
 3836SOL     OW12406   1.274   3.128   5.674
 3836SOL    HW112407   1.241   3.034   5.673
 3836SOL    HW212408   1.346   3.140   5.605
 3837SOL     OW12409   3.011   4.145   0.173
 3837SOL    HW112410   3.074   4.122   0.099
 3837SOL    HW212411   3.003   4.067   0.236
 3838SOL     OW12412   5.811   3.750   4.853
 3838SOL    HW112413   5.893   3.730   4.906
 3838SOL    HW212414   5.746   3.674   4.861
 3839SOL     OW12415   0.687   5.965   6.048
 3839SOL    HW112416   0.764   6.009   6.001
 3839SOL    HW212417   0.618   5.938   5.981
 3840SOL     OW12418   2.662   1.548   3.262
 3840SOL    HW112419   2.566   1.524   3.269
 3840SOL    HW212420   2.671   1.647   3.249
 3841SOL     OW12421   0.458   3.534   4.123
 3841SOL    HW112422   0.382   3.469   4.127
 3841SOL    HW212423   0.494   3.547   4.215
 3842SOL     OW12424   1.933   5.254   0.106
 3842SOL    HW112425   1.848   5.206   0.082
 3842SOL    HW212426   1.912   5.351   0.122
 3843SOL     OW12427   5.837   3.974   6.991
 3843SOL    HW112428   5.791   3.969   6.902
 3843SOL    HW212429   5.865   4.068   7.009
 3844SOL     OW12430   2.166   4.634   5.432
 3844SOL    HW112431   2.155   4.540   5.399
 3844SOL    HW212432   2.088   4.689   5.402
 3845SOL     OW12433   3.309   3.682   4.408
 3845SOL    HW112434   3.407   3.695   4.420
 3845SOL    HW212435   3.279   3.603   4.462
 3846SOL     OW12436   0.077   4.808   4.632
 3846SOL    HW112437   0.077   4.755   4.547
 3846SOL    HW212438   7.005   4.801   4.676
 3847SOL     OW12439   1.062   0.166   1.027
 3847SOL    HW112440   1.149   0.213   1.035
 3847SOL    HW212441   1.031   0.137   1.117
 3848SOL     OW12442   3.116   6.397   1.605
 3848SOL    HW112443   3.046   6.377   1.536
 3848SOL    HW212444   3.193   6.444   1.562
 3849SOL     OW12445   2.901   1.561   5.538
 3849SOL    HW112446   2.841   1.507   5.597
 3849SOL    HW212447   2.982   1.588   5.590
 3850SOL     OW12448   1.554   3.969   1.430
 3850SOL    HW112449   1.565   4.029   1.509
 3850SOL    HW212450   1.491   4.012   1.364
 3851SOL     OW12451   2.330   2.867   1.293
 3851SOL    HW112452   2.415   2.919   1.305
 3851SOL    HW212453   2.352   2.770   1.280
 3852SOL     OW12454   4.758   1.508   5.232
 3852SOL    HW112455   4.821   1.455   5.175
 3852SOL    HW212456   4.769   1.482   5.327
 3853SOL     OW12457   0.700   4.167   1.646
 3853SOL    HW112458   0.617   4.113   1.634
 3853SOL    HW212459   0.766   4.117   1.702
 3854SOL     OW12460   1.781   3.365   4.419
 3854SOL    HW112461   1.741   3.429   4.484
 3854SOL    HW212462   1.708   3.311   4.377
 3855SOL     OW12463   0.148   1.242   5.159
 3855SOL    HW112464   0.055   1.207   5.150
 3855SOL    HW212465   0.187   1.256   5.068
 3856SOL     OW12466   1.484   6.257   6.006
 3856SOL    HW112467   1.430   6.222   6.083
 3856SOL    HW212468   1.431   6.248   5.922
 3857SOL     OW12469   1.003   6.958   6.878
 3857SOL    HW112470   1.062   6.910   6.813
 3857SOL    HW212471   1.059   7.008   6.944
 3858SOL     OW12472   3.585   4.367   0.078
 3858SOL    HW112473   3.607   4.306   0.155
 3858SOL    HW212474   3.547   4.453   0.114
 3859SOL     OW12475   6.088   2.786   2.442
 3859SOL    HW112476   6.075   2.689   2.462
 3859SOL    HW212477   6.078   2.839   2.526
 3860SOL     OW12478   2.729   5.790   4.435
 3860SOL    HW112479   2.775   5.711   4.477
 3860SOL    HW212480   2.630   5.775   4.437
 3861SOL     OW12481   3.540   4.330   6.841
 3861SOL    HW112482   3.463   4.389   6.821
 3861SOL    HW212483   3.565   4.338   6.938
 3862SOL     OW12484   0.778   5.621   5.972
 3862SOL    HW112485   0.815   5.705   6.012
 3862SOL    HW212486   0.704   5.644   5.909
 3863SOL     OW12487   2.772   3.254   0.197
 3863SOL    HW112488   2.741   3.196   0.122
 3863SOL    HW212489   2.768   3.350   0.168
 3864SOL     OW12490   3.237   2.164   1.041
 3864SOL    HW112491   3.331   2.175   1.072
 3864SOL    HW212492   3.222   2.068   1.016
 3865SOL     OW12493   4.263   0.742   2.672
 3865SOL    HW112494   4.277   0.696   2.584
 3865SOL    HW212495   4.205   0.686   2.730
 3866SOL     OW12496   3.716   6.480   6.757
 3866SOL    HW112497   3.729   6.556   6.693
 3866SOL    HW212498   3.772   6.402   6.729
 3867SOL     OW12499   2.122   4.952   3.280
 3867SOL    HW112500   2.065   5.003   3.215
 3867SOL    HW212501   2.151   4.866   3.238
 3868SOL     OW12502   2.025   5.592   2.952
 3868SOL    HW112503   2.102   5.632   2.903
 3868SOL    HW212504   1.971   5.665   2.993
 3869SOL     OW12505   0.369   1.639   3.918
 3869SOL    HW112506   0.300   1.693   3.966
 3869SOL    HW212507   0.433   1.600   3.985
 3870SOL     OW12508   3.512   3.642   0.312
 3870SOL    HW112509   3.540   3.556   0.269
 3870SOL    HW212510   3.584   3.711   0.299
 3871SOL     OW12511   3.262   0.933   4.466
 3871SOL    HW112512   3.272   0.842   4.426
 3871SOL    HW212513   3.247   1.000   4.394
 3872SOL     OW12514   4.490   4.168   0.934
 3872SOL    HW112515   4.411   4.122   0.974
 3872SOL    HW212516   4.574   4.131   0.973
 3873SOL     OW12517   6.055   4.262   1.994
 3873SOL    HW112518   6.123   4.218   1.934
 3873SOL    HW212519   6.044   4.358   1.967
 3874SOL     OW12520   5.077   6.178   5.921
 3874SOL    HW112521   5.165   6.135   5.900
 3874SOL    HW212522   5.004   6.128   5.874
 3875SOL     OW12523   2.562   3.484   0.370
 3875SOL    HW112524   2.555   3.565   0.429
 3875SOL    HW212525   2.570   3.514   0.275
 3876SOL     OW12526   6.212   4.076   2.528
 3876SOL    HW112527   6.127   4.034   2.560
 3876SOL    HW212528   6.191   4.156   2.472
 3877SOL     OW12529   4.096   1.861   2.211
 3877SOL    HW112530   4.043   1.833   2.131
 3877SOL    HW212531   4.053   1.942   2.252
 3878SOL     OW12532   4.833   6.041   4.514
 3878SOL    HW112533   4.813   6.017   4.609
 3878SOL    HW212534   4.862   6.137   4.509
 3879SOL     OW12535   2.843   6.133   0.387
 3879SOL    HW112536   2.807   6.041   0.373
 3879SOL    HW212537   2.936   6.128   0.425
 3880SOL     OW12538   6.246   1.622   4.035
 3880SOL    HW112539   6.259   1.642   3.938
 3880SOL    HW212540   6.303   1.683   4.090
 3881SOL     OW12541   0.168   5.770   6.177
 3881SOL    HW112542   0.199   5.862   6.199
 3881SOL    HW212543   0.068   5.766   6.185
 3882SOL     OW12544   7.004   6.425   6.642
 3882SOL    HW112545   0.029   6.424   6.552
 3882SOL    HW212546   0.057   6.425   6.712
 3883SOL     OW12547   3.738   1.813   0.012
 3883SOL    HW112548   3.683   1.890   0.042
 3883SOL    HW212549   3.829   1.845   7.002
 3884SOL     OW12550   2.507   5.362   5.770
 3884SOL    HW112551   2.501   5.346   5.672
 3884SOL    HW212552   2.600   5.393   5.793
 3885SOL     OW12553   6.773   0.770   4.174
 3885SOL    HW112554   6.678   0.779   4.144
 3885SOL    HW212555   6.825   0.850   4.143
 3886SOL     OW12556   0.114   6.060   4.894
 3886SOL    HW112557   0.079   6.148   4.861
 3886SOL    HW212558   0.201   6.040   4.849
 3887SOL     OW12559   5.922   3.124   5.081
 3887SOL    HW112560   5.953   3.029   5.071
 3887SOL    HW212561   5.939   3.155   5.174
 3888SOL     OW12562   5.596   1.009   3.035
 3888SOL    HW112563   5.555   0.943   3.098
 3888SOL    HW212564   5.535   1.025   2.958
 3889SOL     OW12565   6.673   5.478   6.346
 3889SOL    HW112566   6.651   5.419   6.424
 3889SOL    HW212567   6.589   5.504   6.299
 3890SOL     OW12568   5.916   3.197   3.415
 3890SOL    HW112569   5.995   3.144   3.383
 3890SOL    HW212570   5.851   3.208   3.341
 3891SOL     OW12571   4.243   4.322   5.859
 3891SOL    HW112572   4.282   4.406   5.897
 3891SOL    HW212573   4.152   4.307   5.897
 3892SOL     OW12574   5.311   5.786   3.805
 3892SOL    HW112575   5.222   5.828   3.789
 3892SOL    HW212576   5.333   5.724   3.730
 3893SOL     OW12577   2.688   6.076   4.775
 3893SOL    HW112578   2.712   5.982   4.802
 3893SOL    HW212579   2.707   6.088   4.677
 3894SOL     OW12580   5.767   5.421   6.529
 3894SOL    HW112581   5.714   5.373   6.459
 3894SOL    HW212582   5.838   5.360   6.565
 3895SOL     OW12583   1.467   2.055   6.318
 3895SOL    HW112584   1.441   2.134   6.264
 3895SOL    HW212585   1.424   2.060   6.408
 3896SOL     OW12586   6.234   2.604   0.826
 3896SOL    HW112587   6.191   2.632   0.741
 3896SOL    HW212588   6.317   2.551   0.806
 3897SOL     OW12589   2.791   6.994   3.246
 3897SOL    HW112590   2.838   6.975   3.332
 3897SOL    HW212591   2.858   7.018   3.176
 3898SOL     OW12592   3.267   4.026   3.985
 3898SOL    HW112593   3.345   4.063   3.935
 3898SOL    HW212594   3.249   3.933   3.955
 3899SOL     OW12595   5.055   2.030   6.889
 3899SOL    HW112596   5.118   1.959   6.923
 3899SOL    HW212597   5.040   2.098   6.961
 3900SOL     OW12598   0.741   2.962   3.474
 3900SOL    HW112599   0.663   3.003   3.521
 3900SOL    HW212600   0.711   2.882   3.421
 3901SOL     OW12601   3.563   6.338   5.115
 3901SOL    HW112602   3.505   6.400   5.061
 3901SOL    HW212603   3.602   6.388   5.192
 3902SOL     OW12604   3.470   5.628   3.077
 3902SOL    HW112605   3.511   5.541   3.102
 3902SOL    HW212606   3.437   5.675   3.159
 3903SOL     OW12607   3.611   3.838   6.638
 3903SOL    HW112608   3.592   3.751   6.593
 3903SOL    HW212609   3.570   3.839   6.728
 3904SOL     OW12610   2.578   6.315   6.884
 3904SOL    HW112611   2.561   6.218   6.902
 3904SOL    HW212612   2.610   6.359   6.968
 3905SOL     OW12613   4.531   0.606   5.480
 3905SOL    HW112614   4.431   0.597   5.474
 3905SOL    HW212615   4.559   0.601   5.576
 3906SOL     OW12616   6.289   5.954   4.040
 3906SOL    HW112617   6.385   5.983   4.037
 3906SOL    HW212618   6.243   5.983   3.957
 3907SOL     OW12619   0.649   1.538   4.584
 3907SOL    HW112620   0.617   1.615   4.529
 3907SOL    HW212621   0.677   1.571   4.675
 3908SOL     OW12622   2.210   1.566   4.657
 3908SOL    HW112623   2.132   1.601   4.709
 3908SOL    HW212624   2.291   1.619   4.681
 3909SOL     OW12625   5.855   3.499   2.278
 3909SOL    HW112626   5.760   3.528   2.286
 3909SOL    HW212627   5.908   3.538   2.353
 3910SOL     OW12628   2.163   2.400   1.154
 3910SOL    HW112629   2.206   2.490   1.144
 3910SOL    HW212630   2.077   2.399   1.103
 3911SOL     OW12631   6.236   1.275   1.294
 3911SOL    HW112632   6.234   1.199   1.359
 3911SOL    HW212633   6.145   1.286   1.253
 3912SOL     OW12634   5.003   4.173   0.444
 3912SOL    HW112635   4.982   4.257   0.493
 3912SOL    HW212636   4.919   4.137   0.402
 3913SOL     OW12637   3.841   4.504   1.424
 3913SOL    HW112638   3.872   4.600   1.421
 3913SOL    HW212639   3.868   4.464   1.511
 3914SOL     OW12640   0.353   0.885   0.708
 3914SOL    HW112641   0.346   0.984   0.724
 3914SOL    HW212642   0.439   0.852   0.747
 3915SOL     OW12643   5.435   0.517   5.064
 3915SOL    HW112644   5.345   0.505   5.107
 3915SOL    HW212645   5.436   0.603   5.013
 3916SOL     OW12646   1.831   2.275   2.258
 3916SOL    HW112647   1.754   2.224   2.220
 3916SOL    HW212648   1.909   2.213   2.270
 3917SOL     OW12649   4.341   5.675   2.363
 3917SOL    HW112650   4.245   5.649   2.376
 3917SOL    HW212651   4.363   5.673   2.266
 3918SOL     OW12652   3.997   6.958   1.060
 3918SOL    HW112653   4.054   6.886   1.099
 3918SOL    HW212654   3.995   0.018   1.122
 3919SOL     OW12655   5.127   5.442   3.177
 3919SOL    HW112656   5.216   5.473   3.146
 3919SOL    HW212657   5.056   5.478   3.117
 3920SOL     OW12658   4.490   1.325   6.085
 3920SOL    HW112659   4.474   1.304   6.181
 3920SOL    HW212660   4.588   1.332   6.069
 3921SOL     OW12661   0.954   3.089   6.209
 3921SOL    HW112662   1.017   3.076   6.133
 3921SOL    HW212663   0.898   3.007   6.220
 3922SOL     OW12664   5.678   2.275   3.955
 3922SOL    HW112665   5.652   2.318   3.869
 3922SOL    HW212666   5.732   2.339   4.010
 3923SOL     OW12667   5.585   1.133   0.696
 3923SOL    HW112668   5.660   1.079   0.658
 3923SOL    HW212669   5.573   1.216   0.642
 3924SOL     OW12670   5.397   5.167   3.649
 3924SOL    HW112671   5.344   5.163   3.734
 3924SOL    HW212672   5.495   5.170   3.671
 3925SOL     OW12673   3.523   4.443   1.641
 3925SOL    HW112674   3.562   4.510   1.703
 3925SOL    HW212675   3.531   4.476   1.547
 3926SOL     OW12676   1.275   5.936   5.205
 3926SOL    HW112677   1.256   5.902   5.297
 3926SOL    HW212678   1.370   5.967   5.200
 3927SOL     OW12679   6.275   6.814   5.503
 3927SOL    HW112680   6.207   6.885   5.486
 3927SOL    HW212681   6.365   6.847   5.476
 3928SOL     OW12682   4.472   5.554   2.591
 3928SOL    HW112683   4.401   5.498   2.634
 3928SOL    HW212684   4.432   5.605   2.515
 3929SOL     OW12685   1.687   1.495   5.204
 3929SOL    HW112686   1.661   1.405   5.240
 3929SOL    HW212687   1.739   1.544   5.274
 3930SOL     OW12688   2.420   5.500   3.990
 3930SOL    HW112689   2.348   5.452   4.039
 3930SOL    HW212690   2.498   5.439   3.975
 3931SOL     OW12691   0.348   2.325   0.550
 3931SOL    HW112692   0.339   2.422   0.529
 3931SOL    HW212693   0.376   2.275   0.468
 3932SOL     OW12694   1.947   4.115   2.782
 3932SOL    HW112695   1.859   4.065   2.782
 3932SOL    HW212696   1.995   4.096   2.697
 3933SOL     OW12697   1.433   6.560   1.575
 3933SOL    HW112698   1.445   6.600   1.484
 3933SOL    HW212699   1.361   6.491   1.572
 3934SOL     OW12700   2.142   6.515   2.223
 3934SOL    HW112701   2.109   6.600   2.181
 3934SOL    HW212702   2.241   6.520   2.234
 3935SOL     OW12703   0.279   0.795   5.424
 3935SOL    HW112704   0.289   0.852   5.342
 3935SOL    HW212705   0.233   0.709   5.400
 3936SOL     OW12706   6.507   4.488   3.774
 3936SOL    HW112707   6.471   4.544   3.848
 3936SOL    HW212708   6.514   4.543   3.691
 3937SOL     OW12709   1.220   6.124   0.060
 3937SOL    HW112710   1.128   6.151   0.089
 3937SOL    HW212711   1.244   6.173   6.994
 3938SOL     OW12712   0.454   3.966   6.580
 3938SOL    HW112713   0.412   3.896   6.639
 3938SOL    HW212714   0.495   3.922   6.500
 3939SOL     OW12715   2.498   6.385   4.296
 3939SOL    HW112716   2.580   6.440   4.278
 3939SOL    HW212717   2.429   6.443   4.339
 3940SOL     OW12718   2.554   6.348   6.567
 3940SOL    HW112719   2.499   6.423   6.529
 3940SOL    HW212720   2.558   6.357   6.666
 3941SOL     OW12721   5.858   5.261   2.219
 3941SOL    HW112722   5.940   5.251   2.276
 3941SOL    HW212723   5.788   5.312   2.269
 3942SOL     OW12724   0.115   6.272   7.012
 3942SOL    HW112725   0.077   6.210   6.943
 3942SOL    HW212726   0.161   6.348   6.968
 3943SOL     OW12727   0.888   4.927   0.481
 3943SOL    HW112728   0.854   5.018   0.504
 3943SOL    HW212729   0.819   4.879   0.427
 3944SOL     OW12730   4.572   2.980   0.634
 3944SOL    HW112731   4.603   3.010   0.724
 3944SOL    HW212732   4.587   3.053   0.567
 3945SOL     OW12733   0.067   0.908   3.014
 3945SOL    HW112734   0.155   0.943   2.980
 3945SOL    HW212735   0.067   0.808   3.010
 3946SOL     OW12736   6.039   1.494   1.231
 3946SOL    HW112737   5.983   1.493   1.149
 3946SOL    HW212738   5.991   1.446   1.305
 3947SOL     OW12739   5.646   0.076   1.724
 3947SOL    HW112740   5.690   7.017   1.678
 3947SOL    HW212741   5.604   0.136   1.656
 3948SOL     OW12742   1.844   1.463   4.345
 3948SOL    HW112743   1.894   1.540   4.307
 3948SOL    HW212744   1.750   1.490   4.363
 3949SOL     OW12745   6.235   0.143   2.397
 3949SOL    HW112746   6.284   0.195   2.466
 3949SOL    HW212747   6.143   0.120   2.430
 3950SOL     OW12748   2.302   4.913   1.991
 3950SOL    HW112749   2.224   4.953   1.943
 3950SOL    HW212750   2.387   4.941   1.947
 3951SOL     OW12751   6.963   2.306   3.948
 3951SOL    HW112752   6.921   2.324   4.037
 3951SOL    HW212753   6.920   2.227   3.905
 3952SOL     OW12754   5.829   4.949   6.786
 3952SOL    HW112755   5.773   4.887   6.732
 3952SOL    HW212756   5.803   4.944   6.882
 3953SOL     OW12757   4.017   3.522   5.490
 3953SOL    HW112758   4.113   3.547   5.476
 3953SOL    HW212759   3.998   3.436   5.443
 3954SOL     OW12760   0.867   4.195   5.533
 3954SOL    HW112761   0.875   4.247   5.618
 3954SOL    HW212762   0.954   4.149   5.514
 3955SOL     OW12763   5.800   3.507   0.163
 3955SOL    HW112764   5.802   3.519   0.262
 3955SOL    HW212765   5.779   3.412   0.141
 3956SOL     OW12766   6.972   2.753   5.010
 3956SOL    HW112767   0.019   2.794   4.946
 3956SOL    HW212768   6.919   2.824   5.055
 3957SOL     OW12769   1.834   2.973   1.778
 3957SOL    HW112770   1.840   2.921   1.693
 3957SOL    HW212771   1.753   2.945   1.829
 3958SOL     OW12772   5.936   5.392   1.327
 3958SOL    HW112773   5.978   5.456   1.391
 3958SOL    HW212774   6.006   5.330   1.291
 3959SOL     OW12775   3.130   5.190   1.305
 3959SOL    HW112776   3.055   5.125   1.290
 3959SOL    HW212777   3.206   5.167   1.244
 3960SOL     OW12778   5.877   2.818   0.878
 3960SOL    HW112779   5.816   2.846   0.803
 3960SOL    HW212780   5.824   2.810   0.962
 3961SOL     OW12781   6.890   1.196   1.214
 3961SOL    HW112782   6.865   1.277   1.268
 3961SOL    HW212783   6.951   1.223   1.140
 3962SOL     OW12784   0.145   6.696   6.731
 3962SOL    HW112785   0.175   6.791   6.741
 3962SOL    HW212786   0.083   6.689   6.653
 3963SOL     OW12787   5.291   3.874   4.563
 3963SOL    HW112788   5.237   3.922   4.632
 3963SOL    HW212789   5.380   3.918   4.554
 3964SOL     OW12790   5.599   4.272   6.619
 3964SOL    HW112791   5.548   4.191   6.647
 3964SOL    HW212792   5.695   4.248   6.604
 3965SOL     OW12793   2.186   4.213   1.125
 3965SOL    HW112794   2.149   4.306   1.116
 3965SOL    HW212795   2.239   4.190   1.043
 3966SOL     OW12796   0.127   2.978   4.932
 3966SOL    HW112797   0.076   3.063   4.947
 3966SOL    HW212798   0.205   2.976   4.994
 3967SOL     OW12799   2.221   0.054   0.397
 3967SOL    HW112800   2.208   6.974   0.382
 3967SOL    HW212801   2.246   0.069   0.493
 3968SOL     OW12802   4.262   2.974   0.980
 3968SOL    HW112803   4.307   2.926   0.904
 3968SOL    HW212804   4.177   2.927   1.004
 3969SOL     OW12805   5.935   6.269   0.640
 3969SOL    HW112806   6.014   6.228   0.685
 3969SOL    HW212807   5.868   6.297   0.709
 3970SOL     OW12808   5.777   4.361   4.019
 3970SOL    HW112809   5.868   4.401   4.008
 3970SOL    HW212810   5.732   4.354   3.930
 3971SOL     OW12811   0.411   5.769   3.938
 3971SOL    HW112812   0.336   5.705   3.921
 3971SOL    HW212813   0.397   5.853   3.886
 3972SOL     OW12814   1.001   0.521   6.704
 3972SOL    HW112815   0.907   0.519   6.670
 3972SOL    HW212816   1.022   0.613   6.738
 3973SOL     OW12817   4.127   3.184   2.022
 3973SOL    HW112818   4.213   3.191   1.972
 3973SOL    HW212819   4.088   3.275   2.035
 3974SOL     OW12820   5.265   0.976   6.658
 3974SOL    HW112821   5.321   0.899   6.628
 3974SOL    HW212822   5.172   0.943   6.678
 3975SOL     OW12823   6.954   6.159   4.567
 3975SOL    HW112824   6.977   6.077   4.621
 3975SOL    HW212825   6.928   6.132   4.475
 3976SOL     OW12826   1.244   2.916   5.434
 3976SOL    HW112827   1.323   2.919   5.372
 3976SOL    HW212828   1.160   2.931   5.382
 3977SOL     OW12829   2.637   4.814   5.793
 3977SOL    HW112830   2.543   4.817   5.759
 3977SOL    HW212831   2.663   4.904   5.827
 3978SOL     OW12832   4.754   2.803   6.027
 3978SOL    HW112833   4.845   2.803   6.068
 3978SOL    HW212834   4.761   2.783   5.929
 3979SOL     OW12835   1.432   5.386   2.987
 3979SOL    HW112836   1.383   5.439   3.056
 3979SOL    HW212837   1.365   5.334   2.933
 3980SOL     OW12838   4.949   4.175   4.668
 3980SOL    HW112839   4.931   4.077   4.662
 3980SOL    HW212840   5.003   4.195   4.750
 3981SOL     OW12841   0.107   0.890   6.404
 3981SOL    HW112842   0.029   0.913   6.462
 3981SOL    HW212843   0.097   0.936   6.316
 3982SOL     OW12844   1.850   2.890   4.600
 3982SOL    HW112845   1.829   2.796   4.575
 3982SOL    HW212846   1.809   2.952   4.534
 3983SOL     OW12847   3.238   0.230   4.137
 3983SOL    HW112848   3.300   0.249   4.061
 3983SOL    HW212849   3.267   0.283   4.217
 3984SOL     OW12850   1.700   5.980   2.326
 3984SOL    HW112851   1.650   6.023   2.251
 3984SOL    HW212852   1.642   5.979   2.408
 3985SOL     OW12853   1.651   2.943   1.982
 3985SOL    HW112854   1.609   2.912   2.068
 3985SOL    HW212855   1.699   3.029   1.998
 3986SOL     OW12856   0.272   1.825   3.136
 3986SOL    HW112857   0.330   1.880   3.077
 3986SOL    HW212858   0.318   1.739   3.158
 3987SOL     OW12859   0.529   4.094   5.473
 3987SOL    HW112860   0.559   4.188   5.483
 3987SOL    HW212861   0.525   4.050   5.562
 3988SOL     OW12862   5.125   6.995   1.979
 3988SOL    HW112863   5.207   0.019   2.017
 3988SOL    HW212864   5.147   6.902   1.948
 3989SOL     OW12865   4.480   0.589   5.791
 3989SOL    HW112866   4.411   0.656   5.763
 3989SOL    HW212867   4.569   0.633   5.796
 3990SOL     OW12868   6.053   0.595   4.205
 3990SOL    HW112869   5.954   0.605   4.190
 3990SOL    HW212870   6.102   0.635   4.127
 3991SOL     OW12871   6.373   2.078   3.423
 3991SOL    HW112872   6.281   2.101   3.455
 3991SOL    HW212873   6.426   2.162   3.412
 3992SOL     OW12874   6.031   3.601   5.761
 3992SOL    HW112875   6.092   3.680   5.774
 3992SOL    HW212876   6.021   3.581   5.664
 3993SOL     OW12877   1.702   0.773   4.129
 3993SOL    HW112878   1.748   0.846   4.179
 3993SOL    HW212879   1.616   0.807   4.091
 3994SOL     OW12880   2.764   2.224   3.615
 3994SOL    HW112881   2.740   2.130   3.635
 3994SOL    HW212882   2.864   2.231   3.604
 3995SOL     OW12883   1.086   3.672   1.870
 3995SOL    HW112884   1.062   3.578   1.893
 3995SOL    HW212885   1.173   3.695   1.913
 3996SOL     OW12886   0.184   6.535   5.064
 3996SOL    HW112887   0.207   6.501   4.972
 3996SOL    HW212888   0.231   6.623   5.079
 3997SOL     OW12889   5.976   3.924   4.540
 3997SOL    HW112890   6.042   3.859   4.578
 3997SOL    HW212891   5.972   4.006   4.597
 3998SOL     OW12892   4.598   2.063   3.658
 3998SOL    HW112893   4.614   2.161   3.667
 3998SOL    HW212894   4.643   2.015   3.734
 3999SOL     OW12895   5.008   2.803   1.147
 3999SOL    HW112896   4.974   2.711   1.167
 3999SOL    HW212897   5.105   2.809   1.171
 4000SOL     OW12898   2.105   4.806   3.017
 4000SOL    HW112899   2.173   4.766   3.079
 4000SOL    HW212900   2.069   4.735   2.956
 4001SOL     OW12901   0.574   6.067   4.482
 4001SOL    HW112902   0.512   6.146   4.485
 4001SOL    HW212903   0.643   6.077   4.555
 4002SOL     OW12904   3.847   4.114   4.630
 4002SOL    HW112905   3.913   4.150   4.563
 4002SOL    HW212906   3.889   4.110   4.720
 4003SOL     OW12907   2.731   0.697   4.946
 4003SOL    HW112908   2.707   0.750   4.865
 4003SOL    HW212909   2.718   0.599   4.928
 4004SOL     OW12910   1.919   3.429   5.058
 4004SOL    HW112911   1.945   3.353   5.118
 4004SOL    HW212912   1.857   3.490   5.108
 4005SOL     OW12913   5.544   3.019   0.973
 4005SOL    HW112914   5.593   2.945   1.018
 4005SOL    HW212915   5.490   3.070   1.040
 4006SOL     OW12916   6.918   6.126   1.917
 4006SOL    HW112917   6.937   6.168   1.828
 4006SOL    HW212918   6.853   6.183   1.967
 4007SOL     OW12919   0.313   1.058   1.485
 4007SOL    HW112920   0.245   1.047   1.413
 4007SOL    HW212921   0.276   1.118   1.557
 4008SOL     OW12922   4.250   1.109   1.598
 4008SOL    HW112923   4.221   1.015   1.579
 4008SOL    HW212924   4.312   1.110   1.676
 4009SOL     OW12925   3.294   2.321   1.363
 4009SOL    HW112926   3.393   2.314   1.358
 4009SOL    HW212927   3.267   2.417   1.356
 4010SOL     OW12928   1.813   4.478   0.794
 4010SOL    HW112929   1.792   4.431   0.880
 4010SOL    HW212930   1.799   4.415   0.717
 4011SOL     OW12931   6.115   6.535   6.046
 4011SOL    HW112932   6.169   6.540   6.130
 4011SOL    HW212933   6.116   6.623   6.000
 4012SOL     OW12934   5.521   5.434   1.540
 4012SOL    HW112935   5.494   5.360   1.479
 4012SOL    HW212936   5.473   5.425   1.627
 4013SOL     OW12937   0.143   1.559   0.233
 4013SOL    HW112938   0.165   1.494   0.160
 4013SOL    HW212939   0.223   1.568   0.293
 4014SOL     OW12940   2.922   5.906   2.542
 4014SOL    HW112941   2.851   5.884   2.609
 4014SOL    HW212942   2.998   5.951   2.588
 4015SOL     OW12943   4.006   6.419   5.052
 4015SOL    HW112944   3.963   6.350   4.994
 4015SOL    HW212945   3.942   6.493   5.069
 4016SOL     OW12946   4.475   5.407   4.427
 4016SOL    HW112947   4.562   5.457   4.427
 4016SOL    HW212948   4.402   5.467   4.461
 4017SOL     OW12949   1.864   5.702   6.135
 4017SOL    HW112950   1.931   5.730   6.067
 4017SOL    HW212951   1.873   5.758   6.217
 4018SOL     OW12952   4.857   5.226   1.015
 4018SOL    HW112953   4.757   5.216   1.015
 4018SOL    HW212954   4.891   5.218   1.108
 4019SOL     OW12955   0.232   2.391   2.929
 4019SOL    HW112956   0.284   2.341   2.859
 4019SOL    HW212957   0.293   2.419   3.003
 4020SOL     OW12958   6.656   5.811   4.454
 4020SOL    HW112959   6.700   5.874   4.390
 4020SOL    HW212960   6.706   5.811   4.540
 4021SOL     OW12961   4.657   5.315   6.148
 4021SOL    HW112962   4.712   5.396   6.129
 4021SOL    HW212963   4.663   5.251   6.072
 4022SOL     OW12964   3.448   6.872   1.459
 4022SOL    HW112965   3.348   6.863   1.465
 4022SOL    HW212966   3.474   6.875   1.362
 4023SOL     OW12967   0.704   1.799   4.087
 4023SOL    HW112968   0.647   1.726   4.049
 4023SOL    HW212969   0.651   1.884   4.091
 4024SOL     OW12970   0.719   6.286   6.082
 4024SOL    HW112971   0.685   6.350   6.150
 4024SOL    HW212972   0.685   6.194   6.102
 4025SOL     OW12973   0.129   4.687   4.398
 4025SOL    HW112974   0.213   4.674   4.450
 4025SOL    HW212975   0.144   4.660   4.303
 4026SOL     OW12976   0.668   6.404   3.984
 4026SOL    HW112977   0.693   6.474   4.051
 4026SOL    HW212978   0.732   6.328   3.990
 4027SOL     OW12979   3.060   5.327   5.199
 4027SOL    HW112980   2.986   5.265   5.224
 4027SOL    HW212981   3.104   5.294   5.115
 4028SOL     OW12982   5.086   1.909   4.435
 4028SOL    HW112983   5.121   2.002   4.425
 4028SOL    HW212984   4.988   1.908   4.413
 4029SOL     OW12985   1.296   6.843   0.650
 4029SOL    HW112986   1.323   6.910   0.718
 4029SOL    HW212987   1.220   6.789   0.686
 4030SOL     OW12988   0.776   1.342   1.716
 4030SOL    HW112989   0.866   1.311   1.747
 4030SOL    HW212990   0.786   1.395   1.632
 4031SOL     OW12991   5.423   5.708   0.366
 4031SOL    HW112992   5.390   5.801   0.348
 4031SOL    HW212993   5.493   5.711   0.437
 4032SOL     OW12994   5.114   1.957   2.407
 4032SOL    HW112995   5.125   2.028   2.338
 4032SOL    HW212996   5.084   1.872   2.363
 4033SOL     OW12997   1.619   3.013   2.977
 4033SOL    HW112998   1.710   3.042   3.005
 4033SOL    HW212999   1.577   2.958   3.049
 4034SOL     OW13000   1.860   2.256   4.354
 4034SOL    HW113001   1.915   2.323   4.304
 4034SOL    HW213002   1.874   2.165   4.315
 4035SOL     OW13003   3.862   2.210   1.682
 4035SOL    HW113004   3.807   2.274   1.737
 4035SOL    HW213005   3.913   2.150   1.743
 4036SOL     OW13006   3.757   6.121   3.669
 4036SOL    HW113007   3.730   6.135   3.574
 4036SOL    HW213008   3.708   6.042   3.706
 4037SOL     OW13009   1.942   1.728   6.465
 4037SOL    HW113010   2.027   1.744   6.415
 4037SOL    HW213011   1.906   1.814   6.499
 4038SOL     OW13012   3.506   4.447   6.148
 4038SOL    HW113013   3.540   4.365   6.102
 4038SOL    HW213014   3.564   4.467   6.227
 4039SOL     OW13015   6.215   4.400   1.405
 4039SOL    HW113016   6.297   4.343   1.401
 4039SOL    HW213017   6.148   4.359   1.467
 4040SOL     OW13018   3.066   0.375   5.074
 4040SOL    HW113019   3.025   0.365   4.983
 4040SOL    HW213020   3.162   0.398   5.065
 4041SOL     OW13021   1.261   6.171   1.790
 4041SOL    HW113022   1.277   6.257   1.839
 4041SOL    HW213023   1.307   6.097   1.839
 4042SOL     OW13024   0.596   1.580   3.399
 4042SOL    HW113025   0.641   1.500   3.360
 4042SOL    HW213026   0.535   1.621   3.330
 4043SOL     OW13027   4.267   1.764   6.158
 4043SOL    HW113028   4.338   1.693   6.149
 4043SOL    HW213029   4.305   1.844   6.204
 4044SOL     OW13030   4.400   4.615   3.388
 4044SOL    HW113031   4.445   4.551   3.451
 4044SOL    HW213032   4.312   4.643   3.426
 4045SOL     OW13033   4.705   1.645   4.933
 4045SOL    HW113034   4.705   1.737   4.896
 4045SOL    HW213035   4.737   1.647   5.028
 4046SOL     OW13036   4.881   1.724   3.996
 4046SOL    HW113037   4.890   1.697   3.900
 4046SOL    HW213038   4.906   1.647   4.054
 4047SOL     OW13039   2.858   2.157   6.534
 4047SOL    HW113040   2.783   2.216   6.506
 4047SOL    HW213041   2.925   2.151   6.460
 4048SOL     OW13042   4.924   2.087   3.616
 4048SOL    HW113043   4.985   2.011   3.637
 4048SOL    HW213044   4.895   2.132   3.701
 4049SOL     OW13045   4.281   3.893   1.257
 4049SOL    HW113046   4.329   3.830   1.318
 4049SOL    HW213047   4.291   3.987   1.290
 4050SOL     OW13048   6.740   4.742   2.843
 4050SOL    HW113049   6.827   4.699   2.818
 4050SOL    HW213050   6.719   4.814   2.776
 4051SOL     OW13051   5.739   1.313   4.552
 4051SOL    HW113052   5.808   1.378   4.584
 4051SOL    HW213053   5.753   1.295   4.454
 4052SOL     OW13054   4.826   1.813   4.355
 4052SOL    HW113055   4.793   1.875   4.284
 4052SOL    HW213056   4.748   1.763   4.393
 4053SOL     OW13057   0.895   5.215   3.972
 4053SOL    HW113058   0.916   5.198   3.876
 4053SOL    HW213059   0.883   5.128   4.020
 4054SOL     OW13060   4.750   3.669   1.196
 4054SOL    HW113061   4.799   3.675   1.109
 4054SOL    HW213062   4.774   3.583   1.242
 4055SOL     OW13063   6.990   4.564   6.960
 4055SOL    HW113064   6.915   4.497   6.954
 4055SOL    HW213065   6.987   4.624   6.881
 4056SOL     OW13066   5.184   3.432   0.134
 4056SOL    HW113067   5.204   3.513   0.188
 4056SOL    HW213068   5.085   3.426   0.117
 4057SOL     OW13069   6.888   4.077   6.100
 4057SOL    HW113070   6.903   3.979   6.092
 4057SOL    HW213071   6.926   4.110   6.186
 4058SOL     OW13072   3.729   0.581   4.188
 4058SOL    HW113073   3.711   0.511   4.257
 4058SOL    HW213074   3.790   0.651   4.225
 4059SOL     OW13075   0.908   1.215   3.968
 4059SOL    HW113076   0.885   1.279   3.895
 4059SOL    HW213077   1.008   1.214   3.981
 4060SOL     OW13078   0.281   6.423   4.782
 4060SOL    HW113079   0.192   6.377   4.791
 4060SOL    HW213080   0.280   6.480   4.699
 4061SOL     OW13081   0.966   4.721   2.009
 4061SOL    HW113082   0.965   4.637   1.954
 4061SOL    HW213083   0.879   4.768   1.997
 4062SOL     OW13084   2.122   3.974   0.169
 4062SOL    HW113085   2.028   3.975   0.204
 4062SOL    HW213086   2.186   3.961   0.244
 4063SOL     OW13087   3.782   0.594   0.921
 4063SOL    HW113088   3.777   0.672   0.983
 4063SOL    HW213089   3.790   0.627   0.827
 4064SOL     OW13090   2.495   0.771   5.432
 4064SOL    HW113091   2.559   0.801   5.363
 4064SOL    HW213092   2.538   0.701   5.489
 4065SOL     OW13093   2.572   1.499   1.804
 4065SOL    HW113094   2.475   1.483   1.823
 4065SOL    HW213095   2.580   1.563   1.727
 4066SOL     OW13096   0.238   4.319   4.492
 4066SOL    HW113097   0.196   4.246   4.438
 4066SOL    HW213098   0.267   4.393   4.432
 4067SOL     OW13099   6.812   4.458   0.797
 4067SOL    HW113100   6.891   4.407   0.831
 4067SOL    HW213101   6.830   4.489   0.704
 4068SOL     OW13102   2.276   2.674   5.698
 4068SOL    HW113103   2.283   2.584   5.742
 4068SOL    HW213104   2.363   2.696   5.654
 4069SOL     OW13105   4.783   6.685   5.569
 4069SOL    HW113106   4.822   6.593   5.563
 4069SOL    HW213107   4.834   6.746   5.509
 4070SOL     OW13108   1.705   2.846   3.983
 4070SOL    HW113109   1.669   2.938   3.998
 4070SOL    HW213110   1.703   2.795   4.069
 4071SOL     OW13111   1.956   0.465   4.960
 4071SOL    HW113112   1.911   0.414   4.886
 4071SOL    HW213113   2.028   0.523   4.921
 4072SOL     OW13114   3.288   6.752   2.393
 4072SOL    HW113115   3.252   6.679   2.336
 4072SOL    HW213116   3.321   6.714   2.480
 4073SOL     OW13117   3.935   5.379   6.909
 4073SOL    HW113118   3.843   5.403   6.940
 4073SOL    HW213119   3.929   5.299   6.849
 4074SOL     OW13120   1.416   5.696   2.388
 4074SOL    HW113121   1.373   5.786   2.384
 4074SOL    HW213122   1.392   5.644   2.306
 4075SOL     OW13123   5.966   1.422   0.063
 4075SOL    HW113124   5.979   1.327   0.036
 4075SOL    HW213125   6.024   1.442   0.142
 4076SOL     OW13126   2.018   5.810   3.935
 4076SOL    HW113127   2.005   5.724   3.984
 4076SOL    HW213128   2.100   5.855   3.969
 4077SOL     OW13129   2.956   1.655   1.704
 4077SOL    HW113130   3.005   1.593   1.644
 4077SOL    HW213131   2.895   1.713   1.650
 4078SOL     OW13132   4.250   4.795   2.211
 4078SOL    HW113133   4.330   4.755   2.257
 4078SOL    HW213134   4.172   4.795   2.273
 4079SOL     OW13135   0.540   2.025   4.085
 4079SOL    HW113136   0.535   2.124   4.099
 4079SOL    HW213137   0.479   1.999   4.010
 4080SOL     OW13138   6.571   1.989   4.679
 4080SOL    HW113139   6.481   1.946   4.681
 4080SOL    HW213140   6.569   2.074   4.733
 4081SOL     OW13141   0.754   4.013   2.932
 4081SOL    HW113142   0.783   4.034   3.026
 4081SOL    HW213143   0.654   4.016   2.927
 4082SOL     OW13144   0.389   3.144   0.001
 4082SOL    HW113145   0.476   3.098   7.003
 4082SOL    HW213146   0.337   3.092   0.069
 4083SOL     OW13147   6.695   2.905   4.793
 4083SOL    HW113148   6.726   2.844   4.720
 4083SOL    HW213149   6.719   3.000   4.770
 4084SOL     OW13150   5.933   0.977   4.570
 4084SOL    HW113151   5.961   1.017   4.483
 4084SOL    HW213152   5.918   0.879   4.559
 4085SOL     OW13153   2.799   5.444   6.855
 4085SOL    HW113154   2.731   5.443   6.782
 4085SOL    HW213155   2.805   5.536   6.894
 4086SOL     OW13156   1.194   3.662   1.161
 4086SOL    HW113157   1.257   3.596   1.203
 4086SOL    HW213158   1.127   3.693   1.229
 4087SOL     OW13159   2.356   1.182   2.946
 4087SOL    HW113160   2.284   1.250   2.960
 4087SOL    HW213161   2.413   1.209   2.868
 4088SOL     OW13162   6.849   1.723   6.971
 4088SOL    HW113163   6.753   1.746   6.982
 4088SOL    HW213164   6.905   1.804   6.986
 4089SOL     OW13165   0.537   0.780   5.507
 4089SOL    HW113166   0.559   0.704   5.569
 4089SOL    HW213167   0.440   0.774   5.481
 4090SOL     OW13168   3.167   5.018   6.444
 4090SOL    HW113169   3.158   5.055   6.537
 4090SOL    HW213170   3.230   5.076   6.392
 4091SOL     OW13171   4.923   6.862   1.239
 4091SOL    HW113172   4.855   6.903   1.300
 4091SOL    HW213173   4.993   6.930   1.216
 4092SOL     OW13174   0.054   1.383   3.903
 4092SOL    HW113175   0.058   1.429   3.992
 4092SOL    HW213176   6.977   1.381   3.871
 4093SOL     OW13177   5.482   0.298   4.129
 4093SOL    HW113178   5.421   0.365   4.171
 4093SOL    HW213179   5.470   0.300   4.029
 4094SOL     OW13180   3.061   3.950   5.952
 4094SOL    HW113181   3.057   3.900   6.039
 4094SOL    HW213182   3.099   3.891   5.881
 4095SOL     OW13183   1.507   3.572   6.145
 4095SOL    HW113184   1.605   3.557   6.138
 4095SOL    HW213185   1.470   3.594   6.055
 4096SOL     OW13186   4.389   4.617   1.559
 4096SOL    HW113187   4.471   4.656   1.518
 4096SOL    HW213188   4.389   4.635   1.657
 4097SOL     OW13189   3.660   3.603   3.497
 4097SOL    HW113190   3.713   3.569   3.575
 4097SOL    HW213191   3.594   3.671   3.528
 4098SOL     OW13192   0.730   3.447   2.249
 4098SOL    HW113193   0.733   3.501   2.165
 4098SOL    HW213194   0.647   3.469   2.301
 4099SOL     OW13195   2.674   6.018   1.880
 4099SOL    HW113196   2.660   6.033   1.978
 4099SOL    HW213197   2.590   6.040   1.830
 4100SOL     OW13198   3.841   0.103   3.304
 4100SOL    HW113199   3.811   0.099   3.209
 4100SOL    HW213200   3.764   0.083   3.365
 4101SOL     OW13201   4.382   2.093   6.939
 4101SOL    HW113202   4.428   2.164   6.887
 4101SOL    HW213203   4.447   2.021   6.963
 4102SOL     OW13204   4.316   1.742   0.239
 4102SOL    HW113205   4.341   1.736   0.143
 4102SOL    HW213206   4.218   1.758   0.248
 4103SOL     OW13207   0.219   0.253   1.928
 4103SOL    HW113208   0.155   0.329   1.914
 4103SOL    HW213209   0.176   0.168   1.898
 4104SOL     OW13210   2.248   4.662   2.419
 4104SOL    HW113211   2.243   4.694   2.513
 4104SOL    HW213212   2.299   4.576   2.415
 4105SOL     OW13213   6.065   5.128   6.954
 4105SOL    HW113214   6.103   5.120   6.862
 4105SOL    HW213215   6.006   5.050   6.972
 4106SOL     OW13216   6.839   3.665   5.019
 4106SOL    HW113217   6.767   3.621   5.074
 4106SOL    HW213218   6.827   3.765   5.023
 4107SOL     OW13219   0.037   0.590   0.908
 4107SOL    HW113220   6.981   0.607   0.973
 4107SOL    HW213221   0.001   0.541   0.828
 4108SOL     OW13222   6.241   2.802   5.267
 4108SOL    HW113223   6.248   2.896   5.301
 4108SOL    HW213224   6.147   2.770   5.277
 4109SOL     OW13225   2.880   6.091   4.142
 4109SOL    HW113226   2.849   6.133   4.057
 4109SOL    HW213227   2.800   6.062   4.195
 4110SOL     OW13228   4.719   3.432   5.387
 4110SOL    HW113229   4.680   3.489   5.315
 4110SOL    HW213230   4.700   3.336   5.367
 4111SOL     OW13231   3.657   3.263   6.717
 4111SOL    HW113232   3.566   3.250   6.677
 4111SOL    HW213233   3.663   3.353   6.758
 4112SOL     OW13234   4.238   0.366   5.703
 4112SOL    HW113235   4.170   0.292   5.701
 4112SOL    HW213236   4.197   0.449   5.741
 4113SOL     OW13237   3.524   4.964   5.134
 4113SOL    HW113238   3.478   4.932   5.050
 4113SOL    HW213239   3.561   5.056   5.118
 4114SOL     OW13240   3.833   2.141   2.865
 4114SOL    HW113241   3.825   2.073   2.793
 4114SOL    HW213242   3.746   2.190   2.875
 4115SOL     OW13243   5.163   4.248   2.389
 4115SOL    HW113244   5.119   4.267   2.301
 4115SOL    HW213245   5.095   4.254   2.462
 4116SOL     OW13246   3.013   1.029   2.428
 4116SOL    HW113247   3.097   1.083   2.431
 4116SOL    HW213248   3.036   0.935   2.403
 4117SOL     OW13249   0.874   5.862   1.202
 4117SOL    HW113250   0.785   5.899   1.230
 4117SOL    HW213251   0.863   5.810   1.117
 4118SOL     OW13252   2.331   0.161   6.911
 4118SOL    HW113253   2.271   0.147   6.990
 4118SOL    HW213254   2.415   0.108   6.924
 4119SOL     OW13255   4.697   1.323   3.404
 4119SOL    HW113256   4.638   1.279   3.336
 4119SOL    HW213257   4.791   1.325   3.370
 4120SOL     OW13258   4.951   1.171   2.640
 4120SOL    HW113259   5.006   1.209   2.715
 4120SOL    HW213260   5.004   1.103   2.591
 4121SOL     OW13261   6.457   2.165   4.381
 4121SOL    HW113262   6.432   2.254   4.342
 4121SOL    HW213263   6.528   2.177   4.450
 4122SOL     OW13264   2.094   5.602   6.993
 4122SOL    HW113265   2.175   5.595   6.935
 4122SOL    HW213266   2.121   5.590   0.071
 4123SOL     OW13267   4.362   3.635   5.731
 4123SOL    HW113268   4.419   3.617   5.811
 4123SOL    HW213269   4.341   3.733   5.727
 4124SOL     OW13270   4.027   6.115   3.728
 4124SOL    HW113271   4.031   6.108   3.828
 4124SOL    HW213272   3.931   6.120   3.699
 4125SOL     OW13273   4.969   1.086   1.382
 4125SOL    HW113274   4.994   1.000   1.425
 4125SOL    HW213275   4.887   1.122   1.426
 4126SOL     OW13276   1.933   4.490   4.592
 4126SOL    HW113277   1.947   4.566   4.655
 4126SOL    HW213278   1.837   4.462   4.594
 4127SOL     OW13279   6.180   4.580   4.471
 4127SOL    HW113280   6.166   4.626   4.559
 4127SOL    HW213281   6.158   4.643   4.397
 4128SOL     OW13282   0.635   1.800   1.974
 4128SOL    HW113283   0.604   1.715   1.932
 4128SOL    HW213284   0.623   1.794   2.073
 4129SOL     OW13285   6.637   2.904   5.992
 4129SOL    HW113286   6.613   2.870   5.902
 4129SOL    HW213287   6.677   2.830   6.047
 4130SOL     OW13288   6.642   2.934   1.099
 4130SOL    HW113289   6.722   2.989   1.121
 4130SOL    HW213290   6.655   2.890   1.010
 4131SOL     OW13291   6.957   3.684   3.187
 4131SOL    HW113292   6.889   3.756   3.173
 4131SOL    HW213293   6.918   3.596   3.159
 4132SOL     OW13294   4.879   2.305   4.868
 4132SOL    HW113295   4.899   2.384   4.925
 4132SOL    HW213296   4.884   2.222   4.924
 4133SOL     OW13297   2.443   2.583   1.257
 4133SOL    HW113298   2.410   2.549   1.345
 4133SOL    HW213299   2.502   2.515   1.215
 4134SOL     OW13300   2.004   1.283   0.346
 4134SOL    HW113301   2.094   1.284   0.302
 4134SOL    HW213302   1.934   1.261   0.278
 4135SOL     OW13303   1.936   0.419   1.100
 4135SOL    HW113304   1.859   0.471   1.064
 4135SOL    HW213305   1.933   0.325   1.066
 4136SOL     OW13306   0.617   1.633   3.661
 4136SOL    HW113307   0.618   1.613   3.563
 4136SOL    HW213308   0.522   1.635   3.693
 4137SOL     OW13309   3.993   3.078   5.796
 4137SOL    HW113310   4.061   3.009   5.769
 4137SOL    HW213311   4.002   3.097   5.893
 4138SOL     OW13312   4.244   5.805   1.954
 4138SOL    HW113313   4.196   5.732   2.003
 4138SOL    HW213314   4.178   5.873   1.922
 4139SOL     OW13315   2.792   1.282   0.711
 4139SOL    HW113316   2.742   1.323   0.635
 4139SOL    HW213317   2.778   1.337   0.794
 4140SOL     OW13318   4.320   1.844   5.410
 4140SOL    HW113319   4.247   1.830   5.344
 4140SOL    HW213320   4.318   1.939   5.442
 4141SOL     OW13321   5.233   5.337   0.420
 4141SOL    HW113322   5.265   5.349   0.326
 4141SOL    HW213323   5.303   5.368   0.484
 4142SOL     OW13324   5.961   3.356   1.512
 4142SOL    HW113325   5.951   3.304   1.597
 4142SOL    HW213326   6.047   3.406   1.515
 4143SOL     OW13327   0.620   2.942   2.293
 4143SOL    HW113328   0.690   2.921   2.224
 4143SOL    HW213329   0.555   3.009   2.255
 4144SOL     OW13330   4.125   0.806   1.986
 4144SOL    HW113331   4.046   0.834   2.042
 4144SOL    HW213332   4.205   0.861   2.012
 4145SOL     OW13333   3.076   6.808   2.933
 4145SOL    HW113334   3.162   6.776   2.893
 4145SOL    HW213335   3.070   6.778   3.028
 4146SOL     OW13336   4.743   5.002   0.196
 4146SOL    HW113337   4.790   4.945   0.128
 4146SOL    HW213338   4.801   5.081   0.218
 4147SOL     OW13339   2.562   2.075   6.037
 4147SOL    HW113340   2.564   2.162   6.088
 4147SOL    HW213341   2.476   2.028   6.056
 4148SOL     OW13342   6.955   6.930   2.394
 4148SOL    HW113343   0.019   6.933   2.450
 4148SOL    HW213344   6.886   6.872   2.437
 4149SOL     OW13345   4.737   4.186   2.211
 4149SOL    HW113346   4.713   4.238   2.293
 4149SOL    HW213347   4.653   4.161   2.162
 4150SOL     OW13348   4.482   0.250   5.394
 4150SOL    HW113349   4.495   0.296   5.482
 4150SOL    HW213350   4.389   0.267   5.361
 4151SOL     OW13351   0.457   5.636   0.597
 4151SOL    HW113352   0.413   5.579   0.528
 4151SOL    HW213353   0.435   5.600   0.688
 4152SOL     OW13354   3.215   3.798   1.527
 4152SOL    HW113355   3.173   3.875   1.575
 4152SOL    HW213356   3.213   3.816   1.428
 4153SOL     OW13357   6.081   5.853   6.102
 4153SOL    HW113358   5.999   5.800   6.084
 4153SOL    HW213359   6.157   5.791   6.121
 4154SOL     OW13360   4.492   2.576   5.302
 4154SOL    HW113361   4.571   2.606   5.248
 4154SOL    HW213362   4.430   2.653   5.315
 4155SOL     OW13363   1.831   3.118   0.402
 4155SOL    HW113364   1.875   3.028   0.399
 4155SOL    HW213365   1.737   3.108   0.434
 4156SOL     OW13366   5.837   0.575   5.057
 4156SOL    HW113367   5.909   0.533   5.003
 4156SOL    HW213368   5.778   0.504   5.095
 4157SOL     OW13369   2.839   0.679   3.305
 4157SOL    HW113370   2.802   0.766   3.336
 4157SOL    HW213371   2.903   0.695   3.230
 4158SOL     OW13372   0.643   0.255   3.880
 4158SOL    HW113373   0.624   0.195   3.957
 4158SOL    HW213374   0.723   0.312   3.900
 4159SOL     OW13375   0.200   3.760   5.542
 4159SOL    HW113376   0.255   3.837   5.573
 4159SOL    HW213377   0.103   3.780   5.558
 4160SOL     OW13378   0.447   0.434   1.280
 4160SOL    HW113379   0.488   0.362   1.338
 4160SOL    HW213380   0.443   0.519   1.332
 4161SOL     OW13381   6.346   1.783   1.173
 4161SOL    HW113382   6.292   1.834   1.106
 4161SOL    HW213383   6.285   1.744   1.242
 4162SOL     OW13384   0.760   6.771   5.377
 4162SOL    HW113385   0.837   6.709   5.390
 4162SOL    HW213386   0.761   6.806   5.283
 4163SOL     OW13387   6.436   1.420   5.554
 4163SOL    HW113388   6.440   1.475   5.471
 4163SOL    HW213389   6.349   1.435   5.600
 4164SOL     OW13390   2.781   6.833   5.720
 4164SOL    HW113391   2.829   6.903   5.772
 4164SOL    HW213392   2.717   6.784   5.780
 4165SOL     OW13393   2.723   6.081   2.306
 4165SOL    HW113394   2.662   6.031   2.368
 4165SOL    HW213395   2.723   6.035   2.217
 4166SOL     OW13396   6.412   1.694   1.878
 4166SOL    HW113397   6.330   1.713   1.823
 4166SOL    HW213398   6.407   1.745   1.964
 4167SOL     OW13399   2.041   2.703   1.101
 4167SOL    HW113400   1.974   2.642   1.060
 4167SOL    HW213401   1.995   2.775   1.153
 4168SOL     OW13402   1.724   5.369   1.417
 4168SOL    HW113403   1.653   5.439   1.407
 4168SOL    HW213404   1.685   5.279   1.393
 4169SOL     OW13405   6.381   3.217   6.396
 4169SOL    HW113406   6.442   3.160   6.341
 4169SOL    HW213407   6.391   3.313   6.370
 4170SOL     OW13408   3.804   1.226   4.968
 4170SOL    HW113409   3.817   1.232   4.869
 4170SOL    HW213410   3.746   1.301   4.999
 4171SOL     OW13411   6.244   3.533   1.218
 4171SOL    HW113412   6.343   3.534   1.237
 4171SOL    HW213413   6.220   3.446   1.176
 4172SOL     OW13414   2.633   0.643   0.665
 4172SOL    HW113415   2.675   0.669   0.751
 4172SOL    HW213416   2.687   0.679   0.589
 4173SOL     OW13417   4.937   3.486   5.529
 4173SOL    HW113418   4.864   3.487   5.461
 4173SOL    HW213419   4.910   3.541   5.607
 4174SOL     OW13420   5.420   0.598   3.811
 4174SOL    HW113421   5.448   0.626   3.719
 4174SOL    HW213422   5.381   0.676   3.859
 4175SOL     OW13423   2.507   1.261   2.499
 4175SOL    HW113424   2.462   1.180   2.462
 4175SOL    HW213425   2.442   1.312   2.556
 4176SOL     OW13426   5.780   4.496   2.869
 4176SOL    HW113427   5.782   4.423   2.938
 4176SOL    HW213428   5.751   4.581   2.911
 4177SOL     OW13429   6.448   5.443   3.149
 4177SOL    HW113430   6.402   5.450   3.237
 4177SOL    HW213431   6.471   5.347   3.130
 4178SOL     OW13432   4.126   2.423   5.535
 4178SOL    HW113433   4.040   2.468   5.513
 4178SOL    HW213434   4.181   2.482   5.595
 4179SOL     OW13435   6.637   2.134   0.219
 4179SOL    HW113436   6.678   2.226   0.216
 4179SOL    HW213437   6.574   2.123   0.142
 4180SOL     OW13438   4.631   3.390   1.697
 4180SOL    HW113439   4.614   3.420   1.603
 4180SOL    HW213440   4.650   3.292   1.698
 4181SOL     OW13441   6.693   0.551   0.699
 4181SOL    HW113442   6.763   0.617   0.674
 4181SOL    HW213443   6.657   0.507   0.617
 4182SOL     OW13444   5.727   0.942   3.783
 4182SOL    HW113445   5.779   0.965   3.701
 4182SOL    HW213446   5.631   0.963   3.769
 4183SOL     OW13447   1.516   0.983   1.923
 4183SOL    HW113448   1.472   1.070   1.944
 4183SOL    HW213449   1.603   1.000   1.876
 4184SOL     OW13450   4.422   4.785   6.642
 4184SOL    HW113451   4.490   4.764   6.571
 4184SOL    HW213452   4.424   4.714   6.712
 4185SOL     OW13453   0.164   0.244   4.148
 4185SOL    HW113454   0.250   0.242   4.097
 4185SOL    HW213455   0.182   0.241   4.246
 4186SOL     OW13456   3.746   4.211   1.771
 4186SOL    HW113457   3.667   4.247   1.820
 4186SOL    HW213458   3.741   4.111   1.767
 4187SOL     OW13459   3.921   5.016   6.611
 4187SOL    HW113460   3.939   4.994   6.707
 4187SOL    HW213461   3.852   5.088   6.606
 4188SOL     OW13462   4.817   6.426   3.711
 4188SOL    HW113463   4.867   6.348   3.748
 4188SOL    HW213464   4.845   6.442   3.616
 4189SOL     OW13465   1.510   3.636   3.315
 4189SOL    HW113466   1.549   3.580   3.241
 4189SOL    HW213467   1.424   3.675   3.285
 4190SOL     OW13468   2.273   6.993   1.502
 4190SOL    HW113469   2.361   6.998   1.551
 4190SOL    HW213470   2.241   6.899   1.501
 4191SOL     OW13471   0.710   1.992   2.846
 4191SOL    HW113472   0.793   1.983   2.902
 4191SOL    HW213473   0.731   1.970   2.751
 4192SOL     OW13474   5.920   0.351   3.429
 4192SOL    HW113475   5.875   0.359   3.518
 4192SOL    HW213476   5.973   0.266   3.426
 4193SOL     OW13477   1.666   6.416   3.774
 4193SOL    HW113478   1.567   6.422   3.775
 4193SOL    HW213479   1.696   6.364   3.694
 4194SOL     OW13480   5.922   0.251   3.094
 4194SOL    HW113481   6.011   0.297   3.097
 4194SOL    HW213482   5.883   0.259   3.003
 4195SOL     OW13483   5.174   1.012   3.564
 4195SOL    HW113484   5.212   1.094   3.521
 4195SOL    HW213485   5.130   1.037   3.650
 4196SOL     OW13486   4.755   2.861   3.486
 4196SOL    HW113487   4.823   2.911   3.433
 4196SOL    HW213488   4.678   2.921   3.507
 4197SOL     OW13489   5.182   4.240   4.938
 4197SOL    HW113490   5.182   4.315   5.004
 4197SOL    HW213491   5.261   4.249   4.877
 4198SOL     OW13492   6.596   3.902   6.262
 4198SOL    HW113493   6.584   3.853   6.176
 4198SOL    HW213494   6.609   4.000   6.243
 4199SOL     OW13495   3.158   3.906   6.484
 4199SOL    HW113496   3.257   3.924   6.484
 4199SOL    HW213497   3.117   3.946   6.402
 4200SOL     OW13498   3.120   0.729   0.069
 4200SOL    HW113499   3.142   0.696   6.995
 4200SOL    HW213500   3.090   0.824   0.064
 4201SOL     OW13501   6.051   6.999   4.501
 4201SOL    HW113502   5.952   6.989   4.505
 4201SOL    HW213503   6.076   0.029   4.417
 4202SOL     OW13504   5.488   3.902   5.669
 4202SOL    HW113505   5.441   3.814   5.668
 4202SOL    HW213506   5.456   3.957   5.746
 4203SOL     OW13507   4.035   5.858   4.443
 4203SOL    HW113508   4.070   5.863   4.349
 4203SOL    HW213509   4.110   5.838   4.505
 4204SOL     OW13510   1.474   3.968   0.351
 4204SOL    HW113511   1.494   4.006   0.441
 4204SOL    HW213512   1.381   3.994   0.324
 4205SOL     OW13513   2.903   5.865   3.143
 4205SOL    HW113514   2.835   5.834   3.076
 4205SOL    HW213515   2.905   5.965   3.143
 4206SOL     OW13516   5.056   6.607   4.221
 4206SOL    HW113517   5.120   6.653   4.284
 4206SOL    HW213518   5.064   6.648   4.130
 4207SOL     OW13519   1.070   6.661   0.117
 4207SOL    HW113520   1.048   6.572   0.158
 4207SOL    HW213521   1.050   6.733   0.183
 4208SOL     OW13522   0.493   2.922   1.155
 4208SOL    HW113523   0.592   2.927   1.141
 4208SOL    HW213524   0.466   2.986   1.227
 4209SOL     OW13525   3.249   0.315   5.326
 4209SOL    HW113526   3.227   0.373   5.248
 4209SOL    HW213527   3.208   0.225   5.313
 4210SOL     OW13528   3.807   2.834   0.375
 4210SOL    HW113529   3.885   2.775   0.396
 4210SOL    HW213530   3.793   2.837   0.276
 4211SOL     OW13531   5.069   3.957   4.383
 4211SOL    HW113532   5.086   4.048   4.346
 4211SOL    HW213533   5.146   3.930   4.442
 4212SOL     OW13534   6.215   0.028   2.118
 4212SOL    HW113535   6.231   0.068   2.208
 4212SOL    HW213536   6.295   0.045   2.060
 4213SOL     OW13537   0.465   0.091   1.141
 4213SOL    HW113538   0.525   0.171   1.143
 4213SOL    HW213539   0.383   0.112   1.087
 4214SOL     OW13540   2.931   5.468   4.297
 4214SOL    HW113541   2.832   5.484   4.298
 4214SOL    HW213542   2.949   5.369   4.297
 4215SOL     OW13543   1.501   5.982   6.835
 4215SOL    HW113544   1.506   5.986   6.735
 4215SOL    HW213545   1.474   6.071   6.871
 4216SOL     OW13546   2.777   3.210   5.277
 4216SOL    HW113547   2.691   3.160   5.285
 4216SOL    HW213548   2.852   3.153   5.310
 4217SOL     OW13549   6.639   0.926   4.411
 4217SOL    HW113550   6.550   0.883   4.400
 4217SOL    HW213551   6.696   0.870   4.471
 4218SOL     OW13552   3.164   5.661   2.135
 4218SOL    HW113553   3.106   5.672   2.215
 4218SOL    HW213554   3.260   5.661   2.163
 4219SOL     OW13555   5.870   0.373   2.849
 4219SOL    HW113556   5.801   0.423   2.797
 4219SOL    HW213557   5.940   0.339   2.787
 4220SOL     OW13558   0.521   4.125   3.184
 4220SOL    HW113559   0.620   4.135   3.196
 4220SOL    HW213560   0.502   4.057   3.113
 4221SOL     OW13561   5.325   6.509   5.814
 4221SOL    HW113562   5.252   6.456   5.772
 4221SOL    HW213563   5.410   6.456   5.812
 4222SOL     OW13564   2.781   2.910   0.279
 4222SOL    HW113565   2.771   2.980   0.207
 4222SOL    HW213566   2.708   2.843   0.270
 4223SOL     OW13567   3.329   4.153   2.908
 4223SOL    HW113568   3.323   4.247   2.941
 4223SOL    HW213569   3.424   4.123   2.910
 4224SOL     OW13570   3.482   1.715   5.711
 4224SOL    HW113571   3.407   1.758   5.661
 4224SOL    HW213572   3.474   1.735   5.808
 4225SOL     OW13573   5.137   0.159   4.498
 4225SOL    HW113574   5.166   0.072   4.456
 4225SOL    HW213575   5.099   0.141   4.589
 4226SOL     OW13576   2.025   1.713   2.437
 4226SOL    HW113577   2.035   1.776   2.360
 4226SOL    HW213578   2.007   1.621   2.404
 4227SOL     OW13579   5.339   3.941   6.471
 4227SOL    HW113580   5.254   3.889   6.483
 4227SOL    HW213581   5.383   3.913   6.385
 4228SOL     OW13582   4.421   4.777   2.878
 4228SOL    HW113583   4.495   4.830   2.837
 4228SOL    HW213584   4.420   4.793   2.977
 4229SOL     OW13585   4.164   5.173   5.482
 4229SOL    HW113586   4.193   5.079   5.501
 4229SOL    HW213587   4.088   5.172   5.417
 4230SOL     OW13588   2.582   1.504   6.271
 4230SOL    HW113589   2.649   1.490   6.198
 4230SOL    HW213590   2.621   1.565   6.341
 4231SOL     OW13591   3.534   6.452   6.157
 4231SOL    HW113592   3.570   6.511   6.229
 4231SOL    HW213593   3.470   6.387   6.196
 4232SOL     OW13594   1.731   3.843   1.262
 4232SOL    HW113595   1.673   3.906   1.313
 4232SOL    HW213596   1.825   3.849   1.297
 4233SOL     OW13597   5.693   5.293   1.269
 4233SOL    HW113598   5.779   5.341   1.283
 4233SOL    HW213599   5.710   5.205   1.223
 4234SOL     OW13600   3.721   3.406   5.482
 4234SOL    HW113601   3.758   3.366   5.566
 4234SOL    HW213602   3.791   3.462   5.437
 4235SOL     OW13603   0.472   4.032   4.704
 4235SOL    HW113604   0.434   4.092   4.774
 4235SOL    HW213605   0.455   3.936   4.729
 4236SOL     OW13606   0.957   3.503   4.977
 4236SOL    HW113607   0.984   3.573   4.911
 4236SOL    HW213608   0.991   3.529   5.068
 4237SOL     OW13609   6.406   3.930   5.306
 4237SOL    HW113610   6.342   3.858   5.278
 4237SOL    HW213611   6.395   4.009   5.246
 4238SOL     OW13612   4.704   5.195   4.954
 4238SOL    HW113613   4.629   5.259   4.936
 4238SOL    HW213614   4.780   5.216   4.892
 4239SOL     OW13615   5.070   6.128   5.334
 4239SOL    HW113616   5.057   6.178   5.248
 4239SOL    HW213617   5.099   6.035   5.315
 4240SOL     OW13618   2.677   4.741   6.586
 4240SOL    HW113619   2.745   4.735   6.513
 4240SOL    HW213620   2.723   4.749   6.674
 4241SOL     OW13621   3.084   2.173   1.453
 4241SOL    HW113622   3.160   2.227   1.417
 4241SOL    HW213623   3.060   2.206   1.544
 4242SOL     OW13624   2.315   0.313   2.442
 4242SOL    HW113625   2.309   0.340   2.346
 4242SOL    HW213626   2.258   0.233   2.457
 4243SOL     OW13627   1.537   2.787   2.755
 4243SOL    HW113628   1.479   2.740   2.821
 4243SOL    HW213629   1.551   2.881   2.784
 4244SOL     OW13630   3.246   0.599   1.057
 4244SOL    HW113631   3.253   0.500   1.044
 4244SOL    HW213632   3.325   0.630   1.111
 4245SOL     OW13633   0.065   1.488   1.233
 4245SOL    HW113634   0.031   1.482   1.140
 4245SOL    HW213635   0.160   1.456   1.236
 4246SOL     OW13636   4.621   2.728   4.023
 4246SOL    HW113637   4.668   2.773   4.100
 4246SOL    HW213638   4.656   2.766   3.938
 4247SOL     OW13639   2.639   5.684   6.960
 4247SOL    HW113640   2.654   5.730   6.872
 4247SOL    HW213641   2.559   5.625   6.954
 4248SOL     OW13642   2.362   0.179   3.084
 4248SOL    HW113643   2.423   0.184   3.004
 4248SOL    HW213644   2.364   0.086   3.121
 4249SOL     OW13645   5.928   1.285   5.724
 4249SOL    HW113646   5.850   1.269   5.784
 4249SOL    HW213647   6.013   1.270   5.775
 4250SOL     OW13648   0.673   5.348   4.608
 4250SOL    HW113649   0.627   5.422   4.657
 4250SOL    HW213650   0.750   5.386   4.557
 4251SOL     OW13651   4.823   2.190   5.360
 4251SOL    HW113652   4.756   2.259   5.334
 4251SOL    HW213653   4.806   2.106   5.308
 4252SOL     OW13654   0.829   6.940   6.525
 4252SOL    HW113655   0.732   6.920   6.513
 4252SOL    HW213656   0.841   7.006   6.599
 4253SOL     OW13657   4.078   0.130   2.975
 4253SOL    HW113658   4.116   0.122   3.067
 4253SOL    HW213659   4.012   0.057   2.959
 4254SOL     OW13660   1.010   2.031   5.297
 4254SOL    HW113661   1.059   2.091   5.233
 4254SOL    HW213662   1.076   1.983   5.354
 4255SOL     OW13663   1.013   3.116   3.730
 4255SOL    HW113664   1.023   3.080   3.823
 4255SOL    HW213665   0.942   3.186   3.729
 4256SOL     OW13666   6.066   6.154   0.437
 4256SOL    HW113667   6.032   6.214   0.365
 4256SOL    HW213668   6.046   6.196   0.526
 4257SOL     OW13669   7.015   0.869   2.622
 4257SOL    HW113670   6.970   0.896   2.537
 4257SOL    HW213671   0.077   0.814   2.601
 4258SOL     OW13672   2.855   5.760   0.792
 4258SOL    HW113673   2.868   5.820   0.713
 4258SOL    HW213674   2.764   5.719   0.788
 4259SOL     OW13675   0.722   6.384   0.182
 4259SOL    HW113676   0.741   6.322   0.105
 4259SOL    HW213677   0.786   6.460   0.179
 4260SOL     OW13678   6.903   0.218   5.341
 4260SOL    HW113679   7.003   0.221   5.344
 4260SOL    HW213680   6.873   0.135   5.294
 4261SOL     OW13681   2.684   6.353   3.394
 4261SOL    HW113682   2.591   6.391   3.387
 4261SOL    HW213683   2.750   6.426   3.380
 4262SOL     OW13684   1.354   4.157   5.012
 4262SOL    HW113685   1.317   4.248   4.994
 4262SOL    HW213686   1.442   4.148   4.966
 4263SOL     OW13687   3.243   1.131   2.332
 4263SOL    HW113688   3.312   1.199   2.305
 4263SOL    HW213689   3.277   1.039   2.310
 4264SOL     OW13690   4.851   2.156   6.730
 4264SOL    HW113691   4.786   2.093   6.688
 4264SOL    HW213692   4.899   2.110   6.805
 4265SOL     OW13693   3.427   6.435   6.827
 4265SOL    HW113694   3.397   6.531   6.817
 4265SOL    HW213695   3.520   6.426   6.791
 4266SOL     OW13696   1.323   4.528   1.476
 4266SOL    HW113697   1.379   4.446   1.463
 4266SOL    HW213698   1.284   4.528   1.568
 4267SOL     OW13699   1.352   3.454   4.308
 4267SOL    HW113700   1.436   3.465   4.255
 4267SOL    HW213701   1.305   3.542   4.316
 4268SOL     OW13702   1.253   4.360   6.026
 4268SOL    HW113703   1.349   4.334   6.017
 4268SOL    HW213704   1.203   4.329   5.945
 4269SOL     OW13705   2.686   1.503   3.971
 4269SOL    HW113706   2.658   1.481   4.064
 4269SOL    HW213707   2.629   1.578   3.936
 4270SOL     OW13708   4.262   4.032   1.010
 4270SOL    HW113709   4.233   3.981   0.929
 4270SOL    HW213710   4.274   3.969   1.086
 4271SOL     OW13711   6.350   0.710   0.387
 4271SOL    HW113712   6.398   0.748   0.467
 4271SOL    HW213713   6.353   0.777   0.313
 4272SOL     OW13714   6.505   1.757   5.565
 4272SOL    HW113715   6.465   1.769   5.656
 4272SOL    HW213716   6.442   1.707   5.507
 4273SOL     OW13717   3.655   5.326   3.592
 4273SOL    HW113718   3.723   5.394   3.619
 4273SOL    HW213719   3.700   5.237   3.580
 4274SOL     OW13720   6.845   0.629   1.096
 4274SOL    HW113721   6.758   0.580   1.105
 4274SOL    HW213722   6.828   0.727   1.102
 4275SOL     OW13723   6.766   2.030   3.918
 4275SOL    HW113724   6.754   2.021   4.017
 4275SOL    HW213725   6.811   1.948   3.882
 4276SOL     OW13726   1.475   0.020   2.932
 4276SOL    HW113727   1.433   0.091   2.988
 4276SOL    HW213728   1.560   7.008   2.974
 4277SOL     OW13729   6.168   5.865   2.732
 4277SOL    HW113730   6.082   5.825   2.701
 4277SOL    HW213731   6.242   5.839   2.669
 4278SOL     OW13732   0.257   6.965   0.942
 4278SOL    HW113733   0.335   6.935   0.888
 4278SOL    HW213734   0.209   0.019   0.894
 4279SOL     OW13735   0.933   3.402   3.116
 4279SOL    HW113736   0.979   3.352   3.043
 4279SOL    HW213737   0.836   3.377   3.118
 4280SOL     OW13738   2.898   6.606   6.528
 4280SOL    HW113739   2.847   6.616   6.614
 4280SOL    HW213740   2.995   6.601   6.548
 4281SOL     OW13741   6.946   6.489   2.343
 4281SOL    HW113742   7.012   6.455   2.411
 4281SOL    HW213743   6.869   6.426   2.337
 4282SOL     OW13744   5.294   4.783   1.873
 4282SOL    HW113745   5.326   4.877   1.865
 4282SOL    HW213746   5.207   4.773   1.824
 4283SOL     OW13747   6.086   0.987   5.154
 4283SOL    HW113748   6.112   0.899   5.114
 4283SOL    HW213749   5.989   0.985   5.178
 4284SOL     OW13750   4.791   6.127   6.815
 4284SOL    HW113751   4.795   6.111   6.913
 4284SOL    HW213752   4.852   6.062   6.768
 4285SOL     OW13753   2.913   1.681   6.187
 4285SOL    HW113754   2.869   1.766   6.219
 4285SOL    HW213755   2.914   1.615   6.262
 4286SOL     OW13756   5.144   6.339   6.593
 4286SOL    HW113757   5.161   6.409   6.524
 4286SOL    HW213758   5.067   6.367   6.651
 4287SOL     OW13759   3.929   0.899   1.279
 4287SOL    HW113760   3.862   0.918   1.351
 4287SOL    HW213761   4.006   0.963   1.287
 4288SOL     OW13762   0.203   6.283   2.033
 4288SOL    HW113763   0.143   6.351   1.989
 4288SOL    HW213764   0.291   6.326   2.054
 4289SOL     OW13765   0.291   4.199   5.777
 4289SOL    HW113766   0.289   4.154   5.866
 4289SOL    HW213767   0.370   4.261   5.773
 4290SOL     OW13768   6.991   1.416   3.231
 4290SOL    HW113769   6.979   1.438   3.134
 4290SOL    HW213770   6.992   1.500   3.285
 4291SOL     OW13771   4.142   4.797   6.480
 4291SOL    HW113772   4.203   4.718   6.477
 4291SOL    HW213773   4.195   4.879   6.498
 4292SOL     OW13774   6.774   0.318   0.817
 4292SOL    HW113775   6.862   0.308   0.771
 4292SOL    HW213776   6.716   0.380   0.765
 4293SOL     OW13777   3.829   3.130   6.274
 4293SOL    HW113778   3.758   3.189   6.235
 4293SOL    HW213779   3.882   3.182   6.342
 4294SOL     OW13780   3.071   1.857   0.280
 4294SOL    HW113781   3.088   1.785   0.347
 4294SOL    HW213782   3.076   1.946   0.325
 4295SOL     OW13783   4.387   6.841   2.539
 4295SOL    HW113784   4.444   6.775   2.587
 4295SOL    HW213785   4.356   6.911   2.604
 4296SOL     OW13786   1.964   5.269   2.371
 4296SOL    HW113787   1.927   5.344   2.426
 4296SOL    HW213788   2.034   5.220   2.424
 4297SOL     OW13789   5.174   4.782   0.032
 4297SOL    HW113790   5.125   4.790   6.963
 4297SOL    HW213791   5.194   4.686   0.050
 4298SOL     OW13792   1.825   6.817   0.589
 4298SOL    HW113793   1.791   6.771   0.672
 4298SOL    HW213794   1.778   6.904   0.578
 4299SOL     OW13795   0.230   3.077   5.793
 4299SOL    HW113796   0.299   3.025   5.743
 4299SOL    HW213797   0.275   3.152   5.842
 4300SOL     OW13798   3.585   0.634   1.798
 4300SOL    HW113799   3.540   0.721   1.822
 4300SOL    HW213800   3.612   0.636   1.702
 4301SOL     OW13801   1.907   6.296   4.720
 4301SOL    HW113802   1.965   6.298   4.802
 4301SOL    HW213803   1.811   6.286   4.748
 4302SOL     OW13804   4.195   4.881   0.269
 4302SOL    HW113805   4.208   4.785   0.247
 4302SOL    HW213806   4.268   4.936   0.227
 4303SOL     OW13807   4.153   5.312   3.225
 4303SOL    HW113808   4.103   5.396   3.203
 4303SOL    HW213809   4.093   5.250   3.277
 4304SOL     OW13810   3.014   4.254   1.725
 4304SOL    HW113811   2.972   4.322   1.785
 4304SOL    HW213812   3.086   4.297   1.670
 4305SOL     OW13813   0.948   6.362   5.968
 4305SOL    HW113814   0.942   6.445   5.914
 4305SOL    HW213815   0.858   6.340   6.006
 4306SOL     OW13816   5.588   3.693   5.391
 4306SOL    HW113817   5.555   3.681   5.484
 4306SOL    HW213818   5.553   3.779   5.354
 4307SOL     OW13819   6.939   1.758   5.519
 4307SOL    HW113820   6.897   1.668   5.512
 4307SOL    HW213821   0.003   1.760   5.463
 4308SOL     OW13822   4.319   5.931   5.693
 4308SOL    HW113823   4.231   5.968   5.725
 4308SOL    HW213824   4.373   5.903   5.772
 4309SOL     OW13825   3.033   1.788   1.113
 4309SOL    HW113826   3.103   1.833   1.059
 4309SOL    HW213827   2.959   1.758   1.052
 4310SOL     OW13828   6.877   1.779   3.821
 4310SOL    HW113829   6.849   1.705   3.760
 4310SOL    HW213830   6.952   1.747   3.879
 4311SOL     OW13831   0.423   6.543   1.186
 4311SOL    HW113832   0.457   6.541   1.092
 4311SOL    HW213833   0.340   6.489   1.192
 4312SOL     OW13834   0.116   3.729   2.785
 4312SOL    HW113835   0.067   3.809   2.752
 4312SOL    HW213836   0.119   3.659   2.713
 4313SOL     OW13837   0.795   3.346   0.751
 4313SOL    HW113838   0.710   3.295   0.741
 4313SOL    HW213839   0.817   3.391   0.665
 4314SOL     OW13840   2.161   1.753   5.929
 4314SOL    HW113841   2.255   1.720   5.923
 4314SOL    HW213842   2.101   1.680   5.963
 4315SOL     OW13843   2.581   2.552   5.435
 4315SOL    HW113844   2.512   2.501   5.383
 4315SOL    HW213845   2.632   2.488   5.494
 4316SOL     OW13846   4.881   4.578   1.308
 4316SOL    HW113847   4.815   4.534   1.370
 4316SOL    HW213848   4.836   4.600   1.222
 4317SOL     OW13849   5.269   0.638   4.764
 4317SOL    HW113850   5.194   0.688   4.806
 4317SOL    HW213851   5.353   0.654   4.815
 4318SOL     OW13852   1.472   6.129   3.949
 4318SOL    HW113853   1.460   6.227   3.965
 4318SOL    HW213854   1.565   6.102   3.973
 4319SOL     OW13855   1.796   4.536   1.531
 4319SOL    HW113856   1.720   4.527   1.596
 4319SOL    HW213857   1.883   4.534   1.581
 4320SOL     OW13858   3.838   0.968   1.723
 4320SOL    HW113859   3.745   0.983   1.689
 4320SOL    HW213860   3.888   1.055   1.722
 4321SOL     OW13861   6.472   5.715   3.112
 4321SOL    HW113862   6.380   5.746   3.090
 4321SOL    HW213863   6.470   5.618   3.136
 4322SOL     OW13864   2.692   2.122   4.528
 4322SOL    HW113865   2.633   2.075   4.462
 4322SOL    HW213866   2.667   2.218   4.533
 4323SOL     OW13867   5.536   4.054   1.564
 4323SOL    HW113868   5.572   4.068   1.472
 4323SOL    HW213869   5.496   4.139   1.598
 4324SOL     OW13870   6.668   3.808   5.234
 4324SOL    HW113871   6.709   3.742   5.297
 4324SOL    HW213872   6.582   3.841   5.272
 4325SOL     OW13873   1.578   0.563   1.218
 4325SOL    HW113874   1.639   0.560   1.297
 4325SOL    HW213875   1.493   0.609   1.243
 4326SOL     OW13876   4.764   2.848   3.088
 4326SOL    HW113877   4.856   2.817   3.067
 4326SOL    HW213878   4.758   2.947   3.076
 4327SOL     OW13879   3.266   6.667   3.938
 4327SOL    HW113880   3.335   6.676   3.866
 4327SOL    HW213881   3.287   6.587   3.995
 4328SOL     OW13882   6.649   0.001   2.461
 4328SOL    HW113883   6.648   0.044   2.371
 4328SOL    HW213884   6.701   6.934   2.457
 4329SOL     OW13885   5.968   4.110   0.374
 4329SOL    HW113886   5.943   4.202   0.345
 4329SOL    HW213887   6.063   4.109   0.405
 4330SOL     OW13888   2.669   5.409   5.222
 4330SOL    HW113889   2.697   5.498   5.185
 4330SOL    HW213890   2.593   5.422   5.286
 4331SOL     OW13891   5.840   1.718   2.849
 4331SOL    HW113892   5.748   1.732   2.885
 4331SOL    HW213893   5.890   1.656   2.909
 4332SOL     OW13894   0.027   5.608   1.353
 4332SOL    HW113895   7.012   5.521   1.389
 4332SOL    HW213896   6.968   5.662   1.320
 4333SOL     OW13897   3.797   2.727   6.344
 4333SOL    HW113898   3.809   2.761   6.250
 4333SOL    HW213899   3.884   2.696   6.380
 4334SOL     OW13900   0.616   2.432   3.713
 4334SOL    HW113901   0.700   2.422   3.658
 4334SOL    HW213902   0.536   2.427   3.652
 4335SOL     OW13903   2.055   3.796   1.807
 4335SOL    HW113904   2.071   3.706   1.765
 4335SOL    HW213905   2.143   3.834   1.838
 4336SOL     OW13906   2.497   5.220   5.523
 4336SOL    HW113907   2.560   5.164   5.470
 4336SOL    HW213908   2.418   5.166   5.550
 4337SOL     OW13909   0.093   4.643   4.137
 4337SOL    HW113910   0.014   4.698   4.165
 4337SOL    HW213911   0.064   4.576   4.068
 4338SOL     OW13912   3.378   2.945   5.321
 4338SOL    HW113913   3.454   3.010   5.321
 4338SOL    HW213914   3.332   2.947   5.410
 4339SOL     OW13915   4.489   4.215   5.443
 4339SOL    HW113916   4.421   4.204   5.516
 4339SOL    HW213917   4.481   4.306   5.403
 4340SOL     OW13918   6.998   3.890   0.184
 4340SOL    HW113919   6.979   3.836   0.103
 4340SOL    HW213920   6.947   3.853   0.262
 4341SOL     OW13921   6.103   5.852   1.013
 4341SOL    HW113922   6.042   5.882   0.940
 4341SOL    HW213923   6.172   5.790   0.975
 4342SOL     OW13924   5.250   3.693   2.425
 4342SOL    HW113925   5.228   3.786   2.395
 4342SOL    HW213926   5.193   3.628   2.375
 4343SOL     OW13927   4.634   0.710   6.421
 4343SOL    HW113928   4.536   0.703   6.405
 4343SOL    HW213929   4.683   0.672   6.342
 4344SOL     OW13930   1.296   4.171   2.003
 4344SOL    HW113931   1.365   4.112   2.045
 4344SOL    HW213932   1.206   4.149   2.039
 4345SOL     OW13933   3.890   2.976   2.717
 4345SOL    HW113934   3.888   3.066   2.761
 4345SOL    HW213935   3.796   2.946   2.700
 4346SOL     OW13936   1.144   3.935   2.584
 4346SOL    HW113937   1.129   3.839   2.607
 4346SOL    HW213938   1.164   3.944   2.487
 4347SOL     OW13939   6.237   5.744   0.723
 4347SOL    HW113940   6.293   5.786   0.652
 4347SOL    HW213941   6.229   5.645   0.706
 4348SOL     OW13942   6.317   3.887   6.010
 4348SOL    HW113943   6.398   3.829   6.014
 4348SOL    HW213944   6.254   3.862   6.084
 4349SOL     OW13945   1.017   4.095   4.187
 4349SOL    HW113946   0.936   4.037   4.180
 4349SOL    HW213947   1.097   4.039   4.205
 4350SOL     OW13948   5.092   0.305   4.052
 4350SOL    HW113949   5.053   0.392   4.082
 4350SOL    HW213950   5.133   0.316   3.962
 4351SOL     OW13951   0.505   5.837   0.968
 4351SOL    HW113952   0.554   5.754   0.944
 4351SOL    HW213953   0.559   5.917   0.940
 4352SOL     OW13954   3.394   4.224   1.541
 4352SOL    HW113955   3.355   4.161   1.608
 4352SOL    HW213956   3.457   4.287   1.587
 4353SOL     OW13957   2.289   3.842   7.008
 4353SOL    HW113958   2.241   3.888   0.066
 4353SOL    HW213959   2.275   3.894   6.924
 4354SOL     OW13960   5.299   5.161   2.126
 4354SOL    HW113961   5.317   5.223   2.202
 4354SOL    HW213962   5.262   5.213   2.049
 4355SOL     OW13963   1.931   4.974   3.497
 4355SOL    HW113964   1.964   4.888   3.535
 4355SOL    HW213965   1.995   5.007   3.428
 4356SOL     OW13966   5.981   1.909   5.689
 4356SOL    HW113967   5.901   1.963   5.664
 4356SOL    HW213968   6.031   1.883   5.606
 4357SOL     OW13969   5.112   5.748   2.838
 4357SOL    HW113970   5.210   5.756   2.820
 4357SOL    HW213971   5.086   5.811   2.911
 4358SOL     OW13972   2.819   0.602   1.182
 4358SOL    HW113973   2.736   0.623   1.234
 4358SOL    HW213974   2.823   0.504   1.163
 4359SOL     OW13975   2.614   2.383   1.152
 4359SOL    HW113976   2.693   2.418   1.101
 4359SOL    HW213977   2.646   2.320   1.223
 4360SOL     OW13978   3.140   5.985   3.714
 4360SOL    HW113979   3.239   5.995   3.700
 4360SOL    HW213980   3.101   6.072   3.744
 4361SOL     OW13981   1.762   1.112   6.716
 4361SOL    HW113982   1.773   1.207   6.746
 4361SOL    HW213983   1.674   1.101   6.670
 4362SOL     OW13984   0.124   5.725   2.710
 4362SOL    HW113985   0.059   5.715   2.635
 4362SOL    HW213986   0.092   5.797   2.772
 4363SOL     OW13987   4.040   0.567   2.143
 4363SOL    HW113988   3.960   0.522   2.105
 4363SOL    HW213989   4.079   0.629   2.074
 4364SOL     OW13990   3.277   3.724   3.396
 4364SOL    HW113991   3.285   3.780   3.314
 4364SOL    HW213992   3.345   3.752   3.463
 4365SOL     OW13993   2.684   1.398   0.928
 4365SOL    HW113994   2.652   1.439   1.013
 4365SOL    HW213995   2.649   1.450   0.850
 4366SOL     OW13996   4.957   5.625   4.935
 4366SOL    HW113997   5.010   5.652   4.854
 4366SOL    HW213998   4.868   5.590   4.906
 4367SOL     OW13999   2.265   6.614   1.757
 4367SOL    HW114000   2.214   6.544   1.807
 4367SOL    HW214001   2.361   6.586   1.750
 4368SOL     OW14002   4.751   4.223   4.434
 4368SOL    HW114003   4.816   4.190   4.503
 4368SOL    HW214004   4.673   4.265   4.480
 4369SOL     OW14005   5.981   4.504   3.656
 4369SOL    HW114006   5.992   4.483   3.559
 4369SOL    HW214007   5.930   4.430   3.700
 4370SOL     OW14008   4.657   4.694   0.771
 4370SOL    HW114009   4.755   4.680   0.755
 4370SOL    HW214010   4.622   4.619   0.828
 4371SOL     OW14011   3.617   1.347   3.141
 4371SOL    HW114012   3.693   1.401   3.104
 4371SOL    HW214013   3.638   1.321   3.235
 4372SOL     OW14014   1.730   4.675   5.018
 4372SOL    HW114015   1.745   4.755   5.076
 4372SOL    HW214016   1.654   4.692   4.955
 4373SOL     OW14017   4.494   0.329   0.527
 4373SOL    HW114018   4.569   0.392   0.504
 4373SOL    HW214019   4.438   0.314   0.446
 4374SOL     OW14020   2.344   5.992   0.766
 4374SOL    HW114021   2.329   6.087   0.741
 4374SOL    HW214022   2.420   5.987   0.832
 4375SOL     OW14023   4.712   1.295   5.896
 4375SOL    HW114024   4.779   1.365   5.920
 4375SOL    HW214025   4.649   1.331   5.827
 4376SOL     OW14026   3.033   5.281   0.026
 4376SOL    HW114027   2.948   5.256   7.000
 4376SOL    HW214028   3.064   5.205   0.085
 4377SOL     OW14029   5.431   5.900   6.239
 4377SOL    HW114030   5.349   5.945   6.206
 4377SOL    HW214031   5.429   5.897   6.339
 4378SOL     OW14032   3.245   4.947   1.494
 4378SOL    HW114033   3.257   4.926   1.397
 4378SOL    HW214034   3.259   5.045   1.509
 4379SOL     OW14035   6.684   6.167   0.507
 4379SOL    HW114036   6.642   6.257   0.513
 4379SOL    HW214037   6.678   6.133   0.413
 4380SOL     OW14038   2.043   5.524   4.717
 4380SOL    HW114039   2.056   5.568   4.628
 4380SOL    HW214040   2.094   5.574   4.787
 4381SOL     OW14041   3.672   6.036   4.681
 4381SOL    HW114042   3.697   6.127   4.713
 4381SOL    HW214043   3.744   6.001   4.621
 4382SOL     OW14044   5.177   4.310   2.716
 4382SOL    HW114045   5.245   4.382   2.699
 4382SOL    HW214046   5.105   4.346   2.776
 4383SOL     OW14047   1.357   0.484   0.673
 4383SOL    HW114048   1.310   0.571   0.668
 4383SOL    HW214049   1.302   0.413   0.627
 4384SOL     OW14050   3.970   0.109   1.908
 4384SOL    HW114051   3.900   0.156   1.854
 4384SOL    HW214052   3.975   0.149   1.999
 4385SOL     OW14053   6.449   2.648   4.098
 4385SOL    HW114054   6.436   2.707   4.017
 4385SOL    HW214055   6.443   2.552   4.070
 4386SOL     OW14056   1.753   4.991   6.665
 4386SOL    HW114057   1.735   5.026   6.573
 4386SOL    HW214058   1.851   4.976   6.676
 4387SOL     OW14059   6.042   1.985   1.244
 4387SOL    HW114060   6.086   2.074   1.235
 4387SOL    HW214061   6.112   1.916   1.264
 4388SOL     OW14062   4.115   1.051   6.028
 4388SOL    HW114063   4.077   1.138   5.995
 4388SOL    HW214064   4.111   1.049   6.128
 4389SOL     OW14065   6.843   2.620   3.105
 4389SOL    HW114066   6.758   2.660   3.138
 4389SOL    HW214067   6.870   2.665   3.019
 4390SOL     OW14068   4.158   3.608   1.165
 4390SOL    HW114069   4.253   3.598   1.136
 4390SOL    HW214070   4.152   3.598   1.264
 4391SOL     OW14071   0.998   5.944   0.383
 4391SOL    HW114072   1.031   5.944   0.477
 4391SOL    HW214073   0.995   5.850   0.349
 4392SOL     OW14074   5.478   5.224   5.186
 4392SOL    HW114075   5.446   5.224   5.091
 4392SOL    HW214076   5.543   5.149   5.199
 4393SOL     OW14077   5.295   6.697   2.740
 4393SOL    HW114078   5.360   6.657   2.675
 4393SOL    HW214079   5.345   6.737   2.817
 4394SOL     OW14080   4.606   0.279   1.898
 4394SOL    HW114081   4.548   0.261   1.818
 4394SOL    HW214082   4.595   0.204   1.964
 4395SOL     OW14083   4.406   2.078   1.101
 4395SOL    HW114084   4.351   2.154   1.134
 4395SOL    HW214085   4.474   2.111   1.035
 4396SOL     OW14086   1.273   1.269   3.098
 4396SOL    HW114087   1.265   1.292   3.195
 4396SOL    HW214088   1.242   1.175   3.084
 4397SOL     OW14089   4.523   0.668   6.835
 4397SOL    HW114090   4.435   0.699   6.799
 4397SOL    HW214091   4.532   0.570   6.820
 4398SOL     OW14092   0.375   5.343   4.575
 4398SOL    HW114093   0.346   5.418   4.516
 4398SOL    HW214094   0.474   5.330   4.567
 4399SOL     OW14095   2.777   0.419   2.060
 4399SOL    HW114096   2.750   0.440   1.967
 4399SOL    HW214097   2.812   0.325   2.065
 4400SOL     OW14098   3.413   4.896   2.563
 4400SOL    HW114099   3.410   4.857   2.656
 4400SOL    HW214100   3.319   4.904   2.529
 4401SOL     OW14101   5.539   6.297   4.538
 4401SOL    HW114102   5.599   6.376   4.548
 4401SOL    HW214103   5.541   6.244   4.623
 4402SOL     OW14104   6.219   6.301   1.349
 4402SOL    HW114105   6.148   6.358   1.308
 4402SOL    HW214106   6.305   6.351   1.351
 4403SOL     OW14107   6.527   1.440   2.628
 4403SOL    HW114108   6.515   1.377   2.551
 4403SOL    HW214109   6.473   1.407   2.706
 4404SOL     OW14110   2.103   4.012   2.558
 4404SOL    HW114111   2.035   4.040   2.490
 4404SOL    HW214112   2.143   3.924   2.531
 4405SOL     OW14113   2.564   3.650   6.156
 4405SOL    HW114114   2.527   3.717   6.092
 4405SOL    HW214115   2.647   3.686   6.197
 4406SOL     OW14116   6.313   2.750   2.077
 4406SOL    HW114117   6.347   2.657   2.091
 4406SOL    HW214118   6.360   2.791   1.998
 4407SOL     OW14119   1.165   0.876   6.997
 4407SOL    HW114120   1.173   0.975   6.986
 4407SOL    HW214121   1.127   0.836   6.913
 4408SOL     OW14122   3.900   6.461   1.242
 4408SOL    HW114123   3.935   6.525   1.311
 4408SOL    HW214124   3.916   6.367   1.273
 4409SOL     OW14125   3.444   2.079   2.485
 4409SOL    HW114126   3.491   2.120   2.407
 4409SOL    HW214127   3.347   2.067   2.462
 4410SOL     OW14128   1.900   5.858   1.438
 4410SOL    HW114129   1.967   5.788   1.409
 4410SOL    HW214130   1.814   5.813   1.462
 4411SOL     OW14131   3.932   3.442   2.373
 4411SOL    HW114132   3.835   3.424   2.363
 4411SOL    HW214133   3.946   3.534   2.409
 4412SOL     OW14134   4.077   1.263   6.229
 4412SOL    HW114135   4.117   1.354   6.236
 4412SOL    HW214136   4.146   1.193   6.249
 4413SOL     OW14137   4.185   5.503   3.940
 4413SOL    HW114138   4.170   5.406   3.922
 4413SOL    HW214139   4.280   5.527   3.919
 4414SOL     OW14140   3.405   4.921   2.048
 4414SOL    HW114141   3.428   5.008   2.092
 4414SOL    HW214142   3.487   4.865   2.039
 4415SOL     OW14143   4.869   1.658   1.826
 4415SOL    HW114144   4.808   1.730   1.858
 4415SOL    HW214145   4.835   1.622   1.739
 4416SOL     OW14146   2.599   1.953   4.233
 4416SOL    HW114147   2.544   2.036   4.236
 4416SOL    HW214148   2.679   1.969   4.174
 4417SOL     OW14149   6.156   6.947   1.011
 4417SOL    HW114150   6.204   7.010   1.072
 4417SOL    HW214151   6.068   6.986   0.985
 4418SOL     OW14152   5.083   0.658   3.385
 4418SOL    HW114153   5.070   0.617   3.295
 4418SOL    HW214154   5.022   0.736   3.395
 4419SOL     OW14155   5.995   5.606   6.348
 4419SOL    HW114156   5.968   5.566   6.260
 4419SOL    HW214157   5.917   5.604   6.411
 4420SOL     OW14158   5.101   1.079   0.816
 4420SOL    HW114159   5.178   1.084   0.879
 4420SOL    HW214160   5.132   1.041   0.728
 4421SOL     OW14161   0.289   1.394   3.365
 4421SOL    HW114162   0.326   1.313   3.409
 4421SOL    HW214163   0.222   1.367   3.296
 4422SOL     OW14164   1.760   3.993   5.816
 4422SOL    HW114165   1.821   4.072   5.826
 4422SOL    HW214166   1.805   3.924   5.760
 4423SOL     OW14167   6.964   1.883   5.983
 4423SOL    HW114168   6.900   1.959   5.996
 4423SOL    HW214169   0.035   1.907   6.022
 4424SOL     OW14170   1.784   5.473   3.700
 4424SOL    HW114171   1.879   5.491   3.727
 4424SOL    HW214172   1.741   5.412   3.767
 4425SOL     OW14173   4.665   3.694   1.675
 4425SOL    HW114174   4.730   3.718   1.603
 4425SOL    HW214175   4.714   3.674   1.760
 4426SOL     OW14176   0.583   6.950   6.710
 4426SOL    HW114177   0.655   7.012   6.741
 4426SOL    HW214178   0.603   6.858   6.744
 4427SOL     OW14179   1.018   5.698   3.587
 4427SOL    HW114180   1.086   5.639   3.629
 4427SOL    HW214181   0.928   5.656   3.592
 4428SOL     OW14182   1.046   6.498   2.842
 4428SOL    HW114183   0.952   6.475   2.817
 4428SOL    HW214184   1.108   6.468   2.769
 4429SOL     OW14185   2.751   0.516   2.780
 4429SOL    HW114186   2.763   0.573   2.699
 4429SOL    HW214187   2.776   0.421   2.758
 4430SOL     OW14188   2.004   0.807   1.860
 4430SOL    HW114189   2.016   0.765   1.771
 4430SOL    HW214190   1.953   0.745   1.920
 4431SOL     OW14191   2.031   2.351   3.413
 4431SOL    HW114192   2.085   2.347   3.329
 4431SOL    HW214193   1.988   2.261   3.428
 4432SOL     OW14194   2.914   3.369   4.379
 4432SOL    HW114195   2.948   3.301   4.315
 4432SOL    HW214196   2.910   3.458   4.334
 4433SOL     OW14197   6.528   0.548   2.569
 4433SOL    HW114198   6.606   0.495   2.602
 4433SOL    HW214199   6.551   0.646   2.572
 4434SOL     OW14200   5.838   2.002   5.234
 4434SOL    HW114201   5.780   1.995   5.315
 4434SOL    HW214202   5.818   2.088   5.187
 4435SOL     OW14203   3.537   3.165   2.011
 4435SOL    HW114204   3.536   3.207   2.102
 4435SOL    HW214205   3.490   3.225   1.946
 4436SOL     OW14206   5.636   0.322   0.097
 4436SOL    HW114207   5.730   0.298   0.070
 4436SOL    HW214208   5.617   0.416   0.068
 4437SOL     OW14209   3.234   0.130   6.078
 4437SOL    HW114210   3.160   0.192   6.104
 4437SOL    HW214211   3.289   0.172   6.006
 4438SOL     OW14212   3.910   2.583   6.899
 4438SOL    HW114213   3.944   2.490   6.909
 4438SOL    HW214214   3.985   2.643   6.870
 4439SOL     OW14215   1.486   4.454   2.968
 4439SOL    HW114216   1.584   4.432   2.970
 4439SOL    HW214217   1.434   4.371   2.950
 4440SOL     OW14218   6.556   1.072   0.595
 4440SOL    HW114219   6.514   0.990   0.634
 4440SOL    HW214220   6.491   1.119   0.536
 4441SOL     OW14221   6.782   7.012   3.964
 4441SOL    HW114222   6.809   0.012   4.059
 4441SOL    HW214223   6.864   6.999   3.908
 4442SOL     OW14224   1.703   5.732   2.182
 4442SOL    HW114225   1.703   5.809   2.246
 4442SOL    HW214226   1.713   5.646   2.233
 4443SOL     OW14227   2.513   1.177   0.921
 4443SOL    HW114228   2.588   1.242   0.920
 4443SOL    HW214229   2.550   1.084   0.931
 4444SOL     OW14230   4.953   1.519   3.178
 4444SOL    HW114231   5.029   1.580   3.155
 4444SOL    HW214232   4.895   1.506   3.097
 4445SOL     OW14233   0.807   1.035   6.200
 4445SOL    HW114234   0.899   1.010   6.230
 4445SOL    HW214235   0.808   1.126   6.158
 4446SOL     OW14236   6.038   5.169   3.975
 4446SOL    HW114237   5.963   5.170   4.041
 4446SOL    HW214238   6.125   5.179   4.023
 4447SOL     OW14239   4.830   3.799   5.270
 4447SOL    HW114240   4.871   3.773   5.183
 4447SOL    HW214241   4.782   3.721   5.309
 4448SOL     OW14242   2.506   3.309   6.739
 4448SOL    HW114243   2.494   3.358   6.653
 4448SOL    HW214244   2.524   3.374   6.813
 4449SOL     OW14245   0.290   0.954   5.657
 4449SOL    HW114246   0.335   1.041   5.640
 4449SOL    HW214247   0.307   0.892   5.581
 4450SOL     OW14248   3.713   3.690   3.205
 4450SOL    HW114249   3.787   3.674   3.141
 4450SOL    HW214250   3.688   3.604   3.250
 4451SOL     OW14251   0.337   4.516   0.924
 4451SOL    HW114252   0.410   4.559   0.977
 4451SOL    HW214253   0.343   4.417   0.934
 4452SOL     OW14254   6.970   3.238   6.318
 4452SOL    HW114255   6.944   3.325   6.277
 4452SOL    HW214256   6.905   3.167   6.288
 4453SOL     OW14257   5.531   0.818   0.591
 4453SOL    HW114258   5.564   0.876   0.666
 4453SOL    HW214259   5.438   0.788   0.611
 4454SOL     OW14260   5.494   2.729   1.606
 4454SOL    HW114261   5.554   2.658   1.569
 4454SOL    HW214262   5.502   2.812   1.550
 4455SOL     OW14263   4.345   2.301   2.846
 4455SOL    HW114264   4.247   2.289   2.865
 4455SOL    HW214265   4.356   2.347   2.758
 4456SOL     OW14266   0.288   5.769   2.303
 4456SOL    HW114267   0.257   5.853   2.346
 4456SOL    HW214268   0.336   5.791   2.218
 4457SOL     OW14269   4.163   2.247   6.853
 4457SOL    HW114270   4.066   2.229   6.834
 4457SOL    HW214271   4.207   2.162   6.882
 4458SOL     OW14272   4.315   1.603   1.288
 4458SOL    HW114273   4.302   1.698   1.259
 4458SOL    HW214274   4.360   1.601   1.377
 4459SOL     OW14275   5.852   6.120   5.551
 4459SOL    HW114276   5.808   6.144   5.637
 4459SOL    HW214277   5.951   6.131   5.558
 4460SOL     OW14278   1.463   1.564   0.281
 4460SOL    HW114279   1.454   1.504   0.201
 4460SOL    HW214280   1.379   1.618   0.291
 4461SOL     OW14281   1.920   6.608   3.097
 4461SOL    HW114282   1.993   6.543   3.116
 4461SOL    HW214283   1.880   6.588   3.007
 4462SOL     OW14284   6.786   4.008   0.489
 4462SOL    HW114285   6.880   3.975   0.503
 4462SOL    HW214286   6.766   4.080   0.556
 4463SOL     OW14287   0.930   4.191   6.624
 4463SOL    HW114288   0.971   4.281   6.635
 4463SOL    HW214289   0.859   4.195   6.553
 4464SOL     OW14290   6.575   2.561   6.733
 4464SOL    HW114291   6.600   2.658   6.738
 4464SOL    HW214292   6.498   2.543   6.794
 4465SOL     OW14293   6.279   5.138   0.937
 4465SOL    HW114294   6.207   5.070   0.952
 4465SOL    HW214295   6.368   5.098   0.958
 4466SOL     OW14296   0.079   2.960   3.237
 4466SOL    HW114297   0.080   2.894   3.163
 4466SOL    HW214298   0.173   2.986   3.260
 4467SOL     OW14299   1.184   0.542   3.932
 4467SOL    HW114300   1.233   0.496   4.006
 4467SOL    HW214301   1.205   0.496   3.845
 4468SOL     OW14302   1.471   2.101   0.703
 4468SOL    HW114303   1.522   2.176   0.661
 4468SOL    HW214304   1.529   2.019   0.705
 4469SOL     OW14305   4.924   6.826   0.749
 4469SOL    HW114306   4.988   6.806   0.674
 4469SOL    HW214307   4.973   6.828   0.835
 4470SOL     OW14308   4.799   4.688   1.762
 4470SOL    HW114309   4.744   4.606   1.775
 4470SOL    HW214310   4.858   4.676   1.682
 4471SOL     OW14311   6.057   2.786   1.988
 4471SOL    HW114312   6.027   2.692   1.968
 4471SOL    HW214313   6.148   2.784   2.029
 4472SOL     OW14314   2.416   5.100   1.445
 4472SOL    HW114315   2.437   5.022   1.504
 4472SOL    HW214316   2.501   5.150   1.426
 4473SOL     OW14317   6.435   0.870   0.201
 4473SOL    HW114318   6.372   0.913   0.136
 4473SOL    HW214319   6.522   0.918   0.200
 4474SOL     OW14320   6.350   0.832   4.371
 4474SOL    HW114321   6.257   0.813   4.404
 4474SOL    HW214322   6.364   0.931   4.367
 4475SOL     OW14323   1.613   3.056   0.538
 4475SOL    HW114324   1.515   3.059   0.556
 4475SOL    HW214325   1.647   2.963   0.551
 4476SOL     OW14326   4.299   6.577   3.054
 4476SOL    HW114327   4.308   6.519   3.135
 4476SOL    HW214328   4.222   6.546   2.999
 4477SOL     OW14329   1.915   2.300   1.029
 4477SOL    HW114330   2.005   2.323   0.992
 4477SOL    HW214331   1.880   2.219   0.983
 4478SOL     OW14332   1.431   5.145   1.131
 4478SOL    HW114333   1.368   5.102   1.066
 4478SOL    HW214334   1.381   5.209   1.189
 4479SOL     OW14335   1.580   0.291   5.958
 4479SOL    HW114336   1.567   0.192   5.971
 4479SOL    HW214337   1.638   0.307   5.879
 4480SOL     OW14338   6.998   4.091   3.282
 4480SOL    HW114339   6.968   4.099   3.187
 4480SOL    HW214340   6.947   4.018   3.327
 4481SOL     OW14341   0.505   0.863   4.129
 4481SOL    HW114342   0.594   0.868   4.084
 4481SOL    HW214343   0.433   0.871   4.061
 4482SOL     OW14344   1.152   4.052   2.843
 4482SOL    HW114345   1.176   4.027   2.749
 4482SOL    HW214346   1.120   3.970   2.892
 4483SOL     OW14347   5.389   3.419   0.432
 4483SOL    HW114348   5.375   3.503   0.380
 4483SOL    HW214349   5.468   3.371   0.396
 4484SOL     OW14350   3.334   3.433   6.604
 4484SOL    HW114351   3.242   3.466   6.626
 4484SOL    HW214352   3.329   3.366   6.530
 4485SOL     OW14353   4.878   6.942   6.342
 4485SOL    HW114354   4.802   6.877   6.348
 4485SOL    HW214355   4.881   6.997   6.425
 4486SOL     OW14356   6.336   3.571   3.890
 4486SOL    HW114357   6.315   3.644   3.825
 4486SOL    HW214358   6.325   3.605   3.983
 4487SOL     OW14359   2.968   3.165   5.772
 4487SOL    HW114360   2.916   3.244   5.741
 4487SOL    HW214361   3.022   3.190   5.853
 4488SOL     OW14362   6.830   2.121   6.434
 4488SOL    HW114363   6.810   2.026   6.410
 4488SOL    HW214364   6.808   2.181   6.357
 4489SOL     OW14365   1.269   0.961   2.352
 4489SOL    HW114366   1.270   0.921   2.443
 4489SOL    HW214367   1.244   0.891   2.285
 4490SOL     OW14368   6.731   1.986   4.190
 4490SOL    HW114369   6.824   1.949   4.191
 4490SOL    HW214370   6.707   2.018   4.281
 4491SOL     OW14371   1.958   4.135   2.349
 4491SOL    HW114372   1.919   4.101   2.264
 4491SOL    HW214373   1.931   4.231   2.362
 4492SOL     OW14374   4.885   4.206   6.372
 4492SOL    HW114375   4.804   4.262   6.388
 4492SOL    HW214376   4.871   4.115   6.411
 4493SOL     OW14377   6.066   4.402   3.399
 4493SOL    HW114378   6.072   4.303   3.392
 4493SOL    HW214379   6.157   4.442   3.392
 4494SOL     OW14380   5.821   1.944   2.508
 4494SOL    HW114381   5.881   1.923   2.585
 4494SOL    HW214382   5.865   2.012   2.449
 4495SOL     OW14383   5.117   5.995   1.567
 4495SOL    HW114384   5.156   5.961   1.653
 4495SOL    HW214385   5.085   6.089   1.581
 4496SOL     OW14386   6.318   3.505   5.819
 4496SOL    HW114387   6.227   3.547   5.813
 4496SOL    HW214388   6.367   3.520   5.734
 4497SOL     OW14389   6.672   5.785   0.957
 4497SOL    HW114390   6.645   5.773   0.862
 4497SOL    HW214391   6.632   5.870   0.993
 4498SOL     OW14392   1.082   4.599   6.487
 4498SOL    HW114393   1.098   4.540   6.566
 4498SOL    HW214394   1.169   4.620   6.443
 4499SOL     OW14395   5.196   3.410   6.868
 4499SOL    HW114396   5.196   3.383   6.965
 4499SOL    HW214397   5.176   3.508   6.861
 4500SOL     OW14398   4.012   3.792   2.752
 4500SOL    HW114399   4.048   3.762   2.663
 4500SOL    HW214400   3.978   3.713   2.803
 4501SOL     OW14401   1.355   4.824   4.859
 4501SOL    HW114402   1.341   4.914   4.901
 4501SOL    HW214403   1.342   4.753   4.929
 4502SOL     OW14404   5.558   2.476   0.155
 4502SOL    HW114405   5.573   2.474   0.056
 4502SOL    HW214406   5.516   2.390   0.185
 4503SOL     OW14407   1.208   3.348   2.585
 4503SOL    HW114408   1.259   3.357   2.499
 4503SOL    HW214409   1.238   3.419   2.649
 4504SOL     OW14410   4.401   2.373   4.494
 4504SOL    HW114411   4.353   2.368   4.406
 4504SOL    HW214412   4.335   2.372   4.568
 4505SOL     OW14413   1.870   5.210   0.934
 4505SOL    HW114414   1.868   5.276   1.009
 4505SOL    HW214415   1.792   5.147   0.944
 4506SOL     OW14416   3.577   0.438   5.783
 4506SOL    HW114417   3.558   0.501   5.707
 4506SOL    HW214418   3.578   0.489   5.869
 4507SOL     OW14419   6.253   3.566   2.431
 4507SOL    HW114420   6.274   3.470   2.409
 4507SOL    HW214421   6.155   3.574   2.450
 4508SOL     OW14422   1.931   3.974   0.453
 4508SOL    HW114423   1.876   4.025   0.520
 4508SOL    HW214424   1.873   3.946   0.377
 4509SOL     OW14425   0.379   2.293   2.727
 4509SOL    HW114426   0.372   2.393   2.730
 4509SOL    HW214427   0.451   2.266   2.664
 4510SOL     OW14428   2.861   6.568   6.024
 4510SOL    HW114429   2.816   6.488   6.061
 4510SOL    HW214430   2.954   6.544   5.995
 4511SOL     OW14431   6.981   2.047   0.163
 4511SOL    HW114432   6.977   2.036   0.064
 4511SOL    HW214433   6.910   1.991   0.206
 4512SOL     OW14434   2.534   3.898   6.802
 4512SOL    HW114435   2.580   3.925   6.886
 4512SOL    HW214436   2.556   3.964   6.730
 4513SOL     OW14437   6.053   1.275   2.910
 4513SOL    HW114438   5.991   1.307   2.838
 4513SOL    HW214439   6.041   1.177   2.923
 4514SOL     OW14440   2.629   0.564   5.595
 4514SOL    HW114441   2.651   0.466   5.594
 4514SOL    HW214442   2.574   0.585   5.675
 4515SOL     OW14443   6.767   5.052   0.156
 4515SOL    HW114444   6.742   5.144   0.127
 4515SOL    HW214445   6.863   5.050   0.182
 4516SOL     OW14446   0.518   7.000   3.483
 4516SOL    HW114447   0.587   0.052   3.495
 4516SOL    HW214448   0.547   6.916   3.529
 4517SOL     OW14449   2.741   0.855   7.007
 4517SOL    HW114450   2.716   0.820   0.079
 4517SOL    HW214451   2.748   0.955   7.011
 4518SOL     OW14452   1.445   6.753   3.621
 4518SOL    HW114453   1.364   6.705   3.655
 4518SOL    HW214454   1.431   6.852   3.628
 4519SOL     OW14455   6.514   2.084   5.017
 4519SOL    HW114456   6.457   2.003   5.002
 4519SOL    HW214457   6.518   2.138   4.934
 4520SOL     OW14458   6.966   3.546   2.918
 4520SOL    HW114459   0.001   3.628   2.896
 4520SOL    HW214460   7.007   3.499   2.995
 4521SOL     OW14461   5.395   1.424   6.414
 4521SOL    HW114462   5.399   1.358   6.338
 4521SOL    HW214463   5.440   1.509   6.386
 4522SOL     OW14464   5.702   6.577   3.123
 4522SOL    HW114465   5.607   6.572   3.151
 4522SOL    HW214466   5.724   6.498   3.065
 4523SOL     OW14467   4.848   2.705   5.475
 4523SOL    HW114468   4.847   2.738   5.569
 4523SOL    HW214469   4.821   2.778   5.413
 4524SOL     OW14470   6.102   0.253   4.910
 4524SOL    HW114471   6.121   0.328   4.973
 4524SOL    HW214472   6.157   0.264   4.828
 4525SOL     OW14473   6.591   1.104   4.192
 4525SOL    HW114474   6.562   1.198   4.210
 4525SOL    HW214475   6.602   1.055   4.279
 4526SOL     OW14476   3.114   1.490   1.529
 4526SOL    HW114477   3.206   1.487   1.567
 4526SOL    HW214478   3.104   1.572   1.472
 4527SOL     OW14479   4.286   6.525   4.304
 4527SOL    HW114480   4.211   6.591   4.301
 4527SOL    HW214481   4.349   6.544   4.229
 4528SOL     OW14482   4.717   0.344   6.272
 4528SOL    HW114483   4.619   0.337   6.258
 4528SOL    HW214484   4.764   0.274   6.219
 4529SOL     OW14485   3.362   6.954   4.081
 4529SOL    HW114486   3.339   6.932   4.175
 4529SOL    HW214487   3.286   6.926   4.021
 4530SOL     OW14488   0.173   2.426   4.333
 4530SOL    HW114489   0.142   2.519   4.315
 4530SOL    HW214490   0.256   2.428   4.389
 4531SOL     OW14491   0.849   3.915   4.075
 4531SOL    HW114492   0.917   3.854   4.034
 4531SOL    HW214493   0.773   3.928   4.011
 4532SOL     OW14494   0.611   2.027   0.438
 4532SOL    HW114495   0.681   2.066   0.497
 4532SOL    HW214496   0.521   2.042   0.478
 4533SOL     OW14497   3.371   6.191   2.369
 4533SOL    HW114498   3.337   6.249   2.295
 4533SOL    HW214499   3.411   6.108   2.330
 4534SOL     OW14500   6.890   4.313   5.947
 4534SOL    HW114501   6.866   4.250   5.874
 4534SOL    HW214502   6.949   4.267   6.013
 4535SOL     OW14503   5.126   2.411   2.922
 4535SOL    HW114504   5.198   2.344   2.905
 4535SOL    HW214505   5.063   2.375   2.991
 4536SOL     OW14506   0.021   0.374   3.978
 4536SOL    HW114507   6.977   0.438   4.022
 4536SOL    HW214508   0.075   0.327   4.047
 4537SOL     OW14509   4.669   3.419   6.147
 4537SOL    HW114510   4.753   3.365   6.137
 4537SOL    HW214511   4.591   3.357   6.154
 4538SOL     OW14512   3.478   2.301   1.699
 4538SOL    HW114513   3.511   2.210   1.673
 4538SOL    HW214514   3.552   2.351   1.745
 4539SOL     OW14515   2.249   2.567   1.993
 4539SOL    HW114516   2.332   2.604   1.953
 4539SOL    HW214517   2.267   2.477   2.032
 4540SOL     OW14518   3.814   2.945   5.088
 4540SOL    HW114519   3.717   2.927   5.072
 4540SOL    HW214520   3.853   2.869   5.141
 4541SOL     OW14521   6.031   1.056   1.786
 4541SOL    HW114522   6.015   1.072   1.689
 4541SOL    HW214523   6.125   1.027   1.801
 4542SOL     OW14524   5.193   6.588   3.211
 4542SOL    HW114525   5.177   6.529   3.132
 4542SOL    HW214526   5.116   6.651   3.222
 4543SOL     OW14527   5.904   2.844   2.255
 4543SOL    HW114528   5.996   2.824   2.289
 4543SOL    HW214529   5.909   2.915   2.185
 4544SOL     OW14530   5.346   5.238   6.230
 4544SOL    HW114531   5.343   5.240   6.130
 4544SOL    HW214532   5.417   5.300   6.263
 4545SOL     OW14533   3.729   4.076   6.146
 4545SOL    HW114534   3.760   4.168   6.169
 4545SOL    HW214535   3.643   4.082   6.096
 4546SOL     OW14536   0.419   6.165   6.708
 4546SOL    HW114537   0.509   6.179   6.750
 4546SOL    HW214538   0.369   6.096   6.760
 4547SOL     OW14539   4.706   1.765   2.379
 4547SOL    HW114540   4.674   1.751   2.473
 4547SOL    HW214541   4.644   1.828   2.332
 4548SOL     OW14542   0.789   3.448   4.127
 4548SOL    HW114543   0.871   3.441   4.071
 4548SOL    HW214544   0.777   3.543   4.157
 4549SOL     OW14545   5.524   1.696   2.653
 4549SOL    HW114546   5.521   1.767   2.724
 4549SOL    HW214547   5.445   1.706   2.592
 4550SOL     OW14548   2.502   5.583   4.590
 4550SOL    HW114549   2.423   5.521   4.595
 4550SOL    HW214550   2.501   5.644   4.669
 4551SOL     OW14551   6.935   3.520   0.745
 4551SOL    HW114552   6.978   3.450   0.689
 4551SOL    HW214553   6.848   3.547   0.705
 4552SOL     OW14554   6.949   2.872   4.348
 4552SOL    HW114555   6.877   2.866   4.417
 4552SOL    HW214556   7.016   2.941   4.376
 4553SOL     OW14557   5.228   5.007   6.292
 4553SOL    HW114558   5.275   5.093   6.272
 4553SOL    HW214559   5.286   4.951   6.351
 4554SOL     OW14560   6.629   6.802   3.864
 4554SOL    HW114561   6.652   6.883   3.918
 4554SOL    HW214562   6.569   6.743   3.917
 4555SOL     OW14563   3.833   3.086   6.946
 4555SOL    HW114564   3.808   3.183   6.945
 4555SOL    HW214565   3.754   3.031   6.917
 4556SOL     OW14566   4.730   0.254   5.245
 4556SOL    HW114567   4.771   0.343   5.229
 4556SOL    HW214568   4.639   0.266   5.285
 4557SOL     OW14569   5.527   1.251   4.733
 4557SOL    HW114570   5.618   1.265   4.695
 4557SOL    HW214571   5.527   1.167   4.788
 4558SOL     OW14572   6.824   3.046   6.170
 4558SOL    HW114573   6.755   3.020   6.103
 4558SOL    HW214574   6.914   3.044   6.127
 4559SOL     OW14575   1.177   6.463   1.589
 4559SOL    HW114576   1.203   6.436   1.682
 4559SOL    HW214577   1.092   6.417   1.563
 4560SOL     OW14578   5.752   2.804   2.547
 4560SOL    HW114579   5.844   2.837   2.567
 4560SOL    HW214580   5.746   2.778   2.451
 4561SOL     OW14581   3.553   6.508   6.529
 4561SOL    HW114582   3.476   6.549   6.480
 4561SOL    HW214583   3.570   6.416   6.495
 4562SOL     OW14584   2.624   4.305   5.797
 4562SOL    HW114585   2.539   4.295   5.849
 4562SOL    HW214586   2.602   4.317   5.700
 4563SOL     OW14587   6.193   2.143   6.803
 4563SOL    HW114588   6.220   2.232   6.767
 4563SOL    HW214589   6.118   2.106   6.748
 4564SOL     OW14590   0.737   4.749   6.946
 4564SOL    HW114591   0.644   4.766   6.976
 4564SOL    HW214592   0.795   4.826   6.973
 4565SOL     OW14593   2.597   1.176   3.841
 4565SOL    HW114594   2.665   1.247   3.824
 4565SOL    HW214595   2.607   1.104   3.773
 4566SOL     OW14596   1.651   0.951   1.046
 4566SOL    HW114597   1.700   1.036   1.026
 4566SOL    HW214598   1.715   0.874   1.042
 4567SOL     OW14599   5.678   1.698   0.676
 4567SOL    HW114600   5.579   1.706   0.689
 4567SOL    HW214601   5.725   1.759   0.739
 4568SOL     OW14602   4.305   4.667   4.008
 4568SOL    HW114603   4.345   4.626   3.926
 4568SOL    HW214604   4.335   4.617   4.089
 4569SOL     OW14605   0.856   1.862   3.070
 4569SOL    HW114606   0.790   1.899   3.136
 4569SOL    HW214607   0.915   1.795   3.116
 4570SOL     OW14608   5.683   5.760   4.503
 4570SOL    HW114609   5.777   5.750   4.537
 4570SOL    HW214610   5.685   5.803   4.412
 4571SOL     OW14611   3.878   3.088   4.222
 4571SOL    HW114612   3.832   3.069   4.309
 4571SOL    HW214613   3.954   3.151   4.238
 4572SOL     OW14614   2.141   5.709   1.369
 4572SOL    HW114615   2.221   5.703   1.309
 4572SOL    HW214616   2.082   5.630   1.352
 4573SOL     OW14617   5.378   0.611   1.053
 4573SOL    HW114618   5.428   0.628   1.138
 4573SOL    HW214619   5.373   0.513   1.037
 4574SOL     OW14620   0.081   4.666   1.512
 4574SOL    HW114621   0.124   4.576   1.506
 4574SOL    HW214622   0.065   4.702   1.420
 4575SOL     OW14623   6.318   6.364   1.899
 4575SOL    HW114624   6.250   6.297   1.928
 4575SOL    HW214625   6.299   6.392   1.805
 4576SOL     OW14626   3.076   6.361   3.994
 4576SOL    HW114627   3.114   6.388   3.905
 4576SOL    HW214628   3.027   6.438   4.035
 4577SOL     OW14629   1.899   3.231   3.813
 4577SOL    HW114630   1.869   3.258   3.721
 4577SOL    HW214631   1.827   3.179   3.858
 4578SOL     OW14632   6.798   6.036   4.019
 4578SOL    HW114633   6.845   6.114   3.979
 4578SOL    HW214634   6.849   5.952   3.999
 4579SOL     OW14635   5.243   2.322   3.794
 4579SOL    HW114636   5.290   2.250   3.743
 4579SOL    HW214637   5.305   2.399   3.808
 4580SOL     OW14638   0.488   5.062   7.003
 4580SOL    HW114639   0.490   5.066   0.085
 4580SOL    HW214640   0.393   5.069   6.972
 4581SOL     OW14641   3.154   6.171   5.112
 4581SOL    HW114642   3.168   6.084   5.158
 4581SOL    HW214643   3.113   6.155   5.022
 4582SOL     OW14644   5.027   6.820   3.226
 4582SOL    HW114645   5.010   6.850   3.320
 4582SOL    HW214646   5.083   6.888   3.179
 4583SOL     OW14647   3.730   0.484   5.422
 4583SOL    HW114648   3.799   0.497   5.493
 4583SOL    HW214649   3.661   0.557   5.428
 4584SOL     OW14650   0.353   4.973   5.867
 4584SOL    HW114651   0.335   5.064   5.830
 4584SOL    HW214652   0.439   4.973   5.917
 4585SOL     OW14653   3.187   6.312   2.183
 4585SOL    HW114654   3.090   6.293   2.171
 4585SOL    HW214655   3.227   6.337   2.094
 4586SOL     OW14656   3.091   6.059   1.393
 4586SOL    HW114657   3.100   5.963   1.366
 4586SOL    HW214658   3.078   6.115   1.311
 4587SOL     OW14659   3.221   5.005   0.913
 4587SOL    HW114660   3.220   4.907   0.893
 4587SOL    HW214661   3.207   5.057   0.829
 4588SOL     OW14662   3.116   4.019   5.074
 4588SOL    HW114663   3.192   4.026   5.140
 4588SOL    HW214664   3.040   4.076   5.106
 4589SOL     OW14665   1.449   1.936   3.276
 4589SOL    HW114666   1.421   1.945   3.181
 4589SOL    HW214667   1.548   1.949   3.283
 4590SOL     OW14668   4.051   6.490   3.268
 4590SOL    HW114669   4.009   6.403   3.296
 4590SOL    HW214670   4.077   6.542   3.349
 4591SOL     OW14671   5.930   6.254   5.021
 4591SOL    HW114672   5.834   6.240   5.047
 4591SOL    HW214673   5.988   6.244   5.102
 4592SOL     OW14674   3.662   1.295   5.616
 4592SOL    HW114675   3.678   1.234   5.694
 4592SOL    HW214676   3.569   1.333   5.622
 4593SOL     OW14677   5.048   6.740   1.864
 4593SOL    HW114678   5.106   6.699   1.935
 4593SOL    HW214679   4.954   6.746   1.897
 4594SOL     OW14680   3.749   1.956   2.677
 4594SOL    HW114681   3.803   1.878   2.645
 4594SOL    HW214682   3.654   1.943   2.649
 4595SOL     OW14683   4.500   3.158   5.736
 4595SOL    HW114684   4.530   3.249   5.709
 4595SOL    HW214685   4.420   3.165   5.796
 4596SOL     OW14686   4.894   0.293   2.635
 4596SOL    HW114687   4.818   0.268   2.695
 4596SOL    HW214688   4.865   0.289   2.540
 4597SOL     OW14689   6.365   3.889   5.587
 4597SOL    HW114690   6.420   3.925   5.662
 4597SOL    HW214691   6.395   3.931   5.501
 4598SOL     OW14692   2.669   4.108   0.107
 4598SOL    HW114693   2.700   4.054   0.029
 4598SOL    HW214694   2.747   4.137   0.161
 4599SOL     OW14695   3.223   5.444   0.073
 4599SOL    HW114696   3.267   5.389   0.145
 4599SOL    HW214697   3.141   5.396   0.041
 4600SOL     OW14698   2.899   3.893   0.999
 4600SOL    HW114699   2.989   3.875   0.958
 4600SOL    HW214700   2.908   3.964   1.069
 4601SOL     OW14701   1.758   5.276   4.193
 4601SOL    HW114702   1.745   5.194   4.250
 4601SOL    HW214703   1.817   5.252   4.116
 4602SOL     OW14704   1.593   0.091   1.348
 4602SOL    HW114705   1.528   0.016   1.366
 4602SOL    HW214706   1.545   0.165   1.301
 4603SOL     OW14707   2.925   1.244   1.802
 4603SOL    HW114708   2.941   1.337   1.768
 4603SOL    HW214709   3.011   1.203   1.830
 4604SOL     OW14710   1.334   0.315   2.673
 4604SOL    HW114711   1.322   0.401   2.723
 4604SOL    HW214712   1.289   0.241   2.723
 4605SOL     OW14713   5.243   6.098   5.584
 4605SOL    HW114714   5.224   6.019   5.642
 4605SOL    HW214715   5.171   6.106   5.514
 4606SOL     OW14716   6.333   6.397   4.598
 4606SOL    HW114717   6.332   6.298   4.585
 4606SOL    HW214718   6.428   6.428   4.609
 4607SOL     OW14719   2.787   3.048   1.071
 4607SOL    HW114720   2.697   3.071   1.036
 4607SOL    HW214721   2.856   3.107   1.028
 4608SOL     OW14722   0.866   3.401   5.550
 4608SOL    HW114723   0.778   3.359   5.574
 4608SOL    HW214724   0.920   3.335   5.498
 4609SOL     OW14725   2.947   0.318   1.133
 4609SOL    HW114726   3.040   0.283   1.141
 4609SOL    HW214727   2.931   0.350   1.039
 4610SOL     OW14728   6.713   3.401   6.490
 4610SOL    HW114729   6.718   3.439   6.397
 4610SOL    HW214730   6.803   3.408   6.533
 4611SOL     OW14731   1.657   4.449   0.031
 4611SOL    HW114732   1.649   4.363   0.081
 4611SOL    HW214733   1.568   4.474   7.012
 4612SOL     OW14734   2.073   0.505   6.338
 4612SOL    HW114735   2.132   0.584   6.354
 4612SOL    HW214736   2.016   0.490   6.419
 4613SOL     OW14737   3.303   4.675   1.713
 4613SOL    HW114738   3.382   4.634   1.758
 4613SOL    HW214739   3.310   4.775   1.718
 4614SOL     OW14740   2.021   5.021   6.673
 4614SOL    HW114741   2.069   4.951   6.620
 4614SOL    HW214742   2.087   5.087   6.709
 4615SOL     OW14743   6.573   3.032   6.306
 4615SOL    HW114744   6.572   2.982   6.392
 4615SOL    HW214745   6.667   3.037   6.271
 4616SOL     OW14746   5.823   0.950   6.633
 4616SOL    HW114747   5.802   0.886   6.559
 4616SOL    HW214748   5.921   0.950   6.650
 4617SOL     OW14749   6.602   3.539   1.755
 4617SOL    HW114750   6.655   3.624   1.747
 4617SOL    HW214751   6.513   3.551   1.711
 4618SOL     OW14752   0.494   2.948   6.526
 4618SOL    HW114753   0.498   2.981   6.621
 4618SOL    HW214754   0.547   2.863   6.519
 4619SOL     OW14755   4.372   0.396   3.928
 4619SOL    HW114756   4.280   0.434   3.934
 4619SOL    HW214757   4.372   0.317   3.866
 4620SOL     OW14758   2.617   5.986   0.245
 4620SOL    HW114759   2.678   5.913   0.216
 4620SOL    HW214760   2.585   6.036   0.165
 4621SOL     OW14761   0.145   0.476   6.225
 4621SOL    HW114762   0.073   0.471   6.294
 4621SOL    HW214763   0.147   0.567   6.184
 4622SOL     OW14764   1.858   4.240   0.597
 4622SOL    HW114765   1.885   4.277   0.509
 4622SOL    HW214766   1.939   4.219   0.651
 4623SOL     OW14767   5.675   4.126   2.685
 4623SOL    HW114768   5.705   4.215   2.651
 4623SOL    HW214769   5.704   4.055   2.621
 4624SOL     OW14770   4.850   6.905   6.071
 4624SOL    HW114771   4.868   6.933   6.165
 4624SOL    HW214772   4.806   6.979   6.021
 4625SOL     OW14773   1.323   3.944   6.088
 4625SOL    HW114774   1.309   4.010   6.161
 4625SOL    HW214775   1.382   3.984   6.018
 4626SOL     OW14776   5.460   4.742   2.143
 4626SOL    HW114777   5.401   4.706   2.070
 4626SOL    HW214778   5.488   4.667   2.203
 4627SOL     OW14779   1.445   6.805   5.476
 4627SOL    HW114780   1.486   6.848   5.557
 4627SOL    HW214781   1.517   6.770   5.417
 4628SOL     OW14782   6.548   2.675   1.673
 4628SOL    HW114783   6.531   2.749   1.738
 4628SOL    HW214784   6.469   2.663   1.614
 4629SOL     OW14785   4.363   5.185   4.279
 4629SOL    HW114786   4.406   5.262   4.326
 4629SOL    HW214787   4.422   5.154   4.204
 4630SOL     OW14788   2.278   6.302   2.651
 4630SOL    HW114789   2.224   6.382   2.677
 4630SOL    HW214790   2.218   6.226   2.628
 4631SOL     OW14791   1.660   0.206   3.370
 4631SOL    HW114792   1.690   0.112   3.357
 4631SOL    HW214793   1.735   0.268   3.348
 4632SOL     OW14794   5.414   6.033   3.841
 4632SOL    HW114795   5.386   5.937   3.832
 4632SOL    HW214796   5.333   6.089   3.856
 4633SOL     OW14797   5.231   2.469   5.628
 4633SOL    HW114798   5.226   2.547   5.690
 4633SOL    HW214799   5.141   2.429   5.617
 4634SOL     OW14800   2.859   4.393   0.217
 4634SOL    HW114801   2.815   4.414   0.305
 4634SOL    HW214802   2.888   4.297   0.217
 4635SOL     OW14803   4.962   3.222   1.477
 4635SOL    HW114804   4.880   3.167   1.467
 4635SOL    HW214805   5.012   3.194   1.559
 4636SOL     OW14806   0.566   5.997   1.580
 4636SOL    HW114807   0.553   6.096   1.577
 4636SOL    HW214808   0.626   5.973   1.656
 4637SOL     OW14809   1.426   0.902   4.722
 4637SOL    HW114810   1.334   0.943   4.718
 4637SOL    HW214811   1.423   0.819   4.776
 4638SOL     OW14812   4.254   4.826   5.738
 4638SOL    HW114813   4.274   4.732   5.710
 4638SOL    HW214814   4.222   4.878   5.659
 4639SOL     OW14815   6.803   1.807   5.170
 4639SOL    HW114816   6.853   1.871   5.111
 4639SOL    HW214817   6.802   1.843   5.263
 4640SOL     OW14818   6.133   5.149   2.876
 4640SOL    HW114819   6.053   5.113   2.829
 4640SOL    HW214820   6.157   5.088   2.952
 4641SOL     OW14821   2.725   3.503   5.436
 4641SOL    HW114822   2.641   3.449   5.435
 4641SOL    HW214823   2.767   3.500   5.345
 4642SOL     OW14824   5.869   5.883   3.922
 4642SOL    HW114825   5.903   5.791   3.900
 4642SOL    HW214826   5.796   5.908   3.858
 4643SOL     OW14827   4.272   3.351   1.256
 4643SOL    HW114828   4.320   3.271   1.292
 4643SOL    HW214829   4.174   3.333   1.255
 4644SOL     OW14830   3.687   4.200   5.486
 4644SOL    HW114831   3.648   4.210   5.395
 4644SOL    HW214832   3.613   4.194   5.553
 4645SOL     OW14833   1.844   5.995   5.017
 4645SOL    HW114834   1.751   5.979   4.985
 4645SOL    HW214835   1.909   5.950   4.956
 4646SOL     OW14836   3.243   0.306   1.044
 4646SOL    HW114837   3.295   0.233   1.089
 4646SOL    HW214838   3.272   0.313   0.948
 4647SOL     OW14839   6.754   0.748   5.266
 4647SOL    HW114840   6.692   0.726   5.342
 4647SOL    HW214841   6.783   0.663   5.222
 4648SOL     OW14842   2.086   5.824   3.442
 4648SOL    HW114843   2.095   5.737   3.395
 4648SOL    HW214844   2.155   5.831   3.514
 4649SOL     OW14845   5.856   6.712   5.810
 4649SOL    HW114846   5.939   6.766   5.824
 4649SOL    HW214847   5.779   6.773   5.793
 4650SOL     OW14848   6.711   4.316   1.090
 4650SOL    HW114849   6.623   4.365   1.092
 4650SOL    HW214850   6.720   4.259   1.171
 4651SOL     OW14851   6.094   2.065   1.637
 4651SOL    HW114852   6.081   2.141   1.701
 4651SOL    HW214853   6.182   2.021   1.654
 4652SOL     OW14854   0.383   6.625   5.712
 4652SOL    HW114855   0.426   6.581   5.633
 4652SOL    HW214856   0.351   6.556   5.776
 4653SOL     OW14857   0.298   4.826   6.908
 4653SOL    HW114858   0.388   4.814   6.866
 4653SOL    HW214859   0.253   4.906   6.868
 4654SOL     OW14860   1.311   1.955   6.801
 4654SOL    HW114861   1.227   2.003   6.775
 4654SOL    HW214862   1.371   1.946   6.721
 4655SOL     OW14863   0.124   5.074   3.530
 4655SOL    HW114864   0.206   5.115   3.570
 4655SOL    HW214865   0.151   5.011   3.457
 4656SOL     OW14866   2.439   6.455   3.345
 4656SOL    HW114867   2.355   6.400   3.347
 4656SOL    HW214868   2.453   6.490   3.253
 4657SOL     OW14869   6.110   0.894   5.957
 4657SOL    HW114870   6.167   0.914   5.877
 4657SOL    HW214871   6.056   0.811   5.939
 4658SOL     OW14872   4.808   0.808   4.177
 4658SOL    HW114873   4.803   0.752   4.094
 4658SOL    HW214874   4.747   0.769   4.247
 4659SOL     OW14875   1.741   2.520   4.177
 4659SOL    HW114876   1.800   2.441   4.195
 4659SOL    HW214877   1.780   2.601   4.220
 4660SOL     OW14878   6.377   1.618   5.370
 4660SOL    HW114879   6.307   1.570   5.316
 4660SOL    HW214880   6.436   1.670   5.308
 4661SOL     OW14881   3.497   2.842   3.148
 4661SOL    HW114882   3.594   2.848   3.124
 4661SOL    HW214883   3.488   2.840   3.248
 4662SOL     OW14884   5.845   6.857   3.623
 4662SOL    HW114885   5.943   6.858   3.644
 4662SOL    HW214886   5.831   6.880   3.527
 4663SOL     OW14887   0.461   3.096   2.146
 4663SOL    HW114888   0.545   3.149   2.129
 4663SOL    HW214889   0.458   3.017   2.084
 4664SOL     OW14890   3.179   4.086   0.505
 4664SOL    HW114891   3.126   4.046   0.430
 4664SOL    HW214892   3.273   4.100   0.476
 4665SOL     OW14893   5.658   0.687   5.951
 4665SOL    HW114894   5.648   0.598   5.996
 4665SOL    HW214895   5.751   0.696   5.915
 4666SOL     OW14896   1.692   1.561   0.831
 4666SOL    HW114897   1.756   1.590   0.901
 4666SOL    HW214898   1.600   1.592   0.854
 4667SOL     OW14899   0.699   5.737   3.864
 4667SOL    HW114900   0.599   5.730   3.861
 4667SOL    HW214901   0.739   5.649   3.839
 4668SOL     OW14902   5.342   0.376   5.497
 4668SOL    HW114903   5.363   0.473   5.481
 4668SOL    HW214904   5.276   0.345   5.428
 4669SOL     OW14905   2.291   1.955   2.414
 4669SOL    HW114906   2.293   1.877   2.351
 4669SOL    HW214907   2.235   1.932   2.494
 4670SOL     OW14908   2.351   1.309   3.937
 4670SOL    HW114909   2.306   1.282   4.022
 4670SOL    HW214910   2.438   1.260   3.928
 4671SOL     OW14911   5.997   2.072   2.335
 4671SOL    HW114912   6.059   2.135   2.382
 4671SOL    HW214913   5.985   2.101   2.240
 4672SOL     OW14914   2.690   2.887   5.365
 4672SOL    HW114915   2.645   2.944   5.296
 4672SOL    HW214916   2.773   2.932   5.396
 4673SOL     OW14917   4.750   0.675   2.363
 4673SOL    HW114918   4.667   0.643   2.317
 4673SOL    HW214919   4.830   0.636   2.317
 4674SOL     OW14920   4.746   6.621   5.219
 4674SOL    HW114921   4.647   6.624   5.230
 4674SOL    HW214922   4.778   6.528   5.237
 4675SOL     OW14923   1.173   4.662   6.832
 4675SOL    HW114924   1.075   4.654   6.815
 4675SOL    HW214925   1.188   4.685   6.928
 4676SOL     OW14926   1.047   4.459   4.243
 4676SOL    HW114927   1.108   4.522   4.195
 4676SOL    HW214928   1.009   4.504   4.324
 4677SOL     OW14929   1.473   3.399   0.500
 4677SOL    HW114930   1.518   3.467   0.442
 4677SOL    HW214931   1.539   3.362   0.565
 4678SOL     OW14932   0.821   3.737   1.566
 4678SOL    HW114933   0.900   3.718   1.508
 4678SOL    HW214934   0.781   3.651   1.598
 4679SOL     OW14935   4.543   0.082   2.091
 4679SOL    HW114936   4.534   0.037   2.179
 4679SOL    HW214937   4.452   0.101   2.053
 4680SOL     OW14938   1.854   0.637   6.593
 4680SOL    HW114939   1.924   0.693   6.637
 4680SOL    HW214940   1.891   0.546   6.575
 4681SOL     OW14941   4.926   5.762   2.350
 4681SOL    HW114942   4.895   5.749   2.444
 4681SOL    HW214943   4.847   5.772   2.290
 4682SOL     OW14944   3.361   3.889   6.234
 4682SOL    HW114945   3.413   3.804   6.235
 4682SOL    HW214946   3.398   3.952   6.303
 4683SOL     OW14947   6.433   4.854   3.862
 4683SOL    HW114948   6.382   4.912   3.800
 4683SOL    HW214949   6.531   4.862   3.843
 4684SOL     OW14950   5.713   7.014   5.876
 4684SOL    HW114951   5.665   0.017   5.961
 4684SOL    HW214952   5.653   6.960   5.816
 4685SOL     OW14953   2.920   3.302   4.641
 4685SOL    HW114954   2.928   3.386   4.694
 4685SOL    HW214955   2.927   3.324   4.543
 4686SOL     OW14956   1.747   0.005   0.078
 4686SOL    HW114957   1.766   6.990   0.170
 4686SOL    HW214958   1.661   6.983   0.045
 4687SOL     OW14959   1.648   0.543   2.645
 4687SOL    HW114960   1.572   0.565   2.584
 4687SOL    HW214961   1.642   0.447   2.673
 4688SOL     OW14962   5.017   2.600   5.292
 4688SOL    HW114963   5.012   2.501   5.305
 4688SOL    HW214964   4.959   2.646   5.359
 4689SOL     OW14965   6.970   1.460   0.993
 4689SOL    HW114966   6.964   1.362   0.971
 4689SOL    HW214967   6.892   1.507   0.951
 4690SOL     OW14968   3.033   2.738   0.988
 4690SOL    HW114969   3.088   2.808   0.942
 4690SOL    HW214970   3.091   2.659   1.008
 4691SOL     OW14971   6.210   3.466   1.554
 4691SOL    HW114972   6.192   3.476   1.651
 4691SOL    HW214973   6.248   3.551   1.518
 4692SOL     OW14974   5.014   3.140   2.413
 4692SOL    HW114975   4.963   3.157   2.328
 4692SOL    HW214976   5.005   3.044   2.438
 4693SOL     OW14977   0.554   6.985   2.683
 4693SOL    HW114978   0.573   6.967   2.586
 4693SOL    HW214979   0.602   6.917   2.739
 4694SOL     OW14980   2.028   0.026   6.121
 4694SOL    HW114981   2.006   0.120   6.146
 4694SOL    HW214982   1.963   7.012   6.052
 4695SOL     OW14983   1.945   4.326   1.972
 4695SOL    HW114984   2.014   4.394   1.946
 4695SOL    HW214985   1.854   4.369   1.971
 4696SOL     OW14986   1.701   6.333   6.388
 4696SOL    HW114987   1.606   6.308   6.369
 4696SOL    HW214988   1.755   6.328   6.304
 4697SOL     OW14989   4.540   5.197   1.469
 4697SOL    HW114990   4.550   5.105   1.508
 4697SOL    HW214991   4.448   5.207   1.431
 4698SOL     OW14992   5.716   1.022   4.764
 4698SOL    HW114993   5.767   0.995   4.682
 4698SOL    HW214994   5.758   0.982   4.845
 4699SOL     OW14995   0.938   0.908   2.497
 4699SOL    HW114996   0.905   0.904   2.403
 4699SOL    HW214997   0.888   0.978   2.548
 4700SOL     OW14998   6.123   1.454   3.081
 4700SOL    HW114999   6.174   1.517   3.023
 4700SOL    HW215000   6.098   1.373   3.027
 4701SOL     OW15001   2.927   2.577   1.741
 4701SOL    HW115002   2.922   2.507   1.813
 4701SOL    HW215003   2.985   2.652   1.772
 4702SOL     OW15004   6.072   5.105   0.496
 4702SOL    HW115005   6.073   5.190   0.548
 4702SOL    HW215006   6.022   5.035   0.548
 4703SOL     OW15007   0.462   5.445   4.095
 4703SOL    HW115008   0.415   5.505   4.160
 4703SOL    HW215009   0.419   5.355   4.096
 4704SOL     OW15010   1.870   4.787   4.387
 4704SOL    HW115011   1.968   4.769   4.392
 4704SOL    HW215012   1.832   4.744   4.305
 4705SOL     OW15013   3.353   2.167   1.911
 4705SOL    HW115014   3.416   2.153   1.987
 4705SOL    HW215015   3.402   2.206   1.833
 4706SOL     OW15016   2.270   1.222   1.042
 4706SOL    HW115017   2.348   1.200   0.983
 4706SOL    HW215018   2.238   1.138   1.086
 4707SOL     OW15019   1.253   5.501   2.138
 4707SOL    HW115020   1.346   5.507   2.102
 4707SOL    HW215021   1.191   5.467   2.067
 4708SOL     OW15022   2.008   3.121   6.212
 4708SOL    HW115023   2.010   3.079   6.121
 4708SOL    HW215024   2.101   3.145   6.240
 4709SOL     OW15025   5.591   4.490   5.359
 4709SOL    HW115026   5.560   4.441   5.440
 4709SOL    HW215027   5.633   4.577   5.387
 4710SOL     OW15028   6.390   5.605   5.059
 4710SOL    HW115029   6.450   5.528   5.038
 4710SOL    HW215030   6.350   5.593   5.150
 4711SOL     OW15031   5.223   3.912   2.277
 4711SOL    HW115032   5.174   3.861   2.207
 4711SOL    HW215033   5.221   4.010   2.255
 4712SOL     OW15034   3.537   4.161   5.986
 4712SOL    HW115035   3.437   4.162   5.978
 4712SOL    HW215036   3.578   4.166   5.896
 4713SOL     OW15037   5.750   4.404   0.901
 4713SOL    HW115038   5.758   4.305   0.914
 4713SOL    HW215039   5.669   4.423   0.844
 4714SOL     OW15040   3.898   2.176   6.808
 4714SOL    HW115041   3.930   2.153   6.716
 4714SOL    HW215042   3.802   2.204   6.803
 4715SOL     OW15043   6.549   1.715   2.291
 4715SOL    HW115044   6.507   1.626   2.310
 4715SOL    HW215045   6.626   1.730   2.354
 4716SOL     OW15046   3.027   4.605   5.641
 4716SOL    HW115047   3.057   4.609   5.545
 4716SOL    HW215048   2.939   4.558   5.646
 4717SOL     OW15049   2.011   5.000   5.732
 4717SOL    HW115050   2.043   4.906   5.719
 4717SOL    HW215051   1.912   5.000   5.747
 4718SOL     OW15052   4.791   4.126   1.885
 4718SOL    HW115053   4.743   4.172   1.959
 4718SOL    HW215054   4.740   4.137   1.800
 4719SOL     OW15055   6.034   4.418   3.978
 4719SOL    HW115056   6.036   4.464   3.890
 4719SOL    HW215057   6.127   4.396   4.006
 4720SOL     OW15058   1.700   2.128   6.568
 4720SOL    HW115059   1.740   2.175   6.647
 4720SOL    HW215060   1.659   2.195   6.507
 4721SOL     OW15061   0.522   2.792   2.662
 4721SOL    HW115062   0.523   2.882   2.706
 4721SOL    HW215063   0.614   2.754   2.659
 4722SOL     OW15064   1.111   5.201   6.402
 4722SOL    HW115065   1.114   5.202   6.502
 4722SOL    HW215066   1.046   5.269   6.370
 4723SOL     OW15067   2.912   4.935   6.808
 4723SOL    HW115068   2.855   5.004   6.851
 4723SOL    HW215069   2.882   4.844   6.836
 4724SOL     OW15070   0.600   6.775   3.995
 4724SOL    HW115071   0.669   6.845   4.013
 4724SOL    HW215072   0.546   6.760   4.078
 4725SOL     OW15073   6.461   4.700   1.181
 4725SOL    HW115074   6.370   4.735   1.160
 4725SOL    HW215075   6.530   4.763   1.145
 4726SOL     OW15076   1.933   3.015   5.667
 4726SOL    HW115077   1.861   2.949   5.685
 4726SOL    HW215078   1.908   3.103   5.708
 4727SOL     OW15079   6.536   5.048   0.934
 4727SOL    HW115080   6.585   5.129   0.903
 4727SOL    HW215081   6.591   5.000   1.003
 4728SOL     OW15082   5.239   1.233   3.456
 4728SOL    HW115083   5.320   1.198   3.409
 4728SOL    HW215084   5.246   1.333   3.463
 4729SOL     OW15085   6.089   1.150   2.166
 4729SOL    HW115086   6.154   1.080   2.137
 4729SOL    HW215087   6.030   1.113   2.238
 4730SOL     OW15088   3.554   0.677   3.371
 4730SOL    HW115089   3.614   0.695   3.449
 4730SOL    HW215090   3.462   0.709   3.392
 4731SOL     OW15091   3.353   0.058   1.769
 4731SOL    HW115092   3.354   6.981   1.799
 4731SOL    HW215093   3.261   0.083   1.740
 4732SOL     OW15094   0.212   5.377   4.811
 4732SOL    HW115095   0.264   5.454   4.848
 4732SOL    HW215096   0.260   5.342   4.730
 4733SOL     OW15097   1.248   4.177   2.377
 4733SOL    HW115098   1.249   4.277   2.380
 4733SOL    HW215099   1.342   4.143   2.388
 4734SOL     OW15100   4.635   3.909   6.633
 4734SOL    HW115101   4.562   3.943   6.573
 4734SOL    HW215102   4.606   3.916   6.728
 4735SOL     OW15103   0.015   0.768   4.868
 4735SOL    HW115104   6.961   0.838   4.871
 4735SOL    HW215105   7.018   0.702   4.941
 4736SOL     OW15106   6.369   0.855   3.625
 4736SOL    HW115107   6.331   0.764   3.635
 4736SOL    HW215108   6.432   0.873   3.700
 4737SOL     OW15109   2.134   5.236   0.313
 4737SOL    HW115110   2.059   5.251   0.248
 4737SOL    HW215111   2.141   5.138   0.334
 4738SOL     OW15112   0.654   5.631   4.292
 4738SOL    HW115113   0.703   5.558   4.244
 4738SOL    HW215114   0.720   5.691   4.337
 4739SOL     OW15115   5.847   3.770   3.201
 4739SOL    HW115116   5.819   3.707   3.129
 4739SOL    HW215117   5.776   3.840   3.215
 4740SOL     OW15118   1.727   6.687   0.788
 4740SOL    HW115119   1.783   6.631   0.849
 4740SOL    HW215120   1.636   6.700   0.827
 4741SOL     OW15121   5.857   4.680   0.844
 4741SOL    HW115122   5.792   4.721   0.907
 4741SOL    HW215123   5.829   4.586   0.823
 4742SOL     OW15124   2.111   5.399   2.156
 4742SOL    HW115125   2.084   5.357   2.243
 4742SOL    HW215126   2.053   5.480   2.140
 4743SOL     OW15127   2.517   3.740   0.422
 4743SOL    HW115128   2.443   3.738   0.355
 4743SOL    HW215129   2.562   3.829   0.420
 4744SOL     OW15130   2.771   2.260   5.289
 4744SOL    HW115131   2.708   2.288   5.362
 4744SOL    HW215132   2.719   2.222   5.214
 4745SOL     OW15133   4.268   5.504   4.611
 4745SOL    HW115134   4.278   5.412   4.650
 4745SOL    HW215135   4.205   5.500   4.534
 4746SOL     OW15136   5.604   1.185   1.587
 4746SOL    HW115137   5.518   1.218   1.626
 4746SOL    HW215138   5.668   1.261   1.578
 4747SOL     OW15139   0.750   3.040   2.509
 4747SOL    HW115140   0.841   3.000   2.503
 4747SOL    HW215141   0.695   3.010   2.431
 4748SOL     OW15142   2.295   6.851   0.675
 4748SOL    HW115143   2.210   6.799   0.665
 4748SOL    HW215144   2.275   6.949   0.673
 4749SOL     OW15145   3.061   0.698   0.471
 4749SOL    HW115146   3.142   0.750   0.444
 4749SOL    HW215147   3.078   0.653   0.558
 4750SOL     OW15148   0.777   1.666   4.783
 4750SOL    HW115149   0.701   1.711   4.830
 4750SOL    HW215150   0.834   1.734   4.738
 4751SOL     OW15151   1.082   3.526   6.585
 4751SOL    HW115152   1.067   3.572   6.497
 4751SOL    HW215153   1.045   3.433   6.580
 4752SOL     OW15154   2.748   5.961   1.163
 4752SOL    HW115155   2.744   5.939   1.261
 4752SOL    HW215156   2.834   5.928   1.125
 4753SOL     OW15157   0.778   0.251   6.414
 4753SOL    HW115158   0.702   0.212   6.467
 4753SOL    HW215159   0.803   0.189   6.341
 4754SOL     OW15160   1.325   0.693   6.097
 4754SOL    HW115161   1.297   0.619   6.159
 4754SOL    HW215162   1.381   0.655   6.023
 4755SOL     OW15163   2.709   6.883   2.576
 4755SOL    HW115164   2.766   6.863   2.496
 4755SOL    HW215165   2.620   6.918   2.547
 4756SOL     OW15166   5.587   1.592   1.435
 4756SOL    HW115167   5.528   1.603   1.355
 4756SOL    HW215168   5.678   1.627   1.414
 4757SOL     OW15169   2.629   2.031   0.998
 4757SOL    HW115170   2.698   2.029   0.925
 4757SOL    HW215171   2.623   1.942   1.041
 4758SOL     OW15172   5.820   3.457   5.889
 4758SOL    HW115173   5.833   3.482   5.984
 4758SOL    HW215174   5.882   3.510   5.831
 4759SOL     OW15175   6.316   4.198   6.460
 4759SOL    HW115176   6.274   4.284   6.430
 4759SOL    HW215177   6.248   4.144   6.510
 4760SOL     OW15178   1.837   2.851   0.127
 4760SOL    HW115179   1.891   2.866   0.045
 4760SOL    HW215180   1.770   2.925   0.137
 4761SOL     OW15181   2.174   5.940   6.343
 4761SOL    HW115182   2.271   5.940   6.368
 4761SOL    HW215183   2.164   5.950   6.244
 4762SOL     OW15184   3.710   6.911   2.300
 4762SOL    HW115185   3.745   6.919   2.207
 4762SOL    HW215186   3.613   6.888   2.298
 4763SOL     OW15187   5.623   5.857   5.196
 4763SOL    HW115188   5.717   5.822   5.202
 4763SOL    HW215189   5.616   5.942   5.249
 4764SOL     OW15190   3.963   3.471   3.923
 4764SOL    HW115191   3.915   3.468   4.011
 4764SOL    HW215192   3.899   3.452   3.849
 4765SOL     OW15193   5.862   5.175   6.596
 4765SOL    HW115194   5.901   5.106   6.658
 4765SOL    HW215195   5.809   5.129   6.525
 4766SOL     OW15196   3.099   0.712   3.143
 4766SOL    HW115197   3.097   0.812   3.133
 4766SOL    HW215198   3.058   0.670   3.062
 4767SOL     OW15199   4.435   0.290   0.246
 4767SOL    HW115200   4.517   0.245   0.279
 4767SOL    HW215201   4.455   0.335   0.159
 4768SOL     OW15202   1.458   1.040   5.272
 4768SOL    HW115203   1.384   0.978   5.296
 4768SOL    HW215204   1.545   0.990   5.270
 4769SOL     OW15205   4.852   0.851   2.111
 4769SOL    HW115206   4.940   0.825   2.150
 4769SOL    HW215207   4.866   0.918   2.038
 4770SOL     OW15208   1.966   0.588   4.647
 4770SOL    HW115209   1.986   0.640   4.564
 4770SOL    HW215210   2.016   0.626   4.724
 4771SOL     OW15211   4.066   4.011   5.611
 4771SOL    HW115212   4.156   4.035   5.575
 4771SOL    HW215213   4.028   3.935   5.558
 4772SOL     OW15214   2.995   2.402   6.881
 4772SOL    HW115215   2.895   2.399   6.880
 4772SOL    HW215216   3.030   2.338   6.813
 4773SOL     OW15217   0.294   4.970   4.722
 4773SOL    HW115218   0.373   5.001   4.669
 4773SOL    HW215219   0.229   4.925   4.661
 4774SOL     OW15220   1.094   4.257   0.104
 4774SOL    HW115221   1.042   4.199   0.041
 4774SOL    HW215222   1.141   4.328   0.051
 4775SOL     OW15223   1.876   2.200   2.556
 4775SOL    HW115224   1.877   2.261   2.476
 4775SOL    HW215225   1.948   2.227   2.619
 4776SOL     OW15226   4.421   5.076   2.202
 4776SOL    HW115227   4.382   5.029   2.280
 4776SOL    HW215228   4.420   5.175   2.218
 4777SOL     OW15229   2.405   3.711   1.722
 4777SOL    HW115230   2.391   3.789   1.783
 4777SOL    HW215231   2.381   3.627   1.771
 4778SOL     OW15232   4.878   3.346   2.906
 4778SOL    HW115233   4.869   3.429   2.851
 4778SOL    HW215234   4.918   3.273   2.850
 4779SOL     OW15235   4.592   1.655   2.641
 4779SOL    HW115236   4.503   1.698   2.632
 4779SOL    HW215237   4.581   1.564   2.681
 4780SOL     OW15238   2.040   1.356   5.209
 4780SOL    HW115239   2.020   1.409   5.291
 4780SOL    HW215240   2.108   1.286   5.231
 4781SOL     OW15241   1.868   5.439   2.572
 4781SOL    HW115242   1.931   5.512   2.600
 4781SOL    HW215243   1.853   5.377   2.649
 4782SOL     OW15244   5.781   5.851   6.861
 4782SOL    HW115245   5.754   5.755   6.849
 4782SOL    HW215246   5.701   5.904   6.891
 4783SOL     OW15247   6.400   4.133   2.709
 4783SOL    HW115248   6.331   4.193   2.750
 4783SOL    HW215249   6.363   4.092   2.626
 4784SOL     OW15250   5.015   4.932   5.419
 4784SOL    HW115251   5.062   4.845   5.434
 4784SOL    HW215252   5.080   5.007   5.423
 4785SOL     OW15253   5.847   6.777   0.568
 4785SOL    HW115254   5.938   6.781   0.610
 4785SOL    HW215255   5.846   6.834   0.486
 4786SOL     OW15256   1.041   3.428   2.018
 4786SOL    HW115257   1.084   3.338   2.007
 4786SOL    HW215258   1.049   3.457   2.113
 4787SOL     OW15259   4.409   2.281   3.443
 4787SOL    HW115260   4.387   2.346   3.371
 4787SOL    HW215261   4.506   2.287   3.465
 4788SOL     OW15262   2.221   7.007   5.085
 4788SOL    HW115263   2.286   6.932   5.099
 4788SOL    HW215264   2.134   6.984   5.128
 4789SOL     OW15265   5.487   6.239   0.280
 4789SOL    HW115266   5.473   6.292   0.196
 4789SOL    HW215267   5.584   6.244   0.306
 4790SOL     OW15268   5.061   0.340   6.712
 4790SOL    HW115269   5.003   0.345   6.631
 4790SOL    HW215270   5.006   0.307   6.789
 4791SOL     OW15271   4.774   1.735   3.429
 4791SOL    HW115272   4.747   1.831   3.434
 4791SOL    HW215273   4.693   1.678   3.413
 4792SOL     OW15274   2.872   2.503   1.059
 4792SOL    HW115275   2.933   2.493   1.137
 4792SOL    HW215276   2.847   2.599   1.048
 4793SOL     OW15277   0.739   6.901   0.120
 4793SOL    HW115278   0.743   6.846   0.037
 4793SOL    HW215279   0.656   6.878   0.172
 4794SOL     OW15280   5.274   1.183   1.965
 4794SOL    HW115281   5.260   1.237   1.881
 4794SOL    HW215282   5.369   1.193   1.995
 4795SOL     OW15283   6.119   2.842   4.062
 4795SOL    HW115284   6.185   2.821   4.134
 4795SOL    HW215285   6.126   2.939   4.038
 4796SOL     OW15286   5.650   3.282   0.400
 4796SOL    HW115287   5.611   3.194   0.431
 4796SOL    HW215288   5.674   3.337   0.479
 4797SOL     OW15289   0.960   5.354   4.699
 4797SOL    HW115290   0.987   5.413   4.623
 4797SOL    HW215291   0.950   5.260   4.666
 4798SOL     OW15292   6.660   4.986   5.835
 4798SOL    HW115293   6.602   4.945   5.906
 4798SOL    HW215294   6.745   5.019   5.877
 4799SOL     OW15295   4.902   1.488   4.195
 4799SOL    HW115296   4.843   1.499   4.275
 4799SOL    HW215297   4.850   1.443   4.122
 4800SOL     OW15298   1.964   2.863   3.992
 4800SOL    HW115299   1.873   2.824   3.978
 4800SOL    HW215300   1.959   2.935   4.061
 4801SOL     OW15301   0.389   2.207   0.820
 4801SOL    HW115302   0.331   2.127   0.830
 4801SOL    HW215303   0.372   2.250   0.732
 4802SOL     OW15304   1.926   0.006   1.843
 4802SOL    HW115305   1.995   6.953   1.845
 4802SOL    HW215306   1.931   0.060   1.927
 4803SOL     OW15307   1.430   0.288   0.880
 4803SOL    HW115308   1.359   0.329   0.822
 4803SOL    HW215309   1.451   0.351   0.956
 4804SOL     OW15310   4.340   6.021   0.010
 4804SOL    HW115311   4.257   6.073   7.007
 4804SOL    HW215312   4.323   5.924   7.015
 4805SOL     OW15313   0.026   0.258   1.514
 4805SOL    HW115314   0.029   0.235   1.417
 4805SOL    HW215315   0.115   0.239   1.555
 4806SOL     OW15316   0.237   2.400   3.834
 4806SOL    HW115317   0.222   2.418   3.736
 4806SOL    HW215318   0.150   2.409   3.883
 4807SOL     OW15319   0.724   6.912   2.454
 4807SOL    HW115320   0.690   6.835   2.401
 4807SOL    HW215321   0.790   6.880   2.522
 4808SOL     OW15322   5.758   2.901   0.315
 4808SOL    HW115323   5.674   2.948   0.343
 4808SOL    HW215324   5.742   2.803   0.312
 4809SOL     OW15325   4.835   0.000   0.516
 4809SOL    HW115326   4.789   0.074   0.564
 4809SOL    HW215327   4.834   6.936   0.572
 4810SOL     OW15328   2.043   6.361   0.974
 4810SOL    HW115329   2.024   6.455   0.946
 4810SOL    HW215330   2.018   6.350   1.071
 4811SOL     OW15331   5.180   3.971   3.646
 4811SOL    HW115332   5.082   3.976   3.627
 4811SOL    HW215333   5.195   3.956   3.744
 4812SOL     OW15334   5.999   5.033   3.704
 4812SOL    HW115335   5.944   4.950   3.717
 4812SOL    HW215336   6.020   5.073   3.793
 4813SOL     OW15337   5.654   3.243   3.010
 4813SOL    HW115338   5.622   3.301   2.935
 4813SOL    HW215339   5.733   3.286   3.054
 4814SOL     OW15340   6.324   3.130   0.878
 4814SOL    HW115341   6.376   3.155   0.960
 4814SOL    HW215342   6.281   3.040   0.892
 4815SOL     OW15343   4.757   0.743   3.061
 4815SOL    HW115344   4.749   0.816   2.993
 4815SOL    HW215345   4.724   0.777   3.150
 4816SOL     OW15346   5.247   5.223   3.332
 4816SOL    HW115347   5.170   5.251   3.276
 4816SOL    HW215348   5.236   5.127   3.359
 4817SOL     OW15349   6.116   1.283   6.804
 4817SOL    HW115350   6.071   1.361   6.760
 4817SOL    HW215351   6.047   1.224   6.846
 4818SOL     OW15352   0.289   5.752   3.334
 4818SOL    HW115353   0.193   5.730   3.317
 4818SOL    HW215354   0.305   5.758   3.433
 4819SOL     OW15355   2.276   3.130   0.767
 4819SOL    HW115356   2.355   3.138   0.706
 4819SOL    HW215357   2.244   3.035   0.767
 4820SOL     OW15358   6.962   3.227   2.184
 4820SOL    HW115359   6.882   3.181   2.223
 4820SOL    HW215360   0.001   3.160   2.137
 4821SOL     OW15361   0.448   5.545   3.555
 4821SOL    HW115362   0.387   5.486   3.502
 4821SOL    HW215363   0.502   5.490   3.618
 4822SOL     OW15364   2.426   4.846   4.264
 4822SOL    HW115365   2.499   4.820   4.326
 4822SOL    HW215366   2.339   4.849   4.313
 4823SOL     OW15367   1.763   2.456   0.414
 4823SOL    HW115368   1.854   2.461   0.373
 4823SOL    HW215369   1.699   2.510   0.360
 4824SOL     OW15370   6.341   1.710   0.107
 4824SOL    HW115371   6.439   1.721   0.120
 4824SOL    HW215372   6.298   1.683   0.194
 4825SOL     OW15373   1.086   6.690   3.964
 4825SOL    HW115374   1.032   6.644   3.893
 4825SOL    HW215375   1.030   6.698   4.047
 4826SOL     OW15376   4.260   6.017   0.928
 4826SOL    HW115377   4.160   6.019   0.931
 4826SOL    HW215378   4.291   5.926   0.900
 4827SOL     OW15379   6.078   1.351   0.783
 4827SOL    HW115380   6.142   1.294   0.730
 4827SOL    HW215381   5.992   1.359   0.733
 4828SOL     OW15382   5.235   0.937   6.265
 4828SOL    HW115383   5.288   0.864   6.308
 4828SOL    HW215384   5.147   0.946   6.311
 4829SOL     OW15385   4.082   6.275   5.507
 4829SOL    HW115386   3.986   6.287   5.535
 4829SOL    HW215387   4.096   6.180   5.478
 4830SOL     OW15388   1.714   6.582   3.997
 4830SOL    HW115389   1.642   6.650   3.982
 4830SOL    HW215390   1.686   6.494   3.959
 4831SOL     OW15391   3.806   4.574   6.007
 4831SOL    HW115392   3.883   4.627   5.973
 4831SOL    HW215393   3.731   4.578   5.941
 4832SOL     OW15394   4.038   3.764   5.013
 4832SOL    HW115395   4.107   3.704   4.973
 4832SOL    HW215396   3.981   3.712   5.077
 4833SOL     OW15397   5.987   2.680   5.265
 4833SOL    HW115398   5.989   2.590   5.223
 4833SOL    HW215399   5.896   2.720   5.254
 4834SOL     OW15400   0.627   5.916   1.317
 4834SOL    HW115401   0.554   5.859   1.278
 4834SOL    HW215402   0.596   5.954   1.404
 4835SOL     OW15403   7.000   3.219   5.691
 4835SOL    HW115404   0.023   3.128   5.698
 4835SOL    HW215405   0.025   3.280   5.757
 4836SOL     OW15406   4.571   1.295   5.479
 4836SOL    HW115407   4.660   1.269   5.442
 4836SOL    HW215408   4.581   1.377   5.535
 4837SOL     OW15409   1.550   3.312   4.696
 4837SOL    HW115410   1.648   3.324   4.714
 4837SOL    HW215411   1.497   3.332   4.778
 4838SOL     OW15412   1.698   3.934   6.302
 4838SOL    HW115413   1.717   3.900   6.210
 4838SOL    HW215414   1.644   3.866   6.352
 4839SOL     OW15415   2.928   1.399   2.373
 4839SOL    HW115416   2.952   1.443   2.460
 4839SOL    HW215417   2.878   1.314   2.391
 4840SOL     OW15418   4.837   3.067   4.461
 4840SOL    HW115419   4.863   3.118   4.542
 4840SOL    HW215420   4.856   3.122   4.379
 4841SOL     OW15421   3.105   5.737   3.323
 4841SOL    HW115422   3.185   5.794   3.305
 4841SOL    HW215423   3.025   5.776   3.277
 4842SOL     OW15424   4.217   5.847   3.753
 4842SOL    HW115425   4.155   5.882   3.683
 4842SOL    HW215426   4.311   5.850   3.718
 4843SOL     OW15427   5.666   1.416   0.960
 4843SOL    HW115428   5.666   1.318   0.981
 4843SOL    HW215429   5.755   1.441   0.921
 4844SOL     OW15430   1.396   5.369   6.685
 4844SOL    HW115431   1.360   5.424   6.760
 4844SOL    HW215432   1.492   5.394   6.668
 4845SOL     OW15433   4.780   4.041   4.942
 4845SOL    HW115434   4.821   3.952   4.926
 4845SOL    HW215435   4.699   4.031   4.999
 4846SOL     OW15436   6.452   4.030   4.874
 4846SOL    HW115437   6.425   4.035   4.970
 4846SOL    HW215438   6.476   3.936   4.851
 4847SOL     OW15439   3.414   6.978   0.257
 4847SOL    HW115440   3.323   6.954   0.290
 4847SOL    HW215441   3.473   7.001   0.335
 4848SOL     OW15442   4.874   1.659   3.733
 4848SOL    HW115443   4.855   1.712   3.650
 4848SOL    HW215444   4.809   1.583   3.739
 4849SOL     OW15445   1.245   5.813   2.012
 4849SOL    HW115446   1.325   5.758   1.989
 4849SOL    HW215447   1.171   5.753   2.044
 4850SOL     OW15448   3.460   6.543   2.146
 4850SOL    HW115449   3.526   6.562   2.074
 4850SOL    HW215450   3.368   6.568   2.115
 4851SOL     OW15451   4.361   4.592   6.852
 4851SOL    HW115452   4.398   4.657   6.918
 4851SOL    HW215453   4.393   4.500   6.874
 4852SOL     OW15454   4.747   4.852   5.813
 4852SOL    HW115455   4.840   4.881   5.791
 4852SOL    HW215456   4.682   4.921   5.778
 4853SOL     OW15457   3.981   0.290   2.605
 4853SOL    HW115458   4.058   0.302   2.667
 4853SOL    HW215459   4.002   0.335   2.518
 4854SOL     OW15460   4.274   6.767   2.319
 4854SOL    HW115461   4.296   6.811   2.406
 4854SOL    HW215462   4.244   6.673   2.336
 4855SOL     OW15463   4.027   4.720   5.869
 4855SOL    HW115464   3.968   4.693   5.793
 4855SOL    HW215465   4.107   4.768   5.834
 4856SOL     OW15466   0.356   2.553   2.661
 4856SOL    HW115467   0.411   2.632   2.689
 4856SOL    HW215468   0.335   2.559   2.563
 4857SOL     OW15469   1.681   2.196   6.171
 4857SOL    HW115470   1.606   2.129   6.169
 4857SOL    HW215471   1.768   2.149   6.184
 4858SOL     OW15472   1.631   5.380   4.642
 4858SOL    HW115473   1.602   5.442   4.569
 4858SOL    HW215474   1.554   5.362   4.703
 4859SOL     OW15475   6.572   5.134   3.666
 4859SOL    HW115476   6.632   5.077   3.723
 4859SOL    HW215477   6.573   5.100   3.572
 4860SOL     OW15478   4.338   5.328   1.277
 4860SOL    HW115479   4.301   5.242   1.242
 4860SOL    HW215480   4.266   5.397   1.278
 4861SOL     OW15481   6.003   5.226   5.009
 4861SOL    HW115482   6.082   5.164   5.008
 4861SOL    HW215483   6.030   5.314   4.969
 4862SOL     OW15484   2.264   5.555   4.427
 4862SOL    HW115485   2.202   5.633   4.433
 4862SOL    HW215486   2.223   5.485   4.367
 4863SOL     OW15487   5.618   1.228   2.332
 4863SOL    HW115488   5.568   1.305   2.292
 4863SOL    HW215489   5.618   1.236   2.431
 4864SOL     OW15490   1.883   3.104   1.527
 4864SOL    HW115491   1.962   3.099   1.587
 4864SOL    HW215492   1.843   3.013   1.517
 4865SOL     OW15493   3.913   6.853   4.972
 4865SOL    HW115494   3.930   6.951   4.962
 4865SOL    HW215495   3.893   6.813   4.883
 4866SOL     OW15496   6.914   5.357   1.355
 4866SOL    HW115497   6.869   5.382   1.441
 4866SOL    HW215498   6.978   5.282   1.371
 4867SOL     OW15499   5.440   4.998   5.485
 4867SOL    HW115500   5.532   5.029   5.460
 4867SOL    HW215501   5.422   4.910   5.441
 4868SOL     OW15502   1.826   6.022   1.821
 4868SOL    HW115503   1.749   5.958   1.830
 4868SOL    HW215504   1.853   6.054   1.911
 4869SOL     OW15505   6.973   1.397   2.044
 4869SOL    HW115506   6.880   1.428   2.066
 4869SOL    HW215507   6.977   1.297   2.053
 4870SOL     OW15508   6.042   0.706   0.918
 4870SOL    HW115509   6.000   0.778   0.972
 4870SOL    HW215510   6.084   0.745   0.836
 4871SOL     OW15511   1.831   2.902   4.980
 4871SOL    HW115512   1.857   2.991   5.018
 4871SOL    HW215513   1.774   2.916   4.899
 4872SOL     OW15514   1.501   1.806   2.613
 4872SOL    HW115515   1.497   1.796   2.712
 4872SOL    HW215516   1.572   1.872   2.588
 4873SOL     OW15517   1.250   6.924   5.200
 4873SOL    HW115518   1.348   6.941   5.190
 4873SOL    HW215519   1.226   6.927   5.297
 4874SOL     OW15520   6.325   2.299   3.868
 4874SOL    HW115521   6.343   2.267   3.961
 4874SOL    HW215522   6.227   2.293   3.848
 4875SOL     OW15523   0.233   2.909   6.477
 4875SOL    HW115524   0.328   2.936   6.490
 4875SOL    HW215525   0.173   2.979   6.515
 4876SOL     OW15526   6.859   1.073   6.739
 4876SOL    HW115527   6.765   1.040   6.729
 4876SOL    HW215528   6.868   1.124   6.825
 4877SOL     OW15529   4.541   2.068   1.427
 4877SOL    HW115530   4.498   2.053   1.516
 4877SOL    HW215531   4.483   2.126   1.371
 4878SOL     OW15532   1.211   3.049   1.795
 4878SOL    HW115533   1.152   3.008   1.865
 4878SOL    HW215534   1.295   3.081   1.838
 4879SOL     OW15535   3.933   6.047   4.141
 4879SOL    HW115536   3.855   5.994   4.108
 4879SOL    HW215537   4.014   6.022   4.089
 4880SOL     OW15538   6.500   1.724   5.837
 4880SOL    HW115539   6.439   1.645   5.845
 4880SOL    HW215540   6.534   1.748   5.928
 4881SOL     OW15541   2.672   6.067   6.100
 4881SOL    HW115542   2.713   6.081   6.010
 4881SOL    HW215543   2.718   5.992   6.147
 4882SOL     OW15544   5.331   5.450   6.809
 4882SOL    HW115545   5.408   5.444   6.746
 4882SOL    HW215546   5.325   5.367   6.864
 4883SOL     OW15547   5.968   5.613   0.093
 4883SOL    HW115548   5.903   5.628   0.167
 4883SOL    HW215549   5.996   5.701   0.055
 4884SOL     OW15550   3.747   6.565   1.985
 4884SOL    HW115551   3.730   6.618   1.902
 4884SOL    HW215552   3.820   6.609   2.037
 4885SOL     OW15553   1.740   0.541   2.232
 4885SOL    HW115554   1.658   0.565   2.284
 4885SOL    HW215555   1.782   0.625   2.198
 4886SOL     OW15556   6.353   0.528   5.413
 4886SOL    HW115557   6.331   0.611   5.362
 4886SOL    HW215558   6.277   0.463   5.405
 4887SOL     OW15559   0.524   1.547   5.201
 4887SOL    HW115560   0.562   1.622   5.147
 4887SOL    HW215561   0.556   1.555   5.295
 4888SOL     OW15562   4.009   5.800   1.700
 4888SOL    HW115563   4.029   5.803   1.602
 4888SOL    HW215564   4.051   5.719   1.740
 4889SOL     OW15565   1.817   3.251   6.726
 4889SOL    HW115566   1.904   3.205   6.745
 4889SOL    HW215567   1.775   3.280   6.812
 4890SOL     OW15568   0.382   0.361   4.582
 4890SOL    HW115569   0.341   0.315   4.661
 4890SOL    HW215570   0.475   0.390   4.605
 4891SOL     OW15571   1.200   4.613   0.746
 4891SOL    HW115572   1.151   4.528   0.762
 4891SOL    HW215573   1.199   4.634   0.648
 4892SOL     OW15574   1.999   5.867   2.265
 4892SOL    HW115575   1.977   5.781   2.219
 4892SOL    HW215576   1.927   5.889   2.330
 4893SOL     OW15577   0.452   3.910   6.127
 4893SOL    HW115578   0.520   3.975   6.094
 4893SOL    HW215579   0.488   3.861   6.206
 4894SOL     OW15580   0.672   6.706   3.089
 4894SOL    HW115581   0.648   6.772   3.018
 4894SOL    HW215582   0.634   6.617   3.065
 4895SOL     OW15583   6.175   3.710   6.780
 4895SOL    HW115584   6.179   3.767   6.861
 4895SOL    HW215585   6.208   3.618   6.802
 4896SOL     OW15586   4.490   0.135   4.346
 4896SOL    HW115587   4.420   0.063   4.341
 4896SOL    HW215588   4.446   0.224   4.360
 4897SOL     OW15589   2.457   5.952   6.372
 4897SOL    HW115590   2.532   5.890   6.350
 4897SOL    HW215591   2.446   6.018   6.298
 4898SOL     OW15592   5.272   2.344   4.708
 4898SOL    HW115593   5.196   2.372   4.649
 4898SOL    HW215594   5.237   2.312   4.796
 4899SOL     OW15595   5.786   4.309   4.290
 4899SOL    HW115596   5.801   4.332   4.193
 4899SOL    HW215597   5.873   4.287   4.333
 4900SOL     OW15598   1.003   0.010   5.069
 4900SOL    HW115599   1.019   0.068   4.989
 4900SOL    HW215600   1.091   6.994   5.103
 4901SOL     OW15601   6.178   6.458   3.069
 4901SOL    HW115602   6.170   6.481   3.166
 4901SOL    HW215603   6.092   6.418   3.037
 4902SOL     OW15604   3.497   5.003   0.888
 4902SOL    HW115605   3.400   4.994   0.866
 4902SOL    HW215606   3.545   4.919   0.861
 4903SOL     OW15607   6.129   5.362   5.954
 4903SOL    HW115608   6.096   5.385   5.863
 4903SOL    HW215609   6.229   5.349   5.951
 4904SOL     OW15610   2.973   0.458   3.404
 4904SOL    HW115611   2.917   0.541   3.395
 4904SOL    HW215612   2.970   0.426   3.498
 4905SOL     OW15613   6.582   3.288   2.855
 4905SOL    HW115614   6.525   3.239   2.789
 4905SOL    HW215615   6.538   3.374   2.880
 4906SOL     OW15616   4.790   0.347   1.306
 4906SOL    HW115617   4.805   0.443   1.329
 4906SOL    HW215618   4.823   0.289   1.381
 4907SOL     OW15619   2.095   2.134   1.628
 4907SOL    HW115620   2.033   2.057   1.641
 4907SOL    HW215621   2.189   2.100   1.626
 4908SOL     OW15622   4.753   5.432   6.614
 4908SOL    HW115623   4.844   5.462   6.644
 4908SOL    HW215624   4.704   5.510   6.573
 4909SOL     OW15625   6.300   6.648   5.724
 4909SOL    HW115626   6.293   6.707   5.643
 4909SOL    HW215627   6.334   6.701   5.801
 4910SOL     OW15628   4.752   6.281   5.741
 4910SOL    HW115629   4.821   6.340   5.782
 4910SOL    HW215630   4.774   6.266   5.644
 4911SOL     OW15631   0.183   3.672   6.473
 4911SOL    HW115632   0.262   3.628   6.431
 4911SOL    HW215633   0.210   3.714   6.559
 4912SOL     OW15634   2.189   2.776   1.516
 4912SOL    HW115635   2.250   2.821   1.450
 4912SOL    HW215636   2.111   2.737   1.467
 4913SOL     OW15637   2.651   3.208   1.718
 4913SOL    HW115638   2.568   3.187   1.665
 4913SOL    HW215639   2.661   3.307   1.725
 4914SOL     OW15640   1.393   6.596   2.842
 4914SOL    HW115641   1.318   6.534   2.817
 4914SOL    HW215642   1.462   6.595   2.770
 4915SOL     OW15643   3.495   6.732   3.774
 4915SOL    HW115644   3.503   6.633   3.766
 4915SOL    HW215645   3.522   6.760   3.866
 4916SOL     OW15646   1.036   1.663   1.834
 4916SOL    HW115647   1.037   1.763   1.835
 4916SOL    HW215648   0.982   1.631   1.756
 4917SOL     OW15649   1.343   3.984   6.843
 4917SOL    HW115650   1.426   3.988   6.899
 4917SOL    HW215651   1.334   4.070   6.792
 4918SOL     OW15652   2.308   0.022   3.964
 4918SOL    HW115653   2.385   0.078   3.995
 4918SOL    HW215654   2.247   0.004   4.041
 4919SOL     OW15655   2.459   3.143   1.505
 4919SOL    HW115656   2.441   3.228   1.454
 4919SOL    HW215657   2.525   3.087   1.455
 4920SOL     OW15658   3.401   1.171   0.223
 4920SOL    HW115659   3.359   1.164   0.133
 4920SOL    HW215660   3.500   1.158   0.215
 4921SOL     OW15661   6.482   5.317   2.183
 4921SOL    HW115662   6.532   5.309   2.097
 4921SOL    HW215663   6.399   5.262   2.179
 4922SOL     OW15664   0.960   2.863   5.986
 4922SOL    HW115665   0.892   2.908   6.043
 4922SOL    HW215666   0.965   2.766   6.011
 4923SOL     OW15667   2.699   1.950   6.561
 4923SOL    HW115668   2.640   1.960   6.641
 4923SOL    HW215669   2.768   2.023   6.561
 4924SOL     OW15670   0.601   3.145   3.979
 4924SOL    HW115671   0.646   3.173   4.063
 4924SOL    HW215672   0.654   3.071   3.936
 4925SOL     OW15673   4.377   5.222   5.305
 4925SOL    HW115674   4.328   5.271   5.233
 4925SOL    HW215675   4.313   5.194   5.376
 4926SOL     OW15676   4.202   3.353   0.489
 4926SOL    HW115677   4.248   3.312   0.411
 4926SOL    HW215678   4.228   3.303   0.572
 4927SOL     OW15679   3.374   3.915   2.016
 4927SOL    HW115680   3.463   3.951   2.044
 4927SOL    HW215681   3.302   3.958   2.070
 4928SOL     OW15682   0.303   1.001   6.868
 4928SOL    HW115683   0.384   1.004   6.927
 4928SOL    HW215684   0.331   0.974   6.776
 4929SOL     OW15685   0.600   4.539   4.378
 4929SOL    HW115686   0.604   4.478   4.457
 4929SOL    HW215687   0.562   4.489   4.300
 4930SOL     OW15688   0.200   3.171   0.352
 4930SOL    HW115689   0.247   3.096   0.306
 4930SOL    HW215690   0.142   3.133   0.425
 4931SOL     OW15691   5.591   6.797   1.081
 4931SOL    HW115692   5.567   6.875   1.024
 4931SOL    HW215693   5.685   6.769   1.061
 4932SOL     OW15694   3.515   1.126   1.332
 4932SOL    HW115695   3.430   1.073   1.342
 4932SOL    HW215696   3.514   1.174   1.244
 4933SOL     OW15697   3.079   0.068   4.771
 4933SOL    HW115698   3.012   0.079   4.845
 4933SOL    HW215699   3.171   0.069   4.810
 4934SOL     OW15700   2.031   5.794   5.348
 4934SOL    HW115701   2.039   5.695   5.362
 4934SOL    HW215702   2.093   5.841   5.410
 4935SOL     OW15703   2.068   2.453   0.870
 4935SOL    HW115704   2.043   2.472   0.775
 4935SOL    HW215705   2.132   2.524   0.902
 4936SOL     OW15706   6.540   4.049   1.498
 4936SOL    HW115707   6.494   3.968   1.461
 4936SOL    HW215708   6.604   4.021   1.570
 4937SOL     OW15709   0.810   3.289   4.842
 4937SOL    HW115710   0.849   3.347   4.914
 4937SOL    HW215711   0.711   3.296   4.843
 4938SOL     OW15712   3.301   4.172   1.287
 4938SOL    HW115713   3.377   4.126   1.241
 4938SOL    HW215714   3.333   4.210   1.374
 4939SOL     OW15715   1.556   1.161   1.279
 4939SOL    HW115716   1.571   1.225   1.203
 4939SOL    HW215717   1.577   1.068   1.250
 4940SOL     OW15718   1.194   1.834   5.434
 4940SOL    HW115719   1.166   1.824   5.530
 4940SOL    HW215720   1.268   1.770   5.414
 4941SOL     OW15721   4.131   2.110   5.782
 4941SOL    HW115722   4.043   2.109   5.734
 4941SOL    HW215723   4.139   2.026   5.836
 4942SOL     OW15724   6.908   1.122   2.436
 4942SOL    HW115725   6.890   1.210   2.392
 4942SOL    HW215726   6.974   1.136   2.511
 4943SOL     OW15727   4.884   2.224   6.445
 4943SOL    HW115728   4.894   2.240   6.543
 4943SOL    HW215729   4.963   2.172   6.412
 4944SOL     OW15730   1.093   4.771   0.530
 4944SOL    HW115731   1.014   4.833   0.537
 4944SOL    HW215732   1.174   4.817   0.567
 4945SOL     OW15733   2.215   0.256   5.446
 4945SOL    HW115734   2.171   0.315   5.378
 4945SOL    HW215735   2.313   0.276   5.450
 4946SOL     OW15736   2.452   5.927   0.453
 4946SOL    HW115737   2.483   5.977   0.372
 4946SOL    HW215738   2.395   5.987   0.509
 4947SOL     OW15739   0.738   0.267   1.390
 4947SOL    HW115740   0.764   0.351   1.439
 4947SOL    HW215741   0.655   0.230   1.430
 4948SOL     OW15742   1.100   2.536   2.066
 4948SOL    HW115743   1.021   2.588   2.099
 4948SOL    HW215744   1.086   2.510   1.971
 4949SOL     OW15745   6.395   4.554   6.051
 4949SOL    HW115746   6.478   4.507   6.023
 4949SOL    HW215747   6.377   4.537   6.148
 4950SOL     OW15748   4.278   4.559   5.643
 4950SOL    HW115749   4.289   4.530   5.548
 4950SOL    HW215750   4.249   4.481   5.699
 4951SOL     OW15751   4.648   5.392   2.964
 4951SOL    HW115752   4.673   5.458   2.893
 4951SOL    HW215753   4.684   5.421   3.052
 4952SOL     OW15754   0.877   0.907   6.583
 4952SOL    HW115755   0.787   0.879   6.548
 4952SOL    HW215756   0.928   0.953   6.511
 4953SOL     OW15757   1.343   1.902   5.881
 4953SOL    HW115758   1.434   1.864   5.866
 4953SOL    HW215759   1.279   1.859   5.818
 4954SOL     OW15760   3.393   3.566   5.170
 4954SOL    HW115761   3.445   3.486   5.140
 4954SOL    HW215762   3.348   3.608   5.091
 4955SOL     OW15763   4.095   5.892   0.214
 4955SOL    HW115764   4.141   5.857   0.132
 4955SOL    HW215765   4.157   5.950   0.265
 4956SOL     OW15766   2.437   0.233   4.849
 4956SOL    HW115767   2.382   0.175   4.908
 4956SOL    HW215768   2.380   0.307   4.812
 4957SOL     OW15769   5.735   5.407   0.287
 4957SOL    HW115770   5.826   5.377   0.262
 4957SOL    HW215771   5.720   5.500   0.253
 4958SOL     OW15772   3.531   5.843   6.852
 4958SOL    HW115773   3.497   5.754   6.883
 4958SOL    HW215774   3.471   5.915   6.888
 4959SOL     OW15775   0.052   2.168   2.922
 4959SOL    HW115776   0.119   2.226   2.968
 4959SOL    HW215777   6.996   2.226   2.887
 4960SOL     OW15778   5.020   4.509   3.860
 4960SOL    HW115779   5.093   4.572   3.834
 4960SOL    HW215780   5.048   4.456   3.940
 4961SOL     OW15781   3.823   2.952   2.363
 4961SOL    HW115782   3.877   3.035   2.360
 4961SOL    HW215783   3.878   2.875   2.332
 4962SOL     OW15784   1.791   2.581   0.068
 4962SOL    HW115785   1.811   2.668   0.114
 4962SOL    HW215786   1.692   2.565   0.069
 4963SOL     OW15787   0.592   4.097   6.915
 4963SOL    HW115788   0.506   4.146   6.903
 4963SOL    HW215789   0.576   3.999   6.908
 4964SOL     OW15790   1.829   4.651   4.156
 4964SOL    HW115791   1.779   4.564   4.160
 4964SOL    HW215792   1.908   4.641   4.094
 4965SOL     OW15793   2.103   0.039   3.378
 4965SOL    HW115794   2.140   0.119   3.426
 4965SOL    HW215795   2.053   0.069   3.297
 4966SOL     OW15796   4.644   0.011   5.429
 4966SOL    HW115797   4.566   7.001   5.485
 4966SOL    HW215798   4.647   0.111   5.422
 4967SOL     OW15799   4.673   4.251   3.899
 4967SOL    HW115800   4.723   4.288   3.821
 4967SOL    HW215801   4.693   4.153   3.909
 4968SOL     OW15802   6.492   3.077   4.241
 4968SOL    HW115803   6.428   3.147   4.272
 4968SOL    HW215804   6.492   3.073   4.141
 4969SOL     OW15805   0.491   5.782   4.491
 4969SOL    HW115806   0.435   5.748   4.415
 4969SOL    HW215807   0.539   5.865   4.462
 4970SOL     OW15808   2.280   1.460   1.682
 4970SOL    HW115809   2.233   1.374   1.701
 4970SOL    HW215810   2.280   1.477   1.583
 4971SOL     OW15811   0.149   5.999   1.563
 4971SOL    HW115812   0.168   6.026   1.657
 4971SOL    HW215813   0.206   5.920   1.539
 4972SOL     OW15814   0.339   4.211   6.941
 4972SOL    HW115815   0.254   4.171   6.975
 4972SOL    HW215816   0.318   4.291   6.884
 4973SOL     OW15817   5.523   2.311   6.582
 4973SOL    HW115818   5.469   2.343   6.504
 4973SOL    HW215819   5.521   2.211   6.583
 4974SOL     OW15820   3.474   6.951   6.014
 4974SOL    HW115821   3.478   6.968   5.916
 4974SOL    HW215822   3.432   0.011   6.060
 4975SOL     OW15823   5.803   3.897   1.449
 4975SOL    HW115824   5.826   3.968   1.383
 4975SOL    HW215825   5.825   3.928   1.541
 4976SOL     OW15826   0.611   0.125   4.127
 4976SOL    HW115827   0.526   0.095   4.168
 4976SOL    HW215828   0.663   0.181   4.192
 4977SOL     OW15829   1.430   4.001   5.538
 4977SOL    HW115830   1.355   3.940   5.514
 4977SOL    HW215831   1.500   3.998   5.467
 4978SOL     OW15832   6.398   5.244   4.562
 4978SOL    HW115833   6.436   5.209   4.476
 4978SOL    HW215834   6.314   5.194   4.584
 4979SOL     OW15835   2.869   6.945   6.496
 4979SOL    HW115836   2.917   6.990   6.420
 4979SOL    HW215837   2.897   6.849   6.500
 4980SOL     OW15838   5.858   3.046   3.771
 4980SOL    HW115839   5.798   2.983   3.819
 4980SOL    HW215840   5.881   3.123   3.830
 4981SOL     OW15841   3.675   6.194   3.414
 4981SOL    HW115842   3.736   6.236   3.348
 4981SOL    HW215843   3.655   6.100   3.386
 4982SOL     OW15844   4.200   1.791   4.945
 4982SOL    HW115845   4.201   1.748   5.035
 4982SOL    HW215846   4.106   1.806   4.916
 4983SOL     OW15847   6.024   3.496   3.156
 4983SOL    HW115848   6.034   3.495   3.056
 4983SOL    HW215849   5.929   3.478   3.180
 4984SOL     OW15850   4.903   3.821   4.907
 4984SOL    HW115851   4.918   3.785   4.814
 4984SOL    HW215852   4.861   3.750   4.964
 4985SOL     OW15853   5.264   0.319   2.060
 4985SOL    HW115854   5.317   0.401   2.084
 4985SOL    HW215855   5.194   0.304   2.129
 4986SOL     OW15856   1.776   5.582   1.168
 4986SOL    HW115857   1.717   5.502   1.157
 4986SOL    HW215858   1.814   5.583   1.261
 4987SOL     OW15859   2.007   3.236   2.704
 4987SOL    HW115860   2.040   3.237   2.610
 4987SOL    HW215861   2.024   3.324   2.746
 4988SOL     OW15862   6.010   5.451   4.124
 4988SOL    HW115863   6.025   5.411   4.034
 4988SOL    HW215864   6.039   5.546   4.124
 4989SOL     OW15865   6.929   6.787   3.474
 4989SOL    HW115866   6.870   6.713   3.441
 4989SOL    HW215867   6.965   6.838   3.396
 4990SOL     OW15868   5.036   1.988   6.300
 4990SOL    HW115869   5.060   1.951   6.389
 4990SOL    HW215870   5.116   2.032   6.259
 4991SOL     OW15871   1.967   5.613   5.823
 4991SOL    HW115872   1.949   5.686   5.757
 4991SOL    HW215873   1.910   5.533   5.801
 4992SOL     OW15874   1.800   3.366   4.783
 4992SOL    HW115875   1.840   3.278   4.757
 4992SOL    HW215876   1.833   3.391   4.874
 4993SOL     OW15877   2.235   5.923   3.715
 4993SOL    HW115878   2.301   5.929   3.789
 4993SOL    HW215879   2.150   5.884   3.749
 4994SOL     OW15880   3.038   5.168   5.691
 4994SOL    HW115881   3.043   5.123   5.602
 4994SOL    HW215882   3.123   5.154   5.741
 4995SOL     OW15883   0.623   1.122   5.827
 4995SOL    HW115884   0.616   1.022   5.825
 4995SOL    HW215885   0.558   1.161   5.761
 4996SOL     OW15886   0.230   0.798   4.260
 4996SOL    HW115887   0.261   0.805   4.165
 4996SOL    HW215888   0.284   0.730   4.308
 4997SOL     OW15889   4.331   1.630   0.490
 4997SOL    HW115890   4.288   1.541   0.471
 4997SOL    HW215891   4.347   1.678   0.403
 4998SOL     OW15892   0.721   3.852   3.743
 4998SOL    HW115893   0.669   3.841   3.659
 4998SOL    HW215894   0.693   3.936   3.790
 4999SOL     OW15895   0.238   3.099   3.632
 4999SOL    HW115896   0.274   3.006   3.642
 4999SOL    HW215897   0.307   3.158   3.590
 5000SOL     OW15898   3.109   6.774   3.209
 5000SOL    HW115899   3.081   6.721   3.289
 5000SOL    HW215900   3.138   6.865   3.237
 5001SOL     OW15901   0.449   5.557   3.198
 5001SOL    HW115902   0.380   5.596   3.259
 5001SOL    HW215903   0.406   5.491   3.137
 5002SOL     OW15904   1.265   4.858   3.911
 5002SOL    HW115905   1.358   4.875   3.878
 5002SOL    HW215906   1.239   4.930   3.976
 5003SOL     OW15907   3.467   0.874   1.810
 5003SOL    HW115908   3.431   0.915   1.893
 5003SOL    HW215909   3.497   0.946   1.747
 5004SOL     OW15910   4.272   6.046   0.369
 5004SOL    HW115911   4.210   6.028   0.446
 5004SOL    HW215912   4.318   6.134   0.383
 5005SOL     OW15913   3.688   3.027   0.735
 5005SOL    HW115914   3.747   2.996   0.809
 5005SOL    HW215915   3.741   3.037   0.652
 5006SOL     OW15916   5.388   0.496   2.494
 5006SOL    HW115917   5.345   0.570   2.546
 5006SOL    HW215918   5.335   0.477   2.412
 5007SOL     OW15919   6.255   5.429   2.526
 5007SOL    HW115920   6.300   5.349   2.567
 5007SOL    HW215921   6.178   5.455   2.583
 5008SOL     OW15922   5.019   6.932   3.473
 5008SOL    HW115923   4.967   7.018   3.469
 5008SOL    HW215924   5.117   6.952   3.472
 5009SOL     OW15925   0.209   1.507   6.934
 5009SOL    HW115926   0.295   1.494   6.983
 5009SOL    HW215927   0.224   1.490   6.836
 5010SOL     OW15928   4.947   3.936   0.991
 5010SOL    HW115929   5.023   3.970   0.936
 5010SOL    HW215930   4.959   3.838   1.009
 5011SOL     OW15931   1.657   2.617   6.450
 5011SOL    HW115932   1.681   2.708   6.483
 5011SOL    HW215933   1.559   2.613   6.430
 5012SOL     OW15934   6.533   1.801   6.095
 5012SOL    HW115935   6.485   1.885   6.122
 5012SOL    HW215936   6.577   1.761   6.176
 5013SOL     OW15937   5.332   0.078   5.567
 5013SOL    HW115938   5.318   0.135   5.486
 5013SOL    HW215939   5.422   0.096   5.606
 5014SOL     OW15940   6.112   3.526   0.820
 5014SOL    HW115941   6.207   3.544   0.846
 5014SOL    HW215942   6.092   3.429   0.830
 5015SOL     OW15943   5.761   5.282   4.334
 5015SOL    HW115944   5.817   5.265   4.254
 5015SOL    HW215945   5.738   5.380   4.338
 5016SOL     OW15946   1.585   2.514   6.765
 5016SOL    HW115947   1.542   2.423   6.763
 5016SOL    HW215948   1.527   2.579   6.715
 5017SOL     OW15949   0.897   2.197   1.910
 5017SOL    HW115950   0.934   2.258   1.839
 5017SOL    HW215951   0.878   2.250   1.992
 5018SOL     OW15952   1.096   0.520   7.003
 5018SOL    HW115953   1.187   0.539   0.022
 5018SOL    HW215954   1.103   0.453   6.930
 5019SOL     OW15955   1.482   4.202   4.152
 5019SOL    HW115956   1.398   4.235   4.195
 5019SOL    HW215957   1.494   4.104   4.173
 5020SOL     OW15958   1.546   6.798   3.979
 5020SOL    HW115959   1.546   6.889   3.937
 5020SOL    HW215960   1.536   6.806   4.078
 5021SOL     OW15961   2.077   0.267   1.507
 5021SOL    HW115962   2.046   0.305   1.595
 5021SOL    HW215963   2.120   0.339   1.453
 5022SOL     OW15964   6.874   2.791   0.690
 5022SOL    HW115965   6.862   2.694   0.670
 5022SOL    HW215966   6.949   2.802   0.756
 5023SOL     OW15967   0.055   3.145   2.962
 5023SOL    HW115968   7.003   3.081   2.994
 5023SOL    HW215969   0.051   3.228   3.017
 5024SOL     OW15970   4.864   4.175   0.102
 5024SOL    HW115971   4.932   4.103   0.110
 5024SOL    HW215972   4.861   4.209   0.008
 5025SOL     OW15973   4.952   2.259   4.606
 5025SOL    HW115974   4.925   2.300   4.693
 5025SOL    HW215975   4.872   2.218   4.562
 5026SOL     OW15976   5.209   5.975   4.967
 5026SOL    HW115977   5.138   5.976   5.037
 5026SOL    HW215978   5.169   5.954   4.878
 5027SOL     OW15979   5.312   6.402   0.877
 5027SOL    HW115980   5.217   6.432   0.887
 5027SOL    HW215981   5.314   6.310   0.839
 5028SOL     OW15982   6.374   1.715   2.627
 5028SOL    HW115983   6.322   1.630   2.630
 5028SOL    HW215984   6.319   1.786   2.584
 5029SOL     OW15985   5.122   2.510   2.172
 5029SOL    HW115986   5.072   2.594   2.152
 5029SOL    HW215987   5.061   2.444   2.215
 5030SOL     OW15988   0.254   3.488   0.645
 5030SOL    HW115989   0.211   3.554   0.584
 5030SOL    HW215990   0.239   3.516   0.740
 5031SOL     OW15991   6.253   0.127   6.081
 5031SOL    HW115992   6.279   0.068   6.004
 5031SOL    HW215993   6.168   0.175   6.058
 5032SOL     OW15994   2.523   4.052   6.206
 5032SOL    HW115995   2.618   4.074   6.184
 5032SOL    HW215996   2.466   4.134   6.195
 5033SOL     OW15997   2.067   6.609   5.726
 5033SOL    HW115998   2.123   6.683   5.762
 5033SOL    HW215999   2.112   6.568   5.647
 5034SOL     OW16000   4.056   6.282   4.224
 5034SOL    HW116001   4.052   6.185   4.199
 5034SOL    HW216002   4.092   6.335   4.146
 5035SOL     OW16003   1.864   3.950   3.527
 5035SOL    HW116004   1.927   3.893   3.473
 5035SOL    HW216005   1.890   3.945   3.623
 5036SOL     OW16006   1.128   3.220   4.788
 5036SOL    HW116007   1.073   3.258   4.714
 5036SOL    HW216008   1.142   3.122   4.772
 5037SOL     OW16009   5.207   4.523   1.083
 5037SOL    HW116010   5.163   4.456   1.143
 5037SOL    HW216011   5.198   4.614   1.123
 5038SOL     OW16012   2.948   3.791   4.047
 5038SOL    HW116013   2.895   3.756   3.969
 5038SOL    HW216014   3.045   3.770   4.032
 5039SOL     OW16015   0.524   3.657   6.853
 5039SOL    HW116016   0.532   3.651   6.952
 5039SOL    HW216017   0.609   3.692   6.815
 5040SOL     OW16018   0.659   1.316   5.550
 5040SOL    HW116019   0.754   1.292   5.566
 5040SOL    HW216020   0.654   1.399   5.495
 5041SOL     OW16021   6.972   2.009   1.591
 5041SOL    HW116022   6.899   1.993   1.658
 5041SOL    HW216023   6.932   2.019   1.500
 5042SOL     OW16024   0.867   1.757   5.650
 5042SOL    HW116025   0.796   1.828   5.640
 5042SOL    HW216026   0.829   1.679   5.700
 5043SOL     OW16027   3.013   6.662   2.018
 5043SOL    HW116028   3.066   6.702   1.943
 5043SOL    HW216029   2.921   6.701   2.018
 5044SOL     OW16030   6.975   5.819   6.999
 5044SOL    HW116031   7.018   5.790   0.067
 5044SOL    HW216032   6.968   5.741   6.937
 5045SOL     OW16033   5.917   2.534   0.916
 5045SOL    HW116034   5.942   2.620   0.872
 5045SOL    HW216035   5.937   2.539   1.014
 5046SOL     OW16036   4.013   3.166   2.332
 5046SOL    HW116037   4.052   3.174   2.240
 5046SOL    HW216038   3.955   3.245   2.351
 5047SOL     OW16039   1.869   4.183   3.377
 5047SOL    HW116040   1.845   4.109   3.440
 5047SOL    HW216041   1.785   4.225   3.342
 5048SOL     OW16042   2.507   0.656   5.828
 5048SOL    HW116043   2.425   0.655   5.885
 5048SOL    HW216044   2.554   0.744   5.838
 5049SOL     OW16045   4.158   1.839   6.669
 5049SOL    HW116046   4.173   1.900   6.591
 5049SOL    HW216047   4.087   1.878   6.728
 5050SOL     OW16048   1.726   0.579   0.990
 5050SOL    HW116049   1.660   0.599   1.062
 5050SOL    HW216050   1.785   0.658   0.975
 5051SOL     OW16051   4.355   4.729   1.019
 5051SOL    HW116052   4.300   4.756   1.099
 5051SOL    HW216053   4.328   4.637   0.990
 5052SOL     OW16054   2.221   2.848   4.646
 5052SOL    HW116055   2.205   2.940   4.611
 5052SOL    HW216056   2.141   2.819   4.700
 5053SOL     OW16057   6.459   0.837   0.693
 5053SOL    HW116058   6.537   0.794   0.647
 5053SOL    HW216059   6.465   0.820   0.792
 5054SOL     OW16060   4.014   5.134   3.383
 5054SOL    HW116061   3.923   5.132   3.425
 5054SOL    HW216062   4.029   5.049   3.332
 5055SOL     OW16063   0.247   3.379   5.239
 5055SOL    HW116064   0.222   3.474   5.259
 5055SOL    HW216065   0.178   3.318   5.276
 5056SOL     OW16066   6.282   4.340   3.679
 5056SOL    HW116067   6.365   4.371   3.726
 5056SOL    HW216068   6.235   4.418   3.639
 5057SOL     OW16069   6.624   5.790   2.163
 5057SOL    HW116070   6.666   5.803   2.073
 5057SOL    HW216071   6.689   5.744   2.224
 5058SOL     OW16072   2.335   5.610   6.283
 5058SOL    HW116073   2.335   5.667   6.201
 5058SOL    HW216074   2.291   5.522   6.262
 5059SOL     OW16075   6.891   0.458   2.505
 5059SOL    HW116076   6.919   0.492   2.595
 5059SOL    HW216077   6.958   0.485   2.436
 5060SOL     OW16078   7.000   2.061   6.640
 5060SOL    HW116079   6.947   2.077   6.556
 5060SOL    HW216080   0.079   2.079   6.622
 5061SOL     OW16081   5.417   3.497   0.696
 5061SOL    HW116082   5.444   3.423   0.635
 5061SOL    HW216083   5.457   3.583   0.663
 5062SOL     OW16084   6.707   0.109   0.222
 5062SOL    HW116085   6.685   0.160   0.305
 5062SOL    HW216086   6.797   0.138   0.188
 5063SOL     OW16087   1.240   6.389   2.679
 5063SOL    HW116088   1.280   6.318   2.738
 5063SOL    HW216089   1.217   6.348   2.591
 5064SOL     OW16090   5.078   3.847   6.970
 5064SOL    HW116091   5.073   3.879   0.046
 5064SOL    HW216092   4.988   3.815   6.940
 5065SOL     OW16093   3.107   6.759   6.319
 5065SOL    HW116094   3.039   6.693   6.352
 5065SOL    HW216095   3.063   6.826   6.260
 5066SOL     OW16096   4.586   4.867   0.974
 5066SOL    HW116097   4.636   4.848   0.890
 5066SOL    HW216098   4.503   4.812   0.977
 5067SOL     OW16099   4.970   1.230   6.660
 5067SOL    HW116100   5.045   1.250   6.597
 5067SOL    HW216101   4.944   1.134   6.650
 5068SOL     OW16102   3.596   4.737   0.913
 5068SOL    HW116103   3.695   4.728   0.921
 5068SOL    HW216104   3.554   4.718   1.002
 5069SOL     OW16105   6.823   5.274   3.042
 5069SOL    HW116106   6.835   5.365   3.002
 5069SOL    HW216107   6.798   5.283   3.139
 5070SOL     OW16108   4.880   3.090   3.780
 5070SOL    HW116109   4.980   3.086   3.781
 5070SOL    HW216110   4.843   3.000   3.802
 5071SOL     OW16111   4.720   1.010   0.640
 5071SOL    HW116112   4.634   0.960   0.650
 5071SOL    HW216113   4.747   1.047   0.729
 5072SOL     OW16114   0.737   4.083   1.095
 5072SOL    HW116115   0.655   4.033   1.125
 5072SOL    HW216116   0.815   4.055   1.150
 5073SOL     OW16117   3.673   2.129   3.629
 5073SOL    HW116118   3.635   2.128   3.722
 5073SOL    HW216119   3.772   2.141   3.633
 5074SOL     OW16120   4.381   4.775   5.160
 5074SOL    HW116121   4.294   4.825   5.158
 5074SOL    HW216122   4.380   4.703   5.091
 5075SOL     OW16123   6.927   6.648   3.988
 5075SOL    HW116124   6.946   6.734   4.035
 5075SOL    HW216125   6.881   6.668   3.901
 5076SOL     OW16126   4.617   0.314   0.934
 5076SOL    HW116127   4.710   0.282   0.953
 5076SOL    HW216128   4.563   0.239   0.895
 5077SOL     OW16129   6.801   2.803   2.225
 5077SOL    HW116130   6.833   2.768   2.137
 5077SOL    HW216131   6.779   2.726   2.285
 5078SOL     OW16132   0.115   0.996   4.409
 5078SOL    HW116133   0.087   1.069   4.346
 5078SOL    HW216134   0.153   0.920   4.357
 5079SOL     OW16135   4.446   5.021   5.029
 5079SOL    HW116136   4.401   5.016   5.118
 5079SOL    HW216137   4.406   4.954   4.968
 5080SOL     OW16138   5.944   0.687   5.841
 5080SOL    HW116139   5.951   0.749   5.763
 5080SOL    HW216140   5.971   0.596   5.813
 5081SOL     OW16141   3.098   3.226   2.807
 5081SOL    HW116142   3.019   3.267   2.853
 5081SOL    HW216143   3.076   3.213   2.710
 5082SOL     OW16144   0.664   0.842   5.871
 5082SOL    HW116145   0.723   0.808   5.799
 5082SOL    HW216146   0.715   0.849   5.957
 5083SOL     OW16147   1.021   4.377   2.208
 5083SOL    HW116148   0.963   4.459   2.215
 5083SOL    HW216149   1.103   4.390   2.264
 5084SOL     OW16150   0.762   5.817   2.344
 5084SOL    HW116151   0.858   5.841   2.356
 5084SOL    HW216152   0.727   5.858   2.259
 5085SOL     OW16153   6.671   3.161   6.615
 5085SOL    HW116154   6.679   3.252   6.573
 5085SOL    HW216155   6.601   3.108   6.567
 5086SOL     OW16156   6.224   5.452   4.589
 5086SOL    HW116157   6.263   5.521   4.650
 5086SOL    HW216158   6.290   5.377   4.578
 5087SOL     OW16159   5.845   5.241   5.230
 5087SOL    HW116160   5.916   5.254   5.160
 5087SOL    HW216161   5.888   5.238   5.320
 5088SOL     OW16162   6.100   0.779   6.899
 5088SOL    HW116163   6.062   0.805   6.810
 5088SOL    HW216164   6.127   0.861   6.949
 5089SOL     OW16165   5.656   2.607   4.362
 5089SOL    HW116166   5.694   2.652   4.282
 5089SOL    HW216167   5.573   2.557   4.336
 5090SOL     OW16168   1.320   5.344   0.310
 5090SOL    HW116169   1.399   5.283   0.312
 5090SOL    HW216170   1.249   5.309   0.370
 5091SOL     OW16171   0.770   6.211   3.264
 5091SOL    HW116172   0.802   6.141   3.201
 5091SOL    HW216173   0.849   6.253   3.310
 5092SOL     OW16174   3.498   2.907   1.198
 5092SOL    HW116175   3.558   2.849   1.253
 5092SOL    HW216176   3.403   2.891   1.224
 5093SOL     OW16177   1.115   1.853   1.507
 5093SOL    HW116178   1.101   1.872   1.604
 5093SOL    HW216179   1.213   1.862   1.485
 5094SOL     OW16180   0.285   6.973   6.711
 5094SOL    HW116181   0.385   6.980   6.706
 5094SOL    HW216182   0.250   0.028   6.769
 5095SOL     OW16183   3.153   0.051   5.286
 5095SOL    HW116184   3.182   0.030   5.379
 5095SOL    HW216185   3.089   6.999   5.254
 5096SOL     OW16186   3.820   6.097   3.109
 5096SOL    HW116187   3.742   6.048   3.149
 5096SOL    HW216188   3.884   6.030   3.071
 5097SOL     OW16189   1.049   1.771   6.603
 5097SOL    HW116190   1.019   1.776   6.698
 5097SOL    HW216191   0.993   1.831   6.546
 5098SOL     OW16192   7.000   2.550   3.336
 5098SOL    HW116193   6.973   2.604   3.257
 5098SOL    HW216194   6.962   2.458   3.328
 5099SOL     OW16195   0.466   1.120   4.302
 5099SOL    HW116196   0.407   1.043   4.276
 5099SOL    HW216197   0.530   1.140   4.228
 5100SOL     OW16198   4.305   5.202   5.862
 5100SOL    HW116199   4.367   5.177   5.936
 5100SOL    HW216200   4.225   5.143   5.865
 5101SOL     OW16201   5.548   5.811   0.752
 5101SOL    HW116202   5.516   5.871   0.679
 5101SOL    HW216203   5.625   5.854   0.799
 5102SOL     OW16204   3.634   5.382   3.997
 5102SOL    HW116205   3.653   5.375   4.095
 5102SOL    HW216206   3.679   5.308   3.949
 5103SOL     OW16207   1.021   1.538   3.732
 5103SOL    HW116208   0.961   1.617   3.748
 5103SOL    HW216209   0.966   1.459   3.706
 5104SOL     OW16210   0.583   0.810   0.891
 5104SOL    HW116211   0.647   0.852   0.826
 5104SOL    HW216212   0.605   0.713   0.901
 5105SOL     OW16213   1.147   2.846   6.352
 5105SOL    HW116214   1.098   2.899   6.421
 5105SOL    HW216215   1.184   2.908   6.282
 5106SOL     OW16216   2.315   6.799   2.293
 5106SOL    HW116217   2.316   6.738   2.372
 5106SOL    HW216218   2.381   6.767   2.225
 5107SOL     OW16219   2.136   6.902   6.778
 5107SOL    HW116220   2.069   6.876   6.708
 5107SOL    HW216221   2.089   6.923   6.864
 5108SOL     OW16222   3.294   4.056   4.653
 5108SOL    HW116223   3.198   4.070   4.678
 5108SOL    HW216224   3.300   4.041   4.554
 5109SOL     OW16225   6.817   2.241   2.805
 5109SOL    HW116226   6.859   2.244   2.714
 5109SOL    HW216227   6.725   2.204   2.798
 5110SOL     OW16228   2.220   6.110   5.274
 5110SOL    HW116229   2.299   6.054   5.299
 5110SOL    HW216230   2.221   6.195   5.326
 5111SOL     OW16231   1.910   0.341   6.932
 5111SOL    HW116232   1.985   0.363   6.870
 5111SOL    HW216233   1.868   0.255   6.905
 5112SOL     OW16234   0.048   6.744   2.795
 5112SOL    HW116235   0.018   6.816   2.858
 5112SOL    HW216236   0.142   6.763   2.766
 5113SOL     OW16237   0.659   0.445   6.265
 5113SOL    HW116238   0.726   0.512   6.233
 5113SOL    HW216239   0.706   0.366   6.304
 5114SOL     OW16240   4.279   5.844   6.454
 5114SOL    HW116241   4.375   5.844   6.426
 5114SOL    HW216242   4.231   5.768   6.409
 5115SOL     OW16243   2.591   3.927   5.361
 5115SOL    HW116244   2.624   4.019   5.382
 5115SOL    HW216245   2.533   3.931   5.279
 5116SOL     OW16246   6.680   3.764   1.190
 5116SOL    HW116247   6.763   3.816   1.169
 5116SOL    HW216248   6.600   3.816   1.161
 5117SOL     OW16249   2.280   4.875   2.609
 5117SOL    HW116250   2.353   4.864   2.677
 5117SOL    HW216251   2.191   4.866   2.654
 5118SOL     OW16252   4.259   0.090   1.528
 5118SOL    HW116253   4.170   0.129   1.504
 5118SOL    HW216254   4.270   0.002   1.481
 5119SOL     OW16255   6.299   0.673   2.286
 5119SOL    HW116256   6.204   0.642   2.282
 5119SOL    HW216257   6.358   0.597   2.313
 5120SOL     OW16258   3.275   1.605   1.998
 5120SOL    HW116259   3.186   1.645   1.975
 5120SOL    HW216260   3.260   1.517   2.044
 5121SOL     OW16261   0.247   3.739   4.178
 5121SOL    HW116262   0.307   3.689   4.115
 5121SOL    HW216263   0.266   3.711   4.272
 5122SOL     OW16264   2.062   5.412   3.355
 5122SOL    HW116265   2.063   5.411   3.255
 5122SOL    HW216266   1.970   5.434   3.387
 5123SOL     OW16267   6.224   3.045   2.515
 5123SOL    HW116268   6.257   2.985   2.442
 5123SOL    HW216269   6.190   3.130   2.475
 5124SOL     OW16270   3.387   6.231   0.681
 5124SOL    HW116271   3.352   6.297   0.746
 5124SOL    HW216272   3.391   6.272   0.590
 5125SOL     OW16273   0.634   2.128   5.803
 5125SOL    HW116274   0.655   2.031   5.787
 5125SOL    HW216275   0.556   2.155   5.747
 5126SOL     OW16276   4.014   1.862   0.334
 5126SOL    HW116277   4.030   1.863   0.433
 5126SOL    HW216278   4.068   1.934   0.291
 5127SOL     OW16279   4.944   3.052   6.767
 5127SOL    HW116280   4.885   2.983   6.808
 5127SOL    HW216281   4.898   3.094   6.689
 5128SOL     OW16282   0.387   0.306   6.373
 5128SOL    HW116283   0.362   0.295   6.277
 5128SOL    HW216284   0.464   0.247   6.395
 5129SOL     OW16285   4.917   3.168   3.458
 5129SOL    HW116286   4.874   3.256   3.438
 5129SOL    HW216287   4.903   3.146   3.555
 5130SOL     OW16288   2.469   6.553   5.014
 5130SOL    HW116289   2.483   6.458   5.043
 5130SOL    HW216290   2.431   6.553   4.921
 5131SOL     OW16291   3.424   4.874   2.880
 5131SOL    HW116292   3.328   4.847   2.874
 5131SOL    HW216293   3.443   4.909   2.972
 5132SOL     OW16294   3.578   2.021   6.366
 5132SOL    HW116295   3.528   1.995   6.448
 5132SOL    HW216296   3.592   2.120   6.365
 5133SOL     OW16297   4.330   4.585   6.361
 5133SOL    HW116298   4.277   4.548   6.285
 5133SOL    HW216299   4.375   4.670   6.333
 5134SOL     OW16300   5.751   5.689   0.258
 5134SOL    HW116301   5.700   5.755   0.203
 5134SOL    HW216302   5.789   5.735   0.339
 5135SOL     OW16303   0.122   3.213   1.803
 5135SOL    HW116304   0.121   3.183   1.708
 5135SOL    HW216305   0.034   3.192   1.846
 5136SOL     OW16306   0.338   0.635   4.504
 5136SOL    HW116307   0.360   0.542   4.534
 5136SOL    HW216308   0.243   0.656   4.525
 5137SOL     OW16309   5.883   0.626   2.993
 5137SOL    HW116310   5.883   0.617   3.093
 5137SOL    HW216311   5.910   0.539   2.952
 5138SOL     OW16312   3.246   3.969   2.374
 5138SOL    HW116313   3.216   4.018   2.456
 5138SOL    HW216314   3.200   3.880   2.370
 5139SOL     OW16315   5.202   0.106   5.072
 5139SOL    HW116316   5.283   0.107   5.013
 5139SOL    HW216317   5.152   0.020   5.058
 5140SOL     OW16318   2.990   3.682   6.421
 5140SOL    HW116319   2.914   3.716   6.366
 5140SOL    HW216320   3.055   3.756   6.437
 5141SOL     OW16321   0.766   3.121   1.346
 5141SOL    HW116322   0.856   3.123   1.390
 5141SOL    HW216323   0.699   3.081   1.408
 5142SOL     OW16324   0.306   6.545   2.946
 5142SOL    HW116325   0.331   6.545   3.043
 5142SOL    HW216326   0.210   6.519   2.937
 5143SOL     OW16327   6.668   6.384   2.575
 5143SOL    HW116328   6.615   6.449   2.521
 5143SOL    HW216329   6.706   6.314   2.514
 5144SOL     OW16330   2.122   2.964   5.450
 5144SOL    HW116331   2.060   2.955   5.527
 5144SOL    HW216332   2.077   2.933   5.366
 5145SOL     OW16333   1.719   5.334   5.522
 5145SOL    HW116334   1.736   5.384   5.437
 5145SOL    HW216335   1.621   5.338   5.543
 5146SOL     OW16336   6.178   5.706   6.551
 5146SOL    HW116337   6.121   5.781   6.583
 5146SOL    HW216338   6.153   5.682   6.457
 5147SOL     OW16339   5.382   1.844   3.746
 5147SOL    HW116340   5.481   1.841   3.761
 5147SOL    HW216341   5.335   1.823   3.832
 5148SOL     OW16342   6.180   1.781   0.819
 5148SOL    HW116343   6.085   1.770   0.789
 5148SOL    HW216344   6.224   1.692   0.827
 5149SOL     OW16345   3.525   5.756   3.913
 5149SOL    HW116346   3.449   5.785   3.971
 5149SOL    HW216347   3.507   5.665   3.877
 5150SOL     OW16348   6.912   0.546   3.377
 5150SOL    HW116349   7.000   0.556   3.423
 5150SOL    HW216350   6.838   0.558   3.443
 5151SOL     OW16351   5.429   5.024   1.815
 5151SOL    HW116352   5.445   5.004   1.718
 5151SOL    HW216353   5.363   5.099   1.823
 5152SOL     OW16354   2.344   2.126   0.611
 5152SOL    HW116355   2.309   2.176   0.690
 5152SOL    HW216356   2.441   2.147   0.598
 5153SOL     OW16357   2.512   2.791   0.598
 5153SOL    HW116358   2.598   2.783   0.650
 5153SOL    HW216359   2.435   2.779   0.660
 5154SOL     OW16360   0.661   2.471   0.567
 5154SOL    HW116361   0.652   2.521   0.653
 5154SOL    HW216362   0.570   2.455   0.529
 5155SOL     OW16363   1.686   0.875   0.425
 5155SOL    HW116364   1.708   0.962   0.380
 5155SOL    HW216365   1.647   0.812   0.359
 5156SOL     OW16366   4.861   5.472   6.144
 5156SOL    HW116367   4.891   5.383   6.177
 5156SOL    HW216368   4.894   5.543   6.206
 5157SOL     OW16369   3.627   1.117   2.035
 5157SOL    HW116370   3.646   1.137   2.131
 5157SOL    HW216371   3.639   1.019   2.018
 5158SOL     OW16372   1.376   2.605   2.340
 5158SOL    HW116373   1.295   2.663   2.331
 5158SOL    HW216374   1.354   2.512   2.311
 5159SOL     OW16375   6.505   2.805   5.093
 5159SOL    HW116376   6.485   2.769   5.184
 5159SOL    HW216377   6.570   2.745   5.047
 5160SOL     OW16378   6.763   6.784   2.940
 5160SOL    HW116379   6.771   6.698   2.889
 5160SOL    HW216380   6.705   6.770   3.020
 5161SOL     OW16381   0.964   2.077   6.011
 5161SOL    HW116382   0.999   2.117   6.096
 5161SOL    HW216383   0.957   1.978   6.021
 5162SOL     OW16384   0.176   6.794   5.619
 5162SOL    HW116385   0.136   6.738   5.546
 5162SOL    HW216386   0.258   6.748   5.655
 5163SOL     OW16387   3.263   0.701   1.747
 5163SOL    HW116388   3.315   0.780   1.713
 5163SOL    HW216389   3.293   0.618   1.698
 5164SOL     OW16390   2.761   3.319   0.472
 5164SOL    HW116391   2.681   3.379   0.476
 5164SOL    HW216392   2.772   3.286   0.378
 5165SOL     OW16393   1.285   5.002   5.692
 5165SOL    HW116394   1.185   5.002   5.687
 5165SOL    HW216395   1.321   4.936   5.626
 5166SOL     OW16396   6.886   5.915   5.636
 5166SOL    HW116397   6.872   5.997   5.691
 5166SOL    HW216398   6.818   5.911   5.563
 5167SOL     OW16399   6.172   3.813   5.754
 5167SOL    HW116400   6.208   3.841   5.843
 5167SOL    HW216401   6.244   3.824   5.684
 5168SOL     OW16402   4.532   1.798   3.029
 5168SOL    HW116403   4.614   1.847   3.058
 5168SOL    HW216404   4.469   1.861   2.982
 5169SOL     OW16405   5.078   5.919   4.402
 5169SOL    HW116406   5.140   5.844   4.424
 5169SOL    HW216407   5.021   5.940   4.482
 5170SOL     OW16408   1.786   3.855   6.048
 5170SOL    HW116409   1.740   3.910   5.978
 5170SOL    HW216410   1.882   3.884   6.056
 5171SOL     OW16411   2.688   6.747   5.950
 5171SOL    HW116412   2.673   6.814   6.022
 5171SOL    HW216413   2.762   6.685   5.976
 5172SOL     OW16414   5.876   5.722   5.985
 5172SOL    HW116415   5.793   5.745   6.037
 5172SOL    HW216416   5.874   5.770   5.898
 5173SOL     OW16417   3.891   6.090   4.466
 5173SOL    HW116418   3.835   6.125   4.390
 5173SOL    HW216419   3.928   6.000   4.442
 5174SOL     OW16420   0.705   6.247   2.787
 5174SOL    HW116421   0.731   6.156   2.820
 5174SOL    HW216422   0.606   6.250   2.774
 5175SOL     OW16423   2.324   1.708   6.563
 5175SOL    HW116424   2.349   1.692   6.659
 5175SOL    HW216425   2.280   1.626   6.526
 5176SOL     OW16426   5.950   6.319   6.077
 5176SOL    HW116427   6.036   6.368   6.066
 5176SOL    HW216428   5.936   6.297   6.174
 5177SOL     OW16429   5.403   5.375   0.635
 5177SOL    HW116430   5.378   5.292   0.685
 5177SOL    HW216431   5.442   5.442   0.698
 5178SOL     OW16432   0.345   3.646   1.188
 5178SOL    HW116433   0.366   3.614   1.280
 5178SOL    HW216434   0.361   3.744   1.182
 5179SOL     OW16435   4.586   5.226   2.713
 5179SOL    HW116436   4.585   5.315   2.759
 5179SOL    HW216437   4.644   5.163   2.765
 5180SOL     OW16438   2.048   4.568   1.860
 5180SOL    HW116439   2.065   4.652   1.912
 5180SOL    HW216440   2.076   4.581   1.765
 5181SOL     OW16441   6.807   1.476   5.504
 5181SOL    HW116442   6.736   1.447   5.570
 5181SOL    HW216443   6.879   1.407   5.501
 5182SOL     OW16444   2.439   6.080   2.070
 5182SOL    HW116445   2.386   6.037   1.997
 5182SOL    HW216446   2.378   6.129   2.132
 5183SOL     OW16447   4.807   2.013   3.382
 5183SOL    HW116448   4.827   2.097   3.331
 5183SOL    HW216449   4.806   2.033   3.480
 5184SOL     OW16450   2.592   1.849   2.898
 5184SOL    HW116451   2.637   1.882   2.816
 5184SOL    HW216452   2.493   1.846   2.883
 5185SOL     OW16453   6.265   0.295   1.867
 5185SOL    HW116454   6.359   0.261   1.872
 5185SOL    HW216455   6.252   0.368   1.935
 5186SOL     OW16456   6.298   2.366   6.657
 5186SOL    HW116457   6.319   2.432   6.729
 5186SOL    HW216458   6.250   2.412   6.582
 5187SOL     OW16459   1.572   4.254   5.245
 5187SOL    HW116460   1.636   4.271   5.170
 5187SOL    HW216461   1.486   4.220   5.208
 5188SOL     OW16462   6.774   0.407   1.418
 5188SOL    HW116463   6.809   0.322   1.457
 5188SOL    HW216464   6.840   0.480   1.432
 5189SOL     OW16465   5.158   6.023   6.647
 5189SOL    HW116466   5.165   5.961   6.569
 5189SOL    HW216467   5.158   6.118   6.615
 5190SOL     OW16468   1.641   4.675   0.678
 5190SOL    HW116469   1.601   4.743   0.739
 5190SOL    HW216470   1.666   4.594   0.730
 5191SOL     OW16471   2.577   4.180   1.520
 5191SOL    HW116472   2.662   4.181   1.468
 5191SOL    HW216473   2.593   4.215   1.612
 5192SOL     OW16474   0.580   4.626   2.922
 5192SOL    HW116475   0.599   4.578   3.008
 5192SOL    HW216476   0.481   4.630   2.907
 5193SOL     OW16477   4.139   0.786   5.034
 5193SOL    HW116478   4.092   0.844   4.967
 5193SOL    HW216479   4.236   0.812   5.037
 5194SOL     OW16480   4.471   1.862   4.979
 5194SOL    HW116481   4.403   1.864   5.052
 5194SOL    HW216482   4.445   1.794   4.910
 5195SOL     OW16483   1.642   1.255   5.764
 5195SOL    HW116484   1.580   1.306   5.704
 5195SOL    HW216485   1.610   1.161   5.774
 5196SOL     OW16486   5.654   6.291   3.058
 5196SOL    HW116487   5.644   6.271   3.156
 5196SOL    HW216488   5.564   6.308   3.018
 5197SOL     OW16489   1.625   3.619   4.919
 5197SOL    HW116490   1.580   3.696   4.876
 5197SOL    HW216491   1.674   3.566   4.849
 5198SOL     OW16492   6.238   5.720   3.790
 5198SOL    HW116493   6.208   5.815   3.776
 5198SOL    HW216494   6.221   5.668   3.707
 5199SOL     OW16495   0.539   5.116   1.234
 5199SOL    HW116496   0.612   5.082   1.175
 5199SOL    HW216497   0.578   5.178   1.303
 5200SOL     OW16498   6.235   3.681   5.262
 5200SOL    HW116499   6.156   3.693   5.201
 5200SOL    HW216500   6.291   3.605   5.229
 5201SOL     OW16501   1.066   6.283   4.445
 5201SOL    HW116502   1.077   6.216   4.373
 5201SOL    HW216503   0.975   6.274   4.486
 5202SOL     OW16504   6.963   4.429   1.046
 5202SOL    HW116505   6.964   4.527   1.026
 5202SOL    HW216506   6.869   4.396   1.049
 5203SOL     OW16507   6.360   3.150   6.942
 5203SOL    HW116508   6.323   3.163   6.849
 5203SOL    HW216509   6.450   3.193   6.949
 5204SOL     OW16510   5.257   5.509   6.369
 5204SOL    HW116511   5.350   5.541   6.357
 5204SOL    HW216512   5.258   5.412   6.394
 5205SOL     OW16513   2.658   6.384   0.114
 5205SOL    HW116514   2.747   6.389   0.159
 5205SOL    HW216515   2.587   6.366   0.182
 5206SOL     OW16516   0.179   4.380   4.753
 5206SOL    HW116517   0.217   4.469   4.775
 5206SOL    HW216518   0.231   4.338   4.679
 5207SOL     OW16519   1.472   4.852   2.610
 5207SOL    HW116520   1.515   4.901   2.685
 5207SOL    HW216521   1.417   4.915   2.555
 5208SOL     OW16522   4.972   1.451   0.393
 5208SOL    HW116523   5.039   1.512   0.350
 5208SOL    HW216524   4.934   1.494   0.475
 5209SOL     OW16525   5.846   4.911   2.858
 5209SOL    HW116526   5.826   4.843   2.929
 5209SOL    HW216527   5.849   5.002   2.900
 5210SOL     OW16528   4.956   3.895   3.019
 5210SOL    HW116529   4.921   3.916   2.928
 5210SOL    HW216530   4.884   3.855   3.075
 5211SOL     OW16531   3.115   3.980   2.116
 5211SOL    HW116532   3.105   3.882   2.100
 5211SOL    HW216533   3.158   3.995   2.205
 5212SOL     OW16534   1.050   6.505   6.883
 5212SOL    HW116535   1.044   6.560   6.967
 5212SOL    HW216536   1.122   6.543   6.825
 5213SOL     OW16537   4.572   2.257   6.027
 5213SOL    HW116538   4.634   2.201   5.972
 5213SOL    HW216539   4.604   2.257   6.122
 5214SOL     OW16540   4.078   2.492   0.160
 5214SOL    HW116541   4.159   2.475   0.104
 5214SOL    HW216542   4.084   2.583   0.201
 5215SOL     OW16543   5.451   5.345   3.469
 5215SOL    HW116544   5.440   5.285   3.548
 5215SOL    HW216545   5.391   5.313   3.395
 5216SOL     OW16546   4.495   5.691   1.491
 5216SOL    HW116547   4.507   5.597   1.524
 5216SOL    HW216548   4.489   5.691   1.391
 5217SOL     OW16549   2.874   4.825   3.532
 5217SOL    HW116550   2.909   4.914   3.503
 5217SOL    HW216551   2.910   4.804   3.623
 5218SOL     OW16552   1.935   0.150   4.056
 5218SOL    HW116553   1.885   0.236   4.051
 5218SOL    HW216554   1.914   0.094   3.975
 5219SOL     OW16555   3.175   0.327   1.424
 5219SOL    HW116556   3.173   0.229   1.402
 5219SOL    HW216557   3.108   0.346   1.496
 5220SOL     OW16558   1.252   6.813   2.202
 5220SOL    HW116559   1.254   6.894   2.261
 5220SOL    HW216560   1.345   6.789   2.177
 5221SOL     OW16561   4.294   0.922   0.023
 5221SOL    HW116562   4.252   0.981   0.093
 5221SOL    HW216563   4.286   0.966   6.952
 5222SOL     OW16564   0.946   6.580   2.437
 5222SOL    HW116565   0.880   6.561   2.364
 5222SOL    HW216566   0.950   6.502   2.499
 5223SOL     OW16567   4.266   6.426   0.959
 5223SOL    HW116568   4.188   6.480   0.990
 5223SOL    HW216569   4.271   6.430   0.859
 5224SOL     OW16570   5.561   1.179   3.906
 5224SOL    HW116571   5.487   1.141   3.850
 5224SOL    HW216572   5.585   1.270   3.871
 5225SOL     OW16573   0.266   6.981   5.202
 5225SOL    HW116574   0.353   7.001   5.247
 5225SOL    HW216575   0.226   0.048   5.167
 5226SOL     OW16576   2.500   0.538   4.115
 5226SOL    HW116577   2.587   0.490   4.104
 5226SOL    HW216578   2.431   0.496   4.055
 5227SOL     OW16579   4.904   3.573   4.110
 5227SOL    HW116580   4.910   3.670   4.134
 5227SOL    HW216581   4.842   3.561   4.032
 5228SOL     OW16582   5.318   0.985   1.632
 5228SOL    HW116583   5.224   0.951   1.622
 5228SOL    HW216584   5.367   0.927   1.697
 5229SOL     OW16585   1.189   4.332   3.866
 5229SOL    HW116586   1.192   4.417   3.815
 5229SOL    HW216587   1.113   4.334   3.930
 5230SOL     OW16588   1.285   0.971   6.137
 5230SOL    HW116589   1.216   1.024   6.088
 5230SOL    HW216590   1.271   0.873   6.121
 5231SOL     OW16591   3.075   3.437   3.650
 5231SOL    HW116592   3.059   3.507   3.581
 5231SOL    HW216593   3.052   3.347   3.612
 5232SOL     OW16594   5.594   2.973   4.759
 5232SOL    HW116595   5.503   2.982   4.721
 5232SOL    HW216596   5.631   3.064   4.780
 5233SOL     OW16597   0.500   6.982   3.039
 5233SOL    HW116598   0.520   0.045   2.985
 5233SOL    HW216599   0.453   7.008   3.123
 5234SOL     OW16600   4.206   5.056   1.337
 5234SOL    HW116601   4.107   5.070   1.333
 5234SOL    HW216602   4.229   4.968   1.295
 5235SOL     OW16603   0.771   2.959   1.603
 5235SOL    HW116604   0.774   2.878   1.662
 5235SOL    HW216605   0.865   2.989   1.584
 5236SOL     OW16606   6.243   3.402   0.256
 5236SOL    HW116607   6.284   3.460   0.186
 5236SOL    HW216608   6.217   3.314   0.215
 5237SOL     OW16609   1.962   1.505   3.141
 5237SOL    HW116610   1.908   1.491   3.059
 5237SOL    HW216611   1.915   1.567   3.203
 5238SOL     OW16612   2.243   3.340   0.941
 5238SOL    HW116613   2.245   3.266   0.875
 5238SOL    HW216614   2.253   3.428   0.894
 5239SOL     OW16615   3.078   3.171   4.803
 5239SOL    HW116616   3.030   3.157   4.890
 5239SOL    HW216617   3.020   3.224   4.742
 5240SOL     OW16618   3.435   2.033   4.909
 5240SOL    HW116619   3.415   2.093   4.986
 5240SOL    HW216620   3.352   2.018   4.855
 5241SOL     OW16621   2.836   5.300   5.561
 5241SOL    HW116622   2.824   5.251   5.475
 5241SOL    HW216623   2.914   5.261   5.611
 5242SOL     OW16624   4.359   0.047   5.741
 5242SOL    HW116625   4.262   0.027   5.730
 5242SOL    HW216626   4.379   0.065   5.837
 5243SOL     OW16627   0.815   4.222   0.631
 5243SOL    HW116628   0.896   4.275   0.658
 5243SOL    HW216629   0.833   4.125   0.645
 5244SOL     OW16630   5.458   3.461   6.726
 5244SOL    HW116631   5.425   3.485   6.635
 5244SOL    HW216632   5.380   3.445   6.787
 5245SOL     OW16633   4.976   4.824   6.309
 5245SOL    HW116634   4.957   4.780   6.221
 5245SOL    HW216635   4.898   4.880   6.335
 5246SOL     OW16636   1.329   4.003   3.233
 5246SOL    HW116637   1.280   3.917   3.217
 5246SOL    HW216638   1.423   3.984   3.261
 5247SOL     OW16639   0.211   4.534   0.134
 5247SOL    HW116640   0.173   4.625   0.120
 5247SOL    HW216641   0.140   4.465   0.122
 5248SOL     OW16642   5.034   1.168   0.341
 5248SOL    HW116643   4.968   1.116   0.286
 5248SOL    HW216644   5.004   1.264   0.346
 5249SOL     OW16645   1.585   5.626   7.009
 5249SOL    HW116646   1.682   5.633   6.985
 5249SOL    HW216647   1.551   5.716   0.019
 5250SOL     OW16648   1.236   1.507   5.625
 5250SOL    HW116649   1.153   1.452   5.616
 5250SOL    HW216650   1.265   1.539   5.535
 5251SOL     OW16651   0.224   3.084   0.867
 5251SOL    HW116652   0.253   3.126   0.782
 5251SOL    HW216653   0.304   3.058   0.921
 5252SOL     OW16654   5.105   6.626   0.985
 5252SOL    HW116655   5.124   6.623   1.083
 5252SOL    HW216656   5.019   6.579   0.966
 5253SOL     OW16657   5.672   2.849   3.805
 5253SOL    HW116658   5.705   2.850   3.711
 5253SOL    HW216659   5.601   2.779   3.814
 5254SOL     OW16660   5.463   0.897   4.665
 5254SOL    HW116661   5.538   0.958   4.689
 5254SOL    HW216662   5.500   0.815   4.620
 5255SOL     OW16663   2.724   5.635   3.951
 5255SOL    HW116664   2.686   5.552   3.992
 5255SOL    HW216665   2.795   5.672   4.010
 5256SOL     OW16666   4.955   6.443   1.782
 5256SOL    HW116667   4.983   6.440   1.878
 5256SOL    HW216668   4.857   6.463   1.777
 5257SOL     OW16669   3.093   1.569   3.240
 5257SOL    HW116670   3.039   1.560   3.157
 5257SOL    HW216671   3.042   1.532   3.317
 5258SOL     OW16672   5.634   2.005   1.830
 5258SOL    HW116673   5.557   1.982   1.890
 5258SOL    HW216674   5.609   1.983   1.735
 5259SOL     OW16675   5.806   4.207   1.609
 5259SOL    HW116676   5.769   4.226   1.518
 5259SOL    HW216677   5.731   4.203   1.675
 5260SOL     OW16678   4.580   2.537   1.548
 5260SOL    HW116679   4.640   2.484   1.609
 5260SOL    HW216680   4.527   2.602   1.602
 5261SOL     OW16681   2.469   2.460   5.091
 5261SOL    HW116682   2.467   2.406   5.175
 5261SOL    HW216683   2.469   2.557   5.113
 5262SOL     OW16684   1.509   0.271   1.912
 5262SOL    HW116685   1.417   0.237   1.890
 5262SOL    HW216686   1.576   0.227   1.852
 5263SOL     OW16687   1.423   6.778   6.520
 5263SOL    HW116688   1.390   6.693   6.479
 5263SOL    HW216689   1.522   6.773   6.530
 5264SOL     OW16690   1.098   1.412   1.319
 5264SOL    HW116691   1.059   1.501   1.343
 5264SOL    HW216692   1.056   1.341   1.375
 5265SOL     OW16693   5.172   4.727   3.766
 5265SOL    HW116694   5.164   4.800   3.834
 5265SOL    HW216695   5.269   4.712   3.745
 5266SOL     OW16696   1.822   7.018   1.252
 5266SOL    HW116697   1.745   0.031   1.308
 5266SOL    HW216698   1.908   0.027   1.295
 5267SOL     OW16699   4.321   3.887   5.347
 5267SOL    HW116700   4.260   3.809   5.364
 5267SOL    HW216701   4.268   3.962   5.307
 5268SOL     OW16702   5.685   5.051   5.857
 5268SOL    HW116703   5.719   5.124   5.797
 5268SOL    HW216704   5.596   5.020   5.825
 5269SOL     OW16705   1.734   4.777   5.996
 5269SOL    HW116706   1.714   4.861   6.047
 5269SOL    HW216707   1.652   4.747   5.948
 5270SOL     OW16708   7.008   2.188   3.637
 5270SOL    HW116709   6.979   2.113   3.577
 5270SOL    HW216710   6.955   2.270   3.616
 5271SOL     OW16711   5.398   3.638   5.666
 5271SOL    HW116712   5.321   3.666   5.724
 5271SOL    HW216713   5.465   3.589   5.722
 5272SOL     OW16714   2.111   1.234   3.568
 5272SOL    HW116715   2.147   1.321   3.532
 5272SOL    HW216716   2.097   1.243   3.667
 5273SOL     OW16717   6.552   0.190   5.232
 5273SOL    HW116718   6.596   0.109   5.269
 5273SOL    HW216719   6.575   0.269   5.288
 5274SOL     OW16720   0.613   5.631   4.682
 5274SOL    HW116721   0.690   5.687   4.714
 5274SOL    HW216722   0.566   5.678   4.608
 5275SOL     OW16723   2.209   6.555   6.666
 5275SOL    HW116724   2.150   6.483   6.630
 5275SOL    HW216725   2.161   6.643   6.658
 5276SOL     OW16726   0.486   6.885   0.555
 5276SOL    HW116727   0.519   6.866   0.648
 5276SOL    HW216728   0.520   6.974   0.525
 5277SOL     OW16729   0.222   1.133   2.147
 5277SOL    HW116730   0.245   1.225   2.116
 5277SOL    HW216731   0.227   1.069   2.070
 5278SOL     OW16732   0.727   4.273   6.020
 5278SOL    HW116733   0.664   4.236   6.089
 5278SOL    HW216734   0.808   4.311   6.064
 5279SOL     OW16735   2.771   6.675   6.781
 5279SOL    HW116736   2.674   6.662   6.801
 5279SOL    HW216737   2.800   6.765   6.815
 5280SOL     OW16738   4.559   6.584   5.459
 5280SOL    HW116739   4.630   6.650   5.485
 5280SOL    HW216740   4.472   6.611   5.501
 5281SOL     OW16741   3.003   6.799   4.842
 5281SOL    HW116742   2.927   6.825   4.901
 5281SOL    HW216743   3.023   6.874   4.778
 5282SOL     OW16744   0.262   6.525   0.613
 5282SOL    HW116745   0.332   6.464   0.575
 5282SOL    HW216746   0.257   6.608   0.558
 5283SOL     OW16747   1.370   1.001   4.019
 5283SOL    HW116748   1.426   1.047   4.088
 5283SOL    HW216749   1.306   0.939   4.063
 5284SOL     OW16750   4.913   3.186   2.141
 5284SOL    HW116751   5.000   3.137   2.134
 5284SOL    HW216752   4.838   3.123   2.123
 5285SOL     OW16753   1.766   2.043   4.031
 5285SOL    HW116754   1.762   1.976   3.957
 5285SOL    HW216755   1.701   2.018   4.102
 5286SOL     OW16756   6.467   3.164   1.300
 5286SOL    HW116757   6.453   3.218   1.217
 5286SOL    HW216758   6.455   3.067   1.280
 5287SOL     OW16759   0.851   5.286   2.213
 5287SOL    HW116760   0.923   5.230   2.172
 5287SOL    HW216761   0.892   5.360   2.266
 5288SOL     OW16762   4.231   0.850   1.539
 5288SOL    HW116763   4.271   0.817   1.454
 5288SOL    HW216764   4.190   0.774   1.589
 5289SOL     OW16765   2.120   4.750   5.709
 5289SOL    HW116766   2.046   4.707   5.760
 5289SOL    HW216767   2.149   4.690   5.634
 5290SOL     OW16768   1.818   2.594   4.872
 5290SOL    HW116769   1.892   2.659   4.855
 5290SOL    HW216770   1.732   2.631   4.836
 5291SOL     OW16771   2.905   4.804   4.471
 5291SOL    HW116772   2.867   4.721   4.512
 5291SOL    HW216773   2.982   4.837   4.525
 5292SOL     OW16774   0.396   3.764   4.791
 5292SOL    HW116775   0.417   3.763   4.888
 5292SOL    HW216776   0.430   3.679   4.749
 5293SOL     OW16777   2.296   0.599   4.301
 5293SOL    HW116778   2.200   0.610   4.274
 5293SOL    HW216779   2.346   0.555   4.226
 5294SOL     OW16780   5.012   0.023   4.758
 5294SOL    HW116781   5.005   6.949   4.718
 5294SOL    HW216782   5.052   0.016   4.849
 5295SOL     OW16783   2.100   0.959   1.519
 5295SOL    HW116784   2.120   0.867   1.486
 5295SOL    HW216785   2.014   0.958   1.570
 5296SOL     OW16786   4.842   4.932   1.913
 5296SOL    HW116787   4.810   4.853   1.861
 5296SOL    HW216788   4.779   4.949   1.989
 5297SOL     OW16789   3.392   5.414   6.065
 5297SOL    HW116790   3.456   5.359   6.011
 5297SOL    HW216791   3.431   5.505   6.079
 5298SOL     OW16792   2.757   1.967   0.381
 5298SOL    HW116793   2.766   1.970   0.282
 5298SOL    HW216794   2.723   1.878   0.409
 5299SOL     OW16795   2.539   0.702   1.616
 5299SOL    HW116796   2.577   0.794   1.626
 5299SOL    HW216797   2.509   0.669   1.706
 5300SOL     OW16798   3.094   5.101   6.715
 5300SOL    HW116799   3.070   5.197   6.729
 5300SOL    HW216800   3.016   5.043   6.739
 5301SOL     OW16801   5.964   0.113   5.831
 5301SOL    HW116802   5.870   0.079   5.827
 5301SOL    HW216803   5.989   0.149   5.741
 5302SOL     OW16804   4.864   5.709   2.677
 5302SOL    HW116805   4.946   5.692   2.731
 5302SOL    HW216806   4.814   5.786   2.716
 5303SOL     OW16807   1.058   5.760   5.569
 5303SOL    HW116808   1.049   5.722   5.477
 5303SOL    HW216809   1.051   5.687   5.636
 5304SOL     OW16810   0.658   0.720   2.986
 5304SOL    HW116811   0.742   0.710   2.933
 5304SOL    HW216812   0.583   0.674   2.938
 5305SOL     OW16813   6.961   5.473   4.666
 5305SOL    HW116814   0.024   5.469   4.725
 5305SOL    HW216815   6.965   5.556   4.610
 5306SOL     OW16816   0.893   2.241   5.745
 5306SOL    HW116817   0.960   2.197   5.806
 5306SOL    HW216818   0.802   2.207   5.767
 5307SOL     OW16819   0.086   1.297   1.527
 5307SOL    HW116820   0.091   1.345   1.439
 5307SOL    HW216821   0.107   1.361   1.600
 5308SOL     OW16822   1.478   4.524   2.467
 5308SOL    HW116823   1.544   4.584   2.422
 5308SOL    HW216824   1.463   4.556   2.561
 5309SOL     OW16825   5.762   5.690   3.359
 5309SOL    HW116826   5.751   5.623   3.433
 5309SOL    HW216827   5.709   5.772   3.379
 5310SOL     OW16828   6.496   2.290   3.347
 5310SOL    HW116829   6.557   2.327   3.277
 5310SOL    HW216830   6.458   2.365   3.402
 5311SOL     OW16831   6.270   0.517   0.080
 5311SOL    HW116832   6.261   0.451   0.154
 5311SOL    HW216833   6.180   0.554   0.056
 5312SOL     OW16834   6.299   6.484   0.359
 5312SOL    HW116835   6.231   6.548   0.393
 5312SOL    HW216836   6.319   6.506   0.263
 5313SOL     OW16837   1.043   6.986   5.916
 5313SOL    HW116838   1.026   6.888   5.917
 5313SOL    HW216839   1.100   7.011   5.994
 5314SOL     OW16840   5.982   1.718   2.069
 5314SOL    HW116841   5.983   1.622   2.096
 5314SOL    HW216842   6.043   1.732   1.991
 5315SOL     OW16843   3.963   2.108   3.557
 5315SOL    HW116844   3.993   2.018   3.587
 5315SOL    HW216845   4.015   2.178   3.606
 5316SOL     OW16846   0.487   2.661   4.444
 5316SOL    HW116847   0.490   2.759   4.423
 5316SOL    HW216848   0.512   2.609   4.363
 5317SOL     OW16849   5.674   2.778   6.556
 5317SOL    HW116850   5.743   2.828   6.505
 5317SOL    HW216851   5.700   2.681   6.561
 5318SOL     OW16852   0.096   3.866   5.854
 5318SOL    HW116853   7.016   3.880   5.855
 5318SOL    HW216854   0.130   3.873   5.760
 5319SOL     OW16855   3.413   6.003   2.604
 5319SOL    HW116856   3.421   6.087   2.552
 5319SOL    HW216857   3.340   6.012   2.672
 5320SOL     OW16858   4.529   5.687   1.053
 5320SOL    HW116859   4.614   5.663   1.100
 5320SOL    HW216860   4.482   5.604   1.024
 5321SOL     OW16861   1.483   4.420   5.476
 5321SOL    HW116862   1.532   4.507   5.487
 5321SOL    HW216863   1.520   4.370   5.398
 5322SOL     OW16864   4.092   6.922   2.167
 5322SOL    HW116865   4.162   6.873   2.218
 5322SOL    HW216866   4.040   6.857   2.112
 5323SOL     OW16867   4.196   0.379   6.032
 5323SOL    HW116868   4.286   0.335   6.038
 5323SOL    HW216869   4.206   0.477   6.050
 5324SOL     OW16870   1.789   2.172   1.698
 5324SOL    HW116871   1.690   2.180   1.690
 5324SOL    HW216872   1.832   2.260   1.675
 5325SOL     OW16873   1.730   2.373   5.056
 5325SOL    HW116874   1.785   2.432   4.997
 5325SOL    HW216875   1.766   2.377   5.149
 5326SOL     OW16876   6.227   0.096   1.219
 5326SOL    HW116877   6.277   0.183   1.219
 5326SOL    HW216878   6.183   0.083   1.307
 5327SOL     OW16879   0.462   2.618   5.395
 5327SOL    HW116880   0.517   2.534   5.398
 5327SOL    HW216881   0.523   2.697   5.403
 5328SOL     OW16882   4.989   5.209   0.454
 5328SOL    HW116883   5.084   5.241   0.450
 5328SOL    HW216884   4.944   5.229   0.367
 5329SOL     OW16885   2.059   6.879   6.342
 5329SOL    HW116886   2.149   6.922   6.334
 5329SOL    HW216887   2.004   6.902   6.262
 5330SOL     OW16888   2.237   4.686   1.350
 5330SOL    HW116889   2.301   4.663   1.424
 5330SOL    HW216890   2.282   4.672   1.262
 5331SOL     OW16891   6.468   1.086   6.496
 5331SOL    HW116892   6.529   1.048   6.565
 5331SOL    HW216893   6.375   1.090   6.532
 5332SOL     OW16894   6.783   5.179   1.666
 5332SOL    HW116895   6.746   5.250   1.606
 5332SOL    HW216896   6.849   5.220   1.729
 5333SOL     OW16897   1.019   5.906   5.086
 5333SOL    HW116898   1.110   5.933   5.116
 5333SOL    HW216899   1.001   5.811   5.112
 5334SOL     OW16900   4.042   0.085   4.993
 5334SOL    HW116901   4.019   0.171   5.039
 5334SOL    HW216902   4.139   0.066   5.003
 5335SOL     OW16903   0.310   5.532   0.187
 5335SOL    HW116904   0.343   5.621   0.155
 5335SOL    HW216905   0.214   5.539   0.212
 5336SOL     OW16906   1.077   4.563   1.338
 5336SOL    HW116907   1.098   4.642   1.281
 5336SOL    HW216908   1.159   4.533   1.386
 5337SOL     OW16909   4.994   3.999   1.292
 5337SOL    HW116910   4.917   4.032   1.346
 5337SOL    HW216911   4.986   4.033   1.198
 5338SOL     OW16912   5.882   2.111   0.165
 5338SOL    HW116913   5.931   2.167   0.098
 5338SOL    HW216914   5.917   2.017   0.162
 5339SOL     OW16915   6.173   0.460   2.057
 5339SOL    HW116916   6.103   0.528   2.038
 5339SOL    HW216917   6.218   0.481   2.143
 5340SOL     OW16918   5.739   2.266   6.167
 5340SOL    HW116919   5.711   2.362   6.173
 5340SOL    HW216920   5.807   2.256   6.095
 5341SOL     OW16921   4.625   0.533   0.780
 5341SOL    HW116922   4.579   0.527   0.691
 5341SOL    HW216923   4.646   0.440   0.812
 5342SOL     OW16924   2.470   0.880   6.124
 5342SOL    HW116925   2.425   0.794   6.147
 5342SOL    HW216926   2.430   0.917   6.040
 5343SOL     OW16927   3.955   3.987   2.180
 5343SOL    HW116928   3.997   3.899   2.157
 5343SOL    HW216929   3.968   4.005   2.278
 5344SOL     OW16930   2.403   2.676   2.888
 5344SOL    HW116931   2.342   2.684   2.967
 5344SOL    HW216932   2.497   2.695   2.917
 5345SOL     OW16933   5.285   0.457   2.899
 5345SOL    HW116934   5.346   0.419   2.830
 5345SOL    HW216935   5.190   0.432   2.879
 5346SOL     OW16936   2.945   0.004   3.478
 5346SOL    HW116937   3.011   0.077   3.461
 5346SOL    HW216938   2.862   0.043   3.517
 5347SOL     OW16939   6.713   1.634   1.811
 5347SOL    HW116940   6.616   1.656   1.812
 5347SOL    HW216941   6.725   1.541   1.776
 5348SOL     OW16942   0.002   1.194   0.939
 5348SOL    HW116943   6.933   1.145   0.948
 5348SOL    HW216944   0.075   1.129   0.917
 5349SOL     OW16945   6.369   0.321   1.162
 5349SOL    HW116946   6.348   0.392   1.094
 5349SOL    HW216947   6.463   0.290   1.151
 5350SOL     OW16948   2.838   0.596   6.949
 5350SOL    HW116949   2.801   0.520   7.003
 5350SOL    HW216950   2.819   0.682   6.995
 5351SOL     OW16951   4.131   0.684   1.739
 5351SOL    HW116952   4.031   0.683   1.733
 5351SOL    HW216953   4.160   0.760   1.798
 5352SOL     OW16954   3.423   6.201   3.460
 5352SOL    HW116955   3.367   6.131   3.416
 5352SOL    HW216956   3.517   6.192   3.429
 5353SOL     OW16957   5.731   0.369   5.832
 5353SOL    HW116958   5.831   0.363   5.829
 5353SOL    HW216959   5.695   0.358   5.739
 5354SOL     OW16960   1.811   3.411   1.108
 5354SOL    HW116961   1.751   3.363   1.173
 5354SOL    HW216962   1.903   3.418   1.146
 5355SOL     OW16963   4.420   1.726   5.794
 5355SOL    HW116964   4.352   1.682   5.737
 5355SOL    HW216965   4.383   1.741   5.886
 5356SOL     OW16966   5.912   3.150   0.674
 5356SOL    HW116967   5.971   3.126   0.597
 5356SOL    HW216968   5.832   3.090   0.675
 5357SOL     OW16969   4.118   6.003   0.601
 5357SOL    HW116970   4.126   5.915   0.555
 5357SOL    HW216971   4.073   5.990   0.690
 5358SOL     OW16972   4.875   3.765   1.505
 5358SOL    HW116973   4.834   3.842   1.456
 5358SOL    HW216974   4.926   3.799   1.584
 5359SOL     OW16975   3.272   0.185   6.989
 5359SOL    HW116976   3.359   0.136   6.983
 5359SOL    HW216977   3.279   0.271   6.938
 5360SOL     OW16978   4.200   0.634   7.015
 5360SOL    HW116979   4.234   0.727   0.009
 5360SOL    HW216980   4.157   0.603   0.081
 5361SOL     OW16981   1.720   0.895   6.242
 5361SOL    HW116982   1.622   0.912   6.230
 5361SOL    HW216983   1.735   0.796   6.252
 5362SOL     OW16984   4.251   5.677   3.503
 5362SOL    HW116985   4.185   5.742   3.465
 5362SOL    HW216986   4.203   5.610   3.560
 5363SOL     OW16987   0.605   5.147   4.989
 5363SOL    HW116988   0.617   5.090   5.070
 5363SOL    HW216989   0.561   5.233   5.015
 5364SOL     OW16990   1.212   6.224   6.554
 5364SOL    HW116991   1.141   6.285   6.590
 5364SOL    HW216992   1.170   6.139   6.523
 5365SOL     OW16993   3.540   1.789   6.121
 5365SOL    HW116994   3.560   1.692   6.104
 5365SOL    HW216995   3.626   1.840   6.121
 5366SOL     OW16996   3.450   4.278   6.551
 5366SOL    HW116997   3.480   4.286   6.646
 5366SOL    HW216998   3.366   4.331   6.538
 5367SOL     OW16999   0.695   4.830   0.841
 5367SOL    HW117000   0.605   4.797   0.814
 5367SOL    HW217001   0.765   4.768   0.805
 5368SOL     OW17002   0.070   0.715   3.856
 5368SOL    HW117003   0.061   0.679   3.763
 5368SOL    HW217004   0.020   0.801   3.862
 5369SOL     OW17005   1.964   3.368   2.390
 5369SOL    HW117006   1.899   3.294   2.376
 5369SOL    HW217007   1.916   3.456   2.388
 5370SOL     OW17008   3.909   2.909   1.464
 5370SOL    HW117009   4.000   2.915   1.425
 5370SOL    HW217010   3.912   2.853   1.547
 5371SOL     OW17011   1.620   4.159   4.925
 5371SOL    HW117012   1.708   4.144   4.881
 5371SOL    HW217013   1.587   4.251   4.905
 5372SOL     OW17014   3.046   6.399   3.066
 5372SOL    HW117015   3.043   6.479   3.126
 5372SOL    HW217016   3.012   6.424   2.976
 5373SOL     OW17017   1.838   5.130   4.448
 5373SOL    HW117018   1.809   5.135   4.544
 5373SOL    HW217019   1.763   5.093   4.393
 5374SOL     OW17020   3.046   2.630   0.675
 5374SOL    HW117021   2.987   2.571   0.730
 5374SOL    HW217022   3.079   2.707   0.730
 5375SOL     OW17023   1.045   4.002   5.015
 5375SOL    HW117024   0.969   4.065   5.035
 5375SOL    HW217025   1.099   3.987   5.098
 5376SOL     OW17026   3.016   4.332   6.840
 5376SOL    HW117027   2.953   4.368   6.909
 5376SOL    HW217028   3.020   4.233   6.847
 5377SOL     OW17029   0.599   1.515   1.881
 5377SOL    HW117030   0.583   1.449   1.807
 5377SOL    HW217031   0.696   1.539   1.885
 5378SOL     OW17032   5.058   0.038   0.324
 5378SOL    HW117033   5.010   7.008   0.251
 5378SOL    HW217034   4.996   0.053   0.400
 5379SOL     OW17035   0.018   6.505   0.902
 5379SOL    HW117036   0.019   6.521   0.803
 5379SOL    HW217037   0.040   6.590   0.949
 5380SOL     OW17038   1.959   1.278   4.481
 5380SOL    HW117039   2.059   1.286   4.489
 5380SOL    HW217040   1.923   1.357   4.431
 5381SOL     OW17041   5.743   3.639   1.690
 5381SOL    HW117042   5.833   3.634   1.646
 5381SOL    HW217043   5.748   3.698   1.771
 5382SOL     OW17044   1.723   6.872   1.538
 5382SOL    HW117045   1.736   6.817   1.620
 5382SOL    HW217046   1.803   6.930   1.523
 5383SOL     OW17047   2.098   2.004   4.521
 5383SOL    HW117048   2.042   2.037   4.445
 5383SOL    HW217049   2.046   2.011   4.606
 5384SOL     OW17050   5.268   6.642   4.416
 5384SOL    HW117051   5.366   6.626   4.405
 5384SOL    HW217052   5.238   6.612   4.507
 5385SOL     OW17053   3.052   3.938   3.038
 5385SOL    HW117054   3.051   4.009   2.968
 5385SOL    HW217055   3.000   3.859   3.005
 5386SOL     OW17056   5.653   0.064   5.504
 5386SOL    HW117057   5.655   6.985   5.529
 5386SOL    HW217058   5.704   0.077   5.419
 5387SOL     OW17059   3.609   4.909   1.242
 5387SOL    HW117060   3.573   4.977   1.305
 5387SOL    HW217061   3.690   4.947   1.196
 5388SOL     OW17062   6.263   6.123   2.698
 5388SOL    HW117063   6.216   6.040   2.729
 5388SOL    HW217064   6.195   6.192   2.672
 5389SOL     OW17065   5.694   2.325   1.304
 5389SOL    HW117066   5.720   2.313   1.400
 5389SOL    HW217067   5.717   2.242   1.253
 5390SOL     OW17068   6.290   4.705   5.850
 5390SOL    HW117069   6.316   4.644   5.925
 5390SOL    HW217070   6.250   4.651   5.776
 5391SOL     OW17071   3.542   3.128   6.981
 5391SOL    HW117072   3.490   3.057   6.933
 5391SOL    HW217073   3.568   3.095   0.053
 5392SOL     OW17074   6.771   2.854   2.950
 5392SOL    HW117075   6.706   2.830   2.878
 5392SOL    HW217076   6.745   2.941   2.991
 5393SOL     OW17077   6.343   6.409   6.216
 5393SOL    HW117078   6.331   6.508   6.227
 5393SOL    HW217079   6.351   6.366   6.306
 5394SOL     OW17080   2.146   3.644   5.608
 5394SOL    HW117081   2.235   3.627   5.652
 5394SOL    HW217082   2.112   3.559   5.569
 5395SOL     OW17083   4.561   0.454   1.155
 5395SOL    HW117084   4.621   0.420   1.226
 5395SOL    HW217085   4.584   0.412   1.067
 5396SOL     OW17086   4.501   2.515   1.952
 5396SOL    HW117087   4.563   2.581   1.909
 5396SOL    HW217088   4.547   2.474   2.031
 5397SOL     OW17089   0.807   2.770   1.796
 5397SOL    HW117090   0.875   2.721   1.743
 5397SOL    HW217091   0.765   2.707   1.862
 5398SOL     OW17092   3.311   3.023   2.293
 5398SOL    HW117093   3.383   2.954   2.291
 5398SOL    HW217094   3.257   3.018   2.209
 5399SOL     OW17095   0.691   5.432   6.869
 5399SOL    HW117096   0.618   5.487   6.829
 5399SOL    HW217097   0.756   5.405   6.798
 5400SOL     OW17098   2.297   3.370   7.013
 5400SOL    HW117099   2.359   3.293   7.001
 5400SOL    HW217100   2.203   3.340   6.998
 5401SOL     OW17101   6.575   1.873   0.815
 5401SOL    HW117102   6.557   1.775   0.803
 5401SOL    HW217103   6.665   1.886   0.856
 5402SOL     OW17104   1.300   5.944   2.384
 5402SOL    HW117105   1.310   5.986   2.294
 5402SOL    HW217106   1.349   5.997   2.452
 5403SOL     OW17107   6.279   2.914   6.650
 5403SOL    HW117108   6.293   2.863   6.735
 5403SOL    HW217109   6.304   2.857   6.572
 5404SOL     OW17110   1.247   3.173   3.069
 5404SOL    HW117111   1.251   3.108   3.145
 5404SOL    HW217112   1.292   3.134   2.989
 5405SOL     OW17113   0.064   3.991   5.330
 5405SOL    HW117114   0.061   3.913   5.393
 5405SOL    HW217115   0.031   4.073   5.376
 5406SOL     OW17116   1.145   0.190   3.865
 5406SOL    HW117117   1.101   0.100   3.861
 5406SOL    HW217118   1.201   0.204   3.783
 5407SOL     OW17119   4.214   3.398   6.485
 5407SOL    HW117120   4.289   3.343   6.521
 5407SOL    HW217121   4.163   3.345   6.417
 5408SOL     OW17122   3.327   1.177   6.974
 5408SOL    HW117123   3.277   1.092   6.987
 5408SOL    HW217124   3.265   1.254   6.989
 5409SOL     OW17125   4.816   0.298   2.367
 5409SOL    HW117126   4.845   0.343   2.283
 5409SOL    HW217127   4.724   0.260   2.354
 5410SOL     OW17128   1.541   2.551   3.307
 5410SOL    HW117129   1.549   2.497   3.391
 5410SOL    HW217130   1.632   2.585   3.281
 5411SOL     OW17131   2.074   4.911   4.954
 5411SOL    HW117132   2.153   4.901   4.893
 5411SOL    HW217133   2.081   4.845   5.029
 5412SOL     OW17134   6.527   2.221   2.044
 5412SOL    HW117135   6.432   2.220   2.013
 5412SOL    HW217136   6.571   2.134   2.024
 5413SOL     OW17137   1.868   6.804   2.434
 5413SOL    HW117138   1.867   6.829   2.531
 5413SOL    HW217139   1.875   6.705   2.424
 5414SOL     OW17140   4.278   0.566   5.397
 5414SOL    HW117141   4.232   0.483   5.366
 5414SOL    HW217142   4.210   0.632   5.430
 5415SOL     OW17143   6.553   3.962   2.494
 5415SOL    HW117144   6.497   3.883   2.518
 5415SOL    HW217145   6.646   3.948   2.528
 5416SOL     OW17146   4.166   5.402   4.365
 5416SOL    HW117147   4.069   5.408   4.341
 5416SOL    HW217148   4.206   5.320   4.325
 5417SOL     OW17149   2.982   6.979   6.207
 5417SOL    HW117150   2.983   0.059   6.190
 5417SOL    HW217151   2.887   6.946   6.201
 5418SOL     OW17152   3.587   1.030   3.770
 5418SOL    HW117153   3.531   1.106   3.804
 5418SOL    HW217154   3.529   0.950   3.754
 5419SOL     OW17155   3.372   3.895   0.161
 5419SOL    HW117156   3.360   3.988   0.195
 5419SOL    HW217157   3.400   3.835   0.236
 5420SOL     OW17158   0.824   2.573   2.410
 5420SOL    HW117159   0.743   2.518   2.388
 5420SOL    HW217160   0.810   2.617   2.499
 5421SOL     OW17161   2.003   2.736   0.763
 5421SOL    HW117162   1.990   2.819   0.817
 5421SOL    HW217163   1.918   2.683   0.763
 5422SOL     OW17164   0.842   3.864   0.048
 5422SOL    HW117165   0.759   3.859   0.105
 5422SOL    HW217166   0.901   3.937   0.081
 5423SOL     OW17167   5.178   3.160   5.822
 5423SOL    HW117168   5.182   3.254   5.786
 5423SOL    HW217169   5.218   3.097   5.755
 5424SOL     OW17170   5.303   3.526   5.407
 5424SOL    HW117171   5.354   3.549   5.490
 5424SOL    HW217172   5.241   3.601   5.384
 5425SOL     OW17173   5.205   0.909   4.791
 5425SOL    HW117174   5.282   0.877   4.735
 5425SOL    HW217175   5.120   0.898   4.740
 5426SOL     OW17176   0.356   6.736   5.186
 5426SOL    HW117177   0.317   6.829   5.187
 5426SOL    HW217178   0.426   6.728   5.256
 5427SOL     OW17179   4.057   6.797   0.088
 5427SOL    HW117180   4.130   6.777   0.152
 5427SOL    HW217181   3.989   6.724   0.090
 5428SOL     OW17182   2.142   0.835   0.091
 5428SOL    HW117183   2.216   0.784   0.135
 5428SOL    HW217184   2.160   0.840   7.011
 5429SOL     OW17185   1.127   2.436   5.964
 5429SOL    HW117186   1.064   2.497   6.012
 5429SOL    HW217187   1.197   2.403   6.027
 5430SOL     OW17188   2.204   2.337   5.468
 5430SOL    HW117189   2.202   2.243   5.503
 5430SOL    HW217190   2.281   2.386   5.509
 5431SOL     OW17191   3.535   5.715   4.381
 5431SOL    HW117192   3.522   5.617   4.387
 5431SOL    HW217193   3.608   5.744   4.444
 5432SOL     OW17194   5.581   5.578   1.177
 5432SOL    HW117195   5.486   5.582   1.146
 5432SOL    HW217196   5.590   5.511   1.251
 5433SOL     OW17197   0.210   1.778   4.076
 5433SOL    HW117198   0.150   1.840   4.027
 5433SOL    HW217199   0.240   1.820   4.162
 5434SOL     OW17200   2.556   6.892   5.386
 5434SOL    HW117201   2.489   6.889   5.311
 5434SOL    HW217202   2.576   6.799   5.416
 5435SOL     OW17203   5.333   1.501   1.853
 5435SOL    HW117204   5.342   1.590   1.808
 5435SOL    HW217205   5.324   1.429   1.784
 5436SOL     OW17206   5.217   4.035   2.608
 5436SOL    HW117207   5.206   4.124   2.654
 5436SOL    HW217208   5.257   4.049   2.518
 5437SOL     OW17209   3.581   4.691   6.733
 5437SOL    HW117210   3.677   4.701   6.709
 5437SOL    HW217211   3.566   4.724   6.826
 5438SOL     OW17212   6.791   0.896   1.171
 5438SOL    HW117213   6.769   0.994   1.171
 5438SOL    HW217214   6.795   0.863   1.265
 5439SOL     OW17215   1.178   2.948   0.924
 5439SOL    HW117216   1.109   3.004   0.878
 5439SOL    HW217217   1.266   2.958   0.878
 5440SOL     OW17218   1.487   1.191   1.549
 5440SOL    HW117219   1.547   1.269   1.564
 5440SOL    HW217220   1.466   1.182   1.452
 5441SOL     OW17221   3.580   2.091   4.082
 5441SOL    HW117222   3.543   2.124   3.995
 5441SOL    HW217223   3.506   2.080   4.147
 5442SOL     OW17224   3.554   0.763   2.148
 5442SOL    HW117225   3.558   0.667   2.178
 5442SOL    HW217226   3.613   0.775   2.067
 5443SOL     OW17227   2.586   0.006   6.097
 5443SOL    HW117228   2.612   0.078   6.161
 5443SOL    HW217229   2.596   0.040   6.003
 5444SOL     OW17230   0.447   0.655   3.623
 5444SOL    HW117231   0.396   0.627   3.705
 5444SOL    HW217232   0.544   0.638   3.637
 5445SOL     OW17233   6.112   3.262   1.986
 5445SOL    HW117234   6.211   3.259   1.998
 5445SOL    HW217235   6.090   3.253   1.889
 5446SOL     OW17236   6.710   5.535   5.818
 5446SOL    HW117237   6.806   5.533   5.788
 5446SOL    HW217238   6.679   5.630   5.825
 5447SOL     OW17239   2.873   2.124   0.932
 5447SOL    HW117240   2.899   2.122   1.028
 5447SOL    HW217241   2.946   2.166   0.878
 5448SOL     OW17242   5.623   1.936   6.306
 5448SOL    HW117243   5.572   1.993   6.241
 5448SOL    HW217244   5.710   1.910   6.266
 5449SOL     OW17245   0.437   2.348   6.646
 5449SOL    HW117246   0.468   2.317   6.556
 5449SOL    HW217247   0.411   2.444   6.641
 5450SOL     OW17248   2.579   5.976   0.951
 5450SOL    HW117249   2.633   5.962   1.034
 5450SOL    HW217250   2.556   5.887   0.911
 5451SOL     OW17251   2.046   0.083   3.076
 5451SOL    HW117252   2.070   0.177   3.051
 5451SOL    HW217253   2.058   0.024   2.996
 5452SOL     OW17254   2.561   3.787   5.610
 5452SOL    HW117255   2.658   3.778   5.632
 5452SOL    HW217256   2.551   3.839   5.525
 5453SOL     OW17257   0.436   5.099   6.151
 5453SOL    HW117258   0.496   5.071   6.226
 5453SOL    HW217259   0.479   5.171   6.098
 5454SOL     OW17260   0.454   3.780   5.052
 5454SOL    HW117261   0.362   3.763   5.087
 5454SOL    HW217262   0.520   3.725   5.102
 5455SOL     OW17263   6.536   2.475   0.632
 5455SOL    HW117264   6.607   2.515   0.573
 5455SOL    HW217265   6.578   2.409   0.694
 5456SOL     OW17266   3.465   6.732   1.724
 5456SOL    HW117267   3.507   6.810   1.677
 5456SOL    HW217268   3.512   6.648   1.698
 5457SOL     OW17269   6.419   3.791   0.547
 5457SOL    HW117270   6.470   3.872   0.517
 5457SOL    HW217271   6.323   3.814   0.558
 5458SOL     OW17272   1.504   4.259   6.030
 5458SOL    HW117273   1.551   4.245   6.117
 5458SOL    HW217274   1.540   4.196   5.962
 5459SOL     OW17275   1.933   4.206   5.862
 5459SOL    HW117276   1.960   4.296   5.898
 5459SOL    HW217277   2.014   4.152   5.842
 5460SOL     OW17278   4.106   0.088   3.322
 5460SOL    HW117279   4.014   0.082   3.285
 5460SOL    HW217280   4.136   0.184   3.323
 5461SOL     OW17281   4.643   6.604   4.784
 5461SOL    HW117282   4.612   6.695   4.757
 5461SOL    HW217283   4.741   6.607   4.804
 5462SOL     OW17284   0.595   0.677   1.559
 5462SOL    HW117285   0.610   0.770   1.593
 5462SOL    HW217286   0.548   0.623   1.629
 5463SOL     OW17287   0.021   3.754   0.848
 5463SOL    HW117288   7.005   3.679   0.792
 5463SOL    HW217289   6.991   3.755   0.935
 5464SOL     OW17290   2.127   6.418   4.263
 5464SOL    HW117291   2.088   6.495   4.213
 5464SOL    HW217292   2.199   6.452   4.324
 5465SOL     OW17293   2.548   5.671   6.607
 5465SOL    HW117294   2.543   5.678   6.507
 5465SOL    HW217295   2.595   5.751   6.643
 5466SOL     OW17296   5.247   5.250   4.662
 5466SOL    HW117297   5.147   5.256   4.663
 5466SOL    HW217298   5.275   5.158   4.691
 5467SOL     OW17299   5.695   1.450   2.105
 5467SOL    HW117300   5.758   1.392   2.155
 5467SOL    HW217301   5.640   1.393   2.043
 5468SOL     OW17302   4.575   1.499   5.765
 5468SOL    HW117303   4.640   1.539   5.700
 5468SOL    HW217304   4.523   1.572   5.809
 5469SOL     OW17305   4.904   4.430   1.627
 5469SOL    HW117306   4.848   4.419   1.709
 5469SOL    HW217307   5.001   4.432   1.653
 5470SOL     OW17308   0.264   4.964   3.308
 5470SOL    HW117309   0.304   4.895   3.369
 5470SOL    HW217310   0.298   4.949   3.215
 5471SOL     OW17311   6.107   4.537   2.324
 5471SOL    HW117312   6.158   4.590   2.257
 5471SOL    HW217313   6.011   4.532   2.296
 5472SOL     OW17314   3.680   5.185   5.041
 5472SOL    HW117315   3.739   5.237   5.103
 5472SOL    HW217316   3.636   5.248   4.977
 5473SOL     OW17317   1.460   4.403   3.620
 5473SOL    HW117318   1.365   4.431   3.606
 5473SOL    HW217319   1.471   4.309   3.587
 5474SOL     OW17320   1.147   6.376   3.283
 5474SOL    HW117321   1.094   6.358   3.366
 5474SOL    HW217322   1.244   6.372   3.304
 5475SOL     OW17323   3.098   2.808   1.788
 5475SOL    HW117324   3.166   2.866   1.834
 5475SOL    HW217325   3.028   2.866   1.746
 5476SOL     OW17326   1.690   3.352   6.960
 5476SOL    HW117327   1.610   3.411   6.966
 5476SOL    HW217328   1.725   3.334   0.033
 5477SOL     OW17329   2.104   2.517   2.368
 5477SOL    HW117330   2.032   2.579   2.397
 5477SOL    HW217331   2.099   2.432   2.420
 5478SOL     OW17332   6.989   5.563   5.947
 5478SOL    HW117333   6.959   5.635   6.010
 5478SOL    HW217334   6.953   5.475   5.978
 5479SOL     OW17335   4.941   0.099   5.385
 5479SOL    HW117336   4.925   0.000   5.390
 5479SOL    HW217337   4.871   0.142   5.329
 5480SOL     OW17338   0.926   2.792   5.482
 5480SOL    HW117339   0.942   2.815   5.579
 5480SOL    HW217340   0.971   2.705   5.461
 5481SOL     OW17341   4.438   6.654   3.614
 5481SOL    HW117342   4.403   6.639   3.522
 5481SOL    HW217343   4.413   6.746   3.644
 5482SOL     OW17344   1.968   5.674   2.071
 5482SOL    HW117345   1.881   5.625   2.060
 5482SOL    HW217346   2.000   5.706   1.983
 5483SOL     OW17347   0.771   2.404   6.471
 5483SOL    HW117348   0.831   2.440   6.542
 5483SOL    HW217349   0.747   2.478   6.407
 5484SOL     OW17350   5.382   0.016   4.804
 5484SOL    HW117351   5.453   0.085   4.820
 5484SOL    HW217352   5.425   6.944   4.793
 5485SOL     OW17353   3.995   0.332   4.799
 5485SOL    HW117354   3.981   0.416   4.746
 5485SOL    HW217355   4.077   0.285   4.766
 5486SOL     OW17356   3.147   4.924   3.966
 5486SOL    HW117357   3.137   4.880   4.055
 5486SOL    HW217358   3.077   4.995   3.955
 5487SOL     OW17359   3.137   5.682   5.462
 5487SOL    HW117360   3.189   5.602   5.434
 5487SOL    HW217361   3.041   5.657   5.473
 5488SOL     OW17362   4.817   1.813   6.918
 5488SOL    HW117363   4.864   1.851   6.838
 5488SOL    HW217364   4.878   1.815   6.997
 5489SOL     OW17365   0.285   3.144   3.961
 5489SOL    HW117366   0.383   3.126   3.959
 5489SOL    HW217367   0.252   3.155   3.867
 5490SOL     OW17368   0.703   5.140   2.655
 5490SOL    HW117369   0.627   5.114   2.595
 5490SOL    HW217370   0.772   5.189   2.602
 5491SOL     OW17371   6.159   3.870   0.541
 5491SOL    HW117372   6.184   3.958   0.500
 5491SOL    HW217373   6.071   3.841   0.504
 5492SOL     OW17374   0.130   1.997   6.167
 5492SOL    HW117375   0.118   1.937   6.246
 5492SOL    HW217376   0.226   1.998   6.140
 5493SOL     OW17377   4.207   4.231   0.092
 5493SOL    HW117378   4.274   4.301   0.066
 5493SOL    HW217379   4.156   4.203   0.011
 5494SOL     OW17380   6.116   2.917   5.699
 5494SOL    HW117381   6.134   2.895   5.795
 5494SOL    HW217382   6.044   2.986   5.694
 5495SOL     OW17383   5.960   0.574   6.996
 5495SOL    HW117384   5.890   0.628   0.024
 5495SOL    HW217385   6.022   0.634   6.946
 5496SOL     OW17386   3.963   0.325   5.911
 5496SOL    HW117387   3.884   0.322   5.973
 5496SOL    HW217388   4.042   0.363   5.960
 5497SOL     OW17389   0.882   0.481   5.433
 5497SOL    HW117390   0.900   0.578   5.447
 5497SOL    HW217391   0.920   0.429   5.509
 5498SOL     OW17392   0.638   5.296   1.439
 5498SOL    HW117393   0.644   5.302   1.539
 5498SOL    HW217394   0.631   5.389   1.401
 5499SOL     OW17395   2.292   0.480   3.949
 5499SOL    HW117396   2.286   0.572   3.989
 5499SOL    HW217397   2.205   0.458   3.904
 5500SOL     OW17398   2.323   6.465   1.235
 5500SOL    HW117399   2.277   6.544   1.276
 5500SOL    HW217400   2.412   6.452   1.278
 5501SOL     OW17401   4.581   3.221   6.934
 5501SOL    HW117402   4.577   3.318   6.913
 5501SOL    HW217403   4.489   3.182   6.931
 5502SOL     OW17404   4.392   3.277   6.692
 5502SOL    HW117405   4.431   3.353   6.743
 5502SOL    HW217406   4.435   3.191   6.722
 5503SOL     OW17407   5.779   3.502   0.984
 5503SOL    HW117408   5.774   3.549   0.897
 5503SOL    HW217409   5.862   3.531   1.033
 5504SOL     OW17410   3.272   2.016   7.006
 5504SOL    HW117411   3.308   2.024   0.080
 5504SOL    HW217412   3.297   1.927   6.968
 5505SOL     OW17413   2.712   4.986   2.464
 5505SOL    HW117414   2.639   4.963   2.399
 5505SOL    HW217415   2.715   4.917   2.536
 5506SOL     OW17416   6.423   2.553   6.023
 5506SOL    HW117417   6.385   2.493   6.094
 5506SOL    HW217418   6.426   2.503   5.936
 5507SOL     OW17419   3.886   6.629   0.824
 5507SOL    HW117420   3.820   6.692   0.864
 5507SOL    HW217421   3.911   6.660   0.733
 5508SOL     OW17422   0.394   1.452   6.565
 5508SOL    HW117423   0.453   1.483   6.640
 5508SOL    HW217424   0.347   1.368   6.592
 5509SOL     OW17425   6.235   3.859   7.012
 5509SOL    HW117426   6.148   3.821   0.023
 5509SOL    HW217427   6.303   3.848   0.066
 5510SOL     OW17428   5.397   5.788   6.514
 5510SOL    HW117429   5.334   5.723   6.557
 5510SOL    HW217430   5.470   5.737   6.467
 5511SOL     OW17431   0.907   2.619   6.090
 5511SOL    HW117432   0.831   2.557   6.071
 5511SOL    HW217433   0.942   2.602   6.182
 5512SOL     OW17434   2.407   0.007   2.403
 5512SOL    HW117435   2.366   7.017   2.494
 5512SOL    HW217436   2.377   6.949   2.346
 5513SOL     OW17437   3.514   4.638   0.189
 5513SOL    HW117438   3.507   4.686   0.102
 5513SOL    HW217439   3.462   4.688   0.259
 5514SOL     OW17440   3.368   1.188   0.509
 5514SOL    HW117441   3.277   1.224   0.529
 5514SOL    HW217442   3.369   1.150   0.416
 5515SOL     OW17443   3.117   5.157   2.524
 5515SOL    HW117444   3.082   5.140   2.432
 5515SOL    HW217445   3.216   5.170   2.520
 5516SOL     OW17446   1.718   2.421   5.937
 5516SOL    HW117447   1.665   2.416   5.852
 5516SOL    HW217448   1.691   2.346   5.997
 5517SOL     OW17449   0.880   1.982   3.491
 5517SOL    HW117450   0.805   1.937   3.442
 5517SOL    HW217451   0.853   1.997   3.587
 5518SOL     OW17452   4.415   4.836   6.250
 5518SOL    HW117453   4.385   4.917   6.300
 5518SOL    HW217454   4.425   4.858   6.153
 5519SOL     OW17455   5.730   2.366   5.747
 5519SOL    HW117456   5.699   2.362   5.652
 5519SOL    HW217457   5.652   2.389   5.806
 5520SOL     OW17458   5.209   6.175   1.214
 5520SOL    HW117459   5.114   6.189   1.185
 5520SOL    HW217460   5.221   6.081   1.248
 5521SOL     OW17461   4.601   6.774   2.116
 5521SOL    HW117462   4.625   6.833   2.193
 5521SOL    HW217463   4.502   6.769   2.108
 5522SOL     OW17464   5.183   6.270   6.932
 5522SOL    HW117465   5.105   6.327   6.906
 5522SOL    HW217466   5.156   6.211   7.009
 5523SOL     OW17467   5.058   2.238   0.846
 5523SOL    HW117468   5.127   2.282   0.788
 5523SOL    HW217469   5.022   2.157   0.801
 5524SOL     OW17470   2.806   1.319   3.308
 5524SOL    HW117471   2.787   1.414   3.285
 5524SOL    HW217472   2.721   1.271   3.329
 5525SOL     OW17473   6.916   1.699   1.432
 5525SOL    HW117474   7.012   1.681   1.451
 5525SOL    HW217475   6.894   1.672   1.338
 5526SOL     OW17476   5.403   4.067   4.289
 5526SOL    HW117477   5.343   3.997   4.251
 5526SOL    HW217478   5.449   4.031   4.370
 5527SOL     OW17479   6.434   0.259   2.544
 5527SOL    HW117480   6.473   0.348   2.569
 5527SOL    HW217481   6.506   0.190   2.549
 5528SOL     OW17482   1.174   1.529   6.516
 5528SOL    HW117483   1.188   1.478   6.601
 5528SOL    HW217484   1.120   1.611   6.534
 5529SOL     OW17485   3.259   0.634   2.038
 5529SOL    HW117486   3.274   0.628   1.940
 5529SOL    HW217487   3.305   0.715   2.074
 5530SOL     OW17488   0.979   1.655   1.365
 5530SOL    HW117489   0.931   1.692   1.286
 5530SOL    HW217490   1.029   1.728   1.411
 5531SOL     OW17491   1.526   4.373   0.372
 5531SOL    HW117492   1.453   4.410   0.315
 5531SOL    HW217493   1.598   4.442   0.383
 5532SOL     OW17494   0.526   4.182   6.155
 5532SOL    HW117495   0.511   4.252   6.225
 5532SOL    HW217496   0.438   4.137   6.135
 5533SOL     OW17497   3.617   1.090   3.094
 5533SOL    HW117498   3.711   1.077   3.125
 5533SOL    HW217499   3.591   1.187   3.104
 5534SOL     OW17500   1.562   0.509   4.524
 5534SOL    HW117501   1.621   0.432   4.552
 5534SOL    HW217502   1.472   0.474   4.498
 5535SOL     OW17503   0.145   1.760   2.681
 5535SOL    HW117504   0.159   1.854   2.714
 5535SOL    HW217505   0.209   1.699   2.729
 5536SOL     OW17506   4.743   0.021   4.709
 5536SOL    HW117507   4.721   0.099   4.650
 5536SOL    HW217508   4.831   0.036   4.753
 5537SOL     OW17509   2.594   2.513   3.044
 5537SOL    HW117510   2.520   2.459   3.084
 5537SOL    HW217511   2.613   2.481   2.951
 5538SOL     OW17512   4.454   5.661   4.003
 5538SOL    HW117513   4.386   5.644   4.075
 5538SOL    HW217514   4.508   5.578   3.988
 5539SOL     OW17515   2.280   3.965   6.760
 5539SOL    HW117516   2.374   3.933   6.772
 5539SOL    HW217517   2.277   4.032   6.686
 5540SOL     OW17518   4.121   5.510   1.283
 5540SOL    HW117519   4.062   5.457   1.223
 5540SOL    HW217520   4.065   5.563   1.347
 5541SOL     OW17521   4.583   0.731   6.074
 5541SOL    HW117522   4.599   0.700   5.981
 5541SOL    HW217523   4.652   0.692   6.135
 5542SOL     OW17524   5.243   4.583   6.112
 5542SOL    HW117525   5.218   4.580   6.209
 5542SOL    HW217526   5.283   4.496   6.085
 5543SOL     OW17527   0.605   1.797   5.096
 5543SOL    HW117528   0.698   1.833   5.100
 5543SOL    HW217529   0.566   1.815   5.006
 5544SOL     OW17530   5.799   0.895   0.092
 5544SOL    HW117531   5.754   0.847   0.017
 5544SOL    HW217532   5.733   0.954   0.139
 5545SOL     OW17533   2.241   2.067   2.124
 5545SOL    HW117534   2.297   2.147   2.105
 5545SOL    HW217535   2.285   2.009   2.192
 5546SOL     OW17536   3.869   5.598   5.474
 5546SOL    HW117537   3.780   5.639   5.458
 5546SOL    HW217538   3.936   5.638   5.412
 5547SOL     OW17539   3.507   5.505   3.806
 5547SOL    HW117540   3.554   5.470   3.886
 5547SOL    HW217541   3.564   5.491   3.725
 5548SOL     OW17542   0.060   1.719   5.044
 5548SOL    HW117543   0.021   1.639   5.089
 5548SOL    HW217544   0.067   1.794   5.110
 5549SOL     OW17545   3.776   5.313   6.637
 5549SOL    HW117546   3.795   5.411   6.641
 5549SOL    HW217547   3.679   5.298   6.621
 5550SOL     OW17548   2.708   6.272   2.813
 5550SOL    HW117549   2.774   6.215   2.862
 5550SOL    HW217550   2.615   6.244   2.838
 5551SOL     OW17551   0.847   1.255   2.289
 5551SOL    HW117552   0.846   1.275   2.191
 5551SOL    HW217553   0.930   1.204   2.311
 5552SOL     OW17554   2.030   2.546   2.764
 5552SOL    HW117555   1.940   2.562   2.724
 5552SOL    HW217556   2.080   2.633   2.770
 5553SOL     OW17557   4.455   6.311   6.096
 5553SOL    HW117558   4.449   6.263   6.008
 5553SOL    HW217559   4.551   6.329   6.117
 5554SOL     OW17560   3.250   0.661   4.474
 5554SOL    HW117561   3.182   0.600   4.433
 5554SOL    HW217562   3.251   0.648   4.573
 5555SOL     OW17563   0.725   6.323   1.402
 5555SOL    HW117564   0.817   6.313   1.440
 5555SOL    HW217565   0.706   6.420   1.386
 5556SOL     OW17566   7.017   1.019   5.370
 5556SOL    HW117567   6.950   1.063   5.310
 5556SOL    HW217568   0.087   1.014   5.323
 5557SOL     OW17569   3.355   0.893   2.324
 5557SOL    HW117570   3.374   0.863   2.417
 5557SOL    HW217571   3.430   0.867   2.264
 5558SOL     OW17572   5.063   2.145   5.748
 5558SOL    HW117573   5.055   2.056   5.792
 5558SOL    HW217574   4.971   2.185   5.738
 5559SOL     OW17575   2.730   0.770   0.868
 5559SOL    HW117576   2.821   0.732   0.888
 5559SOL    HW217577   2.738   0.868   0.852
 5560SOL     OW17578   0.134   1.318   4.875
 5560SOL    HW117579   0.068   1.275   4.814
 5560SOL    HW217580   0.180   1.393   4.827
 5561SOL     OW17581   1.436   4.412   1.938
 5561SOL    HW117582   1.376   4.338   1.908
 5561SOL    HW217583   1.391   4.500   1.920
 5562SOL     OW17584   3.370   2.216   6.865
 5562SOL    HW117585   3.466   2.199   6.888
 5562SOL    HW217586   3.311   2.156   6.920
 5563SOL     OW17587   3.883   4.338   1.177
 5563SOL    HW117588   3.802   4.314   1.123
 5563SOL    HW217589   3.856   4.363   1.269
 5564SOL     OW17590   5.895   1.338   2.707
 5564SOL    HW117591   5.872   1.425   2.662
 5564SOL    HW217592   5.815   1.278   2.704
 5565SOL     OW17593   1.777   2.804   5.756
 5565SOL    HW117594   1.790   2.812   5.855
 5565SOL    HW217595   1.698   2.746   5.737
 5566SOL     OW17596   2.489   4.012   0.322
 5566SOL    HW117597   2.426   3.987   0.396
 5566SOL    HW217598   2.454   4.093   0.275
 5567SOL     OW17599   1.169   5.442   3.683
 5567SOL    HW117600   1.116   5.441   3.768
 5567SOL    HW217601   1.254   5.392   3.696
 5568SOL     OW17602   3.587   2.522   6.583
 5568SOL    HW117603   3.526   2.499   6.659
 5568SOL    HW217604   3.543   2.592   6.526
 5569SOL     OW17605   4.560   1.898   6.993
 5569SOL    HW117606   4.641   1.842   6.977
 5569SOL    HW217607   4.554   1.921   0.072
 5570SOL     OW17608   1.836   2.893   6.070
 5570SOL    HW117609   1.833   2.960   6.145
 5570SOL    HW217610   1.880   2.809   6.103
 5571SOL     OW17611   0.187   4.100   6.614
 5571SOL    HW117612   0.276   4.081   6.573
 5571SOL    HW217613   0.196   4.172   6.682
 5572SOL     OW17614   0.448   3.263   6.004
 5572SOL    HW117615   0.422   3.263   6.101
 5572SOL    HW217616   0.436   3.354   5.966
 5573SOL     OW17617   6.842   3.802   6.391
 5573SOL    HW117618   6.879   3.871   6.453
 5573SOL    HW217619   6.759   3.838   6.347
 5574SOL     OW17620   2.136   6.550   4.644
 5574SOL    HW117621   2.041   6.559   4.616
 5574SOL    HW217622   2.147   6.467   4.699
 5575SOL     OW17623   0.902   1.264   2.690
 5575SOL    HW117624   0.991   1.226   2.664
 5575SOL    HW217625   0.916   1.357   2.725
 5576SOL     OW17626   5.619   6.471   5.410
 5576SOL    HW117627   5.565   6.533   5.353
 5576SOL    HW217628   5.558   6.403   5.452
 5577SOL     OW17629   1.535   4.409   4.878
 5577SOL    HW117630   1.461   4.473   4.900
 5577SOL    HW217631   1.564   4.423   4.783
 5578SOL     OW17632   3.884   1.809   5.827
 5578SOL    HW117633   3.820   1.882   5.852
 5578SOL    HW217634   3.857   1.771   5.738
 5579SOL     OW17635   4.981   4.277   2.151
 5579SOL    HW117636   4.891   4.258   2.190
 5579SOL    HW217637   4.991   4.228   2.064
 5580SOL     OW17638   5.908   1.245   1.961
 5580SOL    HW117639   5.969   1.232   2.039
 5580SOL    HW217640   5.938   1.187   1.885
 5581SOL     OW17641   3.157   2.882   0.773
 5581SOL    HW117642   3.165   2.949   0.699
 5581SOL    HW217643   3.248   2.850   0.799
 5582SOL     OW17644   3.071   3.283   3.886
 5582SOL    HW117645   3.084   3.325   3.796
 5582SOL    HW217646   3.116   3.340   3.956
 5583SOL     OW17647   3.787   0.648   6.491
 5583SOL    HW117648   3.728   0.642   6.411
 5583SOL    HW217649   3.882   0.630   6.463
 5584SOL     OW17650   5.178   3.121   4.140
 5584SOL    HW117651   5.221   3.178   4.070
 5584SOL    HW217652   5.120   3.052   4.096
 5585SOL     OW17653   0.178   0.393   3.715
 5585SOL    HW117654   0.274   0.410   3.735
 5585SOL    HW217655   0.128   0.380   3.800
 5586SOL     OW17656   1.992   0.630   0.211
 5586SOL    HW117657   1.978   0.707   0.149
 5586SOL    HW217658   2.053   0.563   0.169
 5587SOL     OW17659   3.946   6.250   3.324
 5587SOL    HW117660   3.912   6.195   3.247
 5587SOL    HW217661   4.007   6.194   3.380
 5588SOL     OW17662   5.133   6.649   6.642
 5588SOL    HW117663   5.067   6.652   6.566
 5588SOL    HW217664   5.093   6.693   6.722
 5589SOL     OW17665   1.814   3.782   6.935
 5589SOL    HW117666   1.888   3.839   6.901
 5589SOL    HW217667   1.739   3.780   6.869
 5590SOL     OW17668   6.514   0.461   3.095
 5590SOL    HW117669   6.612   0.444   3.106
 5590SOL    HW217670   6.484   0.433   3.004
 5591SOL     OW17671   5.571   0.645   0.092
 5591SOL    HW117672   5.592   0.691   0.006
 5591SOL    HW217673   5.480   0.672   0.123
 5592SOL     OW17674   1.512   2.822   2.468
 5592SOL    HW117675   1.471   2.745   2.419
 5592SOL    HW217676   1.556   2.789   2.551
 5593SOL     OW17677   2.149   3.790   4.846
 5593SOL    HW117678   2.146   3.691   4.863
 5593SOL    HW217679   2.204   3.833   4.918
 5594SOL     OW17680   2.829   1.266   6.009
 5594SOL    HW117681   2.810   1.362   6.027
 5594SOL    HW217682   2.754   1.210   6.043
 5595SOL     OW17683   6.897   3.221   6.917
 5595SOL    HW117684   6.910   3.154   6.845
 5595SOL    HW217685   6.846   3.299   6.880
 5596SOL     OW17686   4.925   3.468   4.369
 5596SOL    HW117687   4.938   3.521   4.285
 5596SOL    HW217688   4.929   3.371   4.348
 5597SOL     OW17689   0.286   1.770   6.565
 5597SOL    HW117690   0.379   1.733   6.572
 5597SOL    HW217691   0.289   1.861   6.524
 5598SOL     OW17692   6.387   0.407   3.327
 5598SOL    HW117693   6.439   0.416   3.242
 5598SOL    HW217694   6.450   0.383   3.401
 5599SOL     OW17695   5.656   3.544   2.993
 5599SOL    HW117696   5.633   3.483   2.918
 5599SOL    HW217697   5.631   3.637   2.970
 5600SOL     OW17698   1.804   3.153   2.383
 5600SOL    HW117699   1.846   3.080   2.329
 5600SOL    HW217700   1.769   3.116   2.469
 5601SOL     OW17701   5.928   2.383   6.410
 5601SOL    HW117702   5.892   2.290   6.418
 5601SOL    HW217703   5.934   2.408   6.313
 5602SOL     OW17704   6.179   1.789   3.179
 5602SOL    HW117705   6.139   1.722   3.243
 5602SOL    HW217706   6.106   1.848   3.144
 5603SOL     OW17707   3.400   1.382   6.013
 5603SOL    HW117708   3.356   1.306   5.966
 5603SOL    HW217709   3.334   1.427   6.074
 5604SOL     OW17710   1.534   4.823   3.390
 5604SOL    HW117711   1.445   4.792   3.354
 5604SOL    HW217712   1.526   4.918   3.420
 5605SOL     OW17713   3.443   6.437   4.530
 5605SOL    HW117714   3.358   6.483   4.555
 5605SOL    HW217715   3.519   6.503   4.535
 5606SOL     OW17716   4.554   3.785   1.068
 5606SOL    HW117717   4.607   3.721   1.125
 5606SOL    HW217718   4.463   3.796   1.106
 5607SOL     OW17719   1.137   2.531   2.601
 5607SOL    HW117720   1.137   2.565   2.507
 5607SOL    HW217721   1.185   2.444   2.606
 5608SOL     OW17722   6.562   0.056   3.592
 5608SOL    HW117723   6.546   0.058   3.691
 5608SOL    HW217724   6.560   0.149   3.556
 5609SOL     OW17725   6.586   1.513   0.191
 5609SOL    HW117726   6.615   1.598   0.147
 5609SOL    HW217727   6.656   1.484   0.256
 5610SOL     OW17728   5.870   0.081   6.293
 5610SOL    HW117729   5.832   0.172   6.312
 5610SOL    HW217730   5.948   0.064   6.353
 5611SOL     OW17731   6.455   3.877   1.065
 5611SOL    HW117732   6.382   3.945   1.060
 5611SOL    HW217733   6.519   3.892   0.989
 5612SOL     OW17734   4.793   1.951   1.545
 5612SOL    HW117735   4.724   1.991   1.486
 5612SOL    HW217736   4.750   1.914   1.627
 5613SOL     OW17737   6.314   5.058   5.328
 5613SOL    HW117738   6.380   4.983   5.339
 5613SOL    HW217739   6.252   5.059   5.406
 5614SOL     OW17740   5.746   2.746   4.772
 5614SOL    HW117741   5.692   2.830   4.763
 5614SOL    HW217742   5.843   2.768   4.762
 5615SOL     OW17743   0.213   3.493   2.622
 5615SOL    HW117744   0.175   3.480   2.531
 5615SOL    HW217745   0.179   3.422   2.683
 5616SOL     OW17746   1.525   3.013   1.536
 5616SOL    HW117747   1.549   3.091   1.593
 5616SOL    HW217748   1.440   3.032   1.487
 5617SOL     OW17749   0.642   5.038   5.232
 5617SOL    HW117750   0.580   4.999   5.300
 5617SOL    HW217751   0.714   4.972   5.211
 5618SOL     OW17752   4.786   0.988   2.953
 5618SOL    HW117753   4.858   1.030   3.009
 5618SOL    HW217754   4.746   1.058   2.893
 5619SOL     OW17755   2.957   3.652   4.296
 5619SOL    HW117756   2.996   3.711   4.366
 5619SOL    HW217757   2.936   3.706   4.214
 5620SOL     OW17758   4.584   5.197   5.530
 5620SOL    HW117759   4.624   5.257   5.599
 5620SOL    HW217760   4.534   5.252   5.462
 5621SOL     OW17761   1.116   3.310   6.331
 5621SOL    HW117762   1.052   3.377   6.370
 5621SOL    HW217763   1.068   3.226   6.310
 5622SOL     OW17764   5.850   5.657   3.059
 5622SOL    HW117765   5.800   5.621   3.138
 5622SOL    HW217766   5.909   5.732   3.088
 5623SOL     OW17767   4.848   5.126   3.370
 5623SOL    HW117768   4.852   5.221   3.338
 5623SOL    HW217769   4.911   5.070   3.316
 5624SOL     OW17770   4.805   3.951   3.965
 5624SOL    HW117771   4.824   3.959   4.063
 5624SOL    HW217772   4.850   3.870   3.929
 5625SOL     OW17773   3.328   6.980   6.288
 5625SOL    HW117774   3.288   0.013   6.212
 5625SOL    HW217775   3.290   6.888   6.289
 5626SOL     OW17776   2.014   4.817   6.013
 5626SOL    HW117777   2.027   4.890   5.945
 5626SOL    HW217778   1.918   4.789   6.013
 5627SOL     OW17779   1.172   5.218   0.760
 5627SOL    HW117780   1.212   5.302   0.723
 5627SOL    HW217781   1.137   5.162   0.686
 5628SOL     OW17782   0.899   2.754   0.260
 5628SOL    HW117783   0.968   2.819   0.290
 5628SOL    HW217784   0.939   2.691   0.193
 5629SOL     OW17785   0.026   3.517   3.884
 5629SOL    HW117786   0.029   3.495   3.982
 5629SOL    HW217787   6.990   3.447   3.836
 5630SOL     OW17788   0.965   4.767   0.195
 5630SOL    HW117789   0.912   4.691   0.157
 5630SOL    HW217790   1.059   4.738   0.211
 5631SOL     OW17791   3.812   0.614   2.938
 5631SOL    HW117792   3.747   0.570   2.875
 5631SOL    HW217793   3.761   0.665   3.008
 5632SOL     OW17794   3.387   6.906   6.695
 5632SOL    HW117795   3.475   6.892   6.740
 5632SOL    HW217796   3.327   6.828   6.712
 5633SOL     OW17797   1.738   5.458   5.271
 5633SOL    HW117798   1.647   5.499   5.263
 5633SOL    HW217799   1.760   5.410   5.187
 5634SOL     OW17800   2.794   6.826   1.983
 5634SOL    HW117801   2.823   6.906   1.929
 5634SOL    HW217802   2.700   6.803   1.957
 5635SOL     OW17803   3.594   0.510   2.228
 5635SOL    HW117804   3.621   0.517   2.324
 5635SOL    HW217805   3.562   0.417   2.210
 5636SOL     OW17806   5.366   0.370   4.614
 5636SOL    HW117807   5.324   0.303   4.674
 5636SOL    HW217808   5.312   0.455   4.616
 5637SOL     OW17809   5.485   0.260   5.168
 5637SOL    HW117810   5.477   0.334   5.101
 5637SOL    HW217811   5.395   0.241   5.207
 5638SOL     OW17812   0.941   5.385   0.006
 5638SOL    HW117813   0.956   5.483   7.016
 5638SOL    HW217814   0.847   5.363   6.997
 5639SOL     OW17815   3.163   6.949   1.980
 5639SOL    HW117816   3.125   6.902   1.901
 5639SOL    HW217817   3.117   0.019   1.992
 5640SOL     OW17818   3.637   6.718   4.022
 5640SOL    HW117819   3.697   6.766   4.086
 5640SOL    HW217820   3.659   6.620   4.024
 5641SOL     OW17821   6.610   5.049   3.405
 5641SOL    HW117822   6.521   5.008   3.388
 5641SOL    HW217823   6.659   5.059   3.318
 5642SOL     OW17824   2.181   1.807   6.340
 5642SOL    HW117825   2.226   1.799   6.429
 5642SOL    HW217826   2.241   1.856   6.277
 5643SOL     OW17827   5.416   3.073   3.609
 5643SOL    HW117828   5.425   3.156   3.554
 5643SOL    HW217829   5.442   2.993   3.554
 5644SOL     OW17830   3.148   0.710   6.020
 5644SOL    HW117831   3.227   0.684   5.964
 5644SOL    HW217832   3.065   0.706   5.964
 5645SOL     OW17833   6.214   6.600   3.649
 5645SOL    HW117834   6.115   6.592   3.641
 5645SOL    HW217835   6.256   6.593   3.559
 5646SOL     OW17836   0.083   0.636   3.004
 5646SOL    HW117837   0.048   0.603   2.916
 5646SOL    HW217838   0.090   0.559   3.068
 5647SOL     OW17839   6.170   3.814   6.255
 5647SOL    HW117840   6.145   3.791   6.349
 5647SOL    HW217841   6.089   3.805   6.196
 5648SOL     OW17842   1.754   1.692   4.073
 5648SOL    HW117843   1.701   1.636   4.137
 5648SOL    HW217844   1.744   1.656   3.981
 5649SOL     OW17845   0.235   0.567   4.815
 5649SOL    HW117846   0.188   0.611   4.739
 5649SOL    HW217847   0.331   0.595   4.815
 5650SOL     OW17848   6.210   5.008   5.087
 5650SOL    HW117849   6.258   5.067   5.151
 5650SOL    HW217850   6.241   4.913   5.098
 5651SOL     OW17851   6.030   0.520   2.345
 5651SOL    HW117852   5.999   0.432   2.310
 5651SOL    HW217853   6.088   0.505   2.426
 5652SOL     OW17854   4.982   4.403   0.178
 5652SOL    HW117855   4.943   4.463   0.248
 5652SOL    HW217856   4.921   4.325   0.162
 5653SOL     OW17857   2.028   5.901   6.667
 5653SOL    HW117858   2.002   5.807   6.643
 5653SOL    HW217859   2.127   5.907   6.678
 5654SOL     OW17860   2.099   6.701   0.102
 5654SOL    HW117861   2.029   6.685   0.032
 5654SOL    HW217862   2.097   6.797   0.129
 5655SOL     OW17863   6.229   5.861   3.007
 5655SOL    HW117864   6.203   5.843   2.912
 5655SOL    HW217865   6.147   5.868   3.064
 5656SOL     OW17866   3.708   4.913   6.124
 5656SOL    HW117867   3.734   4.897   6.029
 5656SOL    HW217868   3.787   4.948   6.175
 5657SOL     OW17869   4.737   5.242   2.224
 5657SOL    HW117870   4.769   5.295   2.302
 5657SOL    HW217871   4.752   5.145   2.240
 5658SOL     OW17872   4.287   6.802   6.192
 5658SOL    HW117873   4.328   6.718   6.230
 5658SOL    HW217874   4.318   6.881   6.245
 5659SOL     OW17875   3.617   3.905   2.586
 5659SOL    HW117876   3.545   3.973   2.573
 5659SOL    HW217877   3.580   3.826   2.636
 5660SOL     OW17878   6.639   5.937   1.488
 5660SOL    HW117879   6.733   5.972   1.479
 5660SOL    HW217880   6.607   5.952   1.581
 5661SOL     OW17881   6.353   6.131   4.533
 5661SOL    HW117882   6.342   6.077   4.616
 5661SOL    HW217883   6.297   6.093   4.460
 5662SOL     OW17884   1.680   4.397   4.567
 5662SOL    HW117885   1.689   4.437   4.475
 5662SOL    HW217886   1.654   4.301   4.559
 5663SOL     OW17887   2.519   3.605   0.869
 5663SOL    HW117888   2.572   3.520   0.867
 5663SOL    HW217889   2.581   3.683   0.870
 5664SOL     OW17890   6.202   6.418   1.652
 5664SOL    HW117891   6.105   6.438   1.669
 5664SOL    HW217892   6.214   6.387   1.558
 5665SOL     OW17893   2.081   1.323   5.695
 5665SOL    HW117894   2.038   1.301   5.783
 5665SOL    HW217895   2.012   1.358   5.632
 5666SOL     OW17896   5.631   5.692   6.411
 5666SOL    HW117897   5.647   5.787   6.384
 5666SOL    HW217898   5.681   5.672   6.495
 5667SOL     OW17899   5.629   4.551   2.529
 5667SOL    HW117900   5.587   4.558   2.438
 5667SOL    HW217901   5.622   4.639   2.576
 5668SOL     OW17902   6.902   1.979   6.922
 5668SOL    HW117903   6.927   2.048   6.854
 5668SOL    HW217904   6.803   1.963   6.917
 5669SOL     OW17905   6.856   2.235   4.893
 5669SOL    HW117906   6.813   2.256   4.805
 5669SOL    HW217907   6.874   2.319   4.942
 5670SOL     OW17908   1.352   3.377   2.322
 5670SOL    HW117909   1.428   3.317   2.298
 5670SOL    HW217910   1.388   3.469   2.342
 5671SOL     OW17911   0.997   0.723   5.438
 5671SOL    HW117912   0.985   0.817   5.470
 5671SOL    HW217913   1.083   0.687   5.473
 5672SOL     OW17914   4.726   4.479   5.295
 5672SOL    HW117915   4.641   4.439   5.329
 5672SOL    HW217916   4.705   4.554   5.234
 5673SOL     OW17917   1.821   6.605   1.397
 5673SOL    HW117918   1.769   6.595   1.483
 5673SOL    HW217919   1.777   6.676   1.341
 5674SOL     OW17920   0.773   3.130   1.067
 5674SOL    HW117921   0.795   3.131   1.165
 5674SOL    HW217922   0.790   3.038   1.031
 5675SOL     OW17923   4.292   1.127   5.721
 5675SOL    HW117924   4.302   1.222   5.691
 5675SOL    HW217925   4.360   1.107   5.792
 5676SOL     OW17926   2.286   6.177   2.273
 5676SOL    HW117927   2.216   6.116   2.310
 5676SOL    HW217928   2.352   6.200   2.344
 5677SOL     OW17929   6.503   7.017   2.700
 5677SOL    HW117930   6.459   6.930   2.723
 5677SOL    HW217931   6.556   7.006   2.617
 5678SOL     OW17932   1.028   5.086   3.045
 5678SOL    HW117933   0.938   5.123   3.069
 5678SOL    HW217934   1.075   5.148   2.983
 5679SOL     OW17935   3.611   5.690   5.459
 5679SOL    HW117936   3.523   5.647   5.480
 5679SOL    HW217937   3.611   5.784   5.495
 5680SOL     OW17938   2.017   6.726   6.565
 5680SOL    HW117939   2.037   6.766   6.476
 5680SOL    HW217940   1.935   6.670   6.559
 5681SOL     OW17941   2.697   3.683   6.611
 5681SOL    HW117942   2.733   3.595   6.580
 5681SOL    HW217943   2.616   3.706   6.557
 5682SOL     OW17944   2.241   3.148   4.281
 5682SOL    HW117945   2.278   3.055   4.287
 5682SOL    HW217946   2.272   3.190   4.196
 5683SOL     OW17947   4.128   3.016   5.311
 5683SOL    HW117948   4.218   3.054   5.331
 5683SOL    HW217949   4.065   3.090   5.286
 5684SOL     OW17950   3.262   3.923   3.204
 5684SOL    HW117951   3.340   3.906   3.144
 5684SOL    HW217952   3.179   3.928   3.149
 5685SOL     OW17953   6.913   6.172   1.248
 5685SOL    HW117954   6.833   6.230   1.265
 5685SOL    HW217955   6.973   6.217   1.183
 5686SOL     OW17956   3.219   4.892   6.876
 5686SOL    HW117957   3.167   4.830   6.934
 5686SOL    HW217958   3.156   4.945   6.819
 5687SOL     OW17959   4.483   6.160   6.480
 5687SOL    HW117960   4.467   6.157   6.579
 5687SOL    HW217961   4.549   6.090   6.455
 5688SOL     OW17962   5.298   1.377   2.479
 5688SOL    HW117963   5.351   1.435   2.418
 5688SOL    HW217964   5.351   1.295   2.501
 5689SOL     OW17965   4.178   3.237   5.559
 5689SOL    HW117966   4.262   3.222   5.508
 5689SOL    HW217967   4.111   3.167   5.534
 5690SOL     OW17968   3.713   0.405   3.118
 5690SOL    HW117969   3.633   0.398   3.178
 5690SOL    HW217970   3.727   0.501   3.093
 5691SOL     OW17971   3.677   0.394   4.447
 5691SOL    HW117972   3.762   0.350   4.475
 5691SOL    HW217973   3.608   0.325   4.427
 5692SOL     OW17974   6.035   2.287   7.006
 5692SOL    HW117975   6.092   2.367   0.007
 5692SOL    HW217976   6.069   2.240   6.924
 5693SOL     OW17977   5.286   2.738   1.804
 5693SOL    HW117978   5.197   2.702   1.775
 5693SOL    HW217979   5.350   2.736   1.726
 5694SOL     OW17980   1.451   2.378   4.942
 5694SOL    HW117981   1.497   2.332   4.866
 5694SOL    HW217982   1.504   2.459   4.968
 5695SOL     OW17983   1.874   4.384   3.656
 5695SOL    HW117984   1.813   4.413   3.583
 5695SOL    HW217985   1.966   4.373   3.620
 5696SOL     OW17986   2.955   1.249   6.576
 5696SOL    HW117987   2.946   1.151   6.594
 5696SOL    HW217988   2.882   1.278   6.514
 5697SOL     OW17989   6.521   3.643   0.336
 5697SOL    HW117990   6.500   3.547   0.354
 5697SOL    HW217991   6.507   3.697   0.418
 5698SOL     OW17992   1.544   4.446   3.915
 5698SOL    HW117993   1.494   4.382   3.973
 5698SOL    HW217994   1.529   4.423   3.819
 5699SOL     OW17995   0.652   2.146   4.898
 5699SOL    HW117996   0.566   2.129   4.947
 5699SOL    HW217997   0.722   2.084   4.931
 5700SOL     OW17998   1.492   4.812   4.410
 5700SOL    HW117999   1.514   4.799   4.507
 5700SOL    HW218000   1.535   4.740   4.356
 5701SOL     OW18001   4.953   3.470   3.139
 5701SOL    HW118002   4.894   3.550   3.143
 5701SOL    HW218003   4.937   3.420   3.054
 5702SOL     OW18004   3.614   0.338   7.013
 5702SOL    HW118005   3.631   0.409   6.945
 5702SOL    HW218006   3.580   0.256   6.967
 5703SOL     OW18007   4.682   4.437   1.843
 5703SOL    HW118008   4.619   4.429   1.766
 5703SOL    HW218009   4.637   4.408   1.927
 5704SOL     OW18010   4.693   4.442   2.948
 5704SOL    HW118011   4.622   4.449   2.878
 5704SOL    HW218012   4.653   4.461   3.038
 5705SOL     OW18013   6.599   1.199   3.736
 5705SOL    HW118014   6.524   1.247   3.782
 5705SOL    HW218015   6.682   1.254   3.742
 5706SOL     OW18016   2.211   1.361   0.147
 5706SOL    HW118017   2.116   1.382   0.125
 5706SOL    HW218018   2.252   1.309   0.072
 5707SOL     OW18019   3.924   1.546   0.587
 5707SOL    HW118020   3.935   1.450   0.612
 5707SOL    HW218021   3.843   1.556   0.529
 5708SOL     OW18022   0.027   6.763   0.591
 5708SOL    HW118023   0.108   6.776   0.532
 5708SOL    HW218024   0.008   6.666   0.601
 5709SOL     OW18025   1.113   2.890   1.187
 5709SOL    HW118026   1.184   2.828   1.218
 5709SOL    HW218027   1.139   2.930   1.099
 5710SOL     OW18028   3.520   4.999   0.228
 5710SOL    HW118029   3.464   4.946   0.292
 5710SOL    HW218030   3.470   5.013   0.143
 5711SOL     OW18031   5.453   1.592   5.211
 5711SOL    HW118032   5.551   1.574   5.206
 5711SOL    HW218033   5.408   1.558   5.128
 5712SOL     OW18034   6.024   6.845   6.701
 5712SOL    HW118035   6.049   6.748   6.707
 5712SOL    HW218036   6.039   6.890   6.789
 5713SOL     OW18037   0.351   3.099   2.583
 5713SOL    HW118038   0.322   3.101   2.679
 5713SOL    HW218039   0.346   3.006   2.548
 5714SOL     OW18040   2.260   0.401   6.825
 5714SOL    HW118041   2.276   0.302   6.825
 5714SOL    HW218042   2.282   0.437   6.734
 5715SOL     OW18043   1.043   0.011   3.609
 5715SOL    HW118044   1.078   0.087   3.555
 5715SOL    HW218045   0.950   0.032   3.640
 5716SOL     OW18046   1.982   2.795   5.251
 5716SOL    HW118047   2.035   2.769   5.171
 5716SOL    HW218048   1.938   2.713   5.290
 5717SOL     OW18049   0.794   3.299   5.867
 5717SOL    HW118050   0.881   3.271   5.825
 5717SOL    HW218051   0.729   3.223   5.864
 5718SOL     OW18052   3.120   5.471   6.065
 5718SOL    HW118053   3.067   5.398   6.023
 5718SOL    HW218054   3.214   5.442   6.077
 5719SOL     OW18055   2.120   0.885   0.484
 5719SOL    HW118056   2.145   0.788   0.484
 5719SOL    HW218057   2.024   0.895   0.461
 5720SOL     OW18058   1.758   5.817   3.827
 5720SOL    HW118059   1.850   5.793   3.859
 5720SOL    HW218060   1.745   5.916   3.834
 5721SOL     OW18061   6.771   4.355   0.014
 5721SOL    HW118062   6.802   4.297   6.957
 5721SOL    HW218063   6.739   4.442   6.996
 5722SOL     OW18064   5.555   1.210   5.043
 5722SOL    HW118065   5.510   1.271   4.979
 5722SOL    HW218066   5.560   1.253   5.133
 5723SOL     OW18067   0.306   4.559   1.294
 5723SOL    HW118068   0.240   4.581   1.223
 5723SOL    HW218069   0.373   4.633   1.302
 5724SOL     OW18070   5.107   3.108   6.077
 5724SOL    HW118071   5.022   3.058   6.064
 5724SOL    HW218072   5.141   3.140   5.988
 5725SOL     OW18073   5.641   6.828   5.625
 5725SOL    HW118074   5.561   6.787   5.669
 5725SOL    HW218075   5.687   6.759   5.569
 5726SOL     OW18076   3.915   4.611   5.631
 5726SOL    HW118077   3.958   4.521   5.618
 5726SOL    HW218078   3.818   4.598   5.654
 5727SOL     OW18079   5.815   2.448   4.140
 5727SOL    HW118080   5.841   2.544   4.134
 5727SOL    HW218081   5.856   2.406   4.221
 5728SOL     OW18082   4.269   0.755   4.555
 5728SOL    HW118083   4.280   0.828   4.488
 5728SOL    HW218084   4.264   0.795   4.647
 5729SOL     OW18085   2.016   2.388   3.829
 5729SOL    HW118086   2.055   2.476   3.857
 5729SOL    HW218087   1.935   2.369   3.884
 5730SOL     OW18088   4.108   4.672   6.852
 5730SOL    HW118089   4.082   4.638   6.942
 5730SOL    HW218090   4.193   4.629   6.823
 5731SOL     OW18091   4.333   1.522   5.005
 5731SOL    HW118092   4.397   1.550   5.077
 5731SOL    HW218093   4.240   1.524   5.040
 5732SOL     OW18094   5.519   4.820   4.306
 5732SOL    HW118095   5.429   4.836   4.345
 5732SOL    HW218096   5.510   4.806   4.207
 5733SOL     OW18097   2.542   6.781   1.876
 5733SOL    HW118098   2.541   6.716   1.799
 5733SOL    HW218099   2.504   6.868   1.846
 5734SOL     OW18100   1.450   0.073   6.073
 5734SOL    HW118101   1.464   0.066   6.171
 5734SOL    HW218102   1.356   0.104   6.055
 5735SOL     OW18103   5.376   1.158   0.858
 5735SOL    HW118104   5.447   1.143   0.790
 5735SOL    HW218105   5.362   1.256   0.871
 5736SOL     OW18106   5.112   3.805   6.586
 5736SOL    HW118107   5.038   3.843   6.642
 5736SOL    HW218108   5.073   3.760   6.505
 5737SOL     OW18109   4.976   6.162   2.376
 5737SOL    HW118110   4.922   6.093   2.425
 5737SOL    HW218111   4.920   6.243   2.360
 5738SOL     OW18112   3.297   0.867   1.414
 5738SOL    HW118113   3.268   0.939   1.477
 5738SOL    HW218114   3.217   0.825   1.371
 5739SOL     OW18115   1.996   0.942   5.185
 5739SOL    HW118116   1.940   0.914   5.264
 5739SOL    HW218117   1.939   0.994   5.121
 5740SOL     OW18118   4.907   3.559   2.735
 5740SOL    HW118119   4.948   3.496   2.669
 5740SOL    HW218120   4.856   3.630   2.686
 5741SOL     OW18121   1.548   3.054   4.019
 5741SOL    HW118122   1.484   3.074   3.945
 5741SOL    HW218123   1.511   2.980   4.076
 5742SOL     OW18124   5.770   5.439   1.907
 5742SOL    HW118125   5.718   5.357   1.931
 5742SOL    HW218126   5.844   5.452   1.974
 5743SOL     OW18127   4.368   6.339   6.936
 5743SOL    HW118128   4.412   6.272   6.875
 5743SOL    HW218129   4.420   6.345   0.003
 5744SOL     OW18130   5.139   5.993   3.315
 5744SOL    HW118131   5.175   6.039   3.397
 5744SOL    HW218132   5.039   5.994   3.318
 5745SOL     OW18133   0.539   3.845   2.757
 5745SOL    HW118134   0.471   3.799   2.700
 5745SOL    HW218135   0.590   3.778   2.810
 5746SOL     OW18136   5.421   0.369   3.470
 5746SOL    HW118137   5.477   0.449   3.454
 5746SOL    HW218138   5.402   0.323   3.383
 5747SOL     OW18139   2.216   6.702   1.313
 5747SOL    HW118140   2.263   6.782   1.277
 5747SOL    HW218141   2.191   6.718   1.409
 5748SOL     OW18142   6.280   6.564   0.094
 5748SOL    HW118143   6.213   6.635   0.074
 5748SOL    HW218144   6.255   6.480   0.046
 5749SOL     OW18145   2.098   6.285   6.674
 5749SOL    HW118146   2.123   6.238   6.759
 5749SOL    HW218147   2.074   6.218   6.604
 5750SOL     OW18148   6.815   2.266   4.171
 5750SOL    HW118149   6.822   2.320   4.254
 5750SOL    HW218150   6.719   2.245   4.152
 5751SOL     OW18151   0.181   3.644   3.690
 5751SOL    HW118152   0.202   3.727   3.742
 5751SOL    HW218153   0.136   3.578   3.750
 5752SOL     OW18154   5.925   1.144   6.951
 5752SOL    HW118155   5.829   1.120   6.939
 5752SOL    HW218156   5.972   1.073   7.003
 5753SOL     OW18157   3.799   3.746   4.271
 5753SOL    HW118158   3.765   3.820   4.330
 5753SOL    HW218159   3.848   3.784   4.193
 5754SOL     OW18160   6.078   6.307   1.039
 5754SOL    HW118161   6.144   6.380   1.054
 5754SOL    HW218162   6.006   6.312   1.108
 5755SOL     OW18163   1.013   2.995   6.536
 5755SOL    HW118164   1.070   2.999   6.618
 5755SOL    HW218165   0.989   3.088   6.508
 5756SOL     OW18166   6.376   6.148   1.562
 5756SOL    HW118167   6.319   6.106   1.632
 5756SOL    HW218168   6.321   6.168   1.481
 5757SOL     OW18169   0.902   1.278   3.669
 5757SOL    HW118170   0.944   1.197   3.629
 5757SOL    HW218171   0.804   1.276   3.654
 5758SOL     OW18172   6.364   6.666   3.180
 5758SOL    HW118173   6.271   6.700   3.197
 5758SOL    HW218174   6.363   6.611   3.096
 5759SOL     OW18175   1.747   6.404   3.340
 5759SOL    HW118176   1.777   6.496   3.317
 5759SOL    HW218177   1.755   6.390   3.439
 5760SOL     OW18178   0.386   2.230   0.274
 5760SOL    HW118179   0.407   2.135   0.248
 5760SOL    HW218180   0.288   2.237   0.293
 5761SOL     OW18181   6.371   6.775   5.107
 5761SOL    HW118182   6.374   6.874   5.093
 5761SOL    HW218183   6.463   6.738   5.100
 5762SOL     OW18184   0.583   5.520   5.520
 5762SOL    HW118185   0.548   5.613   5.512
 5762SOL    HW218186   0.507   5.455   5.515
 5763SOL     OW18187   5.128   0.514   0.448
 5763SOL    HW118188   5.160   0.422   0.469
 5763SOL    HW218189   5.039   0.529   0.491
 5764SOL     OW18190   4.020   6.504   4.424
 5764SOL    HW118191   4.042   6.412   4.393
 5764SOL    HW218192   4.053   6.518   4.517
 5765SOL     OW18193   6.930   5.974   2.543
 5765SOL    HW118194   6.842   5.938   2.514
 5765SOL    HW218195   6.923   6.007   2.637
 5766SOL     OW18196   0.768   1.170   4.219
 5766SOL    HW118197   0.827   1.195   4.142
 5766SOL    HW218198   0.706   1.246   4.238
 5767SOL     OW18199   5.106   6.460   0.227
 5767SOL    HW118200   5.202   6.453   0.204
 5767SOL    HW218201   5.088   6.410   0.312
 5768SOL     OW18202   1.278   1.239   4.927
 5768SOL    HW118203   1.373   1.205   4.926
 5768SOL    HW218204   1.227   1.196   4.852
 5769SOL     OW18205   0.866   2.785   5.763
 5769SOL    HW118206   0.853   2.688   5.784
 5769SOL    HW218207   0.887   2.835   5.847
 5770SOL     OW18208   1.886   4.423   2.363
 5770SOL    HW118209   1.790   4.400   2.348
 5770SOL    HW218210   1.909   4.506   2.313
 5771SOL     OW18211   2.816   5.505   3.091
 5771SOL    HW118212   2.730   5.537   3.130
 5771SOL    HW218213   2.839   5.560   3.011
 5772SOL     OW18214   2.460   0.338   3.313
 5772SOL    HW118215   2.417   0.284   3.241
 5772SOL    HW218216   2.478   0.279   3.392
 5773SOL     OW18217   5.791   0.646   3.819
 5773SOL    HW118218   5.890   0.641   3.806
 5773SOL    HW218219   5.761   0.741   3.811
 5774SOL     OW18220   0.854   6.606   3.573
 5774SOL    HW118221   0.936   6.648   3.532
 5774SOL    HW218222   0.776   6.620   3.512
 5775SOL     OW18223   5.978   5.035   2.654
 5775SOL    HW118224   6.057   4.982   2.623
 5775SOL    HW218225   5.915   4.975   2.703
 5776SOL     OW18226   3.552   0.872   4.293
 5776SOL    HW118227   3.560   0.948   4.357
 5776SOL    HW218228   3.603   0.793   4.329
 5777SOL     OW18229   1.035   0.525   1.635
 5777SOL    HW118230   1.029   0.440   1.688
 5777SOL    HW218231   1.092   0.591   1.685
 5778SOL     OW18232   0.338   0.730   0.110
 5778SOL    HW118233   0.351   0.828   0.128
 5778SOL    HW218234   0.425   0.689   0.085
 5779SOL     OW18235   5.946   1.959   0.457
 5779SOL    HW118236   5.853   1.936   0.429
 5779SOL    HW218237   5.956   2.059   0.462
 5780SOL     OW18238   5.002   5.192   4.191
 5780SOL    HW118239   4.949   5.230   4.267
 5780SOL    HW218240   5.038   5.267   4.135
 5781SOL     OW18241   1.393   5.594   6.121
 5781SOL    HW118242   1.410   5.660   6.195
 5781SOL    HW218243   1.462   5.606   6.050
 5782SOL     OW18244   6.720   1.027   0.174
 5782SOL    HW118245   6.790   0.981   0.120
 5782SOL    HW218246   6.753   1.040   0.267
 5783SOL     OW18247   2.602   2.747   6.641
 5783SOL    HW118248   2.637   2.691   6.566
 5783SOL    HW218249   2.629   2.706   6.728
 5784SOL     OW18250   6.753   6.377   0.275
 5784SOL    HW118251   6.677   6.426   0.232
 5784SOL    HW218252   6.831   6.440   0.286
 5785SOL     OW18253   1.553   1.655   1.636
 5785SOL    HW118254   1.605   1.571   1.621
 5785SOL    HW218255   1.598   1.731   1.590
 5786SOL     OW18256   6.230   5.549   1.770
 5786SOL    HW118257   6.143   5.520   1.729
 5786SOL    HW218258   6.253   5.641   1.739
 5787SOL     OW18259   2.056   3.517   6.345
 5787SOL    HW118260   2.088   3.496   6.253
 5787SOL    HW218261   1.958   3.497   6.352
 5788SOL     OW18262   3.458   0.816   3.700
 5788SOL    HW118263   3.403   0.825   3.617
 5788SOL    HW218264   3.445   0.725   3.739
 5789SOL     OW18265   3.533   4.717   6.193
 5789SOL    HW118266   3.595   4.769   6.134
 5789SOL    HW218267   3.516   4.627   6.152
 5790SOL     OW18268   1.189   4.063   3.902
 5790SOL    HW118269   1.197   4.152   3.858
 5790SOL    HW218270   1.174   4.075   4.000
 5791SOL     OW18271   1.506   0.411   3.312
 5791SOL    HW118272   1.552   0.330   3.348
 5791SOL    HW218273   1.493   0.477   3.386
 5792SOL     OW18274   0.067   2.585   2.780
 5792SOL    HW118275   0.117   2.530   2.847
 5792SOL    HW218276   0.097   2.680   2.786
 5793SOL     OW18277   6.265   0.712   4.668
 5793SOL    HW118278   6.183   0.680   4.714
 5793SOL    HW218279   6.276   0.663   4.581
 5794SOL     OW18280   6.769   4.180   6.604
 5794SOL    HW118281   6.842   4.118   6.576
 5794SOL    HW218282   6.774   4.196   6.703
 5795SOL     OW18283   6.331   4.541   6.725
 5795SOL    HW118284   6.264   4.609   6.754
 5795SOL    HW218285   6.289   4.450   6.728
 5796SOL     OW18286   2.861   2.455   0.784
 5796SOL    HW118287   2.854   2.471   0.883
 5796SOL    HW218288   2.770   2.434   0.748
 5797SOL     OW18289   3.018   2.772   5.393
 5797SOL    HW118290   3.092   2.733   5.448
 5797SOL    HW218291   2.950   2.701   5.374
 5798SOL     OW18292   6.451   5.461   3.946
 5798SOL    HW118293   6.482   5.554   3.963
 5798SOL    HW218294   6.361   5.447   3.987
 5799SOL     OW18295   5.572   1.186   4.197
 5799SOL    HW118296   5.658   1.236   4.203
 5799SOL    HW218297   5.555   1.161   4.102
 5800SOL     OW18298   5.854   5.719   6.625
 5800SOL    HW118299   5.829   5.626   6.655
 5800SOL    HW218300   5.861   5.778   6.705
 5801SOL     OW18301   1.998   0.877   2.913
 5801SOL    HW118302   2.006   0.882   3.012
 5801SOL    HW218303   1.924   0.813   2.889
 5802SOL     OW18304   0.666   2.445   4.548
 5802SOL    HW118305   0.621   2.532   4.528
 5802SOL    HW218306   0.607   2.370   4.520
 5803SOL     OW18307   1.623   5.372   1.053
 5803SOL    HW118308   1.585   5.384   0.962
 5803SOL    HW218309   1.593   5.283   1.090
 5804SOL     OW18310   0.251   2.494   6.359
 5804SOL    HW118311   0.184   2.548   6.410
 5804SOL    HW218312   0.205   2.424   6.305
 5805SOL     OW18313   5.608   3.246   6.619
 5805SOL    HW118314   5.564   3.157   6.611
 5805SOL    HW218315   5.563   3.300   6.689
 5806SOL     OW18316   6.426   7.016   6.730
 5806SOL    HW118317   6.386   0.079   6.772
 5806SOL    HW218318   6.505   6.986   6.784
 5807SOL     OW18319   2.306   3.429   1.583
 5807SOL    HW118320   2.351   3.442   1.672
 5807SOL    HW218321   2.223   3.484   1.580
 5808SOL     OW18322   6.359   1.583   3.524
 5808SOL    HW118323   6.333   1.508   3.462
 5808SOL    HW218324   6.448   1.620   3.497
 5809SOL     OW18325   0.212   2.782   3.604
 5809SOL    HW118326   0.172   2.693   3.623
 5809SOL    HW218327   0.282   2.773   3.533
 5810SOL     OW18328   2.794   2.335   2.583
 5810SOL    HW118329   2.868   2.402   2.595
 5810SOL    HW218330   2.814   2.278   2.503
 5811SOL     OW18331   3.193   0.056   2.525
 5811SOL    HW118332   3.219   0.079   2.431
 5811SOL    HW218333   3.101   0.018   2.525
 5812SOL     OW18334   4.493   0.596   4.939
 5812SOL    HW118335   4.396   0.578   4.923
 5812SOL    HW218336   4.512   0.589   5.037
 5813SOL     OW18337   1.605   1.264   5.340
 5813SOL    HW118338   1.661   1.233   5.418
 5813SOL    HW218339   1.545   1.189   5.311
 5814SOL     OW18340   0.116   5.215   1.301
 5814SOL    HW118341   0.189   5.260   1.250
 5814SOL    HW218342   0.154   5.142   1.357
 5815SOL     OW18343   3.969   0.687   3.845
 5815SOL    HW118344   3.967   0.683   3.745
 5815SOL    HW218345   4.023   0.611   3.880
 5816SOL     OW18346   5.032   6.519   0.544
 5816SOL    HW118347   5.102   6.452   0.569
 5816SOL    HW218348   5.076   6.607   0.527
 5817SOL     OW18349   6.024   2.448   6.140
 5817SOL    HW118350   6.059   2.541   6.150
 5817SOL    HW218351   5.996   2.433   6.045
 5818SOL     OW18352   6.407   6.192   5.604
 5818SOL    HW118353   6.433   6.278   5.649
 5818SOL    HW218354   6.470   6.174   5.528
 5819SOL     OW18355   6.085   0.321   0.530
 5819SOL    HW118356   6.102   0.391   0.599
 5819SOL    HW218357   6.108   0.231   0.568
 5820SOL     OW18358   5.610   4.945   2.027
 5820SOL    HW118359   5.573   4.887   2.100
 5820SOL    HW218360   5.540   4.961   1.958
 5821SOL     OW18361   3.202   0.257   2.706
 5821SOL    HW118362   3.193   0.188   2.634
 5821SOL    HW218363   3.288   0.243   2.755
 5822SOL     OW18364   0.877   1.028   2.071
 5822SOL    HW118365   0.840   1.119   2.050
 5822SOL    HW218366   0.933   0.997   1.994
 5823SOL     OW18367   2.139   2.625   3.924
 5823SOL    HW118368   2.083   2.707   3.913
 5823SOL    HW218369   2.233   2.646   3.896
 5824SOL     OW18370   4.570   0.589   3.917
 5824SOL    HW118371   4.535   0.498   3.893
 5824SOL    HW218372   4.493   0.651   3.931
 5825SOL     OW18373   3.972   1.219   1.712
 5825SOL    HW118374   4.042   1.274   1.757
 5825SOL    HW218375   3.977   1.232   1.613
 5826SOL     OW18376   0.169   6.545   3.908
 5826SOL    HW118377   0.132   6.586   3.824
 5826SOL    HW218378   0.107   6.564   3.984
 5827SOL     OW18379   1.586   4.655   5.555
 5827SOL    HW118380   1.542   4.706   5.629
 5827SOL    HW218381   1.683   4.641   5.577
 5828SOL     OW18382   6.450   1.952   1.414
 5828SOL    HW118383   6.379   1.908   1.359
 5828SOL    HW218384   6.534   1.899   1.409
 5829SOL     OW18385   1.369   1.829   1.788
 5829SOL    HW118386   1.429   1.772   1.731
 5829SOL    HW218387   1.386   1.809   1.884
 5830SOL     OW18388   2.396   1.031   5.440
 5830SOL    HW118389   2.440   1.079   5.365
 5830SOL    HW218390   2.417   0.934   5.435
 5831SOL     OW18391   5.732   5.698   2.798
 5831SOL    HW118392   5.766   5.676   2.889
 5831SOL    HW218393   5.649   5.644   2.780
 5832SOL     OW18394   3.644   3.365   4.360
 5832SOL    HW118395   3.670   3.268   4.361
 5832SOL    HW218396   3.552   3.375   4.399
 5833SOL     OW18397   3.522   3.358   5.074
 5833SOL    HW118398   3.606   3.324   5.032
 5833SOL    HW218399   3.443   3.312   5.033
 5834SOL     OW18400   6.089   1.125   0.188
 5834SOL    HW118401   6.082   1.031   0.220
 5834SOL    HW218402   6.139   1.127   0.102
 5835SOL     OW18403   5.236   3.072   4.901
 5835SOL    HW118404   5.290   3.027   4.830
 5835SOL    HW218405   5.205   3.161   4.870
 5836SOL     OW18406   3.165   0.279   3.017
 5836SOL    HW118407   3.087   0.321   3.063
 5836SOL    HW218408   3.203   0.343   2.950
 5837SOL     OW18409   4.426   4.511   5.963
 5837SOL    HW118410   4.496   4.520   6.033
 5837SOL    HW218411   4.461   4.547   5.876
 5838SOL     OW18412   0.947   0.987   5.720
 5838SOL    HW118413   1.033   0.935   5.715
 5838SOL    HW218414   0.956   1.059   5.788
 5839SOL     OW18415   0.050   2.401   2.171
 5839SOL    HW118416   0.082   2.351   2.090
 5839SOL    HW218417   7.011   2.342   2.227
 5840SOL     OW18418   3.381   5.386   0.297
 5840SOL    HW118419   3.463   5.344   0.258
 5840SOL    HW218420   3.403   5.425   0.387
 5841SOL     OW18421   5.961   2.361   3.262
 5841SOL    HW118422   5.986   2.394   3.353
 5841SOL    HW218423   6.039   2.374   3.200
 5842SOL     OW18424   3.888   2.507   0.692
 5842SOL    HW118425   3.834   2.425   0.676
 5842SOL    HW218426   3.830   2.577   0.734
 5843SOL     OW18427   1.045   3.152   1.301
 5843SOL    HW118428   1.041   3.068   1.248
 5843SOL    HW218429   0.999   3.226   1.251
 5844SOL     OW18430   1.948   6.468   6.935
 5844SOL    HW118431   1.896   6.432   6.858
 5844SOL    HW218432   2.045   6.447   6.922
 5845SOL     OW18433   1.756   2.391   4.585
 5845SOL    HW118434   1.734   2.352   4.674
 5845SOL    HW218435   1.790   2.320   4.524
 5846SOL     OW18436   6.884   3.486   6.795
 5846SOL    HW118437   6.969   3.510   6.840
 5846SOL    HW218438   6.880   3.530   6.705
 5847SOL     OW18439   1.135   2.417   3.857
 5847SOL    HW118440   1.210   2.388   3.797
 5847SOL    HW218441   1.167   2.416   3.952
 5848SOL     OW18442   1.013   4.817   3.393
 5848SOL    HW118443   0.950   4.895   3.393
 5848SOL    HW218444   1.099   4.843   3.436
 5849SOL     OW18445   3.223   6.841   5.764
 5849SOL    HW118446   3.172   6.924   5.785
 5849SOL    HW218447   3.160   6.763   5.763
 5850SOL     OW18448   0.716   4.477   3.157
 5850SOL    HW118449   0.799   4.500   3.107
 5850SOL    HW218450   0.699   4.379   3.149
 5851SOL     OW18451   5.743   3.044   1.872
 5851SOL    HW118452   5.691   2.961   1.852
 5851SOL    HW218453   5.797   3.030   1.955
 5852SOL     OW18454   3.842   6.562   2.961
 5852SOL    HW118455   3.810   6.560   2.866
 5852SOL    HW218456   3.864   6.656   2.986
 5853SOL     OW18457   4.911   4.069   5.552
 5853SOL    HW118458   4.813   4.048   5.558
 5853SOL    HW218459   4.949   4.024   5.472
 5854SOL     OW18460   1.065   1.052   6.451
 5854SOL    HW118461   1.056   1.150   6.469
 5854SOL    HW218462   1.160   1.031   6.425
 5855SOL     OW18463   1.788   1.698   4.704
 5855SOL    HW118464   1.740   1.676   4.789
 5855SOL    HW218465   1.879   1.733   4.725
 5856SOL     OW18466   1.517   5.460   3.436
 5856SOL    HW118467   1.604   5.504   3.411
 5856SOL    HW218468   1.442   5.509   3.392
 5857SOL     OW18469   0.656   2.825   5.478
 5857SOL    HW118470   0.749   2.821   5.512
 5857SOL    HW218471   0.648   2.899   5.411
 5858SOL     OW18472   3.252   6.720   3.594
 5858SOL    HW118473   3.279   6.651   3.527
 5858SOL    HW218474   3.328   6.737   3.656
 5859SOL     OW18475   5.949   5.820   1.908
 5859SOL    HW118476   5.987   5.752   1.971
 5859SOL    HW218477   5.883   5.775   1.846
 5860SOL     OW18478   0.019   4.042   0.917
 5860SOL    HW118479   0.033   3.943   0.905
 5860SOL    HW218480   0.020   4.064   1.014
 5861SOL     OW18481   6.054   1.579   3.731
 5861SOL    HW118482   6.121   1.653   3.732
 5861SOL    HW218483   6.019   1.567   3.638
 5862SOL     OW18484   4.785   5.041   3.613
 5862SOL    HW118485   4.812   5.095   3.533
 5862SOL    HW218486   4.859   4.977   3.636
 5863SOL     OW18487   2.346   1.652   0.777
 5863SOL    HW118488   2.338   1.697   0.866
 5863SOL    HW218489   2.386   1.716   0.711
 5864SOL     OW18490   4.641   5.409   0.792
 5864SOL    HW118491   4.638   5.353   0.875
 5864SOL    HW218492   4.589   5.364   0.719
 5865SOL     OW18493   4.314   0.462   3.190
 5865SOL    HW118494   4.289   0.548   3.145
 5865SOL    HW218495   4.232   0.405   3.199
 5866SOL     OW18496   3.384   1.505   6.748
 5866SOL    HW118497   3.319   1.436   6.717
 5866SOL    HW218498   3.464   1.504   6.688
 5867SOL     OW18499   6.618   2.881   1.430
 5867SOL    HW118500   6.667   2.793   1.422
 5867SOL    HW218501   6.565   2.897   1.347
 5868SOL     OW18502   1.003   6.618   4.976
 5868SOL    HW118503   0.949   6.700   4.992
 5868SOL    HW218504   0.970   6.543   5.033
 5869SOL     OW18505   2.974   4.901   4.240
 5869SOL    HW118506   3.073   4.889   4.231
 5869SOL    HW218507   2.947   4.883   4.335
 5870SOL     OW18508   4.850   5.555   3.975
 5870SOL    HW118509   4.777   5.494   4.007
 5870SOL    HW218510   4.924   5.501   3.936
 5871SOL     OW18511   3.015   3.503   0.483
 5871SOL    HW118512   3.040   3.581   0.541
 5871SOL    HW218513   2.931   3.461   0.518
 5872SOL     OW18514   4.093   5.491   3.633
 5872SOL    HW118515   4.100   5.393   3.652
 5872SOL    HW218516   4.111   5.543   3.716
 5873SOL     OW18517   1.928   2.854   6.898
 5873SOL    HW118518   2.008   2.806   6.934
 5873SOL    HW218519   1.896   2.807   6.815
 5874SOL     OW18520   1.002   4.138   6.166
 5874SOL    HW118521   0.979   4.225   6.123
 5874SOL    HW218522   1.083   4.150   6.223
 5875SOL     OW18523   3.198   2.538   1.082
 5875SOL    HW118524   3.274   2.476   1.062
 5875SOL    HW218525   3.173   2.529   1.178
 5876SOL     OW18526   4.345   4.041   6.078
 5876SOL    HW118527   4.335   4.016   5.982
 5876SOL    HW218528   4.282   4.116   6.099
 5877SOL     OW18529   5.760   0.245   2.550
 5877SOL    HW118530   5.771   0.236   2.451
 5877SOL    HW218531   5.766   0.341   2.576
 5878SOL     OW18532   4.953   4.025   2.543
 5878SOL    HW118533   4.915   4.116   2.562
 5878SOL    HW218534   5.051   4.026   2.559
 5879SOL     OW18535   3.088   4.510   5.369
 5879SOL    HW118536   3.048   4.523   5.279
 5879SOL    HW218537   3.094   4.412   5.390
 5880SOL     OW18538   5.929   2.482   0.446
 5880SOL    HW118539   5.923   2.557   0.512
 5880SOL    HW218540   5.992   2.508   0.373
 5881SOL     OW18541   1.470   6.065   2.577
 5881SOL    HW118542   1.492   5.972   2.609
 5881SOL    HW218543   1.416   6.112   2.647
 5882SOL     OW18544   1.571   4.958   5.520
 5882SOL    HW118545   1.626   4.878   5.497
 5882SOL    HW218546   1.488   4.959   5.464
 5883SOL     OW18547   0.067   5.427   0.210
 5883SOL    HW118548   7.018   5.470   0.270
 5883SOL    HW218549   0.061   5.327   0.220
 5884SOL     OW18550   6.583   0.809   2.580
 5884SOL    HW118551   6.582   0.879   2.651
 5884SOL    HW218552   6.542   0.845   2.497
 5885SOL     OW18553   0.277   5.744   1.461
 5885SOL    HW118554   0.205   5.684   1.427
 5885SOL    HW218555   0.366   5.702   1.445
 5886SOL     OW18556   2.256   4.631   3.682
 5886SOL    HW118557   2.297   4.720   3.664
 5886SOL    HW218558   2.325   4.568   3.717
 5887SOL     OW18559   3.229   3.188   0.175
 5887SOL    HW118560   3.221   3.248   0.254
 5887SOL    HW218561   3.203   3.238   0.092
 5888SOL     OW18562   2.789   6.004   1.639
 5888SOL    HW118563   2.882   6.040   1.647
 5888SOL    HW218564   2.742   6.017   1.727
 5889SOL     OW18565   5.247   1.847   2.611
 5889SOL    HW118566   5.192   1.886   2.538
 5889SOL    HW218567   5.208   1.759   2.639
 5890SOL     OW18568   2.613   4.686   3.541
 5890SOL    HW118569   2.577   4.653   3.455
 5890SOL    HW218570   2.695   4.742   3.524
 5891SOL     OW18571   2.581   2.979   6.523
 5891SOL    HW118572   2.488   2.994   6.490
 5891SOL    HW218573   2.582   2.901   6.585
 5892SOL     OW18574   1.318   2.368   0.637
 5892SOL    HW118575   1.252   2.439   0.661
 5892SOL    HW218576   1.279   2.310   0.564
 5893SOL     OW18577   0.547   6.253   1.603
 5893SOL    HW118578   0.612   6.290   1.537
 5893SOL    HW218579   0.467   6.313   1.607
 5894SOL     OW18580   2.352   5.338   6.595
 5894SOL    HW118581   2.367   5.271   6.522
 5894SOL    HW218582   2.436   5.388   6.612
 5895SOL     OW18583   6.197   3.841   3.864
 5895SOL    HW118584   6.190   3.788   3.948
 5895SOL    HW218585   6.196   3.939   3.886
 5896SOL     OW18586   5.830   2.596   1.842
 5896SOL    HW118587   5.870   2.508   1.869
 5896SOL    HW218588   5.836   2.606   1.743
 5897SOL     OW18589   3.328   2.450   0.499
 5897SOL    HW118590   3.298   2.416   0.411
 5897SOL    HW218591   3.273   2.530   0.524
 5898SOL     OW18592   3.115   1.010   0.005
 5898SOL    HW118593   3.059   1.011   6.940
 5898SOL    HW218594   3.067   1.060   0.077
 5899SOL     OW18595   0.407   6.689   6.804
 5899SOL    HW118596   0.410   6.635   6.889
 5899SOL    HW218597   0.311   6.702   6.777
 5900SOL     OW18598   5.950   6.609   2.597
 5900SOL    HW118599   5.918   6.649   2.511
 5900SOL    HW218600   6.009   6.675   2.645
 5901SOL     OW18601   2.190   0.759   5.133
 5901SOL    HW118602   2.277   0.804   5.114
 5901SOL    HW218603   2.119   0.828   5.147
 5902SOL     OW18604   3.918   4.056   5.833
 5902SOL    HW118605   3.847   3.998   5.792
 5902SOL    HW218606   3.988   4.077   5.765
 5903SOL     OW18607   6.176   2.201   4.883
 5903SOL    HW118608   6.192   2.240   4.974
 5903SOL    HW218609   6.098   2.139   4.887
 5904SOL     OW18610   6.911   4.672   1.911
 5904SOL    HW118611   6.818   4.636   1.922
 5904SOL    HW218612   6.930   4.684   1.813
 5905SOL     OW18613   6.443   2.590   4.763
 5905SOL    HW118614   6.428   2.689   4.769
 5905SOL    HW218615   6.410   2.546   4.847
 5906SOL     OW18616   4.720   1.063   5.536
 5906SOL    HW118617   4.642   1.125   5.539
 5906SOL    HW218618   4.688   0.971   5.513
 5907SOL     OW18619   1.220   3.516   5.858
 5907SOL    HW118620   1.307   3.565   5.861
 5907SOL    HW218621   1.218   3.448   5.932
 5908SOL     OW18622   4.260   3.901   6.690
 5908SOL    HW118623   4.299   3.847   6.765
 5908SOL    HW218624   4.330   3.916   6.620
 5909SOL     OW18625   5.660   5.186   3.408
 5909SOL    HW118626   5.748   5.219   3.443
 5909SOL    HW218627   5.587   5.249   3.434
 5910SOL     OW18628   2.994   4.367   1.344
 5910SOL    HW118629   2.997   4.441   1.276
 5910SOL    HW218630   3.066   4.382   1.412
 5911SOL     OW18631   6.068   0.442   5.767
 5911SOL    HW118632   6.060   0.380   5.845
 5911SOL    HW218633   6.161   0.438   5.731
 5912SOL     OW18634   0.608   3.501   5.886
 5912SOL    HW118635   0.657   3.583   5.856
 5912SOL    HW218636   0.670   3.422   5.885
 5913SOL     OW18637   2.041   2.410   4.158
 5913SOL    HW118638   2.072   2.498   4.121
 5913SOL    HW218639   2.097   2.337   4.119
 5914SOL     OW18640   1.297   5.702   0.955
 5914SOL    HW118641   1.393   5.708   0.982
 5914SOL    HW218642   1.252   5.789   0.972
 5915SOL     OW18643   5.861   3.753   3.819
 5915SOL    HW118644   5.851   3.654   3.812
 5915SOL    HW218645   5.957   3.775   3.840
 5916SOL     OW18646   3.070   0.633   6.836
 5916SOL    HW118647   2.980   0.617   6.878
 5916SOL    HW218648   3.068   0.718   6.784
 5917SOL     OW18649   3.912   3.943   2.491
 5917SOL    HW118650   3.816   3.917   2.481
 5917SOL    HW218651   3.925   3.989   2.579
 5918SOL     OW18652   2.658   2.109   3.947
 5918SOL    HW118653   2.658   2.065   3.857
 5918SOL    HW218654   2.736   2.078   4.000
 5919SOL     OW18655   1.773   2.219   6.850
 5919SOL    HW118656   1.793   2.316   6.837
 5919SOL    HW218657   1.729   2.206   6.939
 5920SOL     OW18658   2.785   5.145   6.881
 5920SOL    HW118659   2.702   5.093   6.901
 5920SOL    HW218660   2.761   5.226   6.827
 5921SOL     OW18661   3.821   5.369   5.207
 5921SOL    HW118662   3.817   5.462   5.245
 5921SOL    HW218663   3.861   5.373   5.115
 5922SOL     OW18664   6.233   4.842   1.912
 5922SOL    HW118665   6.240   4.745   1.888
 5922SOL    HW218666   6.324   4.876   1.937
 5923SOL     OW18667   0.623   0.656   3.280
 5923SOL    HW118668   0.637   0.673   3.182
 5923SOL    HW218669   0.595   0.741   3.324
 5924SOL     OW18670   5.944   1.898   4.652
 5924SOL    HW118671   5.848   1.925   4.646
 5924SOL    HW218672   5.974   1.861   4.564
 5925SOL     OW18673   6.274   5.688   0.279
 5925SOL    HW118674   6.355   5.742   0.304
 5925SOL    HW218675   6.193   5.747   0.281
 5926SOL     OW18676   3.651   6.216   1.796
 5926SOL    HW118677   3.716   6.246   1.866
 5926SOL    HW218678   3.572   6.277   1.796
 5927SOL     OW18679   2.149   5.079   1.438
 5927SOL    HW118680   2.137   5.122   1.527
 5927SOL    HW218681   2.247   5.070   1.419
 5928SOL     OW18682   0.632   6.280   0.995
 5928SOL    HW118683   0.612   6.343   0.920
 5928SOL    HW218684   0.708   6.315   1.049
 5929SOL     OW18685   0.720   6.911   5.606
 5929SOL    HW118686   0.734   6.850   5.528
 5929SOL    HW218687   0.640   6.970   5.589
 5930SOL     OW18688   6.169   1.206   5.304
 5930SOL    HW118689   6.089   1.221   5.363
 5930SOL    HW218690   6.142   1.147   5.228
 5931SOL     OW18691   5.570   4.976   0.765
 5931SOL    HW118692   5.471   4.984   0.754
 5931SOL    HW218693   5.604   5.053   0.819
 5932SOL     OW18694   2.153   0.205   0.163
 5932SOL    HW118695   2.053   0.206   0.172
 5932SOL    HW218696   2.192   0.148   0.235
 5933SOL     OW18697   6.100   3.069   3.266
 5933SOL    HW118698   6.115   3.114   3.178
 5933SOL    HW218699   6.144   2.980   3.266
 5934SOL     OW18700   4.078   3.731   2.479
 5934SOL    HW118701   4.164   3.776   2.453
 5934SOL    HW218702   4.003   3.796   2.474
 5935SOL     OW18703   3.739   2.943   3.052
 5935SOL    HW118704   3.721   3.032   3.093
 5935SOL    HW218705   3.817   2.950   2.990
 5936SOL     OW18706   6.713   6.111   6.789
 5936SOL    HW118707   6.675   6.115   6.882
 5936SOL    HW218708   6.678   6.029   6.743
 5937SOL     OW18709   0.963   4.112   6.928
 5937SOL    HW118710   0.965   4.118   6.828
 5937SOL    HW218711   0.873   4.081   6.958
 5938SOL     OW18712   2.575   4.739   0.495
 5938SOL    HW118713   2.501   4.692   0.544
 5938SOL    HW218714   2.552   4.836   0.484
 5939SOL     OW18715   1.509   0.750   2.072
 5939SOL    HW118716   1.537   0.835   2.027
 5939SOL    HW218717   1.557   0.742   2.159
 5940SOL     OW18718   3.753   4.838   3.398
 5940SOL    HW118719   3.668   4.802   3.361
 5940SOL    HW218720   3.826   4.829   3.329
 5941SOL     OW18721   6.459   2.503   3.511
 5941SOL    HW118722   6.405   2.540   3.587
 5941SOL    HW218723   6.555   2.530   3.523
 5942SOL     OW18724   6.665   1.177   4.525
 5942SOL    HW118725   6.665   1.079   4.508
 5942SOL    HW218726   6.723   1.223   4.457
 5943SOL     OW18727   1.551   5.410   0.788
 5943SOL    HW118728   1.472   5.402   0.727
 5943SOL    HW218729   1.602   5.493   0.767
 5944SOL     OW18730   5.321   2.544   2.406
 5944SOL    HW118731   5.335   2.643   2.407
 5944SOL    HW218732   5.278   2.517   2.320
 5945SOL     OW18733   6.714   5.761   6.305
 5945SOL    HW118734   6.721   5.664   6.330
 5945SOL    HW218735   6.625   5.778   6.264
 5946SOL     OW18736   3.535   2.666   5.380
 5946SOL    HW118737   3.520   2.759   5.345
 5946SOL    HW218738   3.454   2.610   5.361
 5947SOL     OW18739   4.870   3.792   2.008
 5947SOL    HW118740   4.808   3.859   2.048
 5947SOL    HW218741   4.818   3.712   1.978
 5948SOL     OW18742   3.340   5.236   3.297
 5948SOL    HW118743   3.290   5.240   3.383
 5948SOL    HW218744   3.301   5.163   3.240
 5949SOL     OW18745   4.409   4.822   3.151
 5949SOL    HW118746   4.408   4.773   3.239
 5949SOL    HW218747   4.442   4.915   3.166
 5950SOL     OW18748   6.553   2.575   4.514
 5950SOL    HW118749   6.541   2.567   4.613
 5950SOL    HW218750   6.488   2.641   4.477
 5951SOL     OW18751   1.941   0.424   4.376
 5951SOL    HW118752   1.957   0.505   4.319
 5951SOL    HW218753   2.027   0.374   4.387
 5952SOL     OW18754   0.409   5.878   4.945
 5952SOL    HW118755   0.471   5.831   5.007
 5952SOL    HW218756   0.462   5.934   4.881
 5953SOL     OW18757   0.846   3.334   6.213
 5953SOL    HW118758   0.864   3.235   6.209
 5953SOL    HW218759   0.832   3.368   6.120
 5954SOL     OW18760   1.422   4.928   6.486
 5954SOL    HW118761   1.363   4.928   6.567
 5954SOL    HW218762   1.449   5.022   6.464
 5955SOL     OW18763   4.955   4.983   2.844
 5955SOL    HW118764   4.983   5.055   2.781
 5955SOL    HW218765   4.995   5.000   2.934
 5956SOL     OW18766   0.117   2.228   0.302
 5956SOL    HW118767   0.076   2.163   0.238
 5956SOL    HW218768   0.064   2.313   0.301
 5957SOL     OW18769   4.405   6.916   5.523
 5957SOL    HW118770   4.373   6.824   5.550
 5957SOL    HW218771   4.382   6.981   5.596
 5958SOL     OW18772   1.158   5.279   2.863
 5958SOL    HW118773   1.169   5.245   2.769
 5958SOL    HW218774   1.109   5.366   2.861
 5959SOL     OW18775   1.512   1.203   6.569
 5959SOL    HW118776   1.526   1.131   6.501
 5959SOL    HW218777   1.552   1.289   6.535
 5960SOL     OW18778   3.461   6.338   5.620
 5960SOL    HW118779   3.426   6.270   5.556
 5960SOL    HW218780   3.426   6.319   5.712
 5961SOL     OW18781   2.565   1.091   5.228
 5961SOL    HW118782   2.609   1.132   5.308
 5961SOL    HW218783   2.546   1.161   5.160
 5962SOL     OW18784   5.202   3.880   1.856
 5962SOL    HW118785   5.192   3.834   1.944
 5962SOL    HW218786   5.296   3.913   1.846
 5963SOL     OW18787   4.216   4.079   1.732
 5963SOL    HW118788   4.192   4.125   1.647
 5963SOL    HW218789   4.281   4.135   1.783
 5964SOL     OW18790   1.460   3.678   5.861
 5964SOL    HW118791   1.520   3.650   5.786
 5964SOL    HW218792   1.455   3.777   5.865
 5965SOL     OW18793   2.185   1.755   3.807
 5965SOL    HW118794   2.166   1.824   3.737
 5965SOL    HW218795   2.232   1.677   3.765
 5966SOL     OW18796   1.814   5.768   4.268
 5966SOL    HW118797   1.802   5.673   4.294
 5966SOL    HW218798   1.745   5.793   4.200
 5967SOL     OW18799   4.600   5.812   2.441
 5967SOL    HW118800   4.566   5.764   2.522
 5967SOL    HW218801   4.533   5.804   2.367
 5968SOL     OW18802   0.556   1.518   4.107
 5968SOL    HW118803   0.548   1.486   4.201
 5968SOL    HW218804   0.653   1.522   4.081
 5969SOL     OW18805   6.198   1.987   2.868
 5969SOL    HW118806   6.140   1.965   2.946
 5969SOL    HW218807   6.220   2.084   2.869
 5970SOL     OW18808   2.149   3.609   3.600
 5970SOL    HW118809   2.125   3.558   3.682
 5970SOL    HW218810   2.226   3.670   3.618
 5971SOL     OW18811   3.297   5.954   3.466
 5971SOL    HW118812   3.209   5.978   3.424
 5971SOL    HW218813   3.282   5.886   3.538
 5972SOL     OW18814   5.626   0.283   1.525
 5972SOL    HW118815   5.609   0.244   1.435
 5972SOL    HW218816   5.665   0.374   1.515
 5973SOL     OW18817   1.933   4.596   3.331
 5973SOL    HW118818   1.974   4.613   3.241
 5973SOL    HW218819   1.838   4.567   3.319
 5974SOL     OW18820   0.802   4.115   6.369
 5974SOL    HW118821   0.743   4.036   6.349
 5974SOL    HW218822   0.881   4.114   6.308
 5975SOL     OW18823   2.103   2.244   6.240
 5975SOL    HW118824   2.132   2.182   6.168
 5975SOL    HW218825   2.089   2.335   6.201
 5976SOL     OW18826   3.566   2.921   4.565
 5976SOL    HW118827   3.595   2.826   4.569
 5976SOL    HW218828   3.474   2.927   4.526
 5977SOL     OW18829   0.426   3.659   3.112
 5977SOL    HW118830   0.373   3.613   3.040
 5977SOL    HW218831   0.505   3.602   3.136
 5978SOL     OW18832   4.955   5.324   2.079
 5978SOL    HW118833   4.882   5.298   2.142
 5978SOL    HW218834   4.939   5.279   1.991
 5979SOL     OW18835   0.997   1.224   1.488
 5979SOL    HW118836   0.925   1.176   1.538
 5979SOL    HW218837   1.086   1.202   1.528
 5980SOL     OW18838   5.663   2.846   6.162
 5980SOL    HW118839   5.581   2.868   6.215
 5980SOL    HW218840   5.744   2.859   6.219
 5981SOL     OW18841   3.547   2.038   0.867
 5981SOL    HW118842   3.627   2.022   0.809
 5981SOL    HW218843   3.502   2.123   0.840
 5982SOL     OW18844   6.390   2.508   6.937
 5982SOL    HW118845   6.297   2.527   6.968
 5982SOL    HW218846   6.449   2.490   7.015
 5983SOL     OW18847   1.319   0.700   4.939
 5983SOL    HW118848   1.246   0.759   4.973
 5983SOL    HW218849   1.366   0.657   5.016
 5984SOL     OW18850   0.652   6.966   6.012
 5984SOL    HW118851   0.617   6.969   6.105
 5984SOL    HW218852   0.629   0.033   5.965
 5985SOL     OW18853   5.444   3.714   3.925
 5985SOL    HW118854   5.501   3.683   4.000
 5985SOL    HW218855   5.488   3.693   3.838
 5986SOL     OW18856   2.918   3.371   2.951
 5986SOL    HW118857   2.904   3.445   3.017
 5986SOL    HW218858   2.879   3.396   2.863
 5987SOL     OW18859   4.733   0.366   5.722
 5987SOL    HW118860   4.637   0.363   5.696
 5987SOL    HW218861   4.741   0.402   5.815
 5988SOL     OW18862   3.430   0.201   5.863
 5988SOL    HW118863   3.469   0.127   5.807
 5988SOL    HW218864   3.491   0.281   5.859
 5989SOL     OW18865   2.944   1.496   0.051
 5989SOL    HW118866   2.903   1.442   6.995
 5989SOL    HW218867   2.936   1.593   0.031
 5990SOL     OW18868   3.597   5.135   2.630
 5990SOL    HW118869   3.638   5.074   2.698
 5990SOL    HW218870   3.518   5.090   2.588
 5991SOL     OW18871   2.929   5.117   3.468
 5991SOL    HW118872   3.022   5.150   3.450
 5991SOL    HW218873   2.882   5.182   3.528
 5992SOL     OW18874   4.500   2.017   3.933
 5992SOL    HW118875   4.504   1.927   3.977
 5992SOL    HW218876   4.435   2.014   3.857
 5993SOL     OW18877   2.622   5.393   3.506
 5993SOL    HW118878   2.685   5.439   3.443
 5993SOL    HW218879   2.528   5.413   3.480
 5994SOL     OW18880   6.147   2.295   1.260
 5994SOL    HW118881   6.202   2.365   1.214
 5994SOL    HW218882   6.176   2.288   1.356
 5995SOL     OW18883   0.995   4.347   1.209
 5995SOL    HW118884   1.037   4.423   1.258
 5995SOL    HW218885   0.917   4.381   1.156
 5996SOL     OW18886   1.136   5.466   6.076
 5996SOL    HW118887   1.228   5.502   6.090
 5996SOL    HW218888   1.081   5.482   6.157
 5997SOL     OW18889   0.195   0.771   1.303
 5997SOL    HW118890   0.284   0.765   1.256
 5997SOL    HW218891   0.139   0.692   1.277
 5998SOL     OW18892   4.615   2.674   3.261
 5998SOL    HW118893   4.617   2.717   3.351
 5998SOL    HW218894   4.669   2.730   3.197
 5999SOL     OW18895   2.307   2.669   3.151
 5999SOL    HW118896   2.258   2.753   3.175
 5999SOL    HW218897   2.359   2.637   3.230
 6000SOL     OW18898   4.931   0.936   3.416
 6000SOL    HW118899   5.015   0.959   3.465
 6000SOL    HW218900   4.853   0.954   3.475
 6001SOL     OW18901   6.460   1.705   0.429
 6001SOL    HW118902   6.488   1.800   0.437
 6001SOL    HW218903   6.364   1.695   0.455
 6002SOL     OW18904   1.643   0.288   2.182
 6002SOL    HW118905   1.600   0.299   2.093
 6002SOL    HW218906   1.704   0.365   2.200
 6003SOL     OW18907   5.516   4.324   4.213
 6003SOL    HW118908   5.615   4.329   4.224
 6003SOL    HW218909   5.482   4.240   4.255
 6004SOL     OW18910   6.787   3.385   1.882
 6004SOL    HW118911   6.786   3.285   1.876
 6004SOL    HW218912   6.706   3.422   1.836
 6005SOL     OW18913   1.892   6.115   2.455
 6005SOL    HW118914   1.933   6.183   2.394
 6005SOL    HW218915   1.820   6.065   2.406
 6006SOL     OW18916   2.750   5.759   0.194
 6006SOL    HW118917   2.698   5.716   0.120
 6006SOL    HW218918   2.800   5.688   0.245
 6007SOL     OW18919   5.381   3.592   4.587
 6007SOL    HW118920   5.352   3.688   4.595
 6007SOL    HW218921   5.472   3.589   4.546
 6008SOL     OW18922   4.681   3.886   1.365
 6008SOL    HW118923   4.609   3.946   1.329
 6008SOL    HW218924   4.693   3.808   1.304
 6009SOL     OW18925   4.929   2.105   5.044
 6009SOL    HW118926   4.862   2.044   5.001
 6009SOL    HW218927   5.012   2.053   5.065
 6010SOL     OW18928   1.614   4.315   3.284
 6010SOL    HW118929   1.529   4.289   3.239
 6010SOL    HW218930   1.596   4.389   3.349
 6011SOL     OW18931   6.410   2.071   1.656
 6011SOL    HW118932   6.423   2.019   1.740
 6011SOL    HW218933   6.444   2.017   1.578
 6012SOL     OW18934   0.301   2.890   1.534
 6012SOL    HW118935   0.380   2.858   1.586
 6012SOL    HW218936   0.276   2.822   1.466
 6013SOL     OW18937   5.435   0.249   2.650
 6013SOL    HW118938   5.528   0.213   2.638
 6013SOL    HW218939   5.417   0.318   2.580
 6014SOL     OW18940   6.240   0.529   1.026
 6014SOL    HW118941   6.175   0.491   1.091
 6014SOL    HW218942   6.201   0.610   0.983
 6015SOL     OW18943   5.802   0.556   4.107
 6015SOL    HW118944   5.742   0.617   4.055
 6015SOL    HW218945   5.856   0.500   4.043
 6016SOL     OW18946   2.029   0.039   5.391
 6016SOL    HW118947   1.982   0.121   5.360
 6016SOL    HW218948   2.125   0.060   5.410
 6017SOL     OW18949   0.097   3.936   2.593
 6017SOL    HW118950   0.055   3.907   2.508
 6017SOL    HW218951   0.193   3.960   2.577
 6018SOL     OW18952   2.712   5.230   1.464
 6018SOL    HW118953   2.772   5.154   1.441
 6018SOL    HW218954   2.761   5.295   1.522
 6019SOL     OW18955   6.087   6.325   3.460
 6019SOL    HW118956   6.097   6.403   3.398
 6019SOL    HW218957   6.020   6.347   3.530
 6020SOL     OW18958   2.160   6.511   2.749
 6020SOL    HW118959   2.154   6.600   2.703
 6020SOL    HW218960   2.186   6.524   2.844
 6021SOL     OW18961   4.298   0.482   3.559
 6021SOL    HW118962   4.198   0.492   3.564
 6021SOL    HW218963   4.322   0.385   3.561
 6022SOL     OW18964   4.374   0.923   5.042
 6022SOL    HW118965   4.356   1.003   5.100
 6022SOL    HW218966   4.468   0.893   5.056
 6023SOL     OW18967   0.021   2.188   2.345
 6023SOL    HW118968   0.114   2.207   2.376
 6023SOL    HW218969   0.013   2.092   2.318
 6024SOL     OW18970   6.716   5.789   2.645
 6024SOL    HW118971   6.789   5.726   2.620
 6024SOL    HW218972   6.686   5.769   2.738
 6025SOL     OW18973   4.086   2.246   2.504
 6025SOL    HW118974   4.010   2.200   2.458
 6025SOL    HW218975   4.068   2.344   2.508
 6026SOL     OW18976   0.312   4.328   5.421
 6026SOL    HW118977   0.321   4.233   5.391
 6026SOL    HW218978   0.370   4.344   5.501
 6027SOL     OW18979   4.094   3.838   0.427
 6027SOL    HW118980   4.117   3.789   0.511
 6027SOL    HW218981   4.112   3.780   0.348
 6028SOL     OW18982   0.860   4.537   0.094
 6028SOL    HW118983   0.806   4.573   0.018
 6028SOL    HW218984   0.799   4.494   0.161
 6029SOL     OW18985   0.834   5.135   1.697
 6029SOL    HW118986   0.752   5.182   1.731
 6029SOL    HW218987   0.815   5.037   1.690
 6030SOL     OW18988   2.004   6.466   1.665
 6030SOL    HW118989   1.925   6.527   1.654
 6030SOL    HW218990   2.032   6.466   1.761
 6031SOL     OW18991   5.074   1.086   4.415
 6031SOL    HW118992   4.999   1.113   4.477
 6031SOL    HW218993   5.161   1.102   4.460
 6032SOL     OW18994   0.250   3.446   2.290
 6032SOL    HW118995   0.201   3.360   2.306
 6032SOL    HW218996   0.339   3.442   2.335
 6033SOL     OW18997   0.070   6.771   4.639
 6033SOL    HW118998   0.134   6.695   4.644
 6033SOL    HW218999   0.013   6.762   4.558
 6034SOL     OW19000   2.175   4.431   4.903
 6034SOL    HW119001   2.256   4.430   4.962
 6034SOL    HW219002   2.177   4.351   4.843
 6035SOL     OW19003   5.507   0.180   3.677
 6035SOL    HW119004   5.432   0.154   3.738
 6035SOL    HW219005   5.473   0.246   3.610
 6036SOL     OW19006   6.750   0.577   4.856
 6036SOL    HW119007   6.744   0.492   4.908
 6036SOL    HW219008   6.705   0.650   4.907
 6037SOL     OW19009   0.396   5.558   4.900
 6037SOL    HW119010   0.327   5.626   4.877
 6037SOL    HW219011   0.478   5.575   4.844
 6038SOL     OW19012   6.361   3.895   6.668
 6038SOL    HW119013   6.297   3.825   6.700
 6038SOL    HW219014   6.441   3.897   6.729
 6039SOL     OW19015   3.961   3.564   4.407
 6039SOL    HW119016   3.889   3.629   4.382
 6039SOL    HW219017   4.048   3.611   4.413
 6040SOL     OW19018   1.383   0.691   1.460
 6040SOL    HW119019   1.292   0.668   1.425
 6040SOL    HW219020   1.429   0.607   1.489
 6041SOL     OW19021   0.284   2.585   0.542
 6041SOL    HW119022   0.279   2.592   0.642
 6041SOL    HW219023   0.306   2.675   0.504
 6042SOL     OW19024   5.301   5.514   4.982
 6042SOL    HW119025   5.216   5.474   4.947
 6042SOL    HW219026   5.286   5.611   5.002
 6043SOL     OW19027   0.334   4.461   4.270
 6043SOL    HW119028   0.328   4.391   4.198
 6043SOL    HW219029   0.355   4.549   4.228
 6044SOL     OW19030   1.727   0.272   1.501
 6044SOL    HW119031   1.816   0.235   1.473
 6044SOL    HW219032   1.654   0.227   1.449
 6045SOL     OW19033   6.468   4.079   0.455
 6045SOL    HW119034   6.546   4.130   0.492
 6045SOL    HW219035   6.476   4.074   0.356
 6046SOL     OW19036   1.813   3.674   0.186
 6046SOL    HW119037   1.892   3.613   0.193
 6046SOL    HW219038   1.793   3.692   0.090
 6047SOL     OW19039   0.513   6.358   4.856
 6047SOL    HW119040   0.426   6.379   4.810
 6047SOL    HW219041   0.498   6.354   4.955
 6048SOL     OW19042   4.294   6.068   4.372
 6048SOL    HW119043   4.199   6.097   4.382
 6048SOL    HW219044   4.351   6.146   4.347
 6049SOL     OW19045   6.667   5.575   0.124
 6049SOL    HW119046   6.569   5.556   0.116
 6049SOL    HW219047   6.683   5.637   0.200
 6050SOL     OW19048   5.378   4.744   5.397
 6050SOL    HW119049   5.377   4.754   5.297
 6050SOL    HW219050   5.284   4.740   5.431
 6051SOL     OW19051   3.328   2.064   3.584
 6051SOL    HW119052   3.394   2.060   3.509
 6051SOL    HW219053   3.259   1.993   3.572
 6052SOL     OW19054   6.824   1.341   0.548
 6052SOL    HW119055   6.746   1.402   0.553
 6052SOL    HW219056   6.863   1.344   0.455
 6053SOL     OW19057   1.740   0.255   6.461
 6053SOL    HW119058   1.720   0.303   6.376
 6053SOL    HW219059   1.769   0.161   6.441
 6054SOL     OW19060   1.667   4.254   6.575
 6054SOL    HW119061   1.677   4.335   6.633
 6054SOL    HW219062   1.730   4.183   6.607
 6055SOL     OW19063   5.652   0.260   3.142
 6055SOL    HW119064   5.752   0.261   3.149
 6055SOL    HW219065   5.622   0.340   3.089
 6056SOL     OW19066   5.549   3.299   6.271
 6056SOL    HW119067   5.623   3.235   6.293
 6056SOL    HW219068   5.495   3.263   6.195
 6057SOL     OW19069   3.695   1.046   6.358
 6057SOL    HW119070   3.789   1.016   6.378
 6057SOL    HW219071   3.688   1.145   6.373
 6058SOL     OW19072   5.582   1.680   4.871
 6058SOL    HW119073   5.679   1.664   4.854
 6058SOL    HW219074   5.571   1.742   4.948
 6059SOL     OW19075   6.830   6.238   6.555
 6059SOL    HW119076   6.789   6.208   6.641
 6059SOL    HW219077   6.882   6.322   6.570
 6060SOL     OW19078   3.344   6.261   6.297
 6060SOL    HW119079   3.338   6.184   6.361
 6060SOL    HW219080   3.252   6.289   6.271
 6061SOL     OW19081   1.782   1.833   0.071
 6061SOL    HW119082   1.823   1.793   0.153
 6061SOL    HW219083   1.698   1.881   0.095
 6062SOL     OW19084   1.197   0.064   4.300
 6062SOL    HW119085   1.108   0.110   4.292
 6062SOL    HW219086   1.262   0.125   4.346
 6063SOL     OW19087   5.544   5.566   6.982
 6063SOL    HW119088   5.477   5.561   6.908
 6063SOL    HW219089   5.499   5.601   0.047
 6064SOL     OW19090   0.970   5.032   2.693
 6064SOL    HW119091   0.980   4.958   2.627
 6064SOL    HW219092   1.007   5.117   2.655
 6065SOL     OW19093   5.737   6.879   1.574
 6065SOL    HW119094   5.822   6.889   1.523
 6065SOL    HW219095   5.744   6.799   1.635
 6066SOL     OW19096   4.417   2.005   6.234
 6066SOL    HW119097   4.504   1.961   6.258
 6066SOL    HW219098   4.423   2.042   6.141
 6067SOL     OW19099   5.121   2.388   0.045
 6067SOL    HW119100   5.159   2.427   0.129
 6067SOL    HW219101   5.159   2.296   0.032
 6068SOL     OW19102   5.733   1.762   5.448
 6068SOL    HW119103   5.656   1.698   5.442
 6068SOL    HW219104   5.804   1.734   5.383
 6069SOL     OW19105   6.105   5.407   3.846
 6069SOL    HW119106   6.129   5.395   3.750
 6069SOL    HW219107   6.081   5.318   3.886
 6070SOL     OW19108   4.938   3.016   0.104
 6070SOL    HW119109   4.968   3.070   0.182
 6070SOL    HW219110   5.009   2.949   0.081
 6071SOL     OW19111   5.239   6.803   5.549
 6071SOL    HW119112   5.289   6.749   5.482
 6071SOL    HW219113   5.257   6.900   5.534
 6072SOL     OW19114   6.589   1.414   1.197
 6072SOL    HW119115   6.649   1.403   1.276
 6072SOL    HW219116   6.601   1.506   1.159
 6073SOL     OW19117   6.210   1.013   1.372
 6073SOL    HW119118   6.295   1.018   1.319
 6073SOL    HW219119   6.138   0.970   1.317
 6074SOL     OW19120   0.992   0.400   5.201
 6074SOL    HW119121   0.948   0.452   5.275
 6074SOL    HW219122   0.991   0.454   5.117
 6075SOL     OW19123   4.649   3.560   6.449
 6075SOL    HW119124   4.574   3.577   6.385
 6075SOL    HW219125   4.657   3.462   6.466
 6076SOL     OW19126   2.761   0.430   4.071
 6076SOL    HW119127   2.828   0.359   4.048
 6076SOL    HW219128   2.808   0.519   4.076
 6077SOL     OW19129   4.973   5.023   3.153
 6077SOL    HW119130   5.036   5.085   3.106
 6077SOL    HW219131   5.024   4.942   3.185
 6078SOL     OW19132   1.801   4.518   3.889
 6078SOL    HW119133   1.716   4.478   3.925
 6078SOL    HW219134   1.827   4.472   3.805
 6079SOL     OW19135   2.960   1.496   0.840
 6079SOL    HW119136   2.888   1.556   0.872
 6079SOL    HW219137   2.921   1.410   0.809
 6080SOL     OW19138   5.939   2.654   3.171
 6080SOL    HW119139   6.009   2.721   3.196
 6080SOL    HW219140   5.903   2.612   3.255
 6081SOL     OW19141   0.884   3.885   2.746
 6081SOL    HW119142   0.890   3.925   2.654
 6081SOL    HW219143   0.836   3.949   2.806
 6082SOL     OW19144   3.324   1.638   4.815
 6082SOL    HW119145   3.313   1.561   4.752
 6082SOL    HW219146   3.272   1.716   4.782
 6083SOL     OW19147   1.915   6.534   0.474
 6083SOL    HW119148   1.954   6.485   0.397
 6083SOL    HW219149   1.984   6.545   0.546
 6084SOL     OW19150   0.400   5.543   5.776
 6084SOL    HW119151   0.318   5.599   5.789
 6084SOL    HW219152   0.481   5.599   5.792
 6085SOL     OW19153   4.675   4.957   1.644
 6085SOL    HW119154   4.671   4.879   1.706
 6085SOL    HW219155   4.684   5.041   1.698
 6086SOL     OW19156   3.246   1.506   2.638
 6086SOL    HW119157   3.279   1.578   2.699
 6086SOL    HW219158   3.150   1.485   2.658
 6087SOL     OW19159   3.364   0.301   0.795
 6087SOL    HW119160   3.438   0.237   0.814
 6087SOL    HW219161   3.403   0.390   0.769
 6088SOL     OW19162   0.014   7.009   4.950
 6088SOL    HW119163   6.967   0.043   4.894
 6088SOL    HW219164   0.090   0.051   4.977
 6089SOL     OW19165   6.248   3.892   0.801
 6089SOL    HW119166   6.221   3.851   0.714
 6089SOL    HW219167   6.301   3.975   0.784
 6090SOL     OW19168   6.991   5.815   4.000
 6090SOL    HW119169   0.019   5.790   3.915
 6090SOL    HW219170   6.997   5.738   4.065
 6091SOL     OW19171   6.607   2.210   1.441
 6091SOL    HW119172   6.520   2.186   1.484
 6091SOL    HW219173   6.595   2.294   1.387
 6092SOL     OW19174   1.135   3.314   0.950
 6092SOL    HW119175   1.225   3.339   0.987
 6092SOL    HW219176   1.111   3.222   0.981
 6093SOL     OW19177   1.572   4.248   0.873
 6093SOL    HW119178   1.530   4.311   0.807
 6093SOL    HW219179   1.612   4.170   0.824
 6094SOL     OW19180   0.761   1.324   0.696
 6094SOL    HW119181   0.836   1.363   0.749
 6094SOL    HW219182   0.759   1.364   0.604
 6095SOL     OW19183   6.317   4.103   5.121
 6095SOL    HW119184   6.245   4.087   5.053
 6095SOL    HW219185   6.291   4.179   5.180
 6096SOL     OW19186   4.764   2.167   2.957
 6096SOL    HW119187   4.855   2.131   2.934
 6096SOL    HW219188   4.756   2.260   2.923
 6097SOL     OW19189   3.185   2.070   2.384
 6097SOL    HW119190   3.106   2.127   2.406
 6097SOL    HW219191   3.191   2.059   2.285
 6098SOL     OW19192   1.031   0.184   6.534
 6098SOL    HW119193   0.934   0.207   6.531
 6098SOL    HW219194   1.071   0.219   6.619
 6099SOL     OW19195   5.779   4.297   5.009
 6099SOL    HW119196   5.841   4.224   5.037
 6099SOL    HW219197   5.766   4.294   4.910
 6100SOL     OW19198   0.283   2.695   7.000
 6100SOL    HW119199   0.193   2.725   6.967
 6100SOL    HW219200   0.271   2.630   0.056
 6101SOL     OW19201   6.365   6.956   3.456
 6101SOL    HW119202   6.394   6.922   3.366
 6101SOL    HW219203   6.445   6.982   3.509
 6102SOL     OW19204   2.776   6.838   4.986
 6102SOL    HW119205   2.783   6.750   5.034
 6102SOL    HW219206   2.680   6.858   4.966
 6103SOL     OW19207   5.721   1.620   5.162
 6103SOL    HW119208   5.680   1.709   5.143
 6103SOL    HW219209   5.791   1.600   5.093
 6104SOL     OW19210   1.515   2.949   1.040
 6104SOL    HW119211   1.581   2.979   1.108
 6104SOL    HW219212   1.510   3.016   0.966
 6105SOL     OW19213   3.083   5.073   4.908
 6105SOL    HW119214   3.054   5.165   4.881
 6105SOL    HW219215   3.003   5.018   4.932
 6106SOL     OW19216   2.333   5.212   4.316
 6106SOL    HW119217   2.328   5.198   4.217
 6106SOL    HW219218   2.254   5.169   4.360
 6107SOL     OW19219   2.246   5.118   5.661
 6107SOL    HW119220   2.309   5.098   5.736
 6107SOL    HW219221   2.155   5.082   5.682
 6108SOL     OW19222   5.279   1.909   4.717
 6108SOL    HW119223   5.355   1.853   4.683
 6108SOL    HW219224   5.240   1.962   4.641
 6109SOL     OW19225   6.920   3.630   1.652
 6109SOL    HW119226   6.892   3.535   1.641
 6109SOL    HW219227   6.862   3.689   1.596
 6110SOL     OW19228   3.219   2.012   3.116
 6110SOL    HW119229   3.173   2.020   3.204
 6110SOL    HW219230   3.239   1.916   3.097
 6111SOL     OW19231   0.527   4.353   3.560
 6111SOL    HW119232   0.509   4.263   3.600
 6111SOL    HW219233   0.625   4.371   3.561
 6112SOL     OW19234   1.512   2.276   1.292
 6112SOL    HW119235   1.444   2.217   1.336
 6112SOL    HW219236   1.601   2.231   1.293
 6113SOL     OW19237   1.851   5.007   5.133
 6113SOL    HW119238   1.810   5.095   5.110
 6113SOL    HW219239   1.927   4.987   5.070
 6114SOL     OW19240   4.614   4.399   0.846
 6114SOL    HW119241   4.638   4.368   0.754
 6114SOL    HW219242   4.577   4.323   0.899
 6115SOL     OW19243   6.281   4.600   1.832
 6115SOL    HW119244   6.308   4.504   1.829
 6115SOL    HW219245   6.320   4.649   1.754
 6116SOL     OW19246   3.438   2.395   1.060
 6116SOL    HW119247   3.459   2.305   1.097
 6116SOL    HW219248   3.463   2.465   1.128
 6117SOL     OW19249   5.576   6.826   4.005
 6117SOL    HW119250   5.647   6.777   4.055
 6117SOL    HW219251   5.522   6.880   4.070
 6118SOL     OW19252   6.771   0.037   3.227
 6118SOL    HW119253   6.779   6.963   3.265
 6118SOL    HW219254   6.704   0.037   3.152
 6119SOL     OW19255   5.278   5.724   4.379
 6119SOL    HW119256   5.299   5.628   4.398
 6119SOL    HW219257   5.341   5.783   4.429
 6120SOL     OW19258   2.331   1.666   3.032
 6120SOL    HW119259   2.345   1.696   2.938
 6120SOL    HW219260   2.279   1.736   3.082
 6121SOL     OW19261   6.948   1.814   4.786
 6121SOL    HW119262   6.851   1.793   4.799
 6121SOL    HW219263   6.987   1.846   4.872
 6122SOL     OW19264   3.488   6.150   4.412
 6122SOL    HW119265   3.475   6.220   4.483
 6122SOL    HW219266   3.575   6.165   4.366
 6123SOL     OW19267   5.589   1.203   2.595
 6123SOL    HW119268   5.611   1.283   2.651
 6123SOL    HW219269   5.571   1.124   2.655
 6124SOL     OW19270   3.133   0.360   4.767
 6124SOL    HW119271   3.117   0.261   4.773
 6124SOL    HW219272   3.090   0.396   4.684
 6125SOL     OW19273   1.217   4.459   2.378
 6125SOL    HW119274   1.317   4.465   2.385
 6125SOL    HW219275   1.175   4.516   2.448
 6126SOL     OW19276   3.693   6.460   2.722
 6126SOL    HW119277   3.651   6.548   2.701
 6126SOL    HW219278   3.709   6.410   2.636
 6127SOL     OW19279   1.743   5.255   1.692
 6127SOL    HW119280   1.799   5.300   1.622
 6127SOL    HW219281   1.648   5.251   1.661
 6128SOL     OW19282   5.019   3.604   1.306
 6128SOL    HW119283   4.993   3.665   1.382
 6128SOL    HW219284   4.939   3.551   1.278
 6129SOL     OW19285   6.224   3.867   3.317
 6129SOL    HW119286   6.221   3.822   3.228
 6129SOL    HW219287   6.298   3.935   3.318
 6130SOL     OW19288   5.344   3.784   2.749
 6130SOL    HW119289   5.276   3.713   2.764
 6130SOL    HW219290   5.301   3.861   2.701
 6131SOL     OW19291   6.401   1.043   5.182
 6131SOL    HW119292   6.479   1.100   5.207
 6131SOL    HW219293   6.336   1.040   5.258
 6132SOL     OW19294   6.842   2.524   0.698
 6132SOL    HW119295   6.878   2.443   0.652
 6132SOL    HW219296   6.768   2.497   0.760
 6133SOL     OW19297   1.231   4.588   0.364
 6133SOL    HW119298   1.163   4.647   0.407
 6133SOL    HW219299   1.321   4.605   0.405
 6134SOL     OW19300   4.554   4.190   6.851
 6134SOL    HW119301   4.648   4.222   6.842
 6134SOL    HW219302   4.551   4.091   6.842
 6135SOL     OW19303   6.088   6.833   2.697
 6135SOL    HW119304   6.053   6.900   2.631
 6135SOL    HW219305   6.187   6.821   2.683
 6136SOL     OW19306   1.349   1.546   2.241
 6136SOL    HW119307   1.272   1.554   2.178
 6136SOL    HW219308   1.332   1.470   2.304
 6137SOL     OW19309   3.308   0.357   6.532
 6137SOL    HW119310   3.298   0.413   6.614
 6137SOL    HW219311   3.218   0.341   6.491
 6138SOL     OW19312   5.395   0.732   2.930
 6138SOL    HW119313   5.337   0.780   2.997
 6138SOL    HW219314   5.353   0.644   2.907
 6139SOL     OW19315   2.913   6.314   3.705
 6139SOL    HW119316   2.843   6.298   3.774
 6139SOL    HW219317   2.996   6.350   3.749
 6140SOL     OW19318   1.990   5.472   1.350
 6140SOL    HW119319   1.911   5.457   1.410
 6140SOL    HW219320   2.012   5.388   1.301
 6141SOL     OW19321   0.234   6.011   5.166
 6141SOL    HW119322   0.140   6.022   5.134
 6141SOL    HW219323   0.286   5.958   5.098
 6142SOL     OW19324   0.567   4.020   3.490
 6142SOL    HW119325   0.482   3.981   3.454
 6142SOL    HW219326   0.645   3.969   3.455
 6143SOL     OW19327   6.275   4.662   6.284
 6143SOL    HW119328   6.250   4.733   6.220
 6143SOL    HW219329   6.355   4.690   6.337
 6144SOL     OW19330   0.315   5.208   4.077
 6144SOL    HW119331   0.292   5.194   4.173
 6144SOL    HW219332   0.324   5.119   4.031
 6145SOL     OW19333   5.618   5.497   3.188
 6145SOL    HW119334   5.579   5.535   3.273
 6145SOL    HW219335   5.712   5.467   3.205
 6146SOL     OW19336   5.651   2.349   3.676
 6146SOL    HW119337   5.726   2.388   3.624
 6146SOL    HW219338   5.595   2.292   3.615
 6147SOL     OW19339   1.151   3.925   3.478
 6147SOL    HW119340   1.180   3.834   3.506
 6147SOL    HW219341   1.221   3.966   3.420
 6148SOL     OW19342   6.519   6.060   2.766
 6148SOL    HW119343   6.542   5.966   2.739
 6148SOL    HW219344   6.424   6.079   2.741
 6149SOL     OW19345   1.468   5.426   4.973
 6149SOL    HW119346   1.489   5.329   4.983
 6149SOL    HW219347   1.394   5.438   4.906
 6150SOL     OW19348   4.179   6.766   5.822
 6150SOL    HW119349   4.267   6.725   5.843
 6150SOL    HW219350   4.173   6.856   5.865
 6151SOL     OW19351   4.736   0.063   5.839
 6151SOL    HW119352   4.710   6.990   5.808
 6151SOL    HW219353   4.717   0.130   5.768
 6152SOL     OW19354   6.790   4.480   5.626
 6152SOL    HW119355   6.832   4.558   5.672
 6152SOL    HW219356   6.696   4.469   5.658
 6153SOL     OW19357   4.141   5.053   6.098
 6153SOL    HW119358   4.238   5.072   6.111
 6153SOL    HW219359   4.123   4.956   6.116
 6154SOL     OW19360   5.393   3.300   3.444
 6154SOL    HW119361   5.339   3.370   3.491
 6154SOL    HW219362   5.378   3.308   3.345
 6155SOL     OW19363   2.566   4.575   4.525
 6155SOL    HW119364   2.496   4.521   4.571
 6155SOL    HW219365   2.621   4.623   4.594
 6156SOL     OW19366   5.555   0.680   4.536
 6156SOL    HW119367   5.560   0.701   4.439
 6156SOL    HW219368   5.589   0.587   4.552
 6157SOL     OW19369   0.994   1.433   4.308
 6157SOL    HW119370   0.922   1.398   4.368
 6157SOL    HW219371   1.076   1.377   4.317
 6158SOL     OW19372   5.443   6.866   6.956
 6158SOL    HW119373   5.368   6.876   0.003
 6158SOL    HW219374   5.522   6.919   6.987
 6159SOL     OW19375   4.995   3.522   6.669
 6159SOL    HW119376   5.088   3.486   6.669
 6159SOL    HW219377   4.940   3.470   6.734
 6160SOL     OW19378   6.349   4.500   0.295
 6160SOL    HW119379   6.275   4.465   0.353
 6160SOL    HW219380   6.403   4.423   0.261
 6161SOL     OW19381   6.137   0.047   6.355
 6161SOL    HW119382   6.168   0.067   6.262
 6161SOL    HW219383   6.146   6.967   6.374
 6162SOL     OW19384   5.078   5.310   3.838
 6162SOL    HW119385   5.152   5.265   3.888
 6162SOL    HW219386   5.096   5.301   3.739
 6163SOL     OW19387   0.024   4.116   2.786
 6163SOL    HW119388   0.093   4.098   2.857
 6163SOL    HW219389   0.044   4.061   2.705
 6164SOL     OW19390   4.384   3.061   1.215
 6164SOL    HW119391   4.349   3.030   1.127
 6164SOL    HW219392   4.474   3.021   1.232
 6165SOL     OW19393   4.074   0.384   1.308
 6165SOL    HW119394   4.023   0.468   1.289
 6165SOL    HW219395   4.143   0.370   1.237
 6166SOL     OW19396   3.489   1.025   0.725
 6166SOL    HW119397   3.451   1.060   0.639
 6166SOL    HW219398   3.536   1.099   0.772
 6167SOL     OW19399   6.953   5.472   3.573
 6167SOL    HW119400   6.952   5.418   3.657
 6167SOL    HW219401   6.867   5.522   3.566
 6168SOL     OW19402   0.054   3.242   1.037
 6168SOL    HW119403   0.098   3.183   0.970
 6168SOL    HW219404   0.124   3.285   1.095
 6169SOL     OW19405   1.990   3.861   1.383
 6169SOL    HW119406   1.997   3.766   1.355
 6169SOL    HW219407   2.070   3.912   1.349
 6170SOL     OW19408   6.458   1.851   3.260
 6170SOL    HW119409   6.371   1.816   3.225
 6170SOL    HW219410   6.441   1.911   3.339
 6171SOL     OW19411   6.411   1.506   6.188
 6171SOL    HW119412   6.426   1.584   6.249
 6171SOL    HW219413   6.361   1.435   6.237
 6172SOL     OW19414   0.316   4.796   3.719
 6172SOL    HW119415   0.354   4.801   3.627
 6172SOL    HW219416   0.358   4.720   3.768
 6173SOL     OW19417   5.393   6.100   2.931
 6173SOL    HW119418   5.490   6.097   2.905
 6173SOL    HW219419   5.384   6.138   3.023
 6174SOL     OW19420   6.879   2.290   3.339
 6174SOL    HW119421   6.867   2.191   3.336
 6174SOL    HW219422   6.843   2.325   3.426
 6175SOL     OW19423   3.836   1.417   0.070
 6175SOL    HW119424   3.826   1.488   0.140
 6175SOL    HW219425   3.749   1.405   0.022
 6176SOL     OW19426   2.483   4.492   6.051
 6176SOL    HW119427   2.581   4.475   6.061
 6176SOL    HW219428   2.448   4.442   5.972
 6177SOL     OW19429   5.948   5.446   1.666
 6177SOL    HW119430   5.948   5.541   1.636
 6177SOL    HW219431   5.871   5.430   1.728
 6178SOL     OW19432   4.084   4.871   1.907
 6178SOL    HW119433   3.984   4.872   1.913
 6178SOL    HW219434   4.115   4.781   1.875
 6179SOL     OW19435   5.484   5.479   4.805
 6179SOL    HW119436   5.429   5.475   4.888
 6179SOL    HW219437   5.434   5.528   4.734
 6180SOL     OW19438   2.025   3.933   6.823
 6180SOL    HW119439   1.971   3.991   6.762
 6180SOL    HW219440   2.120   3.965   6.823
 6181SOL     OW19441   6.481   6.132   6.994
 6181SOL    HW119442   6.443   6.224   7.002
 6181SOL    HW219443   6.460   6.080   0.058
 6182SOL     OW19444   3.055   2.249   6.668
 6182SOL    HW119445   2.981   2.196   6.629
 6182SOL    HW219446   3.120   2.275   6.596
 6183SOL     OW19447   0.352   0.668   0.528
 6183SOL    HW119448   0.338   0.747   0.588
 6183SOL    HW219449   0.416   0.604   0.571
 6184SOL     OW19450   3.448   6.769   5.621
 6184SOL    HW119451   3.406   6.764   5.531
 6184SOL    HW219452   3.380   6.795   5.689
 6185SOL     OW19453   3.911   2.990   4.672
 6185SOL    HW119454   3.854   3.006   4.591
 6185SOL    HW219455   3.968   2.909   4.657
 6186SOL     OW19456   1.056   2.176   2.351
 6186SOL    HW119457   1.012   2.219   2.430
 6186SOL    HW219458   1.015   2.087   2.333
 6187SOL     OW19459   3.326   1.875   5.940
 6187SOL    HW119460   3.255   1.807   5.958
 6187SOL    HW219461   3.395   1.870   6.012
 6188SOL     OW19462   1.761   1.902   5.322
 6188SOL    HW119463   1.664   1.928   5.317
 6188SOL    HW219464   1.798   1.930   5.411
 6189SOL     OW19465   6.217   5.460   0.409
 6189SOL    HW119466   6.289   5.394   0.386
 6189SOL    HW219467   6.241   5.550   0.374
 6190SOL     OW19468   0.998   2.911   3.565
 6190SOL    HW119469   0.901   2.910   3.540
 6190SOL    HW219470   1.017   2.989   3.623
 6191SOL     OW19471   2.679   4.489   0.419
 6191SOL    HW119472   2.607   4.457   0.358
 6191SOL    HW219473   2.655   4.578   0.457
 6192SOL     OW19474   3.164   1.665   1.318
 6192SOL    HW119475   3.217   1.581   1.308
 6192SOL    HW219476   3.129   1.694   1.229
 6193SOL     OW19477   3.979   5.878   6.578
 6193SOL    HW119478   4.069   5.872   6.536
 6193SOL    HW219479   3.979   5.828   6.665
 6194SOL     OW19480   5.200   0.182   6.085
 6194SOL    HW119481   5.242   0.162   5.996
 6194SOL    HW219482   5.105   0.209   6.071
 6195SOL     OW19483   4.479   5.838   5.383
 6195SOL    HW119484   4.430   5.767   5.434
 6195SOL    HW219485   4.543   5.884   5.444
 6196SOL     OW19486   6.235   3.514   3.360
 6196SOL    HW119487   6.198   3.518   3.267
 6196SOL    HW219488   6.266   3.421   3.379
 6197SOL     OW19489   0.959   5.526   0.562
 6197SOL    HW119490   1.011   5.581   0.497
 6197SOL    HW219491   0.886   5.582   0.602
 6198SOL     OW19492   6.298   1.346   6.387
 6198SOL    HW119493   6.266   1.261   6.429
 6198SOL    HW219494   6.220   1.403   6.363
 6199SOL     OW19495   2.596   0.285   6.240
 6199SOL    HW119496   2.639   0.304   6.152
 6199SOL    HW219497   2.663   0.294   6.313
 6200SOL     OW19498   1.790   0.186   0.617
 6200SOL    HW119499   1.822   0.245   0.543
 6200SOL    HW219500   1.741   0.108   0.578
 6201SOL     OW19501   0.403   4.739   3.473
 6201SOL    HW119502   0.472   4.713   3.405
 6201SOL    HW219503   0.325   4.676   3.468
 6202SOL     OW19504   5.408   0.866   2.019
 6202SOL    HW119505   5.472   0.893   1.948
 6202SOL    HW219506   5.427   0.916   2.104
 6203SOL     OW19507   6.651   1.254   2.347
 6203SOL    HW119508   6.669   1.180   2.282
 6203SOL    HW219509   6.558   1.245   2.382
 6204SOL     OW19510   1.034   5.858   4.800
 6204SOL    HW119511   1.050   5.915   4.881
 6204SOL    HW219512   1.059   5.763   4.821
 6205SOL     OW19513   6.302   4.518   3.369
 6205SOL    HW119514   6.368   4.557   3.434
 6205SOL    HW219515   6.309   4.567   3.282
 6206SOL     OW19516   4.799   1.827   3.145
 6206SOL    HW119517   4.785   1.901   3.212
 6206SOL    HW219518   4.812   1.740   3.194
 6207SOL     OW19519   1.792   5.824   3.462
 6207SOL    HW119520   1.891   5.814   3.470
 6207SOL    HW219521   1.758   5.886   3.533
 6208SOL     OW19522   3.649   4.444   6.384
 6208SOL    HW119523   3.691   4.477   6.469
 6208SOL    HW219524   3.579   4.376   6.407
 6209SOL     OW19525   3.411   1.325   2.226
 6209SOL    HW119526   3.409   1.332   2.126
 6209SOL    HW219527   3.385   1.413   2.266
 6210SOL     OW19528   5.827   1.319   4.250
 6210SOL    HW119529   5.847   1.406   4.294
 6210SOL    HW219530   5.911   1.263   4.247
 6211SOL     OW19531   5.449   2.923   5.296
 6211SOL    HW119532   5.432   2.999   5.233
 6211SOL    HW219533   5.429   2.836   5.251
 6212SOL     OW19534   4.987   4.122   5.074
 6212SOL    HW119535   4.900   4.098   5.031
 6212SOL    HW219536   5.047   4.165   5.007
 6213SOL     OW19537   5.373   5.976   0.303
 6213SOL    HW119538   5.424   6.061   0.293
 6213SOL    HW219539   5.332   5.951   0.215
 6214SOL     OW19540   6.680   6.841   6.328
 6214SOL    HW119541   6.708   6.745   6.330
 6214SOL    HW219542   6.592   6.851   6.375
 6215SOL     OW19543   5.970   2.017   4.916
 6215SOL    HW119544   5.873   2.041   4.928
 6215SOL    HW219545   5.981   1.965   4.832
 6216SOL     OW19546   5.417   2.349   5.478
 6216SOL    HW119547   5.352   2.391   5.542
 6216SOL    HW219548   5.445   2.260   5.513
 6217SOL     OW19549   6.778   3.867   2.639
 6217SOL    HW119550   6.817   3.931   2.571
 6217SOL    HW219551   6.848   3.803   2.668
 6218SOL     OW19552   4.559   6.374   0.991
 6218SOL    HW119553   4.461   6.395   0.994
 6218SOL    HW219554   4.610   6.455   0.965
 6219SOL     OW19555   2.182   0.444   0.076
 6219SOL    HW119556   2.186   0.351   0.112
 6219SOL    HW219557   2.223   0.446   7.003
 6220SOL     OW19558   3.468   0.259   2.203
 6220SOL    HW119559   3.509   0.198   2.135
 6220SOL    HW219560   3.401   0.208   2.257
 6221SOL     OW19561   4.368   5.944   5.162
 6221SOL    HW119562   4.406   5.907   5.247
 6221SOL    HW219563   4.271   5.965   5.176
 6222SOL     OW19564   6.064   1.619   2.501
 6222SOL    HW119565   5.969   1.601   2.527
 6222SOL    HW219566   6.094   1.551   2.434
 6223SOL     OW19567   6.678   5.350   4.426
 6223SOL    HW119568   6.630   5.437   4.414
 6223SOL    HW219569   6.660   5.314   4.517
 6224SOL     OW19570   4.187   6.644   0.285
 6224SOL    HW119571   4.226   6.673   0.372
 6224SOL    HW219572   4.170   6.545   0.287
 6225SOL     OW19573   5.122   6.494   6.337
 6225SOL    HW119574   5.222   6.492   6.340
 6225SOL    HW219575   5.091   6.448   6.254
 6226SOL     OW19576   0.769   0.925   4.041
 6226SOL    HW119577   0.784   1.013   4.087
 6226SOL    HW219578   0.824   0.855   4.087
 6227SOL     OW19579   2.276   4.453   6.331
 6227SOL    HW119580   2.343   4.510   6.380
 6227SOL    HW219581   2.259   4.492   6.241
 6228SOL     OW19582   0.542   3.357   3.835
 6228SOL    HW119583   0.521   3.428   3.903
 6228SOL    HW219584   0.542   3.268   3.879
 6229SOL     OW19585   0.020   3.944   4.444
 6229SOL    HW119586   0.013   4.011   4.518
 6229SOL    HW219587   6.986   3.975   4.365
 6230SOL     OW19588   0.826   0.930   1.571
 6230SOL    HW119589   0.730   0.935   1.597
 6230SOL    HW219590   0.884   0.950   1.650
 6231SOL     OW19591   2.189   5.731   5.949
 6231SOL    HW119592   2.126   5.669   5.901
 6231SOL    HW219593   2.283   5.704   5.929
 6232SOL     OW19594   4.433   0.164   6.620
 6232SOL    HW119595   4.334   0.169   6.612
 6232SOL    HW219596   4.457   0.112   6.703
 6233SOL     OW19597   0.112   4.274   1.664
 6233SOL    HW119598   0.174   4.312   1.594
 6233SOL    HW219599   0.166   4.237   1.740
 6234SOL     OW19600   4.533   5.963   3.713
 6234SOL    HW119601   4.526   5.940   3.810
 6234SOL    HW219602   4.551   5.880   3.660
 6235SOL     OW19603   0.091   0.515   1.939
 6235SOL    HW119604   0.045   0.563   2.013
 6235SOL    HW219605   0.146   0.580   1.887
 6236SOL     OW19606   6.636   6.280   1.543
 6236SOL    HW119607   6.565   6.217   1.575
 6236SOL    HW219608   6.667   6.253   1.452
 6237SOL     OW19609   4.110   1.150   2.589
 6237SOL    HW119610   4.077   1.056   2.600
 6237SOL    HW219611   4.064   1.209   2.656
 6238SOL     OW19612   2.652   0.561   3.702
 6238SOL    HW119613   2.594   0.636   3.733
 6238SOL    HW219614   2.598   0.477   3.695
 6239SOL     OW19615   3.849   1.478   3.885
 6239SOL    HW119616   3.894   1.404   3.937
 6239SOL    HW219617   3.848   1.561   3.941
 6240SOL     OW19618   4.052   3.285   4.322
 6240SOL    HW119619   4.111   3.272   4.242
 6240SOL    HW219620   4.013   3.377   4.319
 6241SOL     OW19621   3.517   0.114   3.476
 6241SOL    HW119622   3.520   0.075   3.568
 6241SOL    HW219623   3.470   0.202   3.478
 6242SOL     OW19624   3.353   2.115   4.283
 6242SOL    HW119625   3.267   2.149   4.321
 6242SOL    HW219626   3.409   2.076   4.356
 6243SOL     OW19627   3.703   1.100   0.247
 6243SOL    HW119628   3.778   1.053   0.294
 6243SOL    HW219629   3.682   1.054   0.161
 6244SOL     OW19630   4.611   2.247   2.083
 6244SOL    HW119631   4.683   2.316   2.074
 6244SOL    HW219632   4.607   2.192   2.000
 6245SOL     OW19633   6.850   4.679   1.648
 6245SOL    HW119634   6.801   4.599   1.614
 6245SOL    HW219635   6.943   4.679   1.612
 6246SOL     OW19636   0.684   5.782   5.054
 6246SOL    HW119637   0.700   5.826   5.142
 6246SOL    HW219638   0.748   5.706   5.043
 6247SOL     OW19639   5.677   5.312   2.848
 6247SOL    HW119640   5.706   5.318   2.944
 6247SOL    HW219641   5.630   5.397   2.823
 6248SOL     OW19642   4.415   2.812   5.580
 6248SOL    HW119643   4.397   2.790   5.485
 6248SOL    HW219644   4.502   2.860   5.588
 6249SOL     OW19645   5.461   2.728   3.207
 6249SOL    HW119646   5.370   2.720   3.167
 6249SOL    HW219647   5.530   2.707   3.137
 6250SOL     OW19648   5.309   0.390   5.781
 6250SOL    HW119649   5.306   0.303   5.829
 6250SOL    HW219650   5.271   0.379   5.689
 6251SOL     OW19651   2.864   0.722   4.449
 6251SOL    HW119652   2.915   0.768   4.377
 6251SOL    HW219653   2.872   0.623   4.438
 6252SOL     OW19654   3.246   5.132   0.422
 6252SOL    HW119655   3.344   5.144   0.436
 6252SOL    HW219656   3.230   5.106   0.326
 6253SOL     OW19657   5.269   6.404   3.418
 6253SOL    HW119658   5.227   6.485   3.376
 6253SOL    HW219659   5.319   6.431   3.500
 6254SOL     OW19660   0.277   0.109   1.589
 6254SOL    HW119661   0.227   0.023   1.573
 6254SOL    HW219662   0.324   0.104   1.677
 6255SOL     OW19663   1.906   0.809   1.033
 6255SOL    HW119664   1.984   0.751   1.009
 6255SOL    HW219665   1.889   0.804   1.131
 6256SOL     OW19666   6.323   5.054   2.171
 6256SOL    HW119667   6.247   5.112   2.141
 6256SOL    HW219668   6.378   5.027   2.092
 6257SOL     OW19669   3.537   3.648   0.672
 6257SOL    HW119670   3.478   3.678   0.747
 6257SOL    HW219671   3.509   3.557   0.642
 6258SOL     OW19672   3.863   4.933   5.104
 6258SOL    HW119673   3.796   4.982   5.047
 6258SOL    HW219674   3.816   4.864   5.158
 6259SOL     OW19675   4.275   1.600   4.723
 6259SOL    HW119676   4.273   1.648   4.811
 6259SOL    HW219677   4.186   1.610   4.678
 6260SOL     OW19678   3.542   1.975   0.071
 6260SOL    HW119679   3.505   2.007   0.159
 6260SOL    HW219680   3.507   1.884   0.051
 6261SOL     OW19681   4.004   6.998   0.784
 6261SOL    HW119682   3.980   6.993   0.881
 6261SOL    HW219683   4.012   6.905   0.747
 6262SOL     OW19684   6.153   1.017   2.994
 6262SOL    HW119685   6.197   1.092   3.043
 6262SOL    HW219686   6.154   0.935   3.050
 6263SOL     OW19687   6.349   6.284   6.458
 6263SOL    HW119688   6.413   6.291   6.535
 6263SOL    HW219689   6.256   6.287   6.492
 6264SOL     OW19690   0.916   6.386   1.084
 6264SOL    HW119691   0.940   6.481   1.104
 6264SOL    HW219692   0.973   6.324   1.138
 6265SOL     OW19693   3.739   6.714   6.607
 6265SOL    HW119694   3.678   6.644   6.570
 6265SOL    HW219695   3.693   6.762   6.682
 6266SOL     OW19696   3.304   5.177   2.907
 6266SOL    HW119697   3.298   5.100   2.844
 6266SOL    HW219698   3.251   5.157   2.990
 6267SOL     OW19699   0.320   6.211   4.542
 6267SOL    HW119700   0.262   6.216   4.461
 6267SOL    HW219701   0.355   6.302   4.565
 6268SOL     OW19702   3.530   1.600   1.409
 6268SOL    HW119703   3.452   1.627   1.465
 6268SOL    HW219704   3.536   1.660   1.329
 6269SOL     OW19705   6.674   6.129   0.239
 6269SOL    HW119706   6.719   6.217   0.232
 6269SOL    HW219707   6.734   6.057   0.204
 6270SOL     OW19708   1.242   6.545   0.899
 6270SOL    HW119709   1.299   6.510   0.824
 6270SOL    HW219710   1.201   6.632   0.871
 6271SOL     OW19711   6.502   2.949   5.381
 6271SOL    HW119712   6.545   2.997   5.457
 6271SOL    HW219713   6.407   2.979   5.371
 6272SOL     OW19714   0.870   1.136   0.421
 6272SOL    HW119715   0.870   1.231   0.450
 6272SOL    HW219716   0.951   1.090   0.457
 6273SOL     OW19717   0.567   6.467   2.998
 6273SOL    HW119718   0.488   6.453   2.938
 6273SOL    HW219719   0.640   6.404   2.971
 6274SOL     OW19720   2.903   5.824   4.058
 6274SOL    HW119721   2.982   5.822   3.996
 6274SOL    HW219722   2.907   5.907   4.114
 6275SOL     OW19723   2.526   5.735   0.844
 6275SOL    HW119724   2.454   5.747   0.776
 6275SOL    HW219725   2.530   5.639   0.873
 6276SOL     OW19726   1.990   5.116   2.796
 6276SOL    HW119727   1.916   5.160   2.846
 6276SOL    HW219728   2.075   5.166   2.812
 6277SOL     OW19729   5.171   2.961   1.379
 6277SOL    HW119730   5.167   3.019   1.460
 6277SOL    HW219731   5.185   3.017   1.298
 6278SOL     OW19732   3.207   2.733   0.454
 6278SOL    HW119733   3.163   2.729   0.544
 6278SOL    HW219734   3.256   2.820   0.445
 6279SOL     OW19735   1.719   6.331   2.221
 6279SOL    HW119736   1.738   6.419   2.178
 6279SOL    HW219737   1.803   6.277   2.224
 6280SOL     OW19738   4.978   1.295   6.983
 6280SOL    HW119739   4.967   1.301   6.884
 6280SOL    HW219740   5.073   1.273   7.004
 6281SOL     OW19741   5.366   4.020   5.885
 6281SOL    HW119742   5.269   4.039   5.898
 6281SOL    HW219743   5.419   4.103   5.902
 6282SOL     OW19744   0.532   3.642   5.482
 6282SOL    HW119745   0.451   3.672   5.532
 6282SOL    HW219746   0.506   3.566   5.421
 6283SOL     OW19747   2.406   0.571   4.545
 6283SOL    HW119748   2.343   0.591   4.470
 6283SOL    HW219749   2.465   0.495   4.520
 6284SOL     OW19750   1.588   3.701   6.420
 6284SOL    HW119751   1.542   3.727   6.505
 6284SOL    HW219752   1.519   3.673   6.353
 6285SOL     OW19753   1.187   4.316   3.539
 6285SOL    HW119754   1.114   4.291   3.603
 6285SOL    HW219755   1.239   4.234   3.515
 6286SOL     OW19756   0.780   2.554   6.942
 6286SOL    HW119757   0.723   2.597   7.012
 6286SOL    HW219758   0.791   2.617   6.865
 6287SOL     OW19759   4.365   5.251   4.643
 6287SOL    HW119760   4.434   5.270   4.573
 6287SOL    HW219761   4.287   5.204   4.601
 6288SOL     OW19762   3.119   3.475   5.598
 6288SOL    HW119763   3.197   3.429   5.641
 6288SOL    HW219764   3.150   3.526   5.518
 6289SOL     OW19765   2.588   4.631   5.150
 6289SOL    HW119766   2.630   4.589   5.230
 6289SOL    HW219767   2.659   4.654   5.083
 6290SOL     OW19768   6.629   6.675   3.176
 6290SOL    HW119769   6.532   6.697   3.186
 6290SOL    HW219770   6.655   6.609   3.246
 6291SOL     OW19771   3.359   3.652   1.916
 6291SOL    HW119772   3.264   3.630   1.892
 6291SOL    HW219773   3.361   3.735   1.971
 6292SOL     OW19774   1.185   4.272   4.609
 6292SOL    HW119775   1.252   4.340   4.578
 6292SOL    HW219776   1.112   4.263   4.542
 6293SOL     OW19777   3.027   1.224   0.136
 6293SOL    HW119778   3.064   1.304   0.088
 6293SOL    HW219779   2.981   1.253   0.220
 6294SOL     OW19780   2.013   0.438   2.387
 6294SOL    HW119781   2.044   0.345   2.407
 6294SOL    HW219782   1.972   0.441   2.296
 6295SOL     OW19783   4.694   3.150   5.989
 6295SOL    HW119784   4.709   3.228   5.928
 6295SOL    HW219785   4.641   3.080   5.941
 6296SOL     OW19786   0.282   2.488   0.176
 6296SOL    HW119787   0.213   2.453   0.112
 6296SOL    HW219788   0.335   2.412   0.213
 6297SOL     OW19789   6.542   0.872   4.053
 6297SOL    HW119790   6.539   0.955   4.108
 6297SOL    HW219791   6.580   0.892   3.963
 6298SOL     OW19792   6.917   0.066   6.774
 6298SOL    HW119793   7.001   0.119   6.768
 6298SOL    HW219794   6.901   0.018   6.687
 6299SOL     OW19795   3.351   1.568   3.973
 6299SOL    HW119796   3.418   1.496   3.956
 6299SOL    HW219797   3.388   1.656   3.942
 6300SOL     OW19798   2.466   1.909   1.247
 6300SOL    HW119799   2.389   1.950   1.196
 6300SOL    HW219800   2.451   1.922   1.345
 6301SOL     OW19801   4.221   6.367   0.688
 6301SOL    HW119802   4.127   6.337   0.705
 6301SOL    HW219803   4.279   6.286   0.674
 6302SOL     OW19804   1.241   3.487   0.296
 6302SOL    HW119805   1.325   3.487   0.243
 6302SOL    HW219806   1.257   3.444   0.385
 6303SOL     OW19807   6.777   5.287   4.673
 6303SOL    HW119808   6.860   5.339   4.652
 6303SOL    HW219809   6.724   5.335   4.742
 6304SOL     OW19810   2.499   1.867   3.625
 6304SOL    HW119811   2.478   1.963   3.610
 6304SOL    HW219812   2.415   1.813   3.615
 6305SOL     OW19813   0.238   5.578   5.491
 6305SOL    HW119814   0.210   5.579   5.588
 6305SOL    HW219815   0.247   5.672   5.458
 6306SOL     OW19816   0.596   4.366   4.102
 6306SOL    HW119817   0.666   4.367   4.030
 6306SOL    HW219818   0.562   4.273   4.115
 6307SOL     OW19819   2.962   3.236   3.228
 6307SOL    HW119820   2.921   3.165   3.171
 6307SOL    HW219821   2.957   3.324   3.179
 6308SOL     OW19822   1.218   1.832   0.859
 6308SOL    HW119823   1.287   1.762   0.838
 6308SOL    HW219824   1.238   1.915   0.807
 6309SOL     OW19825   2.014   5.498   5.312
 6309SOL    HW119826   2.060   5.433   5.373
 6309SOL    HW219827   1.916   5.481   5.314
 6310SOL     OW19828   0.670   6.671   3.390
 6310SOL    HW119829   0.578   6.675   3.429
 6310SOL    HW219830   0.663   6.661   3.290
 6311SOL     OW19831   6.581   1.294   6.359
 6311SOL    HW119832   6.488   1.330   6.356
 6311SOL    HW219833   6.586   1.220   6.426
 6312SOL     OW19834   3.724   5.768   1.171
 6312SOL    HW119835   3.814   5.772   1.127
 6312SOL    HW219836   3.652   5.766   1.101
 6313SOL     OW19837   5.518   5.087   2.879
 6313SOL    HW119838   5.516   5.087   2.979
 6313SOL    HW219839   5.565   5.169   2.847
 6314SOL     OW19840   1.921   6.784   3.665
 6314SOL    HW119841   1.834   6.783   3.615
 6314SOL    HW219842   1.997   6.776   3.601
 6315SOL     OW19843   2.126   2.435   3.147
 6315SOL    HW119844   2.199   2.502   3.137
 6315SOL    HW219845   2.038   2.478   3.126
 6316SOL     OW19846   4.200   0.536   4.889
 6316SOL    HW119847   4.136   0.613   4.895
 6316SOL    HW219848   4.152   0.451   4.913
 6317SOL     OW19849   4.432   4.520   2.868
 6317SOL    HW119850   4.428   4.480   2.960
 6317SOL    HW219851   4.423   4.619   2.875
 6318SOL     OW19852   6.100   0.074   0.217
 6318SOL    HW119853   6.172   0.124   0.264
 6318SOL    HW219854   6.063   0.130   0.143
 6319SOL     OW19855   5.120   2.730   4.849
 6319SOL    HW119856   5.023   2.751   4.834
 6319SOL    HW219857   5.150   2.774   4.934
 6320SOL     OW19858   6.461   1.694   6.384
 6320SOL    HW119859   6.383   1.668   6.441
 6320SOL    HW219860   6.543   1.698   6.441
 6321SOL     OW19861   0.633   3.893   0.208
 6321SOL    HW119862   0.642   3.862   0.303
 6321SOL    HW219863   0.552   3.950   0.199
 6322SOL     OW19864   1.850   1.755   2.652
 6322SOL    HW119865   1.916   1.731   2.581
 6322SOL    HW219866   1.806   1.672   2.686
 6323SOL     OW19867   2.233   6.090   1.247
 6323SOL    HW119868   2.181   6.086   1.332
 6323SOL    HW219869   2.304   6.020   1.247
 6324SOL     OW19870   4.928   3.652   1.009
 6324SOL    HW119871   5.010   3.606   1.045
 6324SOL    HW219872   4.913   3.623   0.915
 6325SOL     OW19873   0.965   3.395   3.934
 6325SOL    HW119874   0.899   3.365   3.864
 6325SOL    HW219875   1.055   3.358   3.913
 6326SOL     OW19876   4.619   5.676   5.199
 6326SOL    HW119877   4.572   5.750   5.245
 6326SOL    HW219878   4.611   5.687   5.100
 6327SOL     OW19879   0.633   0.737   2.418
 6327SOL    HW119880   0.715   0.791   2.437
 6327SOL    HW219881   0.553   0.798   2.417
 6328SOL     OW19882   4.091   3.968   5.193
 6328SOL    HW119883   4.088   3.888   5.133
 6328SOL    HW219884   4.020   4.033   5.166
 6329SOL     OW19885   0.398   3.052   4.817
 6329SOL    HW119886   0.328   3.043   4.888
 6329SOL    HW219887   0.426   2.962   4.786
 6330SOL     OW19888   4.370   1.914   3.599
 6330SOL    HW119889   4.453   1.967   3.618
 6330SOL    HW219890   4.380   1.867   3.511
 6331SOL     OW19891   1.817   3.714   3.899
 6331SOL    HW119892   1.740   3.718   3.963
 6331SOL    HW219893   1.901   3.692   3.949
 6332SOL     OW19894   4.216   1.452   0.144
 6332SOL    HW119895   4.190   1.548   0.133
 6332SOL    HW219896   4.145   1.394   0.103
 6333SOL     OW19897   6.007   0.845   0.265
 6333SOL    HW119898   5.939   0.834   0.192
 6333SOL    HW219899   5.962   0.877   0.348
 6334SOL     OW19900   2.279   1.412   2.076
 6334SOL    HW119901   2.374   1.443   2.069
 6334SOL    HW219902   2.277   1.313   2.087
 6335SOL     OW19903   6.650   3.173   5.571
 6335SOL    HW119904   6.647   3.179   5.670
 6335SOL    HW219905   6.568   3.216   5.533
 6336SOL     OW19906   0.539   4.670   5.833
 6336SOL    HW119907   0.459   4.727   5.814
 6336SOL    HW219908   0.612   4.727   5.871
 6337SOL     OW19909   5.970   6.682   5.248
 6337SOL    HW119910   6.037   6.625   5.295
 6337SOL    HW219911   6.016   6.762   5.208
 6338SOL     OW19912   0.542   0.453   2.332
 6338SOL    HW119913   0.594   0.536   2.347
 6338SOL    HW219914   0.595   0.390   2.275
 6339SOL     OW19915   0.451   3.951   2.990
 6339SOL    HW119916   0.434   3.872   3.048
 6339SOL    HW219917   0.475   3.920   2.898
 6340SOL     OW19918   2.729   5.532   6.191
 6340SOL    HW119919   2.661   5.459   6.191
 6340SOL    HW219920   2.730   5.578   6.102
 6341SOL     OW19921   0.527   4.548   2.570
 6341SOL    HW119922   0.483   4.578   2.655
 6341SOL    HW219923   0.457   4.515   2.506
 6342SOL     OW19924   1.922   0.567   1.663
 6342SOL    HW119925   1.982   0.508   1.717
 6342SOL    HW219926   1.829   0.563   1.700
 6343SOL     OW19927   1.497   4.981   6.792
 6343SOL    HW119928   1.406   4.963   6.755
 6343SOL    HW219929   1.566   4.949   6.728
 6344SOL     OW19930   1.167   1.235   4.245
 6344SOL    HW119931   1.179   1.157   4.306
 6344SOL    HW219932   1.138   1.203   4.155
 6345SOL     OW19933   6.874   3.127   3.170
 6345SOL    HW119934   6.871   3.197   3.240
 6345SOL    HW219935   6.949   3.064   3.189
 6346SOL     OW19936   0.533   4.957   4.100
 6346SOL    HW119937   0.465   4.907   4.047
 6346SOL    HW219938   0.530   5.054   4.077
 6347SOL     OW19939   1.841   2.582   3.492
 6347SOL    HW119940   1.892   2.668   3.490
 6347SOL    HW219941   1.897   2.509   3.453
 6348SOL     OW19942   1.249   2.897   0.003
 6348SOL    HW119943   1.180   2.956   6.979
 6348SOL    HW219944   1.339   2.941   7.015
 6349SOL     OW19945   6.277   1.538   0.830
 6349SOL    HW119946   6.300   1.543   0.927
 6349SOL    HW219947   6.216   1.461   0.814
 6350SOL     OW19948   0.960   6.263   1.593
 6350SOL    HW119949   0.961   6.284   1.691
 6350SOL    HW219950   0.946   6.165   1.580
 6351SOL     OW19951   6.195   2.439   1.678
 6351SOL    HW119952   6.275   2.442   1.738
 6351SOL    HW219953   6.113   2.426   1.734
 6352SOL     OW19954   4.683   0.702   4.379
 6352SOL    HW119955   4.672   0.608   4.410
 6352SOL    HW219956   4.688   0.763   4.458
 6353SOL     OW19957   3.552   6.511   5.888
 6353SOL    HW119958   3.559   6.486   5.984
 6353SOL    HW219959   3.468   6.473   5.849
 6354SOL     OW19960   5.726   4.826   2.635
 6354SOL    HW119961   5.775   4.834   2.722
 6354SOL    HW219962   5.784   4.779   2.568
 6355SOL     OW19963   5.289   5.943   0.053
 6355SOL    HW119964   5.207   5.989   0.019
 6355SOL    HW219965   5.305   5.860   7.017
 6356SOL     OW19966   0.469   6.560   6.358
 6356SOL    HW119967   0.440   6.476   6.405
 6356SOL    HW219968   0.552   6.541   6.305
 6357SOL     OW19969   4.845   1.986   2.551
 6357SOL    HW119970   4.924   1.927   2.535
 6357SOL    HW219971   4.787   1.944   2.622
 6358SOL     OW19972   1.129   1.647   4.477
 6358SOL    HW119973   1.096   1.574   4.417
 6358SOL    HW219974   1.227   1.636   4.493
 6359SOL     OW19975   5.970   4.848   0.672
 6359SOL    HW119976   5.942   4.789   0.748
 6359SOL    HW219977   5.894   4.860   0.608
 6360SOL     OW19978   2.277   2.596   0.947
 6360SOL    HW119979   2.256   2.657   1.024
 6360SOL    HW219980   2.363   2.624   0.905
 6361SOL     OW19981   0.307   1.950   2.422
 6361SOL    HW119982   0.402   1.922   2.433
 6361SOL    HW219983   0.255   1.925   2.504
 6362SOL     OW19984   2.042   5.306   0.756
 6362SOL    HW119985   1.967   5.314   0.822
 6362SOL    HW219986   2.075   5.211   0.755
 6363SOL     OW19987   0.832   2.348   2.106
 6363SOL    HW119988   0.783   2.292   2.173
 6363SOL    HW219989   0.849   2.438   2.145
 6364SOL     OW19990   2.674   0.956   4.213
 6364SOL    HW119991   2.596   0.938   4.274
 6364SOL    HW219992   2.667   1.049   4.176
 6365SOL     OW19993   6.748   6.766   2.490
 6365SOL    HW119994   6.735   6.683   2.435
 6365SOL    HW219995   6.772   6.739   2.584
 6366SOL     OW19996   5.964   1.496   5.031
 6366SOL    HW119997   5.944   1.401   5.007
 6366SOL    HW219998   5.934   1.556   4.957
 6367SOL     OW19999   1.143   2.391   4.647
 6367SOL    HW120000   1.051   2.393   4.686
 6367SOL    HW220001   1.154   2.309   4.591
 6368SOL     OW20002   4.949   3.512   4.825
 6368SOL    HW120003   4.894   3.551   4.899
 6368SOL    HW220004   5.042   3.498   4.857
 6369SOL     OW20005   3.108   4.242   1.090
 6369SOL    HW120006   3.173   4.251   1.165
 6369SOL    HW220007   3.031   4.185   1.120
 6370SOL     OW20008   5.952   4.164   4.739
 6370SOL    HW120009   6.035   4.190   4.789
 6370SOL    HW220010   5.898   4.246   4.720
 6371SOL     OW20011   6.114   4.263   0.787
 6371SOL    HW120012   6.105   4.355   0.750
 6371SOL    HW220013   6.204   4.226   0.763
 6372SOL     OW20014   6.577   1.171   1.041
 6372SOL    HW120015   6.614   1.236   1.107
 6372SOL    HW220016   6.494   1.209   0.999
 6373SOL     OW20017   5.293   1.898   1.286
 6373SOL    HW120018   5.354   1.971   1.256
 6373SOL    HW220019   5.247   1.926   1.370
 6374SOL     OW20020   4.027   2.972   6.683
 6374SOL    HW120021   4.100   2.903   6.678
 6374SOL    HW220022   4.013   3.011   6.592
 6375SOL     OW20023   5.196   1.001   2.209
 6375SOL    HW120024   5.226   1.051   2.127
 6375SOL    HW220025   5.269   1.005   2.278
 6376SOL     OW20026   2.789   6.557   0.430
 6376SOL    HW120027   2.761   6.477   0.483
 6376SOL    HW220028   2.708   6.607   0.400
 6377SOL     OW20029   0.357   0.924   0.401
 6377SOL    HW120030   0.395   0.833   0.416
 6377SOL    HW220031   0.324   0.961   0.487
 6378SOL     OW20032   6.050   4.035   3.078
 6378SOL    HW120033   6.009   4.073   2.995
 6378SOL    HW220034   6.063   3.937   3.067
 6379SOL     OW20035   3.042   5.369   6.718
 6379SOL    HW120036   3.006   5.418   6.797
 6379SOL    HW220037   2.976   5.373   6.643
 6380SOL     OW20038   2.181   3.086   4.845
 6380SOL    HW120039   2.213   3.128   4.760
 6380SOL    HW220040   2.204   2.989   4.845
 6381SOL     OW20041   3.156   3.811   0.882
 6381SOL    HW120042   3.235   3.754   0.904
 6381SOL    HW220043   3.186   3.906   0.871
 6382SOL     OW20044   2.080   1.173   1.343
 6382SOL    HW120045   2.133   1.258   1.337
 6382SOL    HW220046   2.088   1.136   1.435
 6383SOL     OW20047   2.701   1.949   2.684
 6383SOL    HW120048   2.764   1.903   2.622
 6383SOL    HW220049   2.656   2.025   2.637
 6384SOL     OW20050   6.646   2.120   2.306
 6384SOL    HW120051   6.712   2.066   2.253
 6384SOL    HW220052   6.602   2.187   2.246
 6385SOL     OW20053   6.995   3.896   1.346
 6385SOL    HW120054   0.069   3.874   1.377
 6385SOL    HW220055   6.983   3.995   1.345
 6386SOL     OW20056   3.016   3.896   0.318
 6386SOL    HW120057   3.033   3.802   0.288
 6386SOL    HW220058   2.920   3.905   0.346
 6387SOL     OW20059   6.424   0.837   6.374
 6387SOL    HW120060   6.427   0.868   6.279
 6387SOL    HW220061   6.424   0.917   6.435
 6388SOL     OW20062   6.087   5.108   1.928
 6388SOL    HW120063   6.000   5.100   1.977
 6388SOL    HW220064   6.132   5.019   1.925
 6389SOL     OW20065   6.477   6.650   0.672
 6389SOL    HW120066   6.501   6.741   0.638
 6389SOL    HW220067   6.520   6.580   0.615
 6390SOL     OW20068   4.892   6.591   6.487
 6390SOL    HW120069   4.961   6.558   6.422
 6390SOL    HW220070   4.821   6.640   6.437
 6391SOL     OW20071   1.736   2.082   4.970
 6391SOL    HW120072   1.728   2.160   5.032
 6391SOL    HW220073   1.829   2.045   4.975
 6392SOL     OW20074   5.119   6.680   3.964
 6392SOL    HW120075   5.036   6.632   3.935
 6392SOL    HW220076   5.181   6.690   3.886
 6393SOL     OW20077   2.376   5.333   0.403
 6393SOL    HW120078   2.286   5.300   0.375
 6393SOL    HW220079   2.446   5.268   0.371
 6394SOL     OW20080   1.508   5.569   2.078
 6394SOL    HW120081   1.537   5.662   2.103
 6394SOL    HW220082   1.574   5.530   2.014
 6395SOL     OW20083   1.302   4.058   4.742
 6395SOL    HW120084   1.259   4.143   4.711
 6395SOL    HW220085   1.275   4.040   4.836
 6396SOL     OW20086   1.396   3.145   5.164
 6396SOL    HW120087   1.414   3.051   5.191
 6396SOL    HW220088   1.482   3.191   5.143
 6397SOL     OW20089   0.083   2.895   4.673
 6397SOL    HW120090   0.094   2.961   4.599
 6397SOL    HW220091   0.103   2.940   4.760
 6398SOL     OW20092   1.385   0.238   2.391
 6398SOL    HW120093   1.404   0.318   2.334
 6398SOL    HW220094   1.380   0.266   2.487
 6399SOL     OW20095   2.900   0.131   0.055
 6399SOL    HW120096   2.979   0.146   0.114
 6399SOL    HW220097   2.816   0.140   0.108
 6400SOL     OW20098   0.954   6.099   2.871
 6400SOL    HW120099   1.005   6.170   2.920
 6400SOL    HW220100   0.901   6.045   2.937
 6401SOL     OW20101   3.948   5.064   1.714
 6401SOL    HW120102   4.038   5.028   1.739
 6401SOL    HW220103   3.957   5.125   1.635
 6402SOL     OW20104   4.000   3.911   6.140
 6402SOL    HW120105   4.044   3.989   6.185
 6402SOL    HW220106   3.907   3.935   6.115
 6403SOL     OW20107   4.129   5.740   5.445
 6403SOL    HW120108   4.184   5.677   5.391
 6403SOL    HW220109   4.125   5.707   5.540
 6404SOL     OW20110   4.523   5.780   6.352
 6404SOL    HW120111   4.521   5.708   6.422
 6404SOL    HW220112   4.603   5.837   6.365
 6405SOL     OW20113   4.411   0.957   2.592
 6405SOL    HW120114   4.353   1.005   2.527
 6405SOL    HW220115   4.370   0.869   2.615
 6406SOL     OW20116   0.200   3.794   1.890
 6406SOL    HW120117   0.131   3.728   1.920
 6406SOL    HW220118   0.236   3.842   1.970
 6407SOL     OW20119   0.516   0.039   1.820
 6407SOL    HW120120   0.455   0.110   1.856
 6407SOL    HW220121   0.535   6.990   1.892
 6408SOL     OW20122   6.676   1.010   1.746
 6408SOL    HW120123   6.709   1.050   1.660
 6408SOL    HW220124   6.686   0.911   1.742
 6409SOL     OW20125   5.776   4.331   3.631
 6409SOL    HW120126   5.701   4.284   3.676
 6409SOL    HW220127   5.852   4.267   3.617
 6410SOL     OW20128   1.498   0.334   0.152
 6410SOL    HW120129   1.441   0.253   0.135
 6410SOL    HW220130   1.511   0.345   0.250
 6411SOL     OW20131   1.235   2.509   4.107
 6411SOL    HW120132   1.161   2.470   4.161
 6411SOL    HW220133   1.315   2.524   4.165
 6412SOL     OW20134   4.048   0.035   6.970
 6412SOL    HW120135   4.030   0.108   0.017
 6412SOL    HW220136   4.039   6.964   7.016
 6413SOL     OW20137   4.194   6.220   2.998
 6413SOL    HW120138   4.158   6.305   2.959
 6413SOL    HW220139   4.198   6.227   3.098
 6414SOL     OW20140   3.358   0.270   0.334
 6414SOL    HW120141   3.266   0.311   0.337
 6414SOL    HW220142   3.353   0.184   0.285
 6415SOL     OW20143   0.403   1.939   3.848
 6415SOL    HW120144   0.391   1.842   3.865
 6415SOL    HW220145   0.353   1.965   3.765
 6416SOL     OW20146   2.852   4.803   0.457
 6416SOL    HW120147   2.774   4.742   0.468
 6416SOL    HW220148   2.912   4.768   0.385
 6417SOL     OW20149   4.007   3.395   6.299
 6417SOL    HW120150   3.980   3.430   6.209
 6417SOL    HW220151   3.938   3.421   6.367
 6418SOL     OW20152   4.876   5.242   0.200
 6418SOL    HW120153   4.804   5.310   0.185
 6418SOL    HW220154   4.965   5.285   0.187
 6419SOL     OW20155   1.285   6.552   6.398
 6419SOL    HW120156   1.285   6.571   6.300
 6419SOL    HW220157   1.350   6.479   6.418
 6420SOL     OW20158   2.424   5.076   3.142
 6420SOL    HW120159   2.401   5.084   3.239
 6420SOL    HW220160   2.430   5.167   3.101
 6421SOL     OW20161   5.619   6.953   1.341
 6421SOL    HW120162   5.683   7.016   1.298
 6421SOL    HW220163   5.651   6.931   1.434
 6422SOL     OW20164   0.742   1.818   4.365
 6422SOL    HW120165   0.738   1.805   4.266
 6422SOL    HW220166   0.651   1.802   4.405
 6423SOL     OW20167   1.403   3.975   4.469
 6423SOL    HW120168   1.479   4.033   4.441
 6423SOL    HW220169   1.371   4.003   4.560
 6424SOL     OW20170   6.742   3.627   5.442
 6424SOL    HW120171   6.827   3.587   5.408
 6424SOL    HW220172   6.737   3.616   5.541
 6425SOL     OW20173   0.979   6.616   5.402
 6425SOL    HW120174   1.032   6.700   5.412
 6425SOL    HW220175   1.014   6.547   5.466
 6426SOL     OW20176   3.781   5.662   3.909
 6426SOL    HW120177   3.845   5.717   3.963
 6426SOL    HW220178   3.688   5.691   3.927
 6427SOL     OW20179   3.690   3.053   3.718
 6427SOL    HW120180   3.753   3.055   3.796
 6427SOL    HW220181   3.743   3.041   3.634
 6428SOL     OW20182   6.249   2.212   0.486
 6428SOL    HW120183   6.282   2.184   0.576
 6428SOL    HW220184   6.158   2.174   0.470
 6429SOL     OW20185   2.578   1.736   4.399
 6429SOL    HW120186   2.580   1.824   4.352
 6429SOL    HW220187   2.663   1.686   4.381
 6430SOL     OW20188   5.988   1.435   4.650
 6430SOL    HW120189   6.019   1.518   4.604
 6430SOL    HW220190   6.042   1.357   4.619
 6431SOL     OW20191   3.073   4.976   2.805
 6431SOL    HW120192   3.036   5.050   2.748
 6431SOL    HW220193   3.002   4.907   2.819
 6432SOL     OW20194   4.431   2.972   6.656
 6432SOL    HW120195   4.518   2.937   6.622
 6432SOL    HW220196   4.370   2.989   6.578
 6433SOL     OW20197   3.533   5.133   6.117
 6433SOL    HW120198   3.583   5.049   6.096
 6433SOL    HW220199   3.568   5.207   6.060
 6434SOL     OW20200   6.665   4.718   6.195
 6434SOL    HW120201   6.732   4.776   6.241
 6434SOL    HW220202   6.605   4.676   6.263
 6435SOL     OW20203   4.764   1.640   1.279
 6435SOL    HW120204   4.724   1.732   1.282
 6435SOL    HW220205   4.707   1.580   1.223
 6436SOL     OW20206   0.557   3.036   3.671
 6436SOL    HW120207   0.484   2.997   3.727
 6436SOL    HW220208   0.641   3.041   3.724
 6437SOL     OW20209   1.464   2.878   5.951
 6437SOL    HW120210   1.509   2.961   5.917
 6437SOL    HW220211   1.379   2.863   5.901
 6438SOL     OW20212   0.717   4.996   1.045
 6438SOL    HW120213   0.689   4.914   0.994
 6438SOL    HW220214   0.787   5.045   0.993
 6439SOL     OW20215   4.787   6.432   2.946
 6439SOL    HW120216   4.711   6.491   2.972
 6439SOL    HW220217   4.772   6.340   2.982
 6440SOL     OW20218   2.685   1.979   5.390
 6440SOL    HW120219   2.728   1.895   5.424
 6440SOL    HW220220   2.729   2.006   5.305
 6441SOL     OW20221   1.268   2.087   1.712
 6441SOL    HW120222   1.304   1.994   1.711
 6441SOL    HW220223   1.171   2.085   1.737
 6442SOL     OW20224   2.390   1.829   4.096
 6442SOL    HW120225   2.453   1.891   4.141
 6442SOL    HW220226   2.358   1.759   4.160
 6443SOL     OW20227   2.666   2.477   5.841
 6443SOL    HW120228   2.724   2.468   5.760
 6443SOL    HW220229   2.572   2.453   5.818
 6444SOL     OW20230   0.175   3.743   5.064
 6444SOL    HW120231   0.174   3.665   5.002
 6444SOL    HW220232   0.127   3.820   5.023
 6445SOL     OW20233   3.476   2.940   3.395
 6445SOL    HW120234   3.433   3.024   3.362
 6445SOL    HW220235   3.466   2.934   3.494
 6446SOL     OW20236   1.472   0.477   1.593
 6446SOL    HW120237   1.463   0.379   1.612
 6446SOL    HW220238   1.485   0.526   1.678
 6447SOL     OW20239   6.059   3.892   1.001
 6447SOL    HW120240   6.057   3.986   1.034
 6447SOL    HW220241   6.139   3.880   0.942
 6448SOL     OW20242   4.067   4.221   1.475
 6448SOL    HW120243   4.084   4.218   1.376
 6448SOL    HW220244   3.980   4.175   1.495
 6449SOL     OW20245   4.463   5.280   0.558
 6449SOL    HW120246   4.378   5.289   0.505
 6449SOL    HW220247   4.507   5.194   0.536
 6450SOL     OW20248   4.439   3.470   0.144
 6450SOL    HW120249   4.507   3.539   0.171
 6450SOL    HW220250   4.414   3.483   0.048
 6451SOL     OW20251   4.177   2.630   1.383
 6451SOL    HW120252   4.174   2.606   1.480
 6451SOL    HW220253   4.093   2.599   1.338
 6452SOL     OW20254   4.223   2.139   4.411
 6452SOL    HW120255   4.308   2.110   4.455
 6452SOL    HW220256   4.245   2.187   4.325
 6453SOL     OW20257   2.270   0.636   3.024
 6453SOL    HW120258   2.340   0.623   2.953
 6453SOL    HW220259   2.264   0.733   3.047
 6454SOL     OW20260   5.167   3.997   4.763
 6454SOL    HW120261   5.222   3.998   4.847
 6454SOL    HW220262   5.070   4.000   4.787
 6455SOL     OW20263   0.530   2.630   4.168
 6455SOL    HW120264   0.574   2.719   4.151
 6455SOL    HW220265   0.512   2.585   4.081
 6456SOL     OW20266   5.957   1.938   3.565
 6456SOL    HW120267   5.947   1.915   3.661
 6456SOL    HW220268   5.995   2.030   3.557
 6457SOL     OW20269   1.508   5.953   3.617
 6457SOL    HW120270   1.450   5.885   3.572
 6457SOL    HW220271   1.503   5.942   3.716
 6458SOL     OW20272   1.231   0.375   4.829
 6458SOL    HW120273   1.267   0.455   4.876
 6458SOL    HW220274   1.290   0.351   4.752
 6459SOL     OW20275   0.783   3.379   2.880
 6459SOL    HW120276   0.756   3.384   2.784
 6459SOL    HW220277   0.853   3.309   2.892
 6460SOL     OW20278   1.734   5.027   5.714
 6460SOL    HW120279   1.676   5.093   5.762
 6460SOL    HW220280   1.690   5.001   5.628
 6461SOL     OW20281   0.417   6.895   1.421
 6461SOL    HW120282   0.385   6.881   1.328
 6461SOL    HW220283   0.475   6.977   1.425
 6462SOL     OW20284   2.456   3.971   5.759
 6462SOL    HW120285   2.518   4.048   5.745
 6462SOL    HW220286   2.486   3.894   5.703
 6463SOL     OW20287   4.470   3.259   1.515
 6463SOL    HW120288   4.413   3.258   1.598
 6463SOL    HW220289   4.503   3.166   1.497
 6464SOL     OW20290   1.280   3.706   3.196
 6464SOL    HW120291   1.295   3.620   3.148
 6464SOL    HW220292   1.183   3.729   3.193
 6465SOL     OW20293   2.556   1.535   2.802
 6465SOL    HW120294   2.504   1.531   2.717
 6465SOL    HW220295   2.541   1.624   2.846
 6466SOL     OW20296   6.546   4.943   6.825
 6466SOL    HW120297   6.623   4.976   6.880
 6466SOL    HW220298   6.474   5.012   6.823
 6467SOL     OW20299   2.392   3.591   5.712
 6467SOL    HW120300   2.439   3.559   5.795
 6467SOL    HW220301   2.446   3.662   5.669
 6468SOL     OW20302   1.093   0.685   1.393
 6468SOL    HW120303   1.060   0.677   1.487
 6468SOL    HW220304   1.069   0.775   1.357
 6469SOL     OW20305   2.335   0.770   1.203
 6469SOL    HW120306   2.273   0.839   1.167
 6469SOL    HW220307   2.346   0.783   1.302
 6470SOL     OW20308   6.126   1.762   6.702
 6470SOL    HW120309   6.114   1.709   6.785
 6470SOL    HW220310   6.040   1.807   6.678
 6471SOL     OW20311   0.912   6.067   5.938
 6471SOL    HW120312   0.918   6.062   5.838
 6471SOL    HW220313   0.955   6.151   5.969
 6472SOL     OW20314   0.650   6.594   1.389
 6472SOL    HW120315   0.606   6.630   1.471
 6472SOL    HW220316   0.580   6.555   1.328
 6473SOL     OW20317   2.821   1.762   3.555
 6473SOL    HW120318   2.765   1.783   3.475
 6473SOL    HW220319   2.862   1.671   3.545
 6474SOL     OW20320   3.842   6.837   4.140
 6474SOL    HW120321   3.918   6.789   4.186
 6474SOL    HW220322   3.807   6.908   4.201
 6475SOL     OW20323   5.280   5.750   3.295
 6475SOL    HW120324   5.318   5.733   3.204
 6475SOL    HW220325   5.247   5.844   3.300
 6476SOL     OW20326   5.298   4.228   5.495
 6476SOL    HW120327   5.249   4.152   5.539
 6476SOL    HW220328   5.238   4.274   5.431
 6477SOL     OW20329   0.551   6.467   0.800
 6477SOL    HW120330   0.531   6.437   0.707
 6477SOL    HW220331   0.469   6.505   0.842
 6478SOL     OW20332   1.792   6.345   0.788
 6478SOL    HW120333   1.851   6.332   0.867
 6478SOL    HW220334   1.733   6.264   0.777
 6479SOL     OW20335   4.539   6.172   4.110
 6479SOL    HW120336   4.538   6.158   4.209
 6479SOL    HW220337   4.522   6.085   4.064
 6480SOL     OW20338   3.383   1.336   4.935
 6480SOL    HW120339   3.283   1.344   4.929
 6480SOL    HW220340   3.408   1.240   4.944
 6481SOL     OW20341   4.315   3.197   1.752
 6481SOL    HW120342   4.395   3.161   1.801
 6481SOL    HW220343   4.259   3.121   1.719
 6482SOL     OW20344   5.163   3.164   5.258
 6482SOL    HW120345   5.251   3.142   5.214
 6482SOL    HW220346   5.155   3.263   5.268
 6483SOL     OW20347   1.710   5.486   5.782
 6483SOL    HW120348   1.681   5.536   5.864
 6483SOL    HW220349   1.685   5.390   5.791
 6484SOL     OW20350   4.084   1.226   3.400
 6484SOL    HW120351   4.154   1.154   3.400
 6484SOL    HW220352   4.113   1.299   3.462
 6485SOL     OW20353   2.190   4.853   4.419
 6485SOL    HW120354   2.196   4.799   4.503
 6485SOL    HW220355   2.158   4.946   4.441
 6486SOL     OW20356   0.253   4.334   2.126
 6486SOL    HW120357   0.240   4.422   2.172
 6486SOL    HW220358   0.207   4.336   2.037
 6487SOL     OW20359   5.755   5.428   4.052
 6487SOL    HW120360   5.850   5.429   4.084
 6487SOL    HW220361   5.712   5.515   4.074
 6488SOL     OW20362   4.029   5.044   3.974
 6488SOL    HW120363   4.012   5.091   4.061
 6488SOL    HW220364   4.120   5.004   3.975
 6489SOL     OW20365   6.578   3.374   5.126
 6489SOL    HW120366   6.508   3.320   5.173
 6489SOL    HW220367   6.658   3.316   5.107
 6490SOL     OW20368   1.721   3.306   0.210
 6490SOL    HW120369   1.786   3.277   0.281
 6490SOL    HW220370   1.638   3.339   0.254
 6491SOL     OW20371   1.741   0.200   1.789
 6491SOL    HW120372   1.790   0.113   1.795
 6491SOL    HW220373   1.708   0.212   1.695
 6492SOL     OW20374   4.144   3.340   3.681
 6492SOL    HW120375   4.082   3.267   3.654
 6492SOL    HW220376   4.185   3.318   3.769
 6493SOL     OW20377   1.224   4.656   4.117
 6493SOL    HW120378   1.310   4.683   4.074
 6493SOL    HW220379   1.148   4.688   4.061
 6494SOL     OW20380   6.585   1.191   1.433
 6494SOL    HW120381   6.546   1.281   1.451
 6494SOL    HW220382   6.537   1.148   1.357
 6495SOL     OW20383   6.298   6.392   2.579
 6495SOL    HW120384   6.273   6.448   2.658
 6495SOL    HW220385   6.338   6.306   2.610
 6496SOL     OW20386   2.681   2.259   1.541
 6496SOL    HW120387   2.689   2.212   1.453
 6496SOL    HW220388   2.631   2.201   1.606
 6497SOL     OW20389   0.611   2.614   0.818
 6497SOL    HW120390   0.534   2.621   0.881
 6497SOL    HW220391   0.695   2.596   0.870
 6498SOL     OW20392   2.361   4.521   4.329
 6498SOL    HW120393   2.297   4.479   4.394
 6498SOL    HW220394   2.449   4.535   4.375
 6499SOL     OW20395   5.907   2.533   2.272
 6499SOL    HW120396   5.879   2.629   2.262
 6499SOL    HW220397   5.943   2.519   2.364
 6500SOL     OW20398   1.712   3.980   2.749
 6500SOL    HW120399   1.613   3.993   2.736
 6500SOL    HW220400   1.750   3.931   2.670
 6501SOL     OW20401   6.787   1.362   2.716
 6501SOL    HW120402   6.688   1.368   2.708
 6501SOL    HW220403   6.822   1.443   2.762
 6502SOL     OW20404   0.743   2.922   2.053
 6502SOL    HW120405   0.725   2.882   1.964
 6502SOL    HW220406   0.735   3.021   2.048
 6503SOL     OW20407   0.166   2.784   5.418
 6503SOL    HW120408   0.167   2.715   5.491
 6503SOL    HW220409   0.216   2.749   5.338
 6504SOL     OW20410   3.769   6.923   6.076
 6504SOL    HW120411   3.670   6.930   6.059
 6504SOL    HW220412   3.788   6.841   6.129
 6505SOL     OW20413   0.445   6.547   0.022
 6505SOL    HW120414   0.485   6.482   0.087
 6505SOL    HW220415   0.396   6.618   0.072
 6506SOL     OW20416   0.296   3.830   1.549
 6506SOL    HW120417   0.226   3.792   1.609
 6506SOL    HW220418   0.362   3.759   1.525
 6507SOL     OW20419   4.709   5.644   0.717
 6507SOL    HW120420   4.704   5.647   0.618
 6507SOL    HW220421   4.687   5.552   0.749
 6508SOL     OW20422   6.983   0.668   4.328
 6508SOL    HW120423   6.897   0.691   4.284
 6508SOL    HW220424   0.024   0.749   4.332
 6509SOL     OW20425   2.384   1.847   0.544
 6509SOL    HW120426   2.458   1.837   0.478
 6509SOL    HW220427   2.358   1.943   0.552
 6510SOL     OW20428   3.080   4.901   4.625
 6510SOL    HW120429   3.021   4.926   4.702
 6510SOL    HW220430   3.168   4.867   4.660
 6511SOL     OW20431   3.495   2.791   6.680
 6511SOL    HW120432   3.491   2.734   6.598
 6511SOL    HW220433   3.575   2.850   6.676
 6512SOL     OW20434   5.254   1.169   1.349
 6512SOL    HW120435   5.263   1.252   1.294
 6512SOL    HW220436   5.158   1.156   1.375
 6513SOL     OW20437   2.920   5.077   2.283
 6513SOL    HW120438   2.869   5.083   2.369
 6513SOL    HW220439   2.869   5.020   2.218
 6514SOL     OW20440   5.010   5.727   5.871
 6514SOL    HW120441   4.983   5.779   5.953
 6514SOL    HW220442   5.009   5.629   5.892
 6515SOL     OW20443   0.939   4.888   2.477
 6515SOL    HW120444   0.931   4.906   2.379
 6515SOL    HW220445   0.851   4.907   2.521
 6516SOL     OW20446   5.834   1.212   3.850
 6516SOL    HW120447   5.909   1.152   3.822
 6516SOL    HW220448   5.763   1.158   3.894
 6517SOL     OW20449   6.801   4.298   0.270
 6517SOL    HW120450   6.763   4.359   0.340
 6517SOL    HW220451   6.778   4.332   0.179
 6518SOL     OW20452   1.150   1.851   2.184
 6518SOL    HW120453   1.145   1.829   2.281
 6518SOL    HW220454   1.059   1.875   2.150
 6519SOL     OW20455   1.336   1.514   3.269
 6519SOL    HW120456   1.291   1.603   3.278
 6519SOL    HW220457   1.319   1.461   3.352
 6520SOL     OW20458   5.749   6.362   6.359
 6520SOL    HW120459   5.668   6.312   6.388
 6520SOL    HW220460   5.728   6.460   6.354
 6521SOL     OW20461   1.367   4.477   4.510
 6521SOL    HW120462   1.396   4.483   4.414
 6521SOL    HW220463   1.417   4.545   4.564
 6522SOL     OW20464   2.377   3.080   5.419
 6522SOL    HW120465   2.286   3.038   5.427
 6522SOL    HW220466   2.412   3.068   5.327
 6523SOL     OW20467   5.328   6.650   0.673
 6523SOL    HW120468   5.420   6.622   0.644
 6523SOL    HW220469   5.291   6.582   0.736
 6524SOL     OW20470   3.308   2.599   1.355
 6524SOL    HW120471   3.311   2.690   1.313
 6524SOL    HW220472   3.303   2.609   1.454
 6525SOL     OW20473   2.058   4.557   3.986
 6525SOL    HW120474   1.966   4.543   3.950
 6525SOL    HW220475   2.124   4.556   3.910
 6526SOL     OW20476   6.545   6.442   0.508
 6526SOL    HW120477   6.626   6.488   0.472
 6526SOL    HW220478   6.473   6.444   0.438
 6527SOL     OW20479   5.317   2.202   1.007
 6527SOL    HW120480   5.241   2.223   0.945
 6527SOL    HW220481   5.376   2.134   0.965
 6528SOL     OW20482   4.737   6.278   0.566
 6528SOL    HW120483   4.741   6.358   0.507
 6528SOL    HW220484   4.828   6.238   0.575
 6529SOL     OW20485   4.439   0.258   1.672
 6529SOL    HW120486   4.361   0.208   1.632
 6529SOL    HW220487   4.447   0.347   1.628
 6530SOL     OW20488   0.495   2.294   4.191
 6530SOL    HW120489   0.421   2.296   4.124
 6530SOL    HW220490   0.556   2.372   4.176
 6531SOL     OW20491   3.790   3.472   3.706
 6531SOL    HW120492   3.706   3.423   3.729
 6531SOL    HW220493   3.792   3.559   3.755
 6532SOL     OW20494   1.201   5.530   0.139
 6532SOL    HW120495   1.242   5.467   0.205
 6532SOL    HW220496   1.243   5.517   0.050
 6533SOL     OW20497   5.029   5.160   1.385
 6533SOL    HW120498   4.964   5.087   1.407
 6533SOL    HW220499   5.022   5.232   1.453
 6534SOL     OW20500   6.717   2.589   4.184
 6534SOL    HW120501   6.720   2.530   4.265
 6534SOL    HW220502   6.651   2.662   4.199
 6535SOL     OW20503   5.279   3.442   5.931
 6535SOL    HW120504   5.237   3.528   5.903
 6535SOL    HW220505   5.254   3.422   6.026
 6536SOL     OW20506   0.154   5.132   6.116
 6536SOL    HW120507   0.132   5.218   6.070
 6536SOL    HW220508   0.252   5.127   6.133
 6537SOL     OW20509   6.496   5.581   4.425
 6537SOL    HW120510   6.408   5.617   4.395
 6537SOL    HW220511   6.561   5.657   4.435
 6538SOL     OW20512   1.514   3.481   3.563
 6538SOL    HW120513   1.540   3.510   3.470
 6538SOL    HW220514   1.508   3.381   3.566
 6539SOL     OW20515   5.284   0.125   5.832
 6539SOL    HW120516   5.318   0.034   5.856
 6539SOL    HW220517   5.252   0.124   5.737
 6540SOL     OW20518   0.944   2.356   4.894
 6540SOL    HW120519   0.994   2.270   4.905
 6540SOL    HW220520   0.881   2.368   4.971
 6541SOL     OW20521   3.825   1.487   5.677
 6541SOL    HW120522   3.758   1.414   5.662
 6541SOL    HW220523   3.892   1.457   5.745
 6542SOL     OW20524   1.866   4.095   2.075
 6542SOL    HW120525   1.893   4.183   2.035
 6542SOL    HW220526   1.862   4.025   2.003
 6543SOL     OW20527   3.852   1.712   4.044
 6543SOL    HW120528   3.910   1.790   4.022
 6543SOL    HW220529   3.899   1.653   4.109
 6544SOL     OW20530   0.831   0.479   1.140
 6544SOL    HW120531   0.845   0.419   1.219
 6544SOL    HW220532   0.890   0.559   1.147
 6545SOL     OW20533   5.535   5.537   0.813
 6545SOL    HW120534   5.602   5.507   0.881
 6545SOL    HW220535   5.559   5.629   0.782
 6546SOL     OW20536   4.280   5.363   5.107
 6546SOL    HW120537   4.358   5.391   5.051
 6546SOL    HW220538   4.199   5.353   5.049
 6547SOL     OW20539   1.309   6.238   5.463
 6547SOL    HW120540   1.311   6.335   5.488
 6547SOL    HW220541   1.398   6.212   5.424
 6548SOL     OW20542   1.144   2.137   5.658
 6548SOL    HW120543   1.157   2.083   5.741
 6548SOL    HW220544   1.046   2.143   5.638
 6549SOL     OW20545   4.002   0.914   2.724
 6549SOL    HW120546   4.061   0.924   2.803
 6549SOL    HW220547   4.020   0.827   2.678
 6550SOL     OW20548   5.937   0.256   1.809
 6550SOL    HW120549   5.887   0.203   1.878
 6550SOL    HW220550   6.036   0.248   1.826
 6551SOL     OW20551   2.417   4.878   1.615
 6551SOL    HW120552   2.446   4.783   1.603
 6551SOL    HW220553   2.468   4.919   1.691
 6552SOL     OW20554   2.104   3.596   6.922
 6552SOL    HW120555   2.055   3.678   6.952
 6552SOL    HW220556   2.158   3.618   6.841
 6553SOL     OW20557   0.405   1.583   3.206
 6553SOL    HW120558   0.380   1.519   3.278
 6553SOL    HW220559   0.417   1.534   3.120
 6554SOL     OW20560   1.279   1.514   3.859
 6554SOL    HW120561   1.182   1.512   3.834
 6554SOL    HW220562   1.301   1.603   3.898
 6555SOL     OW20563   1.266   3.677   2.256
 6555SOL    HW120564   1.204   3.600   2.272
 6555SOL    HW220565   1.227   3.760   2.297
 6556SOL     OW20566   4.863   3.444   3.395
 6556SOL    HW120567   4.810   3.515   3.349
 6556SOL    HW220568   4.933   3.408   3.332
 6557SOL     OW20569   2.094   6.766   2.660
 6557SOL    HW120570   2.017   6.814   2.702
 6557SOL    HW220571   2.171   6.830   2.652
 6558SOL     OW20572   5.332   5.609   1.077
 6558SOL    HW120573   5.339   5.702   1.041
 6558SOL    HW220574   5.318   5.545   1.001
 6559SOL     OW20575   0.417   1.554   6.040
 6559SOL    HW120576   0.342   1.607   6.002
 6559SOL    HW220577   0.395   1.527   6.134
 6560SOL     OW20578   0.005   4.548   6.123
 6560SOL    HW120579   6.986   4.466   6.079
 6560SOL    HW220580   7.008   4.628   6.065
 6561SOL     OW20581   2.638   5.728   0.539
 6561SOL    HW120582   2.723   5.773   0.513
 6561SOL    HW220583   2.561   5.789   0.521
 6562SOL     OW20584   4.759   2.360   1.701
 6562SOL    HW120585   4.802   2.343   1.790
 6562SOL    HW220586   4.829   2.362   1.630
 6563SOL     OW20587   6.065   5.681   4.862
 6563SOL    HW120588   6.021   5.707   4.777
 6563SOL    HW220589   6.074   5.581   4.867
 6564SOL     OW20590   5.177   3.497   2.216
 6564SOL    HW120591   5.257   3.437   2.207
 6564SOL    HW220592   5.099   3.455   2.170
 6565SOL     OW20593   5.079   6.050   2.136
 6565SOL    HW120594   5.021   6.081   2.211
 6565SOL    HW220595   5.023   6.013   2.063
 6566SOL     OW20596   5.101   5.573   3.727
 6566SOL    HW120597   5.127   5.486   3.769
 6566SOL    HW220598   5.103   5.564   3.627
 6567SOL     OW20599   2.958   0.912   2.683
 6567SOL    HW120600   3.009   0.830   2.711
 6567SOL    HW220601   3.009   0.961   2.614
 6568SOL     OW20602   5.176   1.848   0.888
 6568SOL    HW120603   5.169   1.772   0.823
 6568SOL    HW220604   5.085   1.867   0.926
 6569SOL     OW20605   1.679   4.547   3.502
 6569SOL    HW120606   1.621   4.511   3.575
 6569SOL    HW220607   1.640   4.633   3.468
 6570SOL     OW20608   4.567   6.943   2.856
 6570SOL    HW120609   4.547   6.857   2.808
 6570SOL    HW220610   4.633   6.926   2.928
 6571SOL     OW20611   2.953   6.457   2.812
 6571SOL    HW120612   2.917   6.528   2.752
 6571SOL    HW220613   2.985   6.380   2.756
 6572SOL     OW20614   1.324   6.328   3.735
 6572SOL    HW120615   1.295   6.245   3.783
 6572SOL    HW220616   1.330   6.404   3.800
 6573SOL     OW20617   1.079   2.139   3.165
 6573SOL    HW120618   1.144   2.067   3.189
 6573SOL    HW220619   1.111   2.227   3.201
 6574SOL     OW20620   0.378   5.475   1.754
 6574SOL    HW120621   0.327   5.547   1.801
 6574SOL    HW220622   0.470   5.509   1.732
 6575SOL     OW20623   0.406   1.171   3.505
 6575SOL    HW120624   0.335   1.130   3.561
 6575SOL    HW220625   0.491   1.119   3.515
 6576SOL     OW20626   4.273   0.059   2.027
 6576SOL    HW120627   4.209   7.015   2.072
 6576SOL    HW220628   4.251   0.063   1.929
 6577SOL     OW20629   3.725   0.970   5.119
 6577SOL    HW120630   3.736   1.015   5.030
 6577SOL    HW220631   3.813   0.934   5.150
 6578SOL     OW20632   1.274   5.802   6.703
 6578SOL    HW120633   1.356   5.853   6.729
 6578SOL    HW220634   1.229   5.847   6.626
 6579SOL     OW20635   1.660   1.500   3.478
 6579SOL    HW120636   1.698   1.569   3.417
 6579SOL    HW220637   1.567   1.525   3.504
 6580SOL     OW20638   3.296   2.976   6.749
 6580SOL    HW120639   3.210   2.924   6.756
 6580SOL    HW220640   3.373   2.913   6.759
 6581SOL     OW20641   0.140   2.608   2.355
 6581SOL    HW120642   0.103   2.557   2.432
 6581SOL    HW220643   0.132   2.553   2.272
 6582SOL     OW20644   4.091   0.351   3.334
 6582SOL    HW120645   4.039   0.404   3.267
 6582SOL    HW220646   4.061   0.375   3.426
 6583SOL     OW20647   2.596   4.179   1.207
 6583SOL    HW120648   2.558   4.131   1.128
 6583SOL    HW220649   2.550   4.148   1.290
 6584SOL     OW20650   4.243   3.247   6.164
 6584SOL    HW120651   4.148   3.216   6.159
 6584SOL    HW220652   4.246   3.347   6.154
 6585SOL     OW20653   5.699   0.433   1.896
 6585SOL    HW120654   5.645   0.387   1.967
 6585SOL    HW220655   5.786   0.385   1.884
 6586SOL     OW20656   6.734   1.652   0.511
 6586SOL    HW120657   6.646   1.675   0.471
 6586SOL    HW220658   6.807   1.669   0.445
 6587SOL     OW20659   3.068   4.974   5.470
 6587SOL    HW120660   3.146   5.033   5.447
 6587SOL    HW220661   3.046   4.916   5.392
 6588SOL     OW20662   1.228   1.434   0.681
 6588SOL    HW120663   1.155   1.502   0.668
 6588SOL    HW220664   1.190   1.342   0.677
 6589SOL     OW20665   5.909   0.017   0.942
 6589SOL    HW120666   5.871   0.072   0.868
 6589SOL    HW220667   5.863   0.042   1.028
 6590SOL     OW20668   1.589   5.945   4.966
 6590SOL    HW120669   1.530   6.020   4.938
 6590SOL    HW220670   1.536   5.860   4.971
 6591SOL     OW20671   6.162   3.259   3.623
 6591SOL    HW120672   6.081   3.205   3.600
 6591SOL    HW220673   6.226   3.258   3.546
 6592SOL     OW20674   0.272   0.866   3.988
 6592SOL    HW120675   0.244   0.959   3.964
 6592SOL    HW220676   0.214   0.800   3.940
 6593SOL     OW20677   1.331   0.286   2.989
 6593SOL    HW120678   1.252   0.226   3.003
 6593SOL    HW220679   1.315   0.374   3.033
 6594SOL     OW20680   5.412   0.151   6.459
 6594SOL    HW120681   5.442   0.088   6.388
 6594SOL    HW220682   5.366   0.101   6.531
 6595SOL     OW20683   1.370   1.466   4.773
 6595SOL    HW120684   1.460   1.485   4.814
 6595SOL    HW220685   1.336   1.379   4.806
 6596SOL     OW20686   5.171   0.841   3.187
 6596SOL    HW120687   5.163   0.862   3.285
 6596SOL    HW220688   5.096   0.883   3.137
 6597SOL     OW20689   0.887   5.141   1.371
 6597SOL    HW120690   0.832   5.157   1.453
 6597SOL    HW220691   0.829   5.149   1.290
 6598SOL     OW20692   1.183   5.388   1.898
 6598SOL    HW120693   1.150   5.310   1.845
 6598SOL    HW220694   1.281   5.377   1.915
 6599SOL     OW20695   0.586   5.600   6.184
 6599SOL    HW120696   0.582   5.695   6.214
 6599SOL    HW220697   0.659   5.590   6.116
 6600SOL     OW20698   4.443   6.416   4.663
 6600SOL    HW120699   4.437   6.357   4.582
 6600SOL    HW220700   4.513   6.485   4.649
 6601SOL     OW20701   1.020   2.951   2.476
 6601SOL    HW120702   1.070   2.865   2.466
 6601SOL    HW220703   1.031   3.005   2.392
 6602SOL     OW20704   5.774   6.078   0.247
 6602SOL    HW120705   5.856   6.028   0.272
 6602SOL    HW220706   5.704   6.014   0.216
 6603SOL     OW20707   0.320   4.612   2.386
 6603SOL    HW120708   0.270   4.656   2.311
 6603SOL    HW220709   0.265   4.538   2.424
 6604SOL     OW20710   1.555   5.261   2.312
 6604SOL    HW120711   1.610   5.221   2.239
 6604SOL    HW220712   1.461   5.271   2.280
 6605SOL     OW20713   6.854   4.924   1.523
 6605SOL    HW120714   6.832   5.002   1.581
 6605SOL    HW220715   6.870   4.843   1.580
 6606SOL     OW20716   1.396   4.618   3.186
 6606SOL    HW120717   1.414   4.574   3.098
 6606SOL    HW220718   1.473   4.676   3.210
 6607SOL     OW20719   6.601   3.474   4.052
 6607SOL    HW120720   6.529   3.443   4.114
 6607SOL    HW220721   6.680   3.414   4.059
 6608SOL     OW20722   1.408   0.388   5.305
 6608SOL    HW120723   1.316   0.349   5.302
 6608SOL    HW220724   1.425   0.441   5.222
 6609SOL     OW20725   2.991   2.240   0.175
 6609SOL    HW120726   2.989   2.160   0.114
 6609SOL    HW220727   2.932   2.311   0.138
 6610SOL     OW20728   3.302   6.320   1.211
 6610SOL    HW120729   3.377   6.351   1.152
 6610SOL    HW220730   3.331   6.323   1.306
 6611SOL     OW20731   3.258   1.451   4.337
 6611SOL    HW120732   3.219   1.418   4.251
 6611SOL    HW220733   3.187   1.491   4.394
 6612SOL     OW20734   0.289   0.279   7.009
 6612SOL    HW120735   0.349   0.357   0.008
 6612SOL    HW220736   0.258   0.242   0.078
 6613SOL     OW20737   4.270   6.874   1.388
 6613SOL    HW120738   4.344   6.814   1.415
 6613SOL    HW220739   4.250   6.861   1.291
 6614SOL     OW20740   3.783   4.283   0.605
 6614SOL    HW120741   3.817   4.197   0.643
 6614SOL    HW220742   3.684   4.288   0.617
 6615SOL     OW20743   3.158   6.180   5.739
 6615SOL    HW120744   3.167   6.100   5.798
 6615SOL    HW220745   3.077   6.232   5.765
 6616SOL     OW20746   4.028   2.134   6.588
 6616SOL    HW120747   4.116   2.100   6.556
 6616SOL    HW220748   3.981   2.181   6.513
 6617SOL     OW20749   3.237   1.745   4.168
 6617SOL    HW120750   3.316   1.771   4.223
 6617SOL    HW220751   3.259   1.665   4.112
 6618SOL     OW20752   5.860   3.403   3.589
 6618SOL    HW120753   5.870   3.312   3.549
 6618SOL    HW220754   5.791   3.455   3.539
 6619SOL     OW20755   4.658   5.203   4.076
 6619SOL    HW120756   4.717   5.190   3.997
 6619SOL    HW220757   4.615   5.116   4.101
 6620SOL     OW20758   1.154   2.929   3.196
 6620SOL    HW120759   1.162   2.942   3.097
 6620SOL    HW220760   1.216   2.856   3.225
 6621SOL     OW20761   3.337   3.532   3.759
 6621SOL    HW120762   3.398   3.453   3.751
 6621SOL    HW220763   3.243   3.503   3.741
 6622SOL     OW20764   0.194   5.010   1.851
 6622SOL    HW120765   0.109   4.993   1.902
 6622SOL    HW220766   0.243   5.086   1.894
 6623SOL     OW20767   3.555   3.308   3.783
 6623SOL    HW120768   3.563   3.318   3.883
 6623SOL    HW220769   3.616   3.236   3.752
 6624SOL     OW20770   2.605   2.419   2.761
 6624SOL    HW120771   2.552   2.496   2.725
 6624SOL    HW220772   2.681   2.400   2.699
 6625SOL     OW20773   0.093   4.501   5.483
 6625SOL    HW120774   0.159   4.431   5.456
 6625SOL    HW220775   0.002   4.460   5.491
 6626SOL     OW20776   3.354   5.825   5.584
 6626SOL    HW120777   3.394   5.753   5.641
 6626SOL    HW220778   3.264   5.797   5.553
 6627SOL     OW20779   2.582   6.515   4.598
 6627SOL    HW120780   2.540   6.459   4.670
 6627SOL    HW220781   2.513   6.539   4.530
 6628SOL     OW20782   3.999   0.494   3.594
 6628SOL    HW120783   3.980   0.435   3.672
 6628SOL    HW220784   3.918   0.500   3.537
 6629SOL     OW20785   4.665   5.895   4.745
 6629SOL    HW120786   4.644   5.933   4.835
 6629SOL    HW220787   4.608   5.941   4.676
 6630SOL     OW20788   2.097   6.819   0.358
 6630SOL    HW120789   2.127   6.784   0.447
 6630SOL    HW220790   1.999   6.807   0.348
 6631SOL     OW20791   1.383   2.166   5.501
 6631SOL    HW120792   1.288   2.147   5.526
 6631SOL    HW220793   1.418   2.090   5.446
 6632SOL     OW20794   1.348   0.239   6.456
 6632SOL    HW120795   1.267   0.256   6.399
 6632SOL    HW220796   1.328   0.265   6.550
 6633SOL     OW20797   4.697   6.685   6.353
 6633SOL    HW120798   4.626   6.615   6.367
 6633SOL    HW220799   4.721   6.689   6.256
 6634SOL     OW20800   2.633   2.360   4.411
 6634SOL    HW120801   2.666   2.393   4.323
 6634SOL    HW220802   2.539   2.391   4.425
 6635SOL     OW20803   5.251   5.675   6.066
 6635SOL    HW120804   5.208   5.711   6.149
 6635SOL    HW220805   5.205   5.591   6.038
 6636SOL     OW20806   3.934   1.403   1.051
 6636SOL    HW120807   4.031   1.430   1.049
 6636SOL    HW220808   3.917   1.345   1.130
 6637SOL     OW20809   0.146   2.374   7.014
 6637SOL    HW120810   0.064   2.324   6.986
 6637SOL    HW220811   0.226   2.331   6.972
 6638SOL     OW20812   2.992   3.584   3.848
 6638SOL    HW120813   3.021   3.510   3.788
 6638SOL    HW220814   2.971   3.548   3.938
 6639SOL     OW20815   4.626   2.923   1.222
 6639SOL    HW120816   4.636   2.833   1.265
 6639SOL    HW220817   4.687   2.928   1.143
 6640SOL     OW20818   0.912   3.557   4.468
 6640SOL    HW120819   0.981   3.601   4.525
 6640SOL    HW220820   0.901   3.609   4.383
 6641SOL     OW20821   5.508   2.590   6.902
 6641SOL    HW120822   5.591   2.617   6.854
 6641SOL    HW220823   5.432   2.648   6.873
 6642SOL     OW20824   1.414   4.927   6.105
 6642SOL    HW120825   1.339   4.934   6.170
 6642SOL    HW220826   1.394   4.855   6.039
 6643SOL     OW20827   4.469   5.671   5.880
 6643SOL    HW120828   4.398   5.601   5.891
 6643SOL    HW220829   4.456   5.743   5.948
 6644SOL     OW20830   2.047   0.161   3.744
 6644SOL    HW120831   1.982   0.094   3.778
 6644SOL    HW220832   2.138   0.120   3.741
 6645SOL     OW20833   5.076   2.305   5.190
 6645SOL    HW120834   5.010   2.235   5.160
 6645SOL    HW220835   5.153   2.307   5.126
 6646SOL     OW20836   4.921   0.365   6.470
 6646SOL    HW120837   4.839   0.369   6.415
 6646SOL    HW220838   4.992   0.313   6.422
 6647SOL     OW20839   4.059   4.861   1.043
 6647SOL    HW120840   4.063   4.766   1.013
 6647SOL    HW220841   4.036   4.920   0.966
 6648SOL     OW20842   3.265   5.448   5.366
 6648SOL    HW120843   3.350   5.427   5.317
 6648SOL    HW220844   3.187   5.411   5.316
 6649SOL     OW20845   5.464   2.484   5.844
 6649SOL    HW120846   5.417   2.561   5.800
 6649SOL    HW220847   5.396   2.419   5.878
 6650SOL     OW20848   2.813   1.153   4.728
 6650SOL    HW120849   2.834   1.159   4.826
 6650SOL    HW220850   2.871   1.083   4.685
 6651SOL     OW20851   0.049   0.998   3.659
 6651SOL    HW120852   0.078   1.083   3.616
 6651SOL    HW220853   0.124   0.931   3.655
 6652SOL     OW20854   6.940   4.828   6.766
 6652SOL    HW120855   7.007   4.891   6.726
 6652SOL    HW220856   6.893   4.779   6.693
 6653SOL     OW20857   5.446   4.028   6.719
 6653SOL    HW120858   5.396   4.038   6.804
 6653SOL    HW220859   5.382   4.007   6.645
 6654SOL     OW20860   6.866   1.943   2.928
 6654SOL    HW120861   6.777   1.952   2.973
 6654SOL    HW220862   6.903   2.033   2.907
 6655SOL     OW20863   6.903   6.032   1.468
 6655SOL    HW120864   6.917   6.079   1.380
 6655SOL    HW220865   6.992   6.008   1.507
 6656SOL     OW20866   4.616   1.113   2.386
 6656SOL    HW120867   4.532   1.079   2.426
 6656SOL    HW220868   4.635   1.205   2.420
 6657SOL     OW20869   4.664   2.143   4.658
 6657SOL    HW120870   4.647   2.223   4.716
 6657SOL    HW220871   4.666   2.172   4.562
 6658SOL     OW20872   6.681   5.798   4.753
 6658SOL    HW120873   6.650   5.781   4.847
 6658SOL    HW220874   6.661   5.892   4.727
 6659SOL     OW20875   0.535   6.083   0.837
 6659SOL    HW120876   0.577   6.139   0.909
 6659SOL    HW220877   0.437   6.099   0.836
 6660SOL     OW20878   0.900   0.127   4.216
 6660SOL    HW120879   0.814   0.128   4.268
 6660SOL    HW220880   0.902   0.047   4.156
 6661SOL     OW20881   4.059   6.586   3.602
 6661SOL    HW120882   4.083   6.630   3.688
 6661SOL    HW220883   3.959   6.581   3.594
 6662SOL     OW20884   3.423   6.899   2.210
 6662SOL    HW120885   3.388   6.853   2.291
 6662SOL    HW220886   3.405   6.843   2.129
 6663SOL     OW20887   1.317   4.232   5.638
 6663SOL    HW120888   1.360   4.311   5.594
 6663SOL    HW220889   1.356   4.148   5.601
 6664SOL     OW20890   2.987   0.166   2.033
 6664SOL    HW120891   3.067   0.223   2.053
 6664SOL    HW220892   2.945   0.137   2.120
 6665SOL     OW20893   2.685   0.732   0.230
 6665SOL    HW120894   2.711   0.741   0.326
 6665SOL    HW220895   2.585   0.727   0.223
 6666SOL     OW20896   2.924   5.912   5.866
 6666SOL    HW120897   2.993   5.845   5.888
 6666SOL    HW220898   2.900   5.905   5.769
 6667SOL     OW20899   2.123   5.657   0.329
 6667SOL    HW120900   2.149   5.751   0.306
 6667SOL    HW220901   2.205   5.605   0.355
 6668SOL     OW20902   0.091   3.408   5.864
 6668SOL    HW120903   0.121   3.488   5.916
 6668SOL    HW220904   0.128   3.412   5.771
 6669SOL     OW20905   0.581   3.445   3.146
 6669SOL    HW120906   0.625   3.446   3.236
 6669SOL    HW220907   0.637   3.390   3.083
 6670SOL     OW20908   2.750   3.954   0.425
 6670SOL    HW120909   2.726   3.992   0.515
 6670SOL    HW220910   2.676   3.970   0.361
 6671SOL     OW20911   4.601   4.955   0.686
 6671SOL    HW120912   4.680   5.016   0.680
 6671SOL    HW220913   4.632   4.863   0.708
 6672SOL     OW20914   2.006   2.621   1.368
 6672SOL    HW120915   1.981   2.636   1.272
 6672SOL    HW220916   2.012   2.522   1.385
 6673SOL     OW20917   5.694   3.727   4.080
 6673SOL    HW120918   5.767   3.708   4.015
 6673SOL    HW220919   5.712   3.813   4.128
 6674SOL     OW20920   6.885   0.457   0.442
 6674SOL    HW120921   6.911   0.554   0.438
 6674SOL    HW220922   6.855   0.428   0.351
 6675SOL     OW20923   4.713   1.285   0.546
 6675SOL    HW120924   4.696   1.191   0.574
 6675SOL    HW220925   4.720   1.289   0.446
 6676SOL     OW20926   0.840   4.193   5.129
 6676SOL    HW120927   0.762   4.151   5.177
 6676SOL    HW220928   0.809   4.230   5.041
 6677SOL     OW20929   0.359   2.224   6.887
 6677SOL    HW120930   0.404   2.252   6.803
 6677SOL    HW220931   0.325   2.130   6.877
 6678SOL     OW20932   2.555   4.235   6.745
 6678SOL    HW120933   2.631   4.251   6.682
 6678SOL    HW220934   2.469   4.260   6.700
 6679SOL     OW20935   1.410   0.230   4.334
 6679SOL    HW120936   1.502   0.205   4.303
 6679SOL    HW220937   1.411   0.242   4.433
 6680SOL     OW20938   6.190   5.357   2.021
 6680SOL    HW120939   6.158   5.275   1.973
 6680SOL    HW220940   6.264   5.400   1.969
 6681SOL     OW20941   3.240   5.597   0.926
 6681SOL    HW120942   3.158   5.573   0.874
 6681SOL    HW220943   3.248   5.537   1.006
 6682SOL     OW20944   2.443   5.141   6.414
 6682SOL    HW120945   2.468   5.084   6.492
 6682SOL    HW220946   2.363   5.103   6.369
 6683SOL     OW20947   6.494   6.161   6.252
 6683SOL    HW120948   6.449   6.190   6.168
 6683SOL    HW220949   6.445   6.199   6.331
 6684SOL     OW20950   2.670   6.364   5.920
 6684SOL    HW120951   2.621   6.399   6.000
 6684SOL    HW220952   2.676   6.436   5.851
 6685SOL     OW20953   3.724   2.277   0.675
 6685SOL    HW120954   3.699   2.194   0.626
 6685SOL    HW220955   3.661   2.350   0.650
 6686SOL     OW20956   4.458   4.756   5.420
 6686SOL    HW120957   4.432   4.760   5.323
 6686SOL    HW220958   4.553   4.787   5.430
 6687SOL     OW20959   0.593   2.184   1.233
 6687SOL    HW120960   0.521   2.201   1.300
 6687SOL    HW220961   0.680   2.216   1.268
 6688SOL     OW20962   5.103   5.311   0.731
 6688SOL    HW120963   5.060   5.399   0.752
 6688SOL    HW220964   5.110   5.301   0.631
 6689SOL     OW20965   3.342   5.233   6.281
 6689SOL    HW120966   3.368   5.328   6.300
 6689SOL    HW220967   3.401   5.196   6.209
 6690SOL     OW20968   1.167   0.290   0.603
 6690SOL    HW120969   1.138   0.240   0.522
 6690SOL    HW220970   1.107   0.368   0.618
 6691SOL     OW20971   2.927   1.804   2.204
 6691SOL    HW120972   2.900   1.887   2.154
 6691SOL    HW220973   2.858   1.733   2.190
 6692SOL     OW20974   4.316   6.721   2.045
 6692SOL    HW120975   4.275   6.745   2.133
 6692SOL    HW220976   4.261   6.650   2.001
 6693SOL     OW20977   3.250   1.198   5.792
 6693SOL    HW120978   3.286   1.254   5.718
 6693SOL    HW220979   3.154   1.175   5.773
 6694SOL     OW20980   4.393   4.100   1.390
 6694SOL    HW120981   4.422   4.025   1.449
 6694SOL    HW220982   4.345   4.169   1.445
 6695SOL     OW20983   2.931   2.532   0.417
 6695SOL    HW120984   2.972   2.543   0.507
 6695SOL    HW220985   2.951   2.612   0.360
 6696SOL     OW20986   3.865   3.131   5.316
 6696SOL    HW120987   3.836   3.099   5.406
 6696SOL    HW220988   3.824   3.073   5.245
 6697SOL     OW20989   4.655   2.388   2.546
 6697SOL    HW120990   4.561   2.354   2.550
 6697SOL    HW220991   4.660   2.466   2.484
 6698SOL     OW20992   2.670   3.735   1.630
 6698SOL    HW120993   2.712   3.809   1.683
 6698SOL    HW220994   2.571   3.737   1.643
 6699SOL     OW20995   1.658   3.143   6.501
 6699SOL    HW120996   1.716   3.180   6.573
 6699SOL    HW220997   1.683   3.185   6.413
 6700SOL     OW20998   5.397   0.970   1.213
 6700SOL    HW120999   5.346   0.937   1.133
 6700SOL    HW221000   5.335   1.020   1.274
 6701SOL     OW21001   5.818   0.525   1.438
 6701SOL    HW121002   5.893   0.589   1.453
 6701SOL    HW221003   5.734   0.563   1.475
 6702SOL     OW21004   4.043   2.825   1.054
 6702SOL    HW121005   4.056   2.825   1.153
 6702SOL    HW221006   4.070   2.736   1.016
 6703SOL     OW21007   0.826   1.420   0.438
 6703SOL    HW121008   0.816   1.407   0.339
 6703SOL    HW221009   0.894   1.491   0.455
 6704SOL     OW21010   3.243   0.023   5.540
 6704SOL    HW121011   3.163   0.056   5.591
 6704SOL    HW221012   3.288   6.969   5.592
 6705SOL     OW21013   0.213   4.789   2.203
 6705SOL    HW121014   0.265   4.873   2.196
 6705SOL    HW221015   0.199   4.750   2.111
 6706SOL     OW21016   6.914   5.914   0.331
 6706SOL    HW121017   6.966   5.898   0.415
 6706SOL    HW221018   6.949   5.996   0.285
 6707SOL     OW21019   4.346   1.257   2.913
 6707SOL    HW121020   4.288   1.219   2.986
 6707SOL    HW221021   4.417   1.191   2.890
 6708SOL     OW21022   0.359   2.866   0.517
 6708SOL    HW121023   0.261   2.869   0.536
 6708SOL    HW221024   0.377   2.913   0.431
 6709SOL     OW21025   2.265   4.214   1.991
 6709SOL    HW121026   2.242   4.222   2.088
 6709SOL    HW221027   2.364   4.219   1.980
 6710SOL     OW21028   4.656   1.899   1.256
 6710SOL    HW121029   4.596   1.964   1.302
 6710SOL    HW221030   4.740   1.946   1.228
 6711SOL     OW21031   4.124   5.739   6.182
 6711SOL    HW121032   4.028   5.748   6.156
 6711SOL    HW221033   4.166   5.830   6.184
 6712SOL     OW21034   5.213   3.872   1.240
 6712SOL    HW121035   5.277   3.874   1.317
 6712SOL    HW221036   5.140   3.939   1.255
 6713SOL     OW21037   1.707   4.374   4.179
 6713SOL    HW121038   1.795   4.328   4.190
 6713SOL    HW221039   1.635   4.305   4.168
 6714SOL     OW21040   5.621   1.245   1.936
 6714SOL    HW121041   5.720   1.250   1.949
 6714SOL    HW221042   5.596   1.153   1.906
 6715SOL     OW21043   0.950   0.404   5.982
 6715SOL    HW121044   0.951   0.503   5.969
 6715SOL    HW221045   0.855   0.373   5.994
 6716SOL     OW21046   1.113   4.844   1.704
 6716SOL    HW121047   1.075   4.765   1.754
 6716SOL    HW221048   1.134   4.816   1.610
 6717SOL     OW21049   6.293   2.437   5.482
 6717SOL    HW121050   6.220   2.453   5.549
 6717SOL    HW221051   6.332   2.346   5.496
 6718SOL     OW21052   4.524   2.201   0.855
 6718SOL    HW121053   4.549   2.146   0.775
 6718SOL    HW221054   4.580   2.284   0.857
 6719SOL     OW21055   1.614   1.118   0.714
 6719SOL    HW121056   1.589   1.032   0.669
 6719SOL    HW221057   1.565   1.193   0.672
 6720SOL     OW21058   1.514   1.708   5.167
 6720SOL    HW121059   1.469   1.670   5.086
 6720SOL    HW221060   1.591   1.649   5.193
 6721SOL     OW21061   6.758   6.609   0.465
 6721SOL    HW121062   6.850   6.585   0.435
 6721SOL    HW221063   6.744   6.707   0.454
 6722SOL     OW21064   6.038   5.015   0.977
 6722SOL    HW121065   5.959   5.073   0.995
 6722SOL    HW221066   6.024   4.963   0.892
 6723SOL     OW21067   1.688   3.019   4.399
 6723SOL    HW121068   1.704   3.088   4.329
 6723SOL    HW221069   1.616   3.050   4.461
 6724SOL     OW21070   1.875   3.682   4.743
 6724SOL    HW121071   1.946   3.742   4.705
 6724SOL    HW221072   1.885   3.590   4.705
 6725SOL     OW21073   4.953   3.216   4.269
 6725SOL    HW121074   4.897   3.226   4.187
 6725SOL    HW221075   5.050   3.209   4.242
 6726SOL     OW21076   0.026   1.395   6.749
 6726SOL    HW121077   6.957   1.355   6.776
 6726SOL    HW221078   0.012   1.490   6.721
 6727SOL     OW21079   0.470   5.249   5.461
 6727SOL    HW121080   0.402   5.206   5.402
 6727SOL    HW221081   0.545   5.285   5.405
 6728SOL     OW21082   3.632   1.094   4.458
 6728SOL    HW121083   3.603   1.114   4.551
 6728SOL    HW221084   3.610   1.173   4.399
 6729SOL     OW21085   4.250   1.173   2.057
 6729SOL    HW121086   4.285   1.257   2.098
 6729SOL    HW221087   4.152   1.166   2.073
 6730SOL     OW21088   0.691   1.785   0.964
 6730SOL    HW121089   0.747   1.843   0.905
 6730SOL    HW221090   0.652   1.710   0.911
 6731SOL     OW21091   3.968   0.405   6.402
 6731SOL    HW121092   3.923   0.439   6.320
 6731SOL    HW221093   4.035   0.335   6.376
 6732SOL     OW21094   6.160   5.050   5.561
 6732SOL    HW121095   6.211   5.029   5.644
 6732SOL    HW221096   6.091   4.979   5.546
 6733SOL     OW21097   4.874   5.488   5.487
 6733SOL    HW121098   4.810   5.441   5.426
 6733SOL    HW221099   4.826   5.514   5.571
 6734SOL     OW21100   5.932   2.450   5.104
 6734SOL    HW121101   5.942   2.453   5.005
 6734SOL    HW221102   5.874   2.372   5.130
 6735SOL     OW21103   5.230   2.873   4.438
 6735SOL    HW121104   5.165   2.945   4.414
 6735SOL    HW221105   5.317   2.890   4.392
 6736SOL     OW21106   3.514   3.966   0.597
 6736SOL    HW121107   3.536   4.061   0.617
 6736SOL    HW221108   3.598   3.913   0.591
 6737SOL     OW21109   5.879   3.619   0.739
 6737SOL    HW121110   5.853   3.714   0.754
 6737SOL    HW221111   5.966   3.599   0.785
 6738SOL     OW21112   2.315   6.554   4.426
 6738SOL    HW121113   2.309   6.636   4.369
 6738SOL    HW221114   2.254   6.564   4.505
 6739SOL     OW21115   6.992   6.970   5.976
 6739SOL    HW121116   6.955   6.890   5.928
 6739SOL    HW221117   7.016   0.023   5.909
 6740SOL     OW21118   0.511   6.868   2.029
 6740SOL    HW121119   0.428   6.826   1.992
 6740SOL    HW221120   0.491   6.909   2.118
 6741SOL     OW21121   3.329   1.820   0.673
 6741SOL    HW121122   3.281   1.907   0.669
 6741SOL    HW221123   3.337   1.781   0.582
 6742SOL     OW21124   6.558   4.529   2.539
 6742SOL    HW121125   6.527   4.624   2.530
 6742SOL    HW221126   6.603   4.501   2.454
 6743SOL     OW21127   3.864   3.804   0.032
 6743SOL    HW121128   3.841   3.899   0.011
 6743SOL    HW221129   3.892   3.758   6.966
 6744SOL     OW21130   6.587   6.793   6.014
 6744SOL    HW121131   6.634   6.771   5.928
 6744SOL    HW221132   6.573   6.709   6.066
 6745SOL     OW21133   6.079   3.615   5.495
 6745SOL    HW121134   6.166   3.659   5.476
 6745SOL    HW221135   6.005   3.664   5.450
 6746SOL     OW21136   0.965   2.209   2.874
 6746SOL    HW121137   0.939   2.180   2.967
 6746SOL    HW221138   1.026   2.288   2.880
 6747SOL     OW21139   1.455   6.149   4.792
 6747SOL    HW121140   1.380   6.157   4.858
 6747SOL    HW221141   1.422   6.105   4.709
 6748SOL     OW21142   1.689   1.697   4.464
 6748SOL    HW121143   1.610   1.757   4.480
 6748SOL    HW221144   1.733   1.677   4.552
 6749SOL     OW21145   4.034   5.033   2.178
 6749SOL    HW121146   3.942   5.007   2.149
 6749SOL    HW221147   4.062   4.974   2.254
 6750SOL     OW21148   3.889   1.079   5.864
 6750SOL    HW121149   3.810   1.035   5.906
 6750SOL    HW221150   3.865   1.172   5.838
 6751SOL     OW21151   4.260   0.974   4.397
 6751SOL    HW121152   4.248   1.028   4.314
 6751SOL    HW221153   4.261   1.035   4.476
 6752SOL     OW21154   2.013   4.869   2.694
 6752SOL    HW121155   1.996   4.964   2.719
 6752SOL    HW221156   1.927   4.818   2.695
 6753SOL     OW21157   3.403   4.159   0.320
 6753SOL    HW121158   3.425   4.254   0.344
 6753SOL    HW221159   3.488   4.108   0.307
 6754SOL     OW21160   6.356   1.170   0.378
 6754SOL    HW121161   6.369   1.251   0.320
 6754SOL    HW221162   6.344   1.089   0.321
 6755SOL     OW21163   3.616   5.947   5.581
 6755SOL    HW121164   3.680   6.010   5.624
 6755SOL    HW221165   3.526   5.955   5.625
 6756SOL     OW21166   3.985   3.153   6.050
 6756SOL    HW121167   3.913   3.128   6.115
 6756SOL    HW221168   3.984   3.252   6.035
 6757SOL     OW21169   4.563   0.011   1.624
 6757SOL    HW121170   4.497   6.974   1.675
 6757SOL    HW221171   4.527   0.103   1.612
 6758SOL     OW21172   5.338   3.636   3.096
 6758SOL    HW121173   5.259   3.609   3.040
 6758SOL    HW221174   5.421   3.631   3.041
 6759SOL     OW21175   1.572   1.670   2.389
 6759SOL    HW121176   1.510   1.629   2.322
 6759SOL    HW221177   1.519   1.723   2.456
 6760SOL     OW21178   5.747   2.028   5.563
 6760SOL    HW121179   5.732   1.939   5.520
 6760SOL    HW221180   5.817   2.078   5.512
 6761SOL     OW21181   3.216   0.739   5.139
 6761SOL    HW121182   3.154   0.747   5.061
 6761SOL    HW221183   3.227   0.829   5.182
 6762SOL     OW21184   5.934   4.852   4.321
 6762SOL    HW121185   5.949   4.796   4.239
 6762SOL    HW221186   6.017   4.854   4.375
 6763SOL     OW21187   5.836   6.757   4.134
 6763SOL    HW121188   5.904   6.684   4.121
 6763SOL    HW221189   5.880   6.846   4.121
 6764SOL     OW21190   0.585   5.254   1.719
 6764SOL    HW121191   0.488   5.278   1.710
 6764SOL    HW221192   0.610   5.250   1.815
 6765SOL     OW21193   0.205   4.081   2.327
 6765SOL    HW121194   0.268   4.046   2.258
 6765SOL    HW221195   0.139   4.010   2.351
 6766SOL     OW21196   6.066   0.280   0.864
 6766SOL    HW121197   5.967   0.279   0.854
 6766SOL    HW221198   6.090   0.293   0.960
 6767SOL     OW21199   3.381   0.602   1.373
 6767SOL    HW121200   3.351   0.688   1.415
 6767SOL    HW221201   3.307   0.535   1.379
 6768SOL     OW21202   2.020   0.000   0.011
 6768SOL    HW121203   1.920   0.005   0.018
 6768SOL    HW221204   2.059   0.092   0.025
 6769SOL     OW21205   4.942   3.296   1.026
 6769SOL    HW121206   4.913   3.368   0.962
 6769SOL    HW221207   4.910   3.318   1.118
 6770SOL     OW21208   0.058   1.440   1.786
 6770SOL    HW121209   0.150   1.472   1.808
 6770SOL    HW221210   0.011   1.411   1.869
 6771SOL     OW21211   5.053   1.840   3.429
 6771SOL    HW121212   4.956   1.830   3.410
 6771SOL    HW221213   5.067   1.904   3.504
 6772SOL     OW21214   3.310   1.723   4.498
 6772SOL    HW121215   3.279   1.634   4.466
 6772SOL    HW221216   3.244   1.760   4.564
 6773SOL     OW21217   0.399   3.920   1.278
 6773SOL    HW121218   0.339   3.921   1.358
 6773SOL    HW221219   0.494   3.930   1.308
 6774SOL     OW21220   1.081   2.129   6.472
 6774SOL    HW121221   1.013   2.056   6.466
 6774SOL    HW221222   1.090   2.157   6.567
 6775SOL     OW21223   0.761   3.777   6.814
 6775SOL    HW121224   0.778   3.814   6.905
 6775SOL    HW221225   0.813   3.829   6.746
 6776SOL     OW21226   5.938   6.031   6.705
 6776SOL    HW121227   5.875   5.982   6.766
 6776SOL    HW221228   5.927   6.130   6.719
 6777SOL     OW21229   4.828   4.959   6.660
 6777SOL    HW121230   4.872   4.991   6.576
 6777SOL    HW221231   4.807   5.038   6.718
 6778SOL     OW21232   6.506   5.935   3.311
 6778SOL    HW121233   6.509   5.928   3.211
 6778SOL    HW221234   6.427   5.884   3.345
 6779SOL     OW21235   5.923   3.811   6.129
 6779SOL    HW121236   5.865   3.755   6.070
 6779SOL    HW221237   5.865   3.872   6.184
 6780SOL     OW21238   0.545   3.336   1.438
 6780SOL    HW121239   0.634   3.353   1.396
 6780SOL    HW221240   0.537   3.238   1.459
 6781SOL     OW21241   5.699   5.239   5.610
 6781SOL    HW121242   5.628   5.306   5.590
 6781SOL    HW221243   5.786   5.268   5.569
 6782SOL     OW21244   5.495   0.848   3.226
 6782SOL    HW121245   5.449   0.759   3.229
 6782SOL    HW221246   5.449   0.912   3.288
 6783SOL     OW21247   1.115   5.932   6.539
 6783SOL    HW121248   1.025   5.937   6.583
 6783SOL    HW221249   1.104   5.931   6.440
 6784SOL     OW21250   3.950   3.391   0.086
 6784SOL    HW121251   3.857   3.387   0.049
 6784SOL    HW221252   3.998   3.307   0.064
 6785SOL     OW21253   6.118   5.281   2.327
 6785SOL    HW121254   6.165   5.314   2.409
 6785SOL    HW221255   6.135   5.344   2.251
 6786SOL     OW21256   1.757   3.510   5.638
 6786SOL    HW121257   1.741   3.607   5.622
 6786SOL    HW221258   1.847   3.484   5.604
 6787SOL     OW21259   1.063   3.926   1.070
 6787SOL    HW121260   0.993   3.858   1.093
 6787SOL    HW221261   1.144   3.880   1.034
 6788SOL     OW21262   2.458   3.994   1.036
 6788SOL    HW121263   2.432   4.013   0.941
 6788SOL    HW221264   2.440   3.898   1.057
 6789SOL     OW21265   1.022   5.366   3.469
 6789SOL    HW121266   1.084   5.411   3.534
 6789SOL    HW221267   1.004   5.273   3.500
 6790SOL     OW21268   1.232   2.489   1.048
 6790SOL    HW121269   1.284   2.574   1.053
 6790SOL    HW221270   1.294   2.411   1.053
 6791SOL     OW21271   3.106   3.797   6.184
 6791SOL    HW121272   3.078   3.736   6.258
 6791SOL    HW221273   3.205   3.814   6.191
 6792SOL     OW21274   0.305   4.693   0.463
 6792SOL    HW121275   0.219   4.669   0.509
 6792SOL    HW221276   0.286   4.761   0.392
 6793SOL     OW21277   5.900   1.429   1.484
 6793SOL    HW121278   5.844   1.419   1.567
 6793SOL    HW221279   5.869   1.364   1.415
 6794SOL     OW21280   3.964   1.563   4.243
 6794SOL    HW121281   4.005   1.473   4.228
 6794SOL    HW221282   3.910   1.561   4.328
 6795SOL     OW21283   3.516   6.213   0.029
 6795SOL    HW121284   3.558   6.277   0.093
 6795SOL    HW221285   3.488   6.262   6.965
 6796SOL     OW21286   4.060   1.894   2.817
 6796SOL    HW121287   4.144   1.856   2.856
 6796SOL    HW221288   4.075   1.989   2.791
 6797SOL     OW21289   6.772   2.146   1.910
 6797SOL    HW121290   6.759   2.232   1.961
 6797SOL    HW221291   6.717   2.149   1.827
 6798SOL     OW21292   6.822   0.182   2.262
 6798SOL    HW121293   6.881   0.190   2.342
 6798SOL    HW221294   6.831   0.264   2.206
 6799SOL     OW21295   5.218   5.871   1.809
 6799SOL    HW121296   5.239   5.778   1.838
 6799SOL    HW221297   5.264   5.936   1.869
 6800SOL     OW21298   3.512   3.918   6.898
 6800SOL    HW121299   3.421   3.920   6.857
 6800SOL    HW221300   3.506   3.889   6.994
 6801SOL     OW21301   0.674   2.980   2.817
 6801SOL    HW121302   0.706   3.015   2.905
 6801SOL    HW221303   0.680   3.052   2.748
 6802SOL     OW21304   2.710   4.757   2.611
 6802SOL    HW121305   2.723   4.733   2.515
 6802SOL    HW221306   2.622   4.721   2.643
 6803SOL     OW21307   3.575   2.671   0.928
 6803SOL    HW121308   3.578   2.673   0.828
 6803SOL    HW221309   3.527   2.752   0.961
 6804SOL     OW21310   1.114   6.940   3.870
 6804SOL    HW121311   1.117   6.844   3.898
 6804SOL    HW221312   1.117   6.946   3.770
 6805SOL     OW21313   5.960   1.169   5.480
 6805SOL    HW121314   5.945   1.228   5.559
 6805SOL    HW221315   5.876   1.118   5.460
 6806SOL     OW21316   5.560   6.602   5.115
 6806SOL    HW121317   5.535   6.531   5.049
 6806SOL    HW221318   5.655   6.629   5.099
 6807SOL     OW21319   3.074   3.534   6.637
 6807SOL    HW121320   3.077   3.617   6.693
 6807SOL    HW221321   3.027   3.554   6.550
 6808SOL     OW21322   2.144   3.424   3.814
 6808SOL    HW121323   2.112   3.492   3.880
 6808SOL    HW221324   2.157   3.337   3.860
 6809SOL     OW21325   1.463   3.788   0.150
 6809SOL    HW121326   1.383   3.818   0.099
 6809SOL    HW221327   1.468   3.838   0.237
 6810SOL     OW21328   5.765   1.447   3.397
 6810SOL    HW121329   5.736   1.517   3.331
 6810SOL    HW221330   5.762   1.357   3.353
 6811SOL     OW21331   4.951   5.915   1.917
 6811SOL    HW121332   5.045   5.891   1.891
 6811SOL    HW221333   4.894   5.921   1.835
 6812SOL     OW21334   3.453   3.239   2.653
 6812SOL    HW121335   3.522   3.175   2.619
 6812SOL    HW221336   3.377   3.244   2.588
 6813SOL     OW21337   5.177   3.500   1.027
 6813SOL    HW121338   5.203   3.586   0.983
 6813SOL    HW221339   5.170   3.428   0.958
 6814SOL     OW21340   2.533   3.185   0.608
 6814SOL    HW121341   2.601   3.182   0.535
 6814SOL    HW221342   2.575   3.224   0.690
 6815SOL     OW21343   1.243   0.370   1.077
 6815SOL    HW121344   1.259   0.460   1.037
 6815SOL    HW221345   1.209   0.381   1.170
 6816SOL     OW21346   6.373   4.135   1.039
 6816SOL    HW121347   6.426   4.209   0.997
 6816SOL    HW221348   6.319   4.089   0.969
 6817SOL     OW21349   0.677   2.665   6.329
 6817SOL    HW121350   0.654   2.605   6.252
 6817SOL    HW221351   0.772   2.695   6.320
 6818SOL     OW21352   4.072   5.236   1.157
 6818SOL    HW121353   4.081   5.136   1.153
 6818SOL    HW221354   3.989   5.264   1.110
 6819SOL     OW21355   2.946   1.619   4.031
 6819SOL    HW121356   2.862   1.570   4.006
 6819SOL    HW221357   2.961   1.694   3.967
 6820SOL     OW21358   2.104   5.101   4.470
 6820SOL    HW121359   2.129   5.118   4.565
 6820SOL    HW221360   2.006   5.118   4.458
 6821SOL     OW21361   2.341   2.838   4.354
 6821SOL    HW121362   2.344   2.846   4.453
 6821SOL    HW221363   2.393   2.757   4.325
 6822SOL     OW21364   4.786   1.860   6.313
 6822SOL    HW121365   4.735   1.899   6.236
 6822SOL    HW221366   4.884   1.875   6.299
 6823SOL     OW21367   4.062   3.446   2.109
 6823SOL    HW121368   4.037   3.456   2.205
 6823SOL    HW221369   3.997   3.496   2.052
 6824SOL     OW21370   1.073   4.824   5.684
 6824SOL    HW121371   1.155   4.796   5.735
 6824SOL    HW221372   1.031   4.744   5.642
 6825SOL     OW21373   5.776   0.066   3.766
 6825SOL    HW121374   5.692   0.109   3.736
 6825SOL    HW221375   5.786   6.995   3.722
 6826SOL     OW21376   1.042   3.262   2.904
 6826SOL    HW121377   1.124   3.218   2.943
 6826SOL    HW221378   1.034   3.237   2.808
 6827SOL     OW21379   5.486   5.933   4.960
 6827SOL    HW121380   5.545   5.925   5.040
 6827SOL    HW221381   5.391   5.923   4.987
 6828SOL     OW21382   2.163   1.828   1.391
 6828SOL    HW121383   2.137   1.895   1.321
 6828SOL    HW221384   2.098   1.834   1.467
 6829SOL     OW21385   5.620   4.838   3.785
 6829SOL    HW121386   5.714   4.808   3.769
 6829SOL    HW221387   5.557   4.767   3.754
 6830SOL     OW21388   5.000   1.962   4.069
 6830SOL    HW121389   4.952   2.016   4.138
 6830SOL    HW221390   4.960   1.871   4.064
 6831SOL     OW21391   0.056   1.476   6.026
 6831SOL    HW121392   0.027   1.433   5.940
 6831SOL    HW221393   0.117   1.413   6.074
 6832SOL     OW21394   3.226   5.251   1.545
 6832SOL    HW121395   3.171   5.212   1.619
 6832SOL    HW221396   3.188   5.224   1.457
 6833SOL     OW21397   4.464   5.760   6.760
 6833SOL    HW121398   4.507   5.763   6.670
 6833SOL    HW221399   4.382   5.704   6.756
 6834SOL     OW21400   3.383   5.488   2.400
 6834SOL    HW121401   3.393   5.587   2.391
 6834SOL    HW221402   3.453   5.452   2.461
 6835SOL     OW21403   4.449   0.166   4.837
 6835SOL    HW121404   4.478   0.071   4.826
 6835SOL    HW221405   4.441   0.188   4.934
 6836SOL     OW21406   3.757   5.713   6.953
 6836SOL    HW121407   3.664   5.746   6.969
 6836SOL    HW221408   3.756   5.613   6.949
 6837SOL     OW21409   0.281   2.995   2.872
 6837SOL    HW121410   0.229   3.071   2.910
 6837SOL    HW221411   0.220   2.917   2.854
 6838SOL     OW21412   2.585   1.489   1.240
 6838SOL    HW121413   2.675   1.530   1.251
 6838SOL    HW221414   2.518   1.543   1.292
 6839SOL     OW21415   4.515   0.763   1.739
 6839SOL    HW121416   4.445   0.835   1.740
 6839SOL    HW221417   4.470   0.674   1.740
 6840SOL     OW21418   0.895   1.124   6.732
 6840SOL    HW121419   0.891   1.042   6.676
 6840SOL    HW221420   0.917   1.203   6.675
 6841SOL     OW21421   0.325   3.186   5.467
 6841SOL    HW121422   0.229   3.193   5.439
 6841SOL    HW221423   0.341   3.097   5.509
 6842SOL     OW21424   2.449   4.416   2.555
 6842SOL    HW121425   2.417   4.338   2.609
 6842SOL    HW221426   2.456   4.389   2.459
 6843SOL     OW21427   4.501   0.088   0.838
 6843SOL    HW121428   4.435   0.081   0.913
 6843SOL    HW221429   4.539   7.016   0.819
 6844SOL     OW21430   5.614   0.624   5.640
 6844SOL    HW121431   5.568   0.659   5.722
 6844SOL    HW221432   5.622   0.524   5.648
 6845SOL     OW21433   5.134   2.144   2.631
 6845SOL    HW121434   5.214   2.204   2.639
 6845SOL    HW221435   5.136   2.097   2.544
 6846SOL     OW21436   2.031   3.497   0.256
 6846SOL    HW121437   2.036   3.427   0.185
 6846SOL    HW221438   2.107   3.485   0.320
 6847SOL     OW21439   6.743   2.312   4.658
 6847SOL    HW121440   6.655   2.269   4.637
 6847SOL    HW221441   6.776   2.361   4.576
 6848SOL     OW21442   6.943   4.839   3.397
 6848SOL    HW121443   7.007   4.833   3.474
 6848SOL    HW221444   6.944   4.932   3.360
 6849SOL     OW21445   2.796   4.343   6.007
 6849SOL    HW121446   2.819   4.435   5.978
 6849SOL    HW221447   2.743   4.298   5.935
 6850SOL     OW21448   4.931   0.189   4.270
 6850SOL    HW121449   4.980   0.215   4.186
 6850SOL    HW221450   4.996   0.176   4.344
 6851SOL     OW21451   1.515   4.048   3.000
 6851SOL    HW121452   1.465   4.134   2.987
 6851SOL    HW221453   1.451   3.971   3.001
 6852SOL     OW21454   4.383   3.751   0.318
 6852SOL    HW121455   4.336   3.837   0.335
 6852SOL    HW221456   4.317   3.682   0.289
 6853SOL     OW21457   3.833   4.687   6.302
 6853SOL    HW121458   3.865   4.712   6.211
 6853SOL    HW221459   3.766   4.613   6.295
 6854SOL     OW21460   5.082   5.869   5.635
 6854SOL    HW121461   5.048   5.826   5.719
 6854SOL    HW221462   5.084   5.800   5.562
 6855SOL     OW21463   4.178   5.148   3.020
 6855SOL    HW121464   4.164   5.193   3.108
 6855SOL    HW221465   4.276   5.137   3.003
 6856SOL     OW21466   6.657   2.683   0.438
 6856SOL    HW121467   6.736   2.687   0.377
 6856SOL    HW221468   6.576   2.718   0.391
 6857SOL     OW21469   1.107   4.206   5.801
 6857SOL    HW121470   1.061   4.118   5.797
 6857SOL    HW221471   1.192   4.202   5.749
 6858SOL     OW21472   1.478   3.729   1.595
 6858SOL    HW121473   1.479   3.813   1.541
 6858SOL    HW221474   1.386   3.713   1.631
 6859SOL     OW21475   2.191   1.983   1.139
 6859SOL    HW121476   2.093   2.005   1.136
 6859SOL    HW221477   2.244   2.066   1.121
 6860SOL     OW21478   0.289   6.197   0.198
 6860SOL    HW121479   0.225   6.224   0.270
 6860SOL    HW221480   0.271   6.250   0.115
 6861SOL     OW21481   6.259   3.199   6.657
 6861SOL    HW121482   6.309   3.215   6.572
 6861SOL    HW221483   6.237   3.102   6.665
 6862SOL     OW21484   0.758   4.621   3.637
 6862SOL    HW121485   0.753   4.710   3.682
 6862SOL    HW221486   0.766   4.549   3.706
 6863SOL     OW21487   5.122   1.512   4.947
 6863SOL    HW121488   5.059   1.462   5.006
 6863SOL    HW221489   5.083   1.521   4.856
 6864SOL     OW21490   1.709   3.501   6.637
 6864SOL    HW121491   1.624   3.481   6.589
 6864SOL    HW221492   1.758   3.416   6.656
 6865SOL     OW21493   2.101   0.182   4.460
 6865SOL    HW121494   2.010   0.140   4.470
 6865SOL    HW221495   2.147   0.142   4.381
 6866SOL     OW21496   1.901   4.906   0.237
 6866SOL    HW121497   1.858   4.872   0.321
 6866SOL    HW221498   1.899   4.833   0.168
 6867SOL     OW21499   2.174   2.338   6.485
 6867SOL    HW121500   2.153   2.299   6.395
 6867SOL    HW221501   2.111   2.414   6.503
 6868SOL     OW21502   3.528   4.919   3.176
 6868SOL    HW121503   3.578   5.006   3.172
 6868SOL    HW221504   3.471   4.917   3.258
 6869SOL     OW21505   1.635   0.972   5.838
 6869SOL    HW121506   1.726   0.942   5.867
 6869SOL    HW221507   1.587   1.014   5.915
 6870SOL     OW21508   5.716   2.499   6.569
 6870SOL    HW121509   5.779   2.460   6.502
 6870SOL    HW221510   5.650   2.430   6.597
 6871SOL     OW21511   6.747   2.600   2.422
 6871SOL    HW121512   6.682   2.526   2.409
 6871SOL    HW221513   6.813   2.574   2.492
 6872SOL     OW21514   1.493   3.891   1.101
 6872SOL    HW121515   1.520   3.799   1.127
 6872SOL    HW221516   1.559   3.929   1.037
 6873SOL     OW21517   0.437   4.244   2.718
 6873SOL    HW121518   0.534   4.268   2.714
 6873SOL    HW221519   0.392   4.299   2.788
 6874SOL     OW21520   4.484   6.533   2.313
 6874SOL    HW121521   4.393   6.495   2.295
 6874SOL    HW221522   4.482   6.632   2.304
 6875SOL     OW21523   2.660   1.137   0.414
 6875SOL    HW121524   2.662   1.134   0.314
 6875SOL    HW221525   2.575   1.179   0.444
 6876SOL     OW21526   5.423   5.350   3.058
 6876SOL    HW121527   5.503   5.382   3.109
 6876SOL    HW221528   5.405   5.254   3.080
 6877SOL     OW21529   0.841   4.516   1.448
 6877SOL    HW121530   0.930   4.545   1.413
 6877SOL    HW221531   0.806   4.585   1.512
 6878SOL     OW21532   2.315   0.476   4.775
 6878SOL    HW121533   2.364   0.518   4.699
 6878SOL    HW221534   2.232   0.528   4.795
 6879SOL     OW21535   1.383   1.846   1.472
 6879SOL    HW121536   1.379   1.870   1.375
 6879SOL    HW221537   1.411   1.751   1.483
 6880SOL     OW21538   2.105   6.362   0.641
 6880SOL    HW121539   2.052   6.369   0.725
 6880SOL    HW221540   2.058   6.301   0.577
 6881SOL     OW21541   6.956   3.566   0.452
 6881SOL    HW121542   6.907   3.488   0.490
 6881SOL    HW221543   0.003   3.534   0.383
 6882SOL     OW21544   3.010   6.750   0.131
 6882SOL    HW121545   3.031   6.702   0.045
 6882SOL    HW221546   2.997   6.683   0.204
 6883SOL     OW21547   5.123   0.537   1.276
 6883SOL    HW121548   5.044   0.568   1.329
 6883SOL    HW221549   5.091   0.500   1.188
 6884SOL     OW21550   1.932   5.017   3.789
 6884SOL    HW121551   1.912   4.940   3.728
 6884SOL    HW221552   1.989   5.083   3.742
 6885SOL     OW21553   5.551   5.042   4.648
 6885SOL    HW121554   5.619   4.984   4.603
 6885SOL    HW221555   5.460   5.003   4.636
 6886SOL     OW21556   5.339   3.216   0.164
 6886SOL    HW121557   5.305   3.186   0.253
 6886SOL    HW221558   5.294   3.301   0.138
 6887SOL     OW21559   5.488   6.254   5.547
 6887SOL    HW121560   5.537   6.260   5.634
 6887SOL    HW221561   5.398   6.214   5.562
 6888SOL     OW21562   6.562   3.942   6.877
 6888SOL    HW121563   6.545   4.040   6.871
 6888SOL    HW221564   6.515   3.905   6.957
 6889SOL     OW21565   6.864   2.072   5.392
 6889SOL    HW121566   6.790   2.088   5.327
 6889SOL    HW221567   6.828   2.028   5.474
 6890SOL     OW21568   4.875   4.561   4.266
 6890SOL    HW121569   4.791   4.508   4.253
 6890SOL    HW221570   4.861   4.655   4.234
 6891SOL     OW21571   1.888   1.676   0.984
 6891SOL    HW121572   1.893   1.640   1.077
 6891SOL    HW221573   1.958   1.632   0.927
 6892SOL     OW21574   2.452   0.605   5.125
 6892SOL    HW121575   2.478   0.694   5.088
 6892SOL    HW221576   2.353   0.593   5.115
 6893SOL     OW21577   6.171   2.610   0.320
 6893SOL    HW121578   6.252   2.583   0.372
 6893SOL    HW221579   6.169   2.709   0.312
 6894SOL     OW21580   5.436   4.866   0.057
 6894SOL    HW121581   5.465   4.811   0.135
 6894SOL    HW221582   5.338   4.855   0.043
 6895SOL     OW21583   0.899   5.574   2.285
 6895SOL    HW121584   0.841   5.655   2.278
 6895SOL    HW221585   0.911   5.551   2.382
 6896SOL     OW21586   5.293   1.009   5.994
 6896SOL    HW121587   5.257   0.967   6.077
 6896SOL    HW221588   5.393   1.012   5.999
 6897SOL     OW21589   4.289   2.751   5.328
 6897SOL    HW121590   4.230   2.675   5.301
 6897SOL    HW221591   4.233   2.834   5.338
 6898SOL     OW21592   1.656   6.782   1.244
 6898SOL    HW121593   1.613   6.793   1.154
 6898SOL    HW221594   1.694   6.870   1.273
 6899SOL     OW21595   5.110   5.609   2.201
 6899SOL    HW121596   5.066   5.554   2.130
 6899SOL    HW221597   5.047   5.680   2.232
 6900SOL     OW21598   6.582   3.960   4.398
 6900SOL    HW121599   6.490   3.991   4.372
 6900SOL    HW221600   6.640   3.957   4.317
 6901SOL     OW21601   5.084   5.094   5.761
 6901SOL    HW121602   5.147   5.171   5.749
 6901SOL    HW221603   5.013   5.098   5.690
 6902SOL     OW21604   0.150   5.669   5.772
 6902SOL    HW121605   0.086   5.622   5.832
 6902SOL    HW221606   0.100   5.736   5.717
 6903SOL     OW21607   1.936   6.084   5.275
 6903SOL    HW121608   2.034   6.069   5.259
 6903SOL    HW221609   1.884   6.040   5.202
 6904SOL     OW21610   0.497   0.357   5.515
 6904SOL    HW121611   0.519   0.428   5.582
 6904SOL    HW221612   0.563   0.282   5.523
 6905SOL     OW21613   4.634   6.045   5.547
 6905SOL    HW121614   4.706   6.108   5.517
 6905SOL    HW221615   4.549   6.095   5.562
 6906SOL     OW21616   2.820   1.066   3.573
 6906SOL    HW121617   2.778   0.985   3.614
 6906SOL    HW221618   2.830   1.053   3.474
 6907SOL     OW21619   5.772   2.227   0.889
 6907SOL    HW121620   5.709   2.304   0.890
 6907SOL    HW221621   5.860   2.256   0.851
 6908SOL     OW21622   3.858   5.788   0.379
 6908SOL    HW121623   3.958   5.780   0.381
 6908SOL    HW221624   3.832   5.871   0.329
 6909SOL     OW21625   5.921   3.972   1.709
 6909SOL    HW121626   5.886   4.059   1.677
 6909SOL    HW221627   5.933   3.975   1.808
 6910SOL     OW21628   0.873   2.654   2.167
 6910SOL    HW121629   0.816   2.719   2.116
 6910SOL    HW221630   0.852   2.661   2.264
 6911SOL     OW21631   2.611   6.624   5.377
 6911SOL    HW121632   2.554   6.542   5.385
 6911SOL    HW221633   2.702   6.606   5.416
 6912SOL     OW21634   3.199   4.057   7.011
 6912SOL    HW121635   3.245   4.057   6.923
 6912SOL    HW221636   3.247   3.995   0.056
 6913SOL     OW21637   4.032   5.918   5.795
 6913SOL    HW121638   4.015   5.964   5.882
 6913SOL    HW221639   3.965   5.845   5.782
 6914SOL     OW21640   6.544   2.180   2.843
 6914SOL    HW121641   6.562   2.104   2.905
 6914SOL    HW221642   6.513   2.259   2.896
 6915SOL     OW21643   0.063   3.437   3.560
 6915SOL    HW121644   0.007   3.398   3.633
 6915SOL    HW221645   0.121   3.509   3.598
 6916SOL     OW21646   4.495   6.227   5.822
 6916SOL    HW121647   4.592   6.249   5.809
 6916SOL    HW221648   4.448   6.228   5.734
 6917SOL     OW21649   3.850   6.279   1.984
 6917SOL    HW121650   3.899   6.236   2.060
 6917SOL    HW221651   3.845   6.378   1.999
 6918SOL     OW21652   1.577   3.580   0.291
 6918SOL    HW121653   1.532   3.658   0.247
 6918SOL    HW221654   1.674   3.579   0.266
 6919SOL     OW21655   6.448   6.054   3.041
 6919SOL    HW121656   6.480   6.050   2.946
 6919SOL    HW221657   6.352   6.028   3.046
 6920SOL     OW21658   6.991   2.503   5.354
 6920SOL    HW121659   6.928   2.567   5.397
 6920SOL    HW221660   6.947   2.461   5.274
 6921SOL     OW21661   3.465   0.208   4.437
 6921SOL    HW121662   3.498   0.115   4.421
 6921SOL    HW221663   3.368   0.206   4.461
 6922SOL     OW21664   2.867   5.079   6.438
 6922SOL    HW121665   2.806   5.095   6.515
 6922SOL    HW221666   2.936   5.151   6.435
 6923SOL     OW21667   5.096   6.977   2.968
 6923SOL    HW121668   5.166   6.985   2.897
 6923SOL    HW221669   5.039   6.897   2.949
 6924SOL     OW21670   3.499   5.333   1.495
 6924SOL    HW121671   3.405   5.304   1.514
 6924SOL    HW221672   3.521   5.414   1.550
 6925SOL     OW21673   6.135   6.715   4.849
 6925SOL    HW121674   6.154   6.682   4.756
 6925SOL    HW221675   6.164   6.646   4.915
 6926SOL     OW21676   2.995   2.088   0.431
 6926SOL    HW121677   3.001   2.163   0.366
 6926SOL    HW221678   2.899   2.066   0.449
 6927SOL     OW21679   3.557   0.368   6.431
 6927SOL    HW121680   3.628   0.356   6.501
 6927SOL    HW221681   3.467   0.359   6.473
 6928SOL     OW21682   3.415   5.857   0.209
 6928SOL    HW121683   3.486   5.787   0.216
 6928SOL    HW221684   3.422   5.904   0.121
 6929SOL     OW21685   4.638   4.978   2.848
 6929SOL    HW121686   4.728   4.951   2.813
 6929SOL    HW221687   4.641   4.980   2.948
 6930SOL     OW21688   1.033   6.454   1.882
 6930SOL    HW121689   1.103   6.478   1.948
 6930SOL    HW221690   1.033   6.521   1.807
 6931SOL     OW21691   3.120   3.212   1.076
 6931SOL    HW121692   3.214   3.180   1.063
 6931SOL    HW221693   3.073   3.151   1.139
 6932SOL     OW21694   4.451   0.429   6.530
 6932SOL    HW121695   4.456   0.345   6.583
 6932SOL    HW221696   4.494   0.503   6.582
 6933SOL     OW21697   2.908   6.315   5.816
 6933SOL    HW121698   2.824   6.320   5.871
 6933SOL    HW221699   2.889   6.345   5.723
 6934SOL     OW21700   5.184   5.176   0.151
 6934SOL    HW121701   5.265   5.183   0.092
 6934SOL    HW221702   5.184   5.086   0.196
 6935SOL     OW21703   4.082   6.006   1.878
 6935SOL    HW121704   4.087   6.092   1.828
 6935SOL    HW221705   4.053   5.932   1.817
 6936SOL     OW21706   0.938   1.843   6.857
 6936SOL    HW121707   0.921   1.848   6.955
 6936SOL    HW221708   0.859   1.880   6.808
 6937SOL     OW21709   5.784   5.046   0.277
 6937SOL    HW121710   5.760   5.017   0.184
 6937SOL    HW221711   5.851   5.121   0.272
 6938SOL     OW21712   3.630   0.467   4.730
 6938SOL    HW121713   3.588   0.464   4.639
 6938SOL    HW221714   3.719   0.514   4.724
 6939SOL     OW21715   5.450   2.859   3.439
 6939SOL    HW121716   5.441   2.822   3.346
 6939SOL    HW221717   5.530   2.818   3.483
 6940SOL     OW21718   2.592   6.452   1.339
 6940SOL    HW121719   2.653   6.377   1.363
 6940SOL    HW221720   2.610   6.482   1.246
 6941SOL     OW21721   3.619   2.994   2.672
 6941SOL    HW121722   3.555   2.945   2.732
 6941SOL    HW221723   3.607   2.962   2.578
 6942SOL     OW21724   6.765   4.784   3.120
 6942SOL    HW121725   6.722   4.708   3.169
 6942SOL    HW221726   6.771   4.763   3.023
 6943SOL     OW21727   3.742   4.831   5.841
 6943SOL    HW121728   3.769   4.885   5.760
 6943SOL    HW221729   3.729   4.736   5.814
 6944SOL     OW21730   0.377   4.885   4.957
 6944SOL    HW121731   0.314   4.912   4.884
 6944SOL    HW221732   0.449   4.954   4.966
 6945SOL     OW21733   4.629   1.643   0.454
 6945SOL    HW121734   4.545   1.634   0.507
 6945SOL    HW221735   4.706   1.661   0.516
 6946SOL     OW21736   5.585   5.988   2.358
 6946SOL    HW121737   5.492   5.951   2.356
 6946SOL    HW221738   5.592   6.062   2.290
 6947SOL     OW21739   6.108   3.991   5.391
 6947SOL    HW121740   6.139   3.896   5.401
 6947SOL    HW221741   6.158   4.050   5.455
 6948SOL     OW21742   6.916   4.195   6.850
 6948SOL    HW121743   7.007   4.220   6.817
 6948SOL    HW221744   6.893   4.104   6.816
 6949SOL     OW21745   3.179   1.236   3.015
 6949SOL    HW121746   3.250   1.304   3.032
 6949SOL    HW221747   3.159   1.232   2.917
 6950SOL     OW21748   1.973   1.002   3.983
 6950SOL    HW121749   1.875   1.001   3.965
 6950SOL    HW221750   2.014   1.083   3.940
 6951SOL     OW21751   1.158   3.672   6.806
 6951SOL    HW121752   1.117   3.620   6.732
 6951SOL    HW221753   1.127   3.767   6.802
 6952SOL     OW21754   4.068   5.818   3.401
 6952SOL    HW121755   4.097   5.797   3.308
 6952SOL    HW221756   4.077   5.917   3.417
 6953SOL     OW21757   0.148   0.863   2.044
 6953SOL    HW121758   0.063   0.853   1.991
 6953SOL    HW221759   0.126   0.864   2.141
 6954SOL     OW21760   6.676   4.470   6.013
 6954SOL    HW121761   6.756   4.419   5.981
 6954SOL    HW221762   6.695   4.507   6.104
 6955SOL     OW21763   4.232   5.965   2.554
 6955SOL    HW121764   4.182   5.951   2.639
 6955SOL    HW221765   4.190   5.913   2.480
 6956SOL     OW21766   5.431   5.044   1.540
 6956SOL    HW121767   5.384   5.041   1.452
 6956SOL    HW221768   5.515   4.990   1.535
 6957SOL     OW21769   5.971   4.527   5.042
 6957SOL    HW121770   5.889   4.478   5.012
 6957SOL    HW221771   5.974   4.527   5.142
 6958SOL     OW21772   3.160   3.544   2.344
 6958SOL    HW121773   3.121   3.459   2.380
 6958SOL    HW221774   3.252   3.556   2.382
 6959SOL     OW21775   1.441   4.586   2.705
 6959SOL    HW121776   1.430   4.685   2.713
 6959SOL    HW221777   1.461   4.548   2.795
 6960SOL     OW21778   5.102   4.709   1.667
 6960SOL    HW121779   5.138   4.621   1.636
 6960SOL    HW221780   5.061   4.757   1.589
 6961SOL     OW21781   5.263   2.392   4.977
 6961SOL    HW121782   5.291   2.444   5.057
 6961SOL    HW221783   5.232   2.454   4.905
 6962SOL     OW21784   2.533   6.217   0.448
 6962SOL    HW121785   2.491   6.245   0.362
 6962SOL    HW221786   2.569   6.124   0.439
 6963SOL     OW21787   0.928   6.370   6.344
 6963SOL    HW121788   0.997   6.393   6.413
 6963SOL    HW221789   0.841   6.352   6.389
 6964SOL     OW21790   2.054   1.770   4.791
 6964SOL    HW121791   2.121   1.837   4.758
 6964SOL    HW221792   2.070   1.753   4.888
 6965SOL     OW21793   1.862   1.244   0.089
 6965SOL    HW121794   1.800   1.212   0.017
 6965SOL    HW221795   1.865   1.344   0.088
 6966SOL     OW21796   1.515   6.707   0.995
 6966SOL    HW121797   1.423   6.692   0.959
 6966SOL    HW221798   1.566   6.621   0.992
 6967SOL     OW21799   3.932   0.574   6.747
 6967SOL    HW121800   3.862   0.587   6.676
 6967SOL    HW221801   3.898   0.610   6.834
 6968SOL     OW21802   3.139   0.524   2.658
 6968SOL    HW121803   3.146   0.548   2.561
 6968SOL    HW221804   3.170   0.430   2.671
 6969SOL     OW21805   1.771   3.075   2.682
 6969SOL    HW121806   1.801   2.988   2.720
 6969SOL    HW221807   1.846   3.141   2.684
 6970SOL     OW21808   3.098   6.163   5.474
 6970SOL    HW121809   3.089   6.162   5.574
 6970SOL    HW221810   3.195   6.168   5.450
 6971SOL     OW21811   6.032   3.768   6.521
 6971SOL    HW121812   6.049   3.685   6.467
 6971SOL    HW221813   6.063   3.754   6.614
 6972SOL     OW21814   5.498   3.779   1.585
 6972SOL    HW121815   5.589   3.745   1.610
 6972SOL    HW221816   5.505   3.872   1.550
 6973SOL     OW21817   1.106   1.393   2.908
 6973SOL    HW121818   1.178   1.335   2.946
 6973SOL    HW221819   1.023   1.382   2.962
 6974SOL     OW21820   4.111   3.239   3.048
 6974SOL    HW121821   4.030   3.233   2.990
 6974SOL    HW221822   4.175   3.166   3.024
 6975SOL     OW21823   2.763   5.386   4.691
 6975SOL    HW121824   2.792   5.455   4.626
 6975SOL    HW221825   2.678   5.343   4.660
 6976SOL     OW21826   4.389   5.123   6.137
 6976SOL    HW121827   4.381   5.154   6.231
 6976SOL    HW221828   4.482   5.088   6.122
 6977SOL     OW21829   4.882   4.713   2.789
 6977SOL    HW121830   4.798   4.729   2.736
 6977SOL    HW221831   4.931   4.799   2.801
 6978SOL     OW21832   0.886   3.974   0.709
 6978SOL    HW121833   0.927   4.036   0.776
 6978SOL    HW221834   0.870   3.885   0.751
 6979SOL     OW21835   1.339   3.774   2.836
 6979SOL    HW121836   1.357   3.684   2.796
 6979SOL    HW221837   1.240   3.788   2.842
 6980SOL     OW21838   2.209   4.615   2.771
 6980SOL    HW121839   2.186   4.617   2.868
 6980SOL    HW221840   2.142   4.558   2.722
 6981SOL     OW21841   4.533   2.540   6.774
 6981SOL    HW121842   4.562   2.566   6.682
 6981SOL    HW221843   4.592   2.585   6.841
 6982SOL     OW21844   6.534   0.275   1.939
 6982SOL    HW121845   6.575   0.246   1.852
 6982SOL    HW221846   6.569   0.365   1.964
 6983SOL     OW21847   6.657   0.019   4.373
 6983SOL    HW121848   6.610   7.010   4.289
 6983SOL    HW221849   6.684   0.115   4.368
 6984SOL     OW21850   1.978   4.701   3.587
 6984SOL    HW121851   2.050   4.641   3.622
 6984SOL    HW221852   1.938   4.660   3.504
 6985SOL     OW21853   5.350   2.874   0.838
 6985SOL    HW121854   5.314   2.935   0.766
 6985SOL    HW221855   5.433   2.915   0.876
 6986SOL     OW21856   3.572   5.160   5.636
 6986SOL    HW121857   3.514   5.101   5.579
 6986SOL    HW221858   3.638   5.207   5.579
 6987SOL     OW21859   0.034   0.830   6.705
 6987SOL    HW121860   0.040   0.791   6.797
 6987SOL    HW221861   6.966   0.878   6.695
 6988SOL     OW21862   2.375   0.977   5.895
 6988SOL    HW121863   2.445   0.933   5.838
 6988SOL    HW221864   2.304   1.015   5.836
 6989SOL     OW21865   0.506   4.026   2.335
 6989SOL    HW121866   0.558   4.104   2.301
 6989SOL    HW221867   0.568   3.950   2.353
 6990SOL     OW21868   3.765   4.062   6.983
 6990SOL    HW121869   3.782   4.149   6.935
 6990SOL    HW221870   3.683   4.019   6.947
 6991SOL     OW21871   5.805   4.170   3.251
 6991SOL    HW121872   5.888   4.154   3.304
 6991SOL    HW221873   5.777   4.266   3.261
 6992SOL     OW21874   1.926   5.224   6.434
 6992SOL    HW121875   1.967   5.241   6.345
 6992SOL    HW221876   1.853   5.156   6.425
 6993SOL     OW21877   4.150   2.408   1.579
 6993SOL    HW121878   4.160   2.311   1.557
 6993SOL    HW221879   4.061   2.441   1.547
 6994SOL     OW21880   2.886   0.871   2.986
 6994SOL    HW121881   2.928   0.830   2.905
 6994SOL    HW221882   2.847   0.960   2.962
 6995SOL     OW21883   0.377   4.191   0.262
 6995SOL    HW121884   0.357   4.231   0.352
 6995SOL    HW221885   0.467   4.222   0.231
 6996SOL     OW21886   0.905   1.527   6.355
 6996SOL    HW121887   0.864   1.619   6.349
 6996SOL    HW221888   0.985   1.523   6.296
 6997SOL     OW21889   6.383   6.244   6.006
 6997SOL    HW121890   6.316   6.217   5.937
 6997SOL    HW221891   6.347   6.321   6.059
 6998SOL     OW21892   0.512   0.191   0.538
 6998SOL    HW121893   0.513   0.285   0.502
 6998SOL    HW221894   0.547   0.190   0.631
 6999SOL     OW21895   6.792   2.672   6.996
 6999SOL    HW121896   6.805   2.648   0.074
 6999SOL    HW221897   6.731   2.604   6.953
 7000SOL     OW21898   0.531   5.423   3.846
 7000SOL    HW121899   0.502   5.446   3.938
 7000SOL    HW221900   0.482   5.342   3.814
 7001SOL     OW21901   0.651   1.316   3.629
 7001SOL    HW121902   0.623   1.412   3.640
 7001SOL    HW221903   0.570   1.259   3.615
 7002SOL     OW21904   1.174   4.717   2.508
 7002SOL    HW121905   1.226   4.723   2.593
 7002SOL    HW221906   1.079   4.743   2.525
 7003SOL     OW21907   0.585   5.263   6.553
 7003SOL    HW121908   0.672   5.288   6.596
 7003SOL    HW221909   0.581   5.304   6.462
 7004SOL     OW21910   1.962   0.372   6.577
 7004SOL    HW121911   2.022   0.295   6.596
 7004SOL    HW221912   1.872   0.338   6.549
 7005SOL     OW21913   1.993   5.539   0.623
 7005SOL    HW121914   1.962   5.617   0.678
 7005SOL    HW221915   2.023   5.465   0.684
 7006SOL     OW21916   0.788   0.574   3.592
 7006SOL    HW121917   0.818   0.480   3.577
 7006SOL    HW221918   0.866   0.631   3.619
 7007SOL     OW21919   1.974   0.267   6.202
 7007SOL    HW121920   2.031   0.323   6.263
 7007SOL    HW221921   1.878   0.290   6.216
 7008SOL     OW21922   5.217   3.113   2.926
 7008SOL    HW121923   5.206   3.127   2.828
 7008SOL    HW221924   5.297   3.056   2.944
 7009SOL     OW21925   5.360   6.011   2.003
 7009SOL    HW121926   5.280   6.026   2.062
 7009SOL    HW221927   5.442   6.048   2.049
 7010SOL     OW21928   5.298   3.420   2.893
 7010SOL    HW121929   5.276   3.458   2.803
 7010SOL    HW221930   5.226   3.357   2.921
 7011SOL     OW21931   2.348   6.879   6.106
 7011SOL    HW121932   2.439   6.911   6.079
 7011SOL    HW221933   2.327   6.912   6.198
 7012SOL     OW21934   0.298   3.747   0.411
 7012SOL    HW121935   0.215   3.796   0.437
 7012SOL    HW221936   0.289   3.714   0.317
 7013SOL     OW21937   3.426   2.771   0.129
 7013SOL    HW121938   3.487   2.742   0.055
 7013SOL    HW221939   3.351   2.707   0.138
 7014SOL     OW21940   6.321   3.315   0.518
 7014SOL    HW121941   6.324   3.380   0.594
 7014SOL    HW221942   6.276   3.357   0.439
 7015SOL     OW21943   6.220   6.552   0.685
 7015SOL    HW121944   6.314   6.585   0.686
 7015SOL    HW221945   6.217   6.458   0.651
 7016SOL     OW21946   3.347   5.084   1.153
 7016SOL    HW121947   3.309   5.068   1.062
 7016SOL    HW221948   3.431   5.031   1.165
 7017SOL     OW21949   5.892   4.419   6.441
 7017SOL    HW121950   5.898   4.504   6.492
 7017SOL    HW221951   5.855   4.437   6.350
 7018SOL     OW21952   5.641   3.563   4.903
 7018SOL    HW121953   5.600   3.479   4.937
 7018SOL    HW221954   5.571   3.634   4.897
 7019SOL     OW21955   4.097   5.630   2.090
 7019SOL    HW121956   4.089   5.555   2.156
 7019SOL    HW221957   4.009   5.675   2.079
 7020SOL     OW21958   0.490   1.792   0.335
 7020SOL    HW121959   0.532   1.881   0.355
 7020SOL    HW221960   0.391   1.801   0.331
 7021SOL     OW21961   1.127   1.713   4.750
 7021SOL    HW121962   1.090   1.726   4.658
 7021SOL    HW221963   1.119   1.616   4.775
 7022SOL     OW21964   2.050   3.698   0.977
 7022SOL    HW121965   1.952   3.681   0.968
 7022SOL    HW221966   2.086   3.642   1.052
 7023SOL     OW21967   0.182   1.595   0.825
 7023SOL    HW121968   0.271   1.552   0.839
 7023SOL    HW221969   0.140   1.614   0.914
 7024SOL     OW21970   3.617   3.765   5.511
 7024SOL    HW121971   3.625   3.715   5.425
 7024SOL    HW221972   3.568   3.708   5.577
 7025SOL     OW21973   3.241   0.978   1.069
 7025SOL    HW121974   3.274   0.902   1.126
 7025SOL    HW221975   3.194   1.045   1.127
 7026SOL     OW21976   3.010   2.152   1.182
 7026SOL    HW121977   3.090   2.177   1.127
 7026SOL    HW221978   3.029   2.168   1.279
 7027SOL     OW21979   3.054   4.758   1.439
 7027SOL    HW121980   3.082   4.831   1.502
 7027SOL    HW221981   3.062   4.670   1.485
 7028SOL     OW21982   3.387   0.345   3.509
 7028SOL    HW121983   3.377   0.380   3.416
 7028SOL    HW221984   3.363   0.417   3.574
 7029SOL     OW21985   3.348   4.100   3.413
 7029SOL    HW121986   3.327   4.197   3.399
 7029SOL    HW221987   3.314   4.047   3.336
 7030SOL     OW21988   6.274   0.063   5.335
 7030SOL    HW121989   6.273   0.055   5.235
 7030SOL    HW221990   6.348   0.006   5.372
 7031SOL     OW21991   4.980   5.527   0.802
 7031SOL    HW121992   4.890   5.551   0.767
 7031SOL    HW221993   5.004   5.588   0.877
 7032SOL     OW21994   4.116   5.146   4.597
 7032SOL    HW121995   4.146   5.050   4.602
 7032SOL    HW221996   4.049   5.156   4.524
 7033SOL     OW21997   2.111   1.775   5.435
 7033SOL    HW121998   2.029   1.827   5.458
 7033SOL    HW221999   2.159   1.819   5.359
 7034SOL     OW22000   6.837   1.989   2.169
 7034SOL    HW122001   6.822   1.917   2.101
 7034SOL    HW222002   6.935   2.002   2.184
 7035SOL     OW22003   2.510   1.926   1.516
 7035SOL    HW122004   2.484   1.983   1.594
 7035SOL    HW222005   2.479   1.832   1.532
 7036SOL     OW22006   6.145   1.780   1.815
 7036SOL    HW122007   6.190   1.860   1.856
 7036SOL    HW222008   6.062   1.808   1.769
 7037SOL     OW22009   1.618   0.556   6.651
 7037SOL    HW122010   1.603   0.513   6.562
 7037SOL    HW222011   1.704   0.607   6.649
 7038SOL     OW22012   0.487   4.501   0.483
 7038SOL    HW122013   0.529   4.487   0.573
 7038SOL    HW222014   0.451   4.594   0.477
 7039SOL     OW22015   6.392   0.209   1.504
 7039SOL    HW122016   6.299   0.206   1.542
 7039SOL    HW222017   6.418   0.118   1.473
 7040SOL     OW22018   5.253   3.029   5.585
 7040SOL    HW122019   5.219   3.120   5.559
 7040SOL    HW222020   5.352   3.026   5.574
 7041SOL     OW22021   0.896   0.368   3.905
 7041SOL    HW122022   0.921   0.293   3.843
 7041SOL    HW222023   0.975   0.394   3.959
 7042SOL     OW22024   5.858   6.103   4.767
 7042SOL    HW122025   5.879   6.006   4.776
 7042SOL    HW222026   5.889   6.152   4.849
 7043SOL     OW22027   1.895   5.973   0.795
 7043SOL    HW122028   1.818   6.029   0.764
 7043SOL    HW222029   1.940   6.020   0.871
 7044SOL     OW22030   4.583   6.336   5.296
 7044SOL    HW122031   4.489   6.305   5.281
 7044SOL    HW222032   4.582   6.426   5.339
 7045SOL     OW22033   6.089   6.778   1.779
 7045SOL    HW122034   6.074   6.767   1.878
 7045SOL    HW222035   6.098   6.688   1.737
 7046SOL     OW22036   2.714   1.137   2.936
 7046SOL    HW122037   2.706   1.149   2.837
 7046SOL    HW222038   2.686   1.220   2.983
 7047SOL     OW22039   1.331   6.900   1.155
 7047SOL    HW122040   1.368   6.814   1.191
 7047SOL    HW222041   1.406   6.958   1.124
 7048SOL     OW22042   0.333   5.787   3.615
 7048SOL    HW122043   0.251   5.795   3.670
 7048SOL    HW222044   0.366   5.692   3.618
 7049SOL     OW22045   3.537   1.224   4.712
 7049SOL    HW122046   3.487   1.145   4.746
 7049SOL    HW222047   3.475   1.303   4.706
 7050SOL     OW22048   4.115   4.218   1.182
 7050SOL    HW122049   4.118   4.142   1.116
 7050SOL    HW222050   4.032   4.271   1.166
 7051SOL     OW22051   1.801   1.490   2.403
 7051SOL    HW122052   1.736   1.564   2.418
 7051SOL    HW222053   1.766   1.429   2.331
 7052SOL     OW22054   5.245   2.670   3.062
 7052SOL    HW122055   5.230   2.575   3.089
 7052SOL    HW222056   5.304   2.672   2.981
 7053SOL     OW22057   1.060   4.836   3.748
 7053SOL    HW122058   1.134   4.868   3.808
 7053SOL    HW222059   1.071   4.738   3.731
 7054SOL     OW22060   5.310   6.921   0.321
 7054SOL    HW122061   5.401   6.946   0.288
 7054SOL    HW222062   5.255   7.003   0.335
 7055SOL     OW22063   2.277   0.141   0.645
 7055SOL    HW122064   2.358   0.184   0.683
 7055SOL    HW222065   2.196   0.195   0.669
 7056SOL     OW22066   6.913   5.298   0.789
 7056SOL    HW122067   6.942   5.321   0.882
 7056SOL    HW222068   6.833   5.238   0.793
 7057SOL     OW22069   3.189   5.581   4.772
 7057SOL    HW122070   3.268   5.566   4.832
 7057SOL    HW222071   3.144   5.494   4.754
 7058SOL     OW22072   6.256   2.231   6.139
 7058SOL    HW122073   6.224   2.317   6.179
 7058SOL    HW222074   6.305   2.250   6.054
 7059SOL     OW22075   1.676   0.876   5.291
 7059SOL    HW122076   1.699   0.883   5.388
 7059SOL    HW222077   1.742   0.816   5.245
 7060SOL     OW22078   2.999   2.270   1.722
 7060SOL    HW122079   3.063   2.344   1.705
 7060SOL    HW222080   2.921   2.304   1.774
 7061SOL     OW22081   2.060   0.694   1.448
 7061SOL    HW122082   1.994   0.675   1.521
 7061SOL    HW222083   2.096   0.608   1.412
 7062SOL     OW22084   4.000   0.925   4.718
 7062SOL    HW122085   3.916   0.893   4.675
 7062SOL    HW222086   4.002   1.025   4.720
 7063SOL     OW22087   0.297   1.182   1.757
 7063SOL    HW122088   0.210   1.149   1.794
 7063SOL    HW222089   0.337   1.248   1.820
 7064SOL     OW22090   3.125   1.417   5.173
 7064SOL    HW122091   3.175   1.375   5.249
 7064SOL    HW222092   3.114   1.349   5.100
 7065SOL     OW22093   3.600   6.690   4.447
 7065SOL    HW122094   3.659   6.763   4.482
 7065SOL    HW222095   3.542   6.725   4.374
 7066SOL     OW22096   3.697   0.915   1.439
 7066SOL    HW122097   3.658   0.835   1.485
 7066SOL    HW222098   3.624   0.979   1.416
 7067SOL     OW22099   2.051   4.638   6.662
 7067SOL    HW122100   2.000   4.638   6.576
 7067SOL    HW222101   1.992   4.671   6.736
 7068SOL     OW22102   5.311   4.489   4.111
 7068SOL    HW122103   5.317   4.578   4.156
 7068SOL    HW222104   5.388   4.432   4.138
 7069SOL     OW22105   4.513   0.522   5.209
 7069SOL    HW122106   4.589   0.515   5.274
 7069SOL    HW222107   4.441   0.580   5.249
 7070SOL     OW22108   6.930   1.147   6.010
 7070SOL    HW122109   6.938   1.214   5.936
 7070SOL    HW222110   6.893   1.192   6.091
 7071SOL     OW22111   4.139   5.328   6.459
 7071SOL    HW122112   4.197   5.253   6.490
 7071SOL    HW222113   4.149   5.406   6.521
 7072SOL     OW22114   0.810   3.686   6.115
 7072SOL    HW122115   0.716   3.718   6.102
 7072SOL    HW222116   0.855   3.680   6.026
 7073SOL     OW22117   4.545   0.745   3.554
 7073SOL    HW122118   4.467   0.702   3.599
 7073SOL    HW222119   4.566   0.832   3.600
 7074SOL     OW22120   6.334   3.567   1.967
 7074SOL    HW122121   6.242   3.575   1.929
 7074SOL    HW222122   6.399   3.610   1.905
 7075SOL     OW22123   2.310   5.206   2.013
 7075SOL    HW122124   2.329   5.158   2.099
 7075SOL    HW222125   2.230   5.265   2.025
 7076SOL     OW22126   5.795   2.105   1.168
 7076SOL    HW122127   5.882   2.056   1.169
 7076SOL    HW222128   5.786   2.156   1.082
 7077SOL     OW22129   3.751   6.231   1.482
 7077SOL    HW122130   3.802   6.317   1.490
 7077SOL    HW222131   3.729   6.197   1.573
 7078SOL     OW22132   0.090   1.788   6.362
 7078SOL    HW122133   0.158   1.779   6.435
 7078SOL    HW222134   0.014   1.845   6.394
 7079SOL     OW22135   2.210   5.506   5.132
 7079SOL    HW122136   2.142   5.521   5.203
 7079SOL    HW222137   2.213   5.409   5.108
 7080SOL     OW22138   4.095   1.544   6.252
 7080SOL    HW122139   3.999   1.568   6.266
 7080SOL    HW222140   4.146   1.623   6.219
 7081SOL     OW22141   2.187   6.150   0.259
 7081SOL    HW122142   2.100   6.181   0.297
 7081SOL    HW222143   2.189   6.050   0.260
 7082SOL     OW22144   0.925   4.635   2.266
 7082SOL    HW122145   0.947   4.704   2.335
 7082SOL    HW222146   0.920   4.679   2.176
 7083SOL     OW22147   5.458   3.081   2.610
 7083SOL    HW122148   5.416   3.171   2.613
 7083SOL    HW222149   5.402   3.020   2.553
 7084SOL     OW22150   1.131   5.068   0.515
 7084SOL    HW122151   1.053   5.023   0.473
 7084SOL    HW222152   1.127   5.166   0.496
 7085SOL     OW22153   0.342   4.002   2.571
 7085SOL    HW122154   0.364   4.082   2.625
 7085SOL    HW222155   0.400   3.999   2.489
 7086SOL     OW22156   4.474   0.770   3.283
 7086SOL    HW122157   4.403   0.707   3.251
 7086SOL    HW222158   4.516   0.734   3.366
 7087SOL     OW22159   5.189   3.070   3.759
 7087SOL    HW122160   5.267   3.068   3.696
 7087SOL    HW222161   5.170   2.977   3.790
 7088SOL     OW22162   5.980   2.863   4.932
 7088SOL    HW122163   5.885   2.839   4.956
 7088SOL    HW222164   6.041   2.789   4.960
 7089SOL     OW22165   3.390   5.762   1.084
 7089SOL    HW122166   3.355   5.698   1.016
 7089SOL    HW222167   3.313   5.813   1.124
 7090SOL     OW22168   4.631   3.264   1.031
 7090SOL    HW122169   4.726   3.289   1.009
 7090SOL    HW222170   4.608   3.299   1.122
 7091SOL     OW22171   6.419   0.313   6.535
 7091SOL    HW122172   6.408   0.403   6.493
 7091SOL    HW222173   6.464   0.323   6.624
 7092SOL     OW22174   4.113   0.226   6.267
 7092SOL    HW122175   4.140   0.279   6.186
 7092SOL    HW222176   4.070   0.141   6.238
 7093SOL     OW22177   4.038   3.117   0.649
 7093SOL    HW122178   4.132   3.085   0.638
 7093SOL    HW222179   4.028   3.161   0.739
 7094SOL     OW22180   4.496   1.014   4.811
 7094SOL    HW122181   4.452   1.069   4.740
 7094SOL    HW222182   4.427   0.968   4.866
 7095SOL     OW22183   2.517   4.478   3.991
 7095SOL    HW122184   2.472   4.409   4.048
 7095SOL    HW222185   2.577   4.534   4.048
 7096SOL     OW22186   6.683   5.767   0.304
 7096SOL    HW122187   6.755   5.836   0.294
 7096SOL    HW222188   6.598   5.812   0.333
 7097SOL     OW22189   4.332   1.913   2.875
 7097SOL    HW122190   4.382   1.907   2.789
 7097SOL    HW222191   4.277   1.997   2.875
 7098SOL     OW22192   0.793   1.459   2.459
 7098SOL    HW122193   0.794   1.426   2.553
 7098SOL    HW222194   0.779   1.381   2.396
 7099SOL     OW22195   3.477   1.981   4.478
 7099SOL    HW122196   3.547   1.911   4.460
 7099SOL    HW222197   3.423   1.954   4.557
 7100SOL     OW22198   0.393   4.254   1.791
 7100SOL    HW122199   0.420   4.196   1.714
 7100SOL    HW222200   0.418   4.210   1.877
 7101SOL     OW22201   2.248   5.277   4.048
 7101SOL    HW122202   2.153   5.246   4.040
 7101SOL    HW222203   2.305   5.226   3.985
 7102SOL     OW22204   5.229   1.565   2.681
 7102SOL    HW122205   5.143   1.536   2.723
 7102SOL    HW222206   5.263   1.493   2.621
 7103SOL     OW22207   5.967   4.046   3.926
 7103SOL    HW122208   5.879   4.026   3.882
 7103SOL    HW222209   5.951   4.069   4.022
 7104SOL     OW22210   5.047   2.564   4.581
 7104SOL    HW122211   4.977   2.602   4.642
 7104SOL    HW222212   5.111   2.637   4.555
 7105SOL     OW22213   3.503   3.985   2.320
 7105SOL    HW122214   3.404   3.979   2.336
 7105SOL    HW222215   3.540   4.061   2.373
 7106SOL     OW22216   2.896   2.219   2.379
 7106SOL    HW122217   2.893   2.267   2.291
 7106SOL    HW222218   2.856   2.128   2.369
 7107SOL     OW22219   4.159   0.879   0.373
 7107SOL    HW122220   4.215   0.824   0.435
 7107SOL    HW222221   4.216   0.947   0.328
 7108SOL     OW22222   3.736   6.992   2.030
 7108SOL    HW122223   3.663   0.038   2.004
 7108SOL    HW222224   3.734   6.914   1.968
 7109SOL     OW22225   3.072   4.853   5.716
 7109SOL    HW122226   3.066   4.754   5.706
 7109SOL    HW222227   3.077   4.895   5.625
 7110SOL     OW22228   2.714   5.799   5.636
 7110SOL    HW122229   2.632   5.741   5.631
 7110SOL    HW222230   2.796   5.741   5.631
 7111SOL     OW22231   6.860   1.053   4.906
 7111SOL    HW122232   6.902   1.026   4.993
 7111SOL    HW222233   6.772   1.097   4.924
 7112SOL     OW22234   6.502   4.881   5.389
 7112SOL    HW122235   6.527   4.786   5.372
 7112SOL    HW222236   6.567   4.922   5.453
 7113SOL     OW22237   3.456   0.073   5.155
 7113SOL    HW122238   3.495   0.156   5.115
 7113SOL    HW222239   3.451   0.083   5.255
 7114SOL     OW22240   5.258   4.047   0.588
 7114SOL    HW122241   5.307   4.019   0.506
 7114SOL    HW222242   5.170   4.087   0.563
 7115SOL     OW22243   4.768   2.803   5.750
 7115SOL    HW122244   4.702   2.818   5.676
 7115SOL    HW222245   4.856   2.843   5.725
 7116SOL     OW22246   6.528   5.348   4.780
 7116SOL    HW122247   6.484   5.280   4.722
 7116SOL    HW222248   6.494   5.440   4.757
 7117SOL     OW22249   4.483   0.338   2.908
 7117SOL    HW122250   4.521   0.267   2.968
 7117SOL    HW222251   4.510   0.428   2.943
 7118SOL     OW22252   4.584   4.237   5.939
 7118SOL    HW122253   4.659   4.211   6.000
 7118SOL    HW222254   4.545   4.323   5.969
 7119SOL     OW22255   2.858   6.442   4.557
 7119SOL    HW122256   2.864   6.365   4.494
 7119SOL    HW222257   2.763   6.470   4.566
 7120SOL     OW22258   4.494   1.411   1.791
 7120SOL    HW122259   4.482   1.445   1.885
 7120SOL    HW222260   4.591   1.411   1.768
 7121SOL     OW22261   0.977   6.233   2.186
 7121SOL    HW122262   0.907   6.233   2.257
 7121SOL    HW222263   0.947   6.292   2.110
 7122SOL     OW22264   3.082   1.993   6.365
 7122SOL    HW122265   3.100   2.086   6.332
 7122SOL    HW222266   2.992   1.963   6.333
 7123SOL     OW22267   5.020   4.515   6.745
 7123SOL    HW122268   4.977   4.451   6.808
 7123SOL    HW222269   5.113   4.484   6.724
 7124SOL     OW22270   2.890   2.785   6.965
 7124SOL    HW122271   2.794   2.760   6.972
 7124SOL    HW222272   2.931   2.787   0.038
 7125SOL     OW22273   0.881   6.672   1.693
 7125SOL    HW122274   0.844   6.729   1.766
 7125SOL    HW222275   0.807   6.624   1.647
 7126SOL     OW22276   4.313   5.200   1.009
 7126SOL    HW122277   4.222   5.200   1.050
 7126SOL    HW222278   4.312   5.142   0.927
 7127SOL     OW22279   3.288   6.757   5.416
 7127SOL    HW122280   3.319   6.787   5.326
 7127SOL    HW222281   3.203   6.805   5.440
 7128SOL     OW22282   3.190   4.341   0.276
 7128SOL    HW122283   3.113   4.299   0.229
 7128SOL    HW222284   3.251   4.270   0.310
 7129SOL     OW22285   6.992   0.882   0.212
 7129SOL    HW122286   6.980   0.940   0.292
 7129SOL    HW222287   6.998   0.939   0.130
 7130SOL     OW22288   3.618   0.271   4.076
 7130SOL    HW122289   3.563   0.242   3.998
 7130SOL    HW222290   3.673   0.351   4.050
 7131SOL     OW22291   2.338   1.387   2.734
 7131SOL    HW122292   2.283   1.410   2.815
 7131SOL    HW222293   2.278   1.366   2.657
 7132SOL     OW22294   5.430   4.267   1.701
 7132SOL    HW122295   5.377   4.297   1.781
 7132SOL    HW222296   5.494   4.339   1.675
 7133SOL     OW22297   3.884   6.094   2.555
 7133SOL    HW122298   3.967   6.085   2.609
 7133SOL    HW222299   3.804   6.077   2.613
 7134SOL     OW22300   4.871   4.866   0.012
 7134SOL    HW122301   4.812   4.833   6.957
 7134SOL    HW222302   4.932   4.793   0.042
 7135SOL     OW22303   2.067   4.450   1.600
 7135SOL    HW122304   2.152   4.438   1.548
 7135SOL    HW222305   2.060   4.379   1.670
 7136SOL     OW22306   1.024   2.907   1.957
 7136SOL    HW122307   0.966   2.877   1.881
 7136SOL    HW222308   0.967   2.946   2.029
 7137SOL     OW22309   2.231   0.285   2.123
 7137SOL    HW122310   2.310   0.345   2.106
 7137SOL    HW222311   2.147   0.332   2.096
 7138SOL     OW22312   6.597   3.263   6.914
 7138SOL    HW122313   6.651   3.237   6.834
 7138SOL    HW222314   6.591   3.363   6.919
 7139SOL     OW22315   5.977   5.613   1.123
 7139SOL    HW122316   5.967   5.526   1.171
 7139SOL    HW222317   5.931   5.685   1.176
 7140SOL     OW22318   0.255   5.236   0.542
 7140SOL    HW122319   0.312   5.189   0.609
 7140SOL    HW222320   0.210   5.314   0.587
 7141SOL     OW22321   3.436   1.197   1.069
 7141SOL    HW122322   3.372   1.160   1.002
 7141SOL    HW222323   3.457   1.292   1.047
 7142SOL     OW22324   4.644   6.833   5.766
 7142SOL    HW122325   4.685   6.750   5.728
 7142SOL    HW222326   4.551   6.813   5.796
 7143SOL     OW22327   3.390   2.916   5.809
 7143SOL    HW122328   3.425   3.006   5.783
 7143SOL    HW222329   3.465   2.850   5.810
 7144SOL     OW22330   6.390   1.139   5.472
 7144SOL    HW122331   6.437   1.222   5.504
 7144SOL    HW222332   6.293   1.160   5.457
 7145SOL     OW22333   6.687   2.742   5.698
 7145SOL    HW122334   6.698   2.667   5.632
 7145SOL    HW222335   6.751   2.816   5.676
 7146SOL     OW22336   0.178   1.708   4.677
 7146SOL    HW122337   0.211   1.653   4.754
 7146SOL    HW222338   0.092   1.753   4.703
 7147SOL     OW22339   6.795   6.618   1.110
 7147SOL    HW122340   6.709   6.575   1.136
 7147SOL    HW222341   6.869   6.552   1.120
 7148SOL     OW22342   5.525   6.464   0.621
 7148SOL    HW122343   5.603   6.516   0.587
 7148SOL    HW222344   5.538   6.367   0.600
 7149SOL     OW22345   5.831   4.393   6.163
 7149SOL    HW122346   5.915   4.370   6.114
 7149SOL    HW222347   5.785   4.468   6.116
 7150SOL     OW22348   2.998   2.026   0.017
 7150SOL    HW122349   2.967   1.937   0.050
 7150SOL    HW222350   3.097   2.024   0.002
 7151SOL     OW22351   5.546   1.885   7.001
 7151SOL    HW122352   5.610   1.957   6.974
 7151SOL    HW222353   5.581   1.837   0.063
 7152SOL     OW22354   4.964   0.256   5.608
 7152SOL    HW122355   4.945   0.194   5.532
 7152SOL    HW222356   4.879   0.279   5.654
 7153SOL     OW22357   4.834   5.833   0.872
 7153SOL    HW122358   4.807   5.926   0.850
 7153SOL    HW222359   4.794   5.770   0.805
 7154SOL     OW22360   5.013   0.660   1.666
 7154SOL    HW122361   4.919   0.661   1.700
 7154SOL    HW222362   5.077   0.666   1.742
 7155SOL     OW22363   2.349   6.921   1.227
 7155SOL    HW122364   2.375   6.949   1.134
 7155SOL    HW222365   2.316   7.001   1.277
 7156SOL     OW22366   6.160   3.385   4.926
 7156SOL    HW122367   6.067   3.420   4.938
 7156SOL    HW222368   6.180   3.375   4.828
 7157SOL     OW22369   6.982   3.527   5.393
 7157SOL    HW122370   0.051   3.560   5.356
 7157SOL    HW222371   6.986   3.428   5.404
 7158SOL     OW22372   5.130   0.306   3.791
 7158SOL    HW122373   5.033   0.315   3.769
 7158SOL    HW222374   5.181   0.381   3.749
 7159SOL     OW22375   0.318   6.517   3.246
 7159SOL    HW122376   0.331   6.616   3.243
 7159SOL    HW222377   0.387   6.475   3.304
 7160SOL     OW22378   5.765   6.602   2.780
 7160SOL    HW122379   5.746   6.691   2.822
 7160SOL    HW222380   5.832   6.613   2.707
 7161SOL     OW22381   3.736   3.655   2.459
 7161SOL    HW122382   3.685   3.573   2.482
 7161SOL    HW222383   3.727   3.722   2.533
 7162SOL     OW22384   0.445   6.335   0.539
 7162SOL    HW122385   0.395   6.254   0.570
 7162SOL    HW222386   0.533   6.307   0.501
 7163SOL     OW22387   6.944   0.200   0.126
 7163SOL    HW122388   6.910   0.258   0.052
 7163SOL    HW222389   0.015   0.233   0.157
 7164SOL     OW22390   1.849   6.983   0.325
 7164SOL    HW122391   1.913   0.034   0.357
 7164SOL    HW222392   1.762   6.992   0.374
 7165SOL     OW22393   4.645   2.203   6.297
 7165SOL    HW122394   4.564   2.183   6.353
 7165SOL    HW222395   4.727   2.193   6.352
 7166SOL     OW22396   6.602   6.055   5.084
 7166SOL    HW122397   6.546   6.047   5.167
 7166SOL    HW222398   6.606   5.966   5.038
 7167SOL     OW22399   0.507   3.385   5.388
 7167SOL    HW122400   0.541   3.380   5.482
 7167SOL    HW222401   0.419   3.338   5.381
 7168SOL     OW22402   1.399   0.616   2.529
 7168SOL    HW122403   1.360   0.591   2.618
 7168SOL    HW222404   1.327   0.613   2.460
 7169SOL     OW22405   2.086   4.450   5.891
 7169SOL    HW122406   2.125   4.490   5.974
 7169SOL    HW222407   2.056   4.524   5.830
 7170SOL     OW22408   3.744   1.953   1.119
 7170SOL    HW122409   3.815   1.976   1.052
 7170SOL    HW222410   3.757   2.009   1.201
 7171SOL     OW22411   0.290   4.781   1.090
 7171SOL    HW122412   0.356   4.726   1.039
 7171SOL    HW222413   0.333   4.818   1.172
 7172SOL     OW22414   0.941   2.712   3.341
 7172SOL    HW122415   0.999   2.714   3.260
 7172SOL    HW222416   0.976   2.776   3.409
 7173SOL     OW22417   3.624   5.405   4.880
 7173SOL    HW122418   3.702   5.467   4.886
 7173SOL    HW222419   3.539   5.456   4.893
 7174SOL     OW22420   6.738   3.704   2.229
 7174SOL    HW122421   6.644   3.695   2.197
 7174SOL    HW222422   6.793   3.629   2.192
 7175SOL     OW22423   6.639   3.258   5.858
 7175SOL    HW122424   6.723   3.266   5.911
 7175SOL    HW222425   6.565   3.229   5.918
 7176SOL     OW22426   0.244   1.237   6.643
 7176SOL    HW122427   0.268   1.149   6.682
 7176SOL    HW222428   0.166   1.275   6.693
 7177SOL     OW22429   1.192   5.872   3.164
 7177SOL    HW122430   1.177   5.839   3.071
 7177SOL    HW222431   1.108   5.858   3.217
 7178SOL     OW22432   1.192   6.402   5.860
 7178SOL    HW122433   1.244   6.329   5.816
 7178SOL    HW222434   1.116   6.361   5.912
 7179SOL     OW22435   4.821   4.695   6.031
 7179SOL    HW122436   4.913   4.669   6.002
 7179SOL    HW222437   4.772   4.737   5.955
 7180SOL     OW22438   0.707   2.573   1.939
 7180SOL    HW122439   0.609   2.553   1.938
 7180SOL    HW222440   0.755   2.501   1.989
 7181SOL     OW22441   3.038   0.530   0.249
 7181SOL    HW122442   3.029   0.576   0.337
 7181SOL    HW222443   3.057   0.598   0.178
 7182SOL     OW22444   1.793   1.080   3.222
 7182SOL    HW122445   1.881   1.127   3.225
 7182SOL    HW222446   1.729   1.127   3.282
 7183SOL     OW22447   1.441   6.880   1.493
 7183SOL    HW122448   1.539   6.869   1.509
 7183SOL    HW222449   1.391   6.857   1.577
 7184SOL     OW22450   0.315   0.929   3.660
 7184SOL    HW122451   0.386   0.946   3.728
 7184SOL    HW222452   0.342   0.851   3.603
 7185SOL     OW22453   4.187   0.783   3.545
 7185SOL    HW122454   4.212   0.687   3.539
 7185SOL    HW222455   4.088   0.791   3.558
 7186SOL     OW22456   0.072   1.268   6.418
 7186SOL    HW122457   0.032   1.359   6.405
 7186SOL    HW222458   0.144   1.273   6.487
 7187SOL     OW22459   3.550   3.353   4.054
 7187SOL    HW122460   3.469   3.401   4.086
 7187SOL    HW222461   3.631   3.411   4.069
 7188SOL     OW22462   5.226   4.535   0.148
 7188SOL    HW122463   5.307   4.502   0.099
 7188SOL    HW222464   5.154   4.466   0.144
 7189SOL     OW22465   0.081   2.349   5.949
 7189SOL    HW122466   0.020   2.273   5.926
 7189SOL    HW222467   0.028   2.432   5.964
 7190SOL     OW22468   6.050   5.877   0.326
 7190SOL    HW122469   5.984   5.834   0.388
 7190SOL    HW222470   6.088   5.958   0.370
 7191SOL     OW22471   6.887   5.257   2.590
 7191SOL    HW122472   6.917   5.222   2.679
 7191SOL    HW222473   6.797   5.300   2.600
 7192SOL     OW22474   3.000   4.007   5.481
 7192SOL    HW122475   2.976   4.022   5.577
 7192SOL    HW222476   2.956   3.923   5.448
 7193SOL     OW22477   3.558   1.386   3.909
 7193SOL    HW122478   3.655   1.410   3.896
 7193SOL    HW222479   3.518   1.363   3.820
 7194SOL     OW22480   3.493   2.264   5.419
 7194SOL    HW122481   3.570   2.324   5.441
 7194SOL    HW222482   3.479   2.199   5.494
 7195SOL     OW22483   0.581   3.974   5.782
 7195SOL    HW122484   0.629   4.039   5.842
 7195SOL    HW222485   0.598   3.881   5.815
 7196SOL     OW22486   3.322   3.546   1.651
 7196SOL    HW122487   3.300   3.551   1.553
 7196SOL    HW222488   3.329   3.638   1.688
 7197SOL     OW22489   3.310   4.714   6.687
 7197SOL    HW122490   3.288   4.800   6.733
 7197SOL    HW222491   3.408   4.696   6.695
 7198SOL     OW22492   1.091   0.372   2.075
 7198SOL    HW122493   1.078   0.277   2.047
 7198SOL    HW222494   1.178   0.381   2.123
 7199SOL     OW22495   5.811   0.974   3.518
 7199SOL    HW122496   5.746   0.898   3.518
 7199SOL    HW222497   5.900   0.943   3.484
 7200SOL     OW22498   0.990   3.273   6.640
 7200SOL    HW122499   0.891   3.278   6.625
 7200SOL    HW222500   1.010   3.291   6.736
 7201SOL     OW22501   5.715   6.256   4.007
 7201SOL    HW122502   5.642   6.284   4.069
 7201SOL    HW222503   5.791   6.219   4.059
 7202SOL     OW22504   4.741   0.658   5.833
 7202SOL    HW122505   4.752   0.758   5.826
 7202SOL    HW222506   4.828   0.618   5.861
 7203SOL     OW22507   0.897   1.826   1.191
 7203SOL    HW122508   0.835   1.837   1.113
 7203SOL    HW222509   0.990   1.813   1.158
 7204SOL     OW22510   6.150   0.728   3.135
 7204SOL    HW122511   6.179   0.660   3.069
 7204SOL    HW222512   6.174   0.698   3.227
 7205SOL     OW22513   2.892   1.244   4.224
 7205SOL    HW122514   2.806   1.224   4.178
 7205SOL    HW222515   2.951   1.297   4.162
 7206SOL     OW22516   2.025   3.113   6.797
 7206SOL    HW122517   2.118   3.143   6.778
 7206SOL    HW222518   2.026   3.030   6.853
 7207SOL     OW22519   1.447   1.371   2.916
 7207SOL    HW122520   1.496   1.446   2.959
 7207SOL    HW222521   1.381   1.333   2.980
 7208SOL     OW22522   3.375   0.186   3.179
 7208SOL    HW122523   3.410   0.250   3.247
 7208SOL    HW222524   3.291   0.223   3.138
 7209SOL     OW22525   3.981   0.715   2.508
 7209SOL    HW122526   3.962   0.808   2.476
 7209SOL    HW222527   4.069   0.685   2.472
 7210SOL     OW22528   3.621   1.357   4.362
 7210SOL    HW122529   3.580   1.437   4.405
 7210SOL    HW222530   3.718   1.351   4.388
 7211SOL     OW22531   3.796   6.399   5.796
 7211SOL    HW122532   3.712   6.433   5.838
 7211SOL    HW222533   3.851   6.477   5.766
 7212SOL     OW22534   0.775   5.830   5.346
 7212SOL    HW122535   0.681   5.796   5.355
 7212SOL    HW222536   0.836   5.755   5.322
 7213SOL     OW22537   4.514   2.710   0.585
 7213SOL    HW122538   4.528   2.809   0.589
 7213SOL    HW222539   4.432   2.690   0.531
 7214SOL     OW22540   6.464   1.215   6.070
 7214SOL    HW122541   6.510   1.244   6.154
 7214SOL    HW222542   6.489   1.120   6.049
 7215SOL     OW22543   6.186   1.617   2.839
 7215SOL    HW122544   6.238   1.702   2.849
 7215SOL    HW222545   6.106   1.632   2.782
 7216SOL     OW22546   5.445   6.862   3.758
 7216SOL    HW122547   5.394   6.948   3.750
 7216SOL    HW222548   5.489   6.857   3.847
 7217SOL     OW22549   1.084   3.378   3.358
 7217SOL    HW122550   1.069   3.378   3.259
 7217SOL    HW222551   1.132   3.461   3.385
 7218SOL     OW22552   6.384   2.445   5.011
 7218SOL    HW122553   6.316   2.385   5.053
 7218SOL    HW222554   6.437   2.490   5.082
 7219SOL     OW22555   2.888   6.187   1.875
 7219SOL    HW122556   2.942   6.151   1.799
 7219SOL    HW222557   2.807   6.130   1.889
 7220SOL     OW22558   6.523   3.987   3.683
 7220SOL    HW122559   6.609   4.026   3.652
 7220SOL    HW222560   6.447   4.035   3.639
 7221SOL     OW22561   4.288   4.919   3.625
 7221SOL    HW122562   4.272   4.833   3.576
 7221SOL    HW222563   4.228   4.990   3.588
 7222SOL     OW22564   6.785   5.977   4.290
 7222SOL    HW122565   6.731   6.053   4.327
 7222SOL    HW222566   6.804   5.993   4.193
 7223SOL     OW22567   6.683   5.675   1.882
 7223SOL    HW122568   6.764   5.678   1.824
 7223SOL    HW222569   6.627   5.596   1.857
 7224SOL     OW22570   4.742   2.436   2.873
 7224SOL    HW122571   4.794   2.429   2.788
 7224SOL    HW222572   4.727   2.532   2.896
 7225SOL     OW22573   0.798   5.631   0.262
 7225SOL    HW122574   0.767   5.556   0.203
 7225SOL    HW222575   0.759   5.620   0.354
 7226SOL     OW22576   5.734   6.415   6.922
 7226SOL    HW122577   5.758   6.450   7.012
 7226SOL    HW222578   5.655   6.465   6.887
 7227SOL     OW22579   1.838   0.823   2.160
 7227SOL    HW122580   1.934   0.843   2.141
 7227SOL    HW222581   1.789   0.909   2.178
 7228SOL     OW22582   5.814   3.216   2.743
 7228SOL    HW122583   5.782   3.210   2.649
 7228SOL    HW222584   5.738   3.198   2.805
 7229SOL     OW22585   6.114   6.869   5.099
 7229SOL    HW122586   6.064   6.833   5.020
 7229SOL    HW222587   6.203   6.823   5.105
 7230SOL     OW22588   2.227   5.230   5.113
 7230SOL    HW122589   2.310   5.183   5.082
 7230SOL    HW222590   2.188   5.179   5.190
 7231SOL     OW22591   3.739   3.599   6.205
 7231SOL    HW122592   3.727   3.500   6.210
 7231SOL    HW222593   3.790   3.630   6.286
 7232SOL     OW22594   4.104   6.075   3.454
 7232SOL    HW122595   4.077   6.091   3.549
 7232SOL    HW222596   4.203   6.089   3.445
 7233SOL     OW22597   0.357   1.421   6.280
 7233SOL    HW122598   0.368   1.435   6.378
 7233SOL    HW222599   0.295   1.345   6.263
 7234SOL     OW22600   5.489   5.089   3.166
 7234SOL    HW122601   5.440   5.007   3.197
 7234SOL    HW222602   5.552   5.119   3.237
 7235SOL     OW22603   6.254   0.916   2.080
 7235SOL    HW122604   6.182   0.855   2.046
 7235SOL    HW222605   6.253   0.918   2.180
 7236SOL     OW22606   1.073   3.804   2.928
 7236SOL    HW122607   0.989   3.812   2.875
 7236SOL    HW222608   1.051   3.780   3.022
 7237SOL     OW22609   5.290   1.577   0.063
 7237SOL    HW122610   5.227   1.633   0.010
 7237SOL    HW222611   5.347   1.523   0.001
 7238SOL     OW22612   4.149   3.539   7.013
 7238SOL    HW122613   4.156   3.549   6.913
 7238SOL    HW222614   4.072   3.478   0.016
 7239SOL     OW22615   5.542   2.496   1.809
 7239SOL    HW122616   5.477   2.548   1.864
 7239SOL    HW222617   5.635   2.527   1.830
 7240SOL     OW22618   0.330   1.323   0.131
 7240SOL    HW122619   0.276   1.251   0.176
 7240SOL    HW222620   0.410   1.344   0.187
 7241SOL     OW22621   1.684   6.743   2.657
 7241SOL    HW122622   1.629   6.826   2.655
 7241SOL    HW222623   1.634   6.667   2.615
 7242SOL     OW22624   6.439   4.490   5.344
 7242SOL    HW122625   6.495   4.492   5.261
 7242SOL    HW222626   6.488   4.535   5.419
 7243SOL     OW22627   5.539   4.548   6.210
 7243SOL    HW122628   5.609   4.566   6.141
 7243SOL    HW222629   5.479   4.475   6.177
 7244SOL     OW22630   6.599   5.879   6.701
 7244SOL    HW122631   6.615   5.808   6.770
 7244SOL    HW222632   6.552   5.840   6.623
 7245SOL     OW22633   1.385   2.664   6.956
 7245SOL    HW122634   1.324   2.589   6.930
 7245SOL    HW222635   1.330   2.740   6.990
 7246SOL     OW22636   4.056   0.051   3.588
 7246SOL    HW122637   4.065   0.066   3.490
 7246SOL    HW222638   4.004   6.985   3.605
 7247SOL     OW22639   3.079   3.865   4.436
 7247SOL    HW122640   3.087   3.935   4.365
 7247SOL    HW222641   3.162   3.809   4.437
 7248SOL     OW22642   2.879   1.771   5.376
 7248SOL    HW122643   2.904   1.858   5.419
 7248SOL    HW222644   2.913   1.695   5.432
 7249SOL     OW22645   3.305   5.788   2.858
 7249SOL    HW122646   3.303   5.873   2.806
 7249SOL    HW222647   3.251   5.798   2.941
 7250SOL     OW22648   5.487   5.407   5.576
 7250SOL    HW122649   5.415   5.433   5.640
 7250SOL    HW222650   5.453   5.417   5.483
 7251SOL     OW22651   0.915   5.504   4.215
 7251SOL    HW122652   0.930   5.590   4.167
 7251SOL    HW222653   0.997   5.447   4.209
 7252SOL     OW22654   4.104   3.733   2.144
 7252SOL    HW122655   4.098   3.721   2.045
 7252SOL    HW222656   4.124   3.645   2.188
 7253SOL     OW22657   2.156   5.186   4.770
 7253SOL    HW122658   2.066   5.223   4.793
 7253SOL    HW222659   2.204   5.162   4.855
 7254SOL     OW22660   6.604   3.754   3.831
 7254SOL    HW122661   6.539   3.740   3.906
 7254SOL    HW222662   6.592   3.845   3.793
 7255SOL     OW22663   4.571   3.892   6.927
 7255SOL    HW122664   4.575   3.946   7.011
 7255SOL    HW222665   4.488   3.836   6.927
 7256SOL     OW22666   3.496   6.949   4.390
 7256SOL    HW122667   3.543   6.913   4.309
 7256SOL    HW222668   3.401   6.919   4.389
 7257SOL     OW22669   0.784   1.226   5.041
 7257SOL    HW122670   0.693   1.188   5.024
 7257SOL    HW222671   0.796   1.309   4.988
 7258SOL     OW22672   6.431   2.425   1.818
 7258SOL    HW122673   6.495   2.354   1.790
 7258SOL    HW222674   6.473   2.515   1.805
 7259SOL     OW22675   1.438   4.006   2.654
 7259SOL    HW122676   1.411   4.101   2.638
 7259SOL    HW222677   1.373   3.964   2.718
 7260SOL     OW22678   6.158   3.298   1.124
 7260SOL    HW122679   6.113   3.295   1.035
 7260SOL    HW222680   6.123   3.224   1.181
 7261SOL     OW22681   6.852   3.931   6.843
 7261SOL    HW122682   6.755   3.928   6.868
 7261SOL    HW222683   6.901   3.860   6.893
 7262SOL     OW22684   4.733   1.130   4.867
 7262SOL    HW122685   4.726   1.230   4.870
 7262SOL    HW222686   4.641   1.090   4.869
 7263SOL     OW22687   6.385   5.311   5.531
 7263SOL    HW122688   6.382   5.327   5.432
 7263SOL    HW222689   6.314   5.244   5.555
 7264SOL     OW22690   5.760   1.409   1.710
 7264SOL    HW122691   5.711   1.347   1.771
 7264SOL    HW222692   5.716   1.499   1.712
 7265SOL     OW22693   4.022   0.789   5.475
 7265SOL    HW122694   4.015   0.852   5.552
 7265SOL    HW222695   4.030   0.695   5.509
 7266SOL     OW22696   0.340   0.679   2.962
 7266SOL    HW122697   0.338   0.777   2.939
 7266SOL    HW222698   0.248   0.650   2.989
 7267SOL     OW22699   6.919   4.291   4.374
 7267SOL    HW122700   7.014   4.275   4.348
 7267SOL    HW222701   6.916   4.363   4.444
 7268SOL     OW22702   5.960   6.485   4.057
 7268SOL    HW122703   5.946   6.442   4.147
 7268SOL    HW222704   5.909   6.433   3.988
 7269SOL     OW22705   2.625   4.820   4.434
 7269SOL    HW122706   2.718   4.790   4.413
 7269SOL    HW222707   2.574   4.744   4.475
 7270SOL     OW22708   0.585   0.075   4.687
 7270SOL    HW122709   0.546   0.059   4.596
 7270SOL    HW222710   0.513   0.071   4.755
 7271SOL     OW22711   0.613   4.937   3.228
 7271SOL    HW122712   0.663   4.851   3.232
 7271SOL    HW222713   0.533   4.927   3.169
 7272SOL     OW22714   6.347   3.857   1.846
 7272SOL    HW122715   6.377   3.863   1.941
 7272SOL    HW222716   6.301   3.942   1.820
 7273SOL     OW22717   0.636   1.605   5.433
 7273SOL    HW122718   0.592   1.694   5.446
 7273SOL    HW222719   0.735   1.615   5.438
 7274SOL     OW22720   0.393   5.365   6.034
 7274SOL    HW122721   0.303   5.331   6.006
 7274SOL    HW222722   0.447   5.389   5.953
 7275SOL     OW22723   0.800   5.963   3.706
 7275SOL    HW122724   0.746   5.917   3.777
 7275SOL    HW222725   0.771   5.931   3.616
 7276SOL     OW22726   4.646   6.215   3.603
 7276SOL    HW122727   4.651   6.122   3.638
 7276SOL    HW222728   4.658   6.279   3.679
 7277SOL     OW22729   4.871   0.833   0.495
 7277SOL    HW122730   4.812   0.909   0.522
 7277SOL    HW222731   4.866   0.820   0.396
 7278SOL     OW22732   3.558   2.860   2.406
 7278SOL    HW122733   3.653   2.882   2.384
 7278SOL    HW222734   3.533   2.773   2.365
 7279SOL     OW22735   3.555   7.000   6.439
 7279SOL    HW122736   3.526   6.994   6.534
 7279SOL    HW222737   3.475   6.993   6.379
 7280SOL     OW22738   4.840   1.543   5.918
 7280SOL    HW122739   4.806   1.636   5.903
 7280SOL    HW222740   4.811   1.512   6.009
 7281SOL     OW22741   5.746   1.306   5.978
 7281SOL    HW122742   5.843   1.309   6.004
 7281SOL    HW222743   5.692   1.272   6.055
 7282SOL     OW22744   5.621   6.153   2.112
 7282SOL    HW122745   5.705   6.131   2.062
 7282SOL    HW222746   5.600   6.250   2.102
 7283SOL     OW22747   2.403   0.991   3.983
 7283SOL    HW122748   2.412   0.980   4.082
 7283SOL    HW222749   2.490   1.024   3.945
 7284SOL     OW22750   1.095   1.652   5.236
 7284SOL    HW122751   1.110   1.630   5.139
 7284SOL    HW222752   1.109   1.750   5.250
 7285SOL     OW22753   6.109   4.886   1.559
 7285SOL    HW122754   6.133   4.876   1.656
 7285SOL    HW222755   6.063   4.973   1.545
 7286SOL     OW22756   2.120   4.467   0.577
 7286SOL    HW122757   2.053   4.417   0.522
 7286SOL    HW222758   2.088   4.472   0.672
 7287SOL     OW22759   5.846   1.515   5.552
 7287SOL    HW122760   5.782   1.552   5.620
 7287SOL    HW222761   5.904   1.446   5.594
 7288SOL     OW22762   2.621   6.841   0.123
 7288SOL    HW122763   2.689   6.911   0.145
 7288SOL    HW222764   2.610   6.780   0.201
 7289SOL     OW22765   4.647   2.255   4.420
 7289SOL    HW122766   4.564   2.293   4.463
 7289SOL    HW222767   4.702   2.330   4.383
 7290SOL     OW22768   2.883   5.601   4.573
 7290SOL    HW122769   2.946   5.562   4.506
 7290SOL    HW222770   2.932   5.669   4.629
 7291SOL     OW22771   3.565   4.722   1.433
 7291SOL    HW122772   3.555   4.769   1.520
 7291SOL    HW222773   3.557   4.788   1.358
 7292SOL     OW22774   3.315   0.073   4.923
 7292SOL    HW122775   3.393   0.038   4.871
 7292SOL    HW222776   3.344   0.099   5.015
 7293SOL     OW22777   1.941   1.664   6.837
 7293SOL    HW122778   1.945   1.763   6.842
 7293SOL    HW222779   1.935   1.636   6.741
 7294SOL     OW22780   5.102   5.704   0.142
 7294SOL    HW122781   5.192   5.660   0.133
 7294SOL    HW222782   5.054   5.699   0.055
 7295SOL     OW22783   5.267   0.322   1.271
 7295SOL    HW122784   5.209   0.400   1.293
 7295SOL    HW222785   5.249   0.248   1.336
 7296SOL     OW22786   4.294   5.009   1.579
 7296SOL    HW122787   4.254   5.091   1.620
 7296SOL    HW222788   4.259   4.999   1.486
 7297SOL     OW22789   5.144   6.869   2.378
 7297SOL    HW122790   5.057   6.918   2.374
 7297SOL    HW222791   5.193   6.896   2.462
 7298SOL     OW22792   6.766   3.709   4.142
 7298SOL    HW122793   6.691   3.651   4.111
 7298SOL    HW222794   6.847   3.653   4.159
 7299SOL     OW22795   5.513   3.514   6.421
 7299SOL    HW122796   5.580   3.588   6.422
 7299SOL    HW222797   5.535   3.449   6.349
 7300SOL     OW22798   4.925   5.399   1.560
 7300SOL    HW122799   4.916   5.455   1.477
 7300SOL    HW222800   4.978   5.449   1.628
 7301SOL     OW22801   6.824   1.298   6.243
 7301SOL    HW122802   6.762   1.256   6.308
 7301SOL    HW222803   6.825   1.397   6.255
 7302SOL     OW22804   5.827   0.829   6.364
 7302SOL    HW122805   5.746   0.880   6.335
 7302SOL    HW222806   5.803   0.733   6.375
 7303SOL     OW22807   3.536   0.501   0.707
 7303SOL    HW122808   3.632   0.487   0.684
 7303SOL    HW222809   3.524   0.593   0.743
 7304SOL     OW22810   3.889   3.650   5.211
 7304SOL    HW122811   3.794   3.675   5.191
 7304SOL    HW222812   3.896   3.551   5.220
 7305SOL     OW22813   5.396   1.763   0.262
 7305SOL    HW122814   5.382   1.700   0.185
 7305SOL    HW222815   5.405   1.711   0.346
 7306SOL     OW22816   5.012   5.042   2.145
 7306SOL    HW122817   5.094   5.098   2.133
 7306SOL    HW222818   4.949   5.058   2.070
 7307SOL     OW22819   4.216   6.479   2.329
 7307SOL    HW122820   4.178   6.400   2.280
 7307SOL    HW222821   4.220   6.459   2.426
 7308SOL     OW22822   6.223   0.729   4.021
 7308SOL    HW122823   6.203   0.821   4.054
 7308SOL    HW222824   6.285   0.683   4.086
 7309SOL     OW22825   4.547   5.330   2.011
 7309SOL    HW122826   4.584   5.290   2.095
 7309SOL    HW222827   4.615   5.323   1.938
 7310SOL     OW22828   1.969   5.776   1.810
 7310SOL    HW122829   2.017   5.745   1.727
 7310SOL    HW222830   1.975   5.876   1.816
 7311SOL     OW22831   2.697   1.980   2.355
 7311SOL    HW122832   2.657   1.976   2.263
 7311SOL    HW222833   2.691   1.889   2.397
 7312SOL     OW22834   0.202   2.282   6.191
 7312SOL    HW122835   0.161   2.191   6.184
 7312SOL    HW222836   0.165   2.341   6.119
 7313SOL     OW22837   3.756   2.431   6.197
 7313SOL    HW122838   3.676   2.450   6.140
 7313SOL    HW222839   3.838   2.433   6.140
 7314SOL     OW22840   1.237   2.629   4.724
 7314SOL    HW122841   1.204   2.534   4.720
 7314SOL    HW222842   1.304   2.644   4.651
 7315SOL     OW22843   6.962   0.675   5.956
 7315SOL    HW122844   0.009   0.716   5.893
 7315SOL    HW222845   6.952   0.578   5.934
 7316SOL     OW22846   4.076   3.340   4.938
 7316SOL    HW122847   4.104   3.368   4.846
 7316SOL    HW222848   4.016   3.260   4.932
 7317SOL     OW22849   2.824   1.300   3.722
 7317SOL    HW122850   2.908   1.345   3.751
 7317SOL    HW222851   2.846   1.224   3.661
 7318SOL     OW22852   1.680   1.851   1.228
 7318SOL    HW122853   1.591   1.885   1.259
 7318SOL    HW222854   1.674   1.752   1.213
 7319SOL     OW22855   0.121   4.268   6.096
 7319SOL    HW122856   0.148   4.178   6.060
 7319SOL    HW222857   0.117   4.264   6.195
 7320SOL     OW22858   6.846   2.198   2.530
 7320SOL    HW122859   6.751   2.189   2.501
 7320SOL    HW222860   6.907   2.177   2.454
 7321SOL     OW22861   2.792   1.582   4.313
 7321SOL    HW122862   2.875   1.596   4.260
 7321SOL    HW222863   2.806   1.507   4.377
 7322SOL     OW22864   0.430   3.658   1.819
 7322SOL    HW122865   0.358   3.702   1.871
 7322SOL    HW222866   0.403   3.564   1.798
 7323SOL     OW22867   2.126   4.017   3.218
 7323SOL    HW122868   2.081   4.107   3.217
 7323SOL    HW222869   2.116   3.976   3.309
 7324SOL     OW22870   4.993   5.376   2.814
 7324SOL    HW122871   4.977   5.298   2.754
 7324SOL    HW222872   4.917   5.441   2.804
 7325SOL     OW22873   3.090   6.104   0.546
 7325SOL    HW122874   3.095   6.160   0.628
 7325SOL    HW222875   3.155   6.137   0.478
 7326SOL     OW22876   2.242   0.971   4.527
 7326SOL    HW122877   2.196   1.015   4.604
 7326SOL    HW222878   2.218   0.874   4.525
 7327SOL     OW22879   1.456   2.893   5.265
 7327SOL    HW122880   1.445   2.806   5.218
 7327SOL    HW222881   1.553   2.909   5.285
 7328SOL     OW22882   2.635   0.017   6.643
 7328SOL    HW122883   2.547   6.996   6.615
 7328SOL    HW222884   2.709   6.992   6.591
 7329SOL     OW22885   4.424   3.607   1.554
 7329SOL    HW122886   4.490   3.640   1.622
 7329SOL    HW222887   4.363   3.541   1.598
 7330SOL     OW22888   4.288   2.318   0.748
 7330SOL    HW122889   4.337   2.298   0.663
 7330SOL    HW222890   4.346   2.296   0.826
 7331SOL     OW22891   5.095   1.332   2.134
 7331SOL    HW122892   5.031   1.281   2.191
 7331SOL    HW222893   5.147   1.269   2.078
 7332SOL     OW22894   3.443   5.343   0.775
 7332SOL    HW122895   3.453   5.344   0.875
 7332SOL    HW222896   3.374   5.276   0.749
 7333SOL     OW22897   0.511   4.898   2.628
 7333SOL    HW122898   0.578   4.882   2.700
 7333SOL    HW222899   0.423   4.858   2.654
 7334SOL     OW22900   3.785   6.884   4.426
 7334SOL    HW122901   3.867   6.886   4.484
 7334SOL    HW222902   3.769   6.976   4.389
 7335SOL     OW22903   2.223   3.064   2.747
 7335SOL    HW122904   2.297   3.102   2.692
 7335SOL    HW222905   2.139   3.115   2.729
 7336SOL     OW22906   1.893   6.318   4.389
 7336SOL    HW122907   1.976   6.320   4.334
 7336SOL    HW222908   1.870   6.223   4.411
 7337SOL     OW22909   4.836   2.339   1.955
 7337SOL    HW122910   4.936   2.341   1.963
 7337SOL    HW222911   4.798   2.424   1.992
 7338SOL     OW22912   6.694   3.014   6.997
 7338SOL    HW122913   6.651   3.101   0.002
 7338SOL    HW222914   6.781   3.031   6.952
 7339SOL     OW22915   1.438   5.773   4.650
 7339SOL    HW122916   1.380   5.733   4.579
 7339SOL    HW222917   1.402   5.748   4.740
 7340SOL     OW22918   2.385   6.853   6.681
 7340SOL    HW122919   2.297   6.896   6.700
 7340SOL    HW222920   2.425   6.820   6.767
 7341SOL     OW22921   6.576   1.587   0.806
 7341SOL    HW122922   6.487   1.569   0.765
 7341SOL    HW222923   6.635   1.507   0.795
 7342SOL     OW22924   0.416   6.434   2.136
 7342SOL    HW122925   0.360   6.490   2.197
 7342SOL    HW222926   0.458   6.493   2.067
 7343SOL     OW22927   5.783   2.826   0.610
 7343SOL    HW122928   5.754   2.864   0.522
 7343SOL    HW222929   5.778   2.727   0.607
 7344SOL     OW22930   2.012   6.189   6.042
 7344SOL    HW122931   2.092   6.135   6.065
 7344SOL    HW222932   2.040   6.282   6.019
 7345SOL     OW22933   3.461   5.660   5.780
 7345SOL    HW122934   3.534   5.626   5.838
 7345SOL    HW222935   3.451   5.601   5.700
 7346SOL     OW22936   4.120   5.291   2.423
 7346SOL    HW122937   4.037   5.341   2.446
 7346SOL    HW222938   4.099   5.222   2.353
 7347SOL     OW22939   6.114   1.487   0.269
 7347SOL    HW122940   6.126   1.553   0.344
 7347SOL    HW222941   6.199   1.437   0.255
 7348SOL     OW22942   6.509   4.676   0.416
 7348SOL    HW122943   6.539   4.750   0.355
 7348SOL    HW222944   6.447   4.615   0.366
 7349SOL     OW22945   3.913   1.628   1.739
 7349SOL    HW122946   3.838   1.693   1.748
 7349SOL    HW222947   3.960   1.641   1.652
 7350SOL     OW22948   3.911   0.767   4.299
 7350SOL    HW122949   3.897   0.857   4.339
 7350SOL    HW222950   4.008   0.756   4.276
 7351SOL     OW22951   2.204   4.443   4.531
 7351SOL    HW122952   2.215   4.345   4.550
 7351SOL    HW222953   2.114   4.473   4.562
 7352SOL     OW22954   6.134   3.735   4.112
 7352SOL    HW122955   6.178   3.703   4.196
 7352SOL    HW222956   6.070   3.808   4.134
 7353SOL     OW22957   6.560   0.724   5.458
 7353SOL    HW122958   6.485   0.661   5.438
 7353SOL    HW222959   6.577   0.726   5.556
 7354SOL     OW22960   0.831   1.536   2.746
 7354SOL    HW122961   0.774   1.513   2.825
 7354SOL    HW222962   0.921   1.567   2.778
 7355SOL     OW22963   3.360   1.641   0.456
 7355SOL    HW122964   3.443   1.677   0.414
 7355SOL    HW222965   3.320   1.572   0.395
 7356SOL     OW22966   4.027   3.689   5.961
 7356SOL    HW122967   4.014   3.695   5.862
 7356SOL    HW222968   4.046   3.780   5.998
 7357SOL     OW22969   5.193   6.731   2.154
 7357SOL    HW122970   5.195   6.770   2.246
 7357SOL    HW222971   5.110   6.675   2.143
 7358SOL     OW22972   5.571   0.616   3.482
 7358SOL    HW122973   5.627   0.653   3.408
 7358SOL    HW222974   5.501   0.683   3.507
 7359SOL     OW22975   4.469   6.910   1.851
 7359SOL    HW122976   4.414   6.908   1.934
 7359SOL    HW222977   4.552   6.964   1.867
 7360SOL     OW22978   2.874   3.447   5.176
 7360SOL    HW122979   2.963   3.433   5.133
 7360SOL    HW222980   2.831   3.358   5.193
 7361SOL     OW22981   6.783   0.377   3.176
 7361SOL    HW122982   6.811   0.287   3.208
 7361SOL    HW222983   6.834   0.447   3.226
 7362SOL     OW22984   3.189   5.736   0.249
 7362SOL    HW122985   3.189   5.664   0.181
 7362SOL    HW222986   3.278   5.783   0.248
 7363SOL     OW22987   4.133   1.096   1.298
 7363SOL    HW122988   4.207   1.071   1.360
 7363SOL    HW222989   4.171   1.124   1.210
 7364SOL     OW22990   5.926   6.426   1.707
 7364SOL    HW122991   5.912   6.330   1.684
 7364SOL    HW222992   5.907   6.440   1.804
 7365SOL     OW22993   4.887   3.852   2.316
 7365SOL    HW122994   4.841   3.918   2.258
 7365SOL    HW222995   4.938   3.900   2.388
 7366SOL     OW22996   2.270   6.863   3.479
 7366SOL    HW122997   2.211   6.939   3.453
 7366SOL    HW222998   2.283   6.802   3.401
 7367SOL     OW22999   4.447   0.922   6.186
 7367SOL    HW123000   4.513   0.857   6.147
 7367SOL    HW223001   4.375   0.871   6.232
 7368SOL     OW23002   3.600   3.226   3.450
 7368SOL    HW123003   3.516   3.187   3.487
 7368SOL    HW223004   3.666   3.153   3.430
 7369SOL     OW23005   5.743   3.224   0.159
 7369SOL    HW123006   5.709   3.233   0.252
 7369SOL    HW223007   5.825   3.168   0.158
 7370SOL     OW23008   1.731   1.265   4.841
 7370SOL    HW123009   1.660   1.210   4.884
 7370SOL    HW223010   1.705   1.286   4.746
 7371SOL     OW23011   3.728   1.235   3.643
 7371SOL    HW123012   3.683   1.170   3.705
 7371SOL    HW223013   3.822   1.249   3.672
 7372SOL     OW23014   5.115   1.350   5.391
 7372SOL    HW123015   5.208   1.365   5.424
 7372SOL    HW223016   5.117   1.336   5.292
 7373SOL     OW23017   6.187   3.042   4.335
 7373SOL    HW123018   6.209   3.102   4.257
 7373SOL    HW223019   6.229   2.953   4.322
 7374SOL     OW23020   0.360   1.978   6.388
 7374SOL    HW123021   0.412   1.900   6.351
 7374SOL    HW223022   0.391   2.062   6.344
 7375SOL     OW23023   1.854   3.607   0.490
 7375SOL    HW123024   1.900   3.625   0.404
 7375SOL    HW223025   1.919   3.569   0.556
 7376SOL     OW23026   0.077   4.271   0.735
 7376SOL    HW123027   0.024   4.227   0.662
 7376SOL    HW223028   0.094   4.205   0.808
 7377SOL     OW23029   2.692   5.866   1.421
 7377SOL    HW123030   2.705   5.925   1.500
 7377SOL    HW223031   2.708   5.771   1.447
 7378SOL     OW23032   2.111   5.048   5.326
 7378SOL    HW123033   2.014   5.030   5.308
 7378SOL    HW223034   2.144   4.985   5.396
 7379SOL     OW23035   4.356   1.786   2.616
 7379SOL    HW123036   4.344   1.877   2.577
 7379SOL    HW223037   4.270   1.735   2.608
 7380SOL     OW23038   5.400   3.195   1.583
 7380SOL    HW123039   5.458   3.263   1.540
 7380SOL    HW223040   5.373   3.227   1.674
 7381SOL     OW23041   3.849   6.850   1.819
 7381SOL    HW123042   3.895   6.938   1.826
 7381SOL    HW223043   3.829   6.830   1.723
 7382SOL     OW23044   6.948   1.530   6.340
 7382SOL    HW123045   6.910   1.579   6.262
 7382SOL    HW223046   0.011   1.578   6.373
 7383SOL     OW23047   2.054   6.614   0.881
 7383SOL    HW123048   1.989   6.653   0.947
 7383SOL    HW223049   2.145   6.610   0.923
 7384SOL     OW23050   6.750   6.429   0.803
 7384SOL    HW123051   6.845   6.448   0.829
 7384SOL    HW223052   6.743   6.427   0.704
 7385SOL     OW23053   6.203   4.875   2.943
 7385SOL    HW123054   6.156   4.794   2.978
 7385SOL    HW223055   6.296   4.850   2.916
 7386SOL     OW23056   5.243   3.689   6.845
 7386SOL    HW123057   5.210   3.684   6.750
 7386SOL    HW223058   5.187   3.754   6.896
 7387SOL     OW23059   6.245   5.987   4.326
 7387SOL    HW123060   6.256   5.993   4.226
 7387SOL    HW223061   6.265   5.894   4.356
 7388SOL     OW23062   2.265   4.242   2.680
 7388SOL    HW123063   2.203   4.317   2.659
 7388SOL    HW223064   2.224   4.156   2.650
 7389SOL     OW23065   6.533   3.145   0.420
 7389SOL    HW123066   6.543   3.046   0.414
 7389SOL    HW223067   6.436   3.169   0.430
 7390SOL     OW23068   2.674   2.351   3.832
 7390SOL    HW123069   2.627   2.268   3.862
 7390SOL    HW223070   2.695   2.344   3.735
 7391SOL     OW23071   3.473   3.859   3.035
 7391SOL    HW123072   3.540   3.917   2.987
 7391SOL    HW223073   3.521   3.785   3.081
 7392SOL     OW23074   3.165   6.928   0.367
 7392SOL    HW123075   3.082   6.977   0.340
 7392SOL    HW223076   3.151   6.830   0.355
 7393SOL     OW23077   4.746   5.750   3.310
 7393SOL    HW123078   4.799   5.714   3.387
 7393SOL    HW223079   4.648   5.734   3.327
 7394SOL     OW23080   2.223   2.042   5.799
 7394SOL    HW123081   2.226   2.018   5.702
 7394SOL    HW223082   2.297   2.105   5.821
 7395SOL     OW23083   3.012   5.890   1.046
 7395SOL    HW123084   2.983   5.840   0.965
 7395SOL    HW223085   3.098   5.937   1.027
 7396SOL     OW23086   1.337   5.029   2.217
 7396SOL    HW123087   1.337   4.930   2.228
 7396SOL    HW223088   1.382   5.053   2.131
 7397SOL     OW23089   6.010   4.720   4.059
 7397SOL    HW123090   5.987   4.623   4.071
 7397SOL    HW223091   6.067   4.731   3.978
 7398SOL     OW23092   3.157   4.858   2.153
 7398SOL    HW123093   3.250   4.843   2.118
 7398SOL    HW223094   3.090   4.829   2.085
 7399SOL     OW23095   5.359   1.303   6.168
 7399SOL    HW123096   5.369   1.354   6.083
 7399SOL    HW223097   5.296   1.227   6.155
 7400SOL     OW23098   4.591   3.790   5.824
 7400SOL    HW123099   4.648   3.811   5.745
 7400SOL    HW223100   4.523   3.862   5.837
 7401SOL     OW23101   1.375   2.406   3.669
 7401SOL    HW123102   1.447   2.439   3.608
 7401SOL    HW223103   1.416   2.369   3.752
 7402SOL     OW23104   3.698   5.463   4.258
 7402SOL    HW123105   3.747   5.409   4.327
 7402SOL    HW223106   3.709   5.560   4.279
 7403SOL     OW23107   1.968   4.355   4.145
 7403SOL    HW123108   1.984   4.445   4.105
 7403SOL    HW223109   1.958   4.364   4.245
 7404SOL     OW23110   2.816   3.744   0.650
 7404SOL    HW123111   2.783   3.795   0.571
 7404SOL    HW223112   2.914   3.726   0.640
 7405SOL     OW23113   3.823   6.773   5.557
 7405SOL    HW123114   3.774   6.849   5.514
 7405SOL    HW223115   3.761   6.695   5.566
 7406SOL     OW23116   1.027   1.946   4.297
 7406SOL    HW123117   1.002   2.037   4.262
 7406SOL    HW223118   0.948   1.908   4.347
 7407SOL     OW23119   1.470   5.918   5.736
 7407SOL    HW123120   1.381   5.907   5.691
 7407SOL    HW223121   1.543   5.903   5.669
 7408SOL     OW23122   4.274   5.805   4.917
 7408SOL    HW123123   4.329   5.842   4.992
 7408SOL    HW223124   4.191   5.764   4.954
 7409SOL     OW23125   6.718   4.237   1.406
 7409SOL    HW123126   6.707   4.311   1.473
 7409SOL    HW223127   6.670   4.156   1.438
 7410SOL     OW23128   6.529   0.743   1.217
 7410SOL    HW123129   6.510   0.727   1.314
 7410SOL    HW223130   6.568   0.661   1.176
 7411SOL     OW23131   3.304   1.617   5.098
 7411SOL    HW123132   3.322   1.635   5.002
 7411SOL    HW223133   3.211   1.583   5.109
 7412SOL     OW23134   4.041   6.769   0.618
 7412SOL    HW123135   4.030   6.833   0.541
 7412SOL    HW223136   4.136   6.737   0.620
 7413SOL     OW23137   4.876   1.080   3.738
 7413SOL    HW123138   4.902   1.168   3.697
 7413SOL    HW223139   4.865   1.091   3.837
 7414SOL     OW23140   2.889   0.739   3.803
 7414SOL    HW123141   2.812   0.747   3.866
 7414SOL    HW223142   2.860   0.690   3.721
 7415SOL     OW23143   4.027   7.008   6.191
 7415SOL    HW123144   3.930   0.005   6.175
 7415SOL    HW223145   4.053   6.918   6.157
 7416SOL     OW23146   1.763   0.485   1.928
 7416SOL    HW123147   1.682   0.519   1.976
 7416SOL    HW223148   1.739   0.403   1.877
 7417SOL     OW23149   0.886   0.816   2.240
 7417SOL    HW123150   0.920   0.731   2.199
 7417SOL    HW223151   0.878   0.886   2.170
 7418SOL     OW23152   1.577   4.209   6.293
 7418SOL    HW123153   1.599   4.269   6.370
 7418SOL    HW223154   1.625   4.122   6.304
 7419SOL     OW23155   6.909   3.436   4.104
 7419SOL    HW123156   6.897   3.414   4.201
 7419SOL    HW223157   6.886   3.356   4.048
 7420SOL     OW23158   6.524   6.369   0.963
 7420SOL    HW123159   6.600   6.366   0.898
 7420SOL    HW223160   6.479   6.458   0.959
 7421SOL     OW23161   5.798   4.126   0.944
 7421SOL    HW123162   5.771   4.038   0.983
 7421SOL    HW223163   5.887   4.153   0.980
 7422SOL     OW23164   5.621   3.331   1.790
 7422SOL    HW123165   5.695   3.387   1.753
 7422SOL    HW223166   5.641   3.235   1.774
 7423SOL     OW23167   4.764   2.498   6.363
 7423SOL    HW123168   4.777   2.412   6.412
 7423SOL    HW223169   4.696   2.553   6.411
 7424SOL     OW23170   0.791   2.376   3.516
 7424SOL    HW123171   0.823   2.467   3.489
 7424SOL    HW223172   0.870   2.317   3.533
 7425SOL     OW23173   5.600   0.802   0.893
 7425SOL    HW123174   5.611   0.803   0.993
 7425SOL    HW223175   5.503   0.817   0.871
 7426SOL     OW23176   2.881   2.959   5.635
 7426SOL    HW123177   2.784   2.973   5.614
 7426SOL    HW223178   2.920   3.043   5.671
 7427SOL     OW23179   2.507   6.988   3.298
 7427SOL    HW123180   2.605   6.997   3.281
 7427SOL    HW223181   2.481   0.024   3.378
 7428SOL     OW23182   3.597   0.288   5.040
 7428SOL    HW123183   3.675   0.297   5.102
 7428SOL    HW223184   3.561   0.379   5.019
 7429SOL     OW23185   1.084   0.303   2.453
 7429SOL    HW123186   1.169   0.279   2.500
 7429SOL    HW223187   1.039   0.220   2.421
 7430SOL     OW23188   0.144   4.800   3.001
 7430SOL    HW123189   0.109   4.742   2.928
 7430SOL    HW223190   0.114   4.894   2.988
 7431SOL     OW23191   0.815   1.728   3.806
 7431SOL    HW123192   0.803   1.823   3.777
 7431SOL    HW223193   0.743   1.672   3.765
 7432SOL     OW23194   1.668   0.903   3.006
 7432SOL    HW123195   1.702   0.942   3.092
 7432SOL    HW223196   1.616   0.972   2.956
 7433SOL     OW23197   3.231   0.058   6.514
 7433SOL    HW123198   3.258   0.026   6.423
 7433SOL    HW223199   3.258   7.009   6.582
 7434SOL     OW23200   4.232   0.129   3.789
 7434SOL    HW123201   4.179   0.089   3.713
 7434SOL    HW223202   4.188   0.105   3.875
 7435SOL     OW23203   4.851   4.689   3.074
 7435SOL    HW123204   4.818   4.781   3.095
 7435SOL    HW223205   4.821   4.663   2.983
 7436SOL     OW23206   5.379   3.205   6.089
 7436SOL    HW123207   5.423   3.223   6.001
 7436SOL    HW223208   5.286   3.173   6.073
 7437SOL     OW23209   3.596   0.691   1.519
 7437SOL    HW123210   3.515   0.634   1.503
 7437SOL    HW223211   3.677   0.644   1.484
 7438SOL     OW23212   2.165   0.154   6.618
 7438SOL    HW123213   2.241   0.212   6.591
 7438SOL    HW223214   2.184   0.112   6.707
 7439SOL     OW23215   0.901   4.940   6.163
 7439SOL    HW123216   0.901   4.874   6.239
 7439SOL    HW223217   0.992   4.982   6.156
 7440SOL     OW23218   5.714   3.963   4.224
 7440SOL    HW123219   5.716   4.056   4.262
 7440SOL    HW223220   5.716   3.897   4.299
 7441SOL     OW23221   4.625   5.987   1.202
 7441SOL    HW123222   4.544   5.954   1.251
 7441SOL    HW223223   4.595   6.037   1.120
 7442SOL     OW23224   5.627   0.980   6.297
 7442SOL    HW123225   5.542   0.949   6.339
 7442SOL    HW223226   5.620   0.972   6.198
 7443SOL     OW23227   7.004   0.542   1.488
 7443SOL    HW123228   0.020   0.449   1.495
 7443SOL    HW223229   0.042   0.593   1.423
 7444SOL     OW23230   1.472   6.456   0.067
 7444SOL    HW123231   1.552   6.504   0.032
 7444SOL    HW223232   1.486   6.432   0.163
 7445SOL     OW23233   3.714   5.742   2.386
 7445SOL    HW123234   3.760   5.807   2.447
 7445SOL    HW223235   3.615   5.746   2.402
 7446SOL     OW23236   5.812   4.642   6.879
 7446SOL    HW123237   5.731   4.583   6.875
 7446SOL    HW223238   5.876   4.606   6.948
 7447SOL     OW23239   0.811   5.288   1.129
 7447SOL    HW123240   0.840   5.230   1.052
 7447SOL    HW223241   0.747   5.358   1.096
 7448SOL     OW23242   4.502   5.043   6.720
 7448SOL    HW123243   4.558   5.092   6.653
 7448SOL    HW223244   4.494   4.947   6.693
 7449SOL     OW23245   6.074   4.449   6.043
 7449SOL    HW123246   6.119   4.515   6.104
 7449SOL    HW223247   6.136   4.373   6.024
 7450SOL     OW23248   5.992   2.026   6.628
 7450SOL    HW123249   5.918   2.001   6.691
 7450SOL    HW223250   5.959   2.097   6.565
 7451SOL     OW23251   4.528   4.438   3.166
 7451SOL    HW123252   4.542   4.360   3.227
 7451SOL    HW223253   4.473   4.508   3.213
 7452SOL     OW23254   6.416   5.540   6.272
 7452SOL    HW123255   6.388   5.545   6.176
 7452SOL    HW223256   6.344   5.497   6.326
 7453SOL     OW23257   3.965   6.014   6.023
 7453SOL    HW123258   3.941   5.939   6.084
 7453SOL    HW223259   3.904   6.091   6.039
 7454SOL     OW23260   3.504   2.142   1.144
 7454SOL    HW123261   3.493   2.117   1.240
 7454SOL    HW223262   3.553   2.069   1.096
 7455SOL     OW23263   6.812   0.783   3.163
 7455SOL    HW123264   6.805   0.881   3.181
 7455SOL    HW223265   6.827   0.734   3.249
 7456SOL     OW23266   2.998   2.149   5.898
 7456SOL    HW123267   2.925   2.091   5.862
 7456SOL    HW223268   2.973   2.246   5.885
 7457SOL     OW23269   1.130   1.148   2.586
 7457SOL    HW123270   1.222   1.156   2.626
 7457SOL    HW223271   1.098   1.054   2.597
 7458SOL     OW23272   0.860   5.230   5.270
 7458SOL    HW123273   0.813   5.197   5.188
 7458SOL    HW223274   0.821   5.318   5.297
 7459SOL     OW23275   5.994   0.035   3.247
 7459SOL    HW123276   5.953   0.090   3.175
 7459SOL    HW223277   6.085   0.072   3.269
 7460SOL     OW23278   1.105   0.359   1.313
 7460SOL    HW123279   1.045   0.419   1.366
 7460SOL    HW223280   1.074   0.264   1.322
 7461SOL     OW23281   2.018   4.653   4.800
 7461SOL    HW123282   2.065   4.571   4.834
 7461SOL    HW223283   1.956   4.688   4.871
 7462SOL     OW23284   1.704   4.591   0.413
 7462SOL    HW123285   1.745   4.668   0.461
 7462SOL    HW223286   1.749   4.578   0.325
 7463SOL     OW23287   4.970   5.158   1.845
 7463SOL    HW123288   4.947   5.061   1.846
 7463SOL    HW223289   5.059   5.170   1.802
 7464SOL     OW23290   6.242   5.832   5.009
 7464SOL    HW123291   6.311   5.779   5.059
 7464SOL    HW223292   6.189   5.772   4.950
 7465SOL     OW23293   1.354   4.473   6.601
 7465SOL    HW123294   1.341   4.549   6.537
 7465SOL    HW223295   1.448   4.474   6.635
 7466SOL     OW23296   0.055   0.399   4.924
 7466SOL    HW123297   0.129   0.451   4.883
 7466SOL    HW223298   6.998   0.389   4.859
 7467SOL     OW23299   0.586   3.539   4.721
 7467SOL    HW123300   0.573   3.507   4.627
 7467SOL    HW223301   0.599   3.461   4.782
 7468SOL     OW23302   5.227   2.309   5.908
 7468SOL    HW123303   5.148   2.313   5.846
 7468SOL    HW223304   5.226   2.223   5.958
 7469SOL     OW23305   0.272   1.529   0.481
 7469SOL    HW123306   0.213   1.453   0.509
 7469SOL    HW223307   0.229   1.616   0.503
 7470SOL     OW23308   5.375   3.291   4.043
 7470SOL    HW123309   5.416   3.317   3.956
 7470SOL    HW223310   5.314   3.364   4.075
 7471SOL     OW23311   3.668   0.103   6.841
 7471SOL    HW123312   3.626   0.132   6.755
 7471SOL    HW223313   3.755   0.150   6.853
 7472SOL     OW23314   0.555   0.130   5.799
 7472SOL    HW123315   0.484   0.198   5.818
 7472SOL    HW223316   0.522   0.067   5.729
 7473SOL     OW23317   3.809   5.758   3.309
 7473SOL    HW123318   3.880   5.794   3.370
 7473SOL    HW223319   3.784   5.666   3.339
 7474SOL     OW23320   5.960   2.223   0.509
 7474SOL    HW123321   5.939   2.310   0.465
 7474SOL    HW223322   5.944   2.230   0.607
 7475SOL     OW23323   4.988   3.150   0.754
 7475SOL    HW123324   5.012   3.224   0.692
 7475SOL    HW223325   4.975   3.186   0.847
 7476SOL     OW23326   2.526   0.894   2.849
 7476SOL    HW123327   2.573   0.821   2.900
 7476SOL    HW223328   2.567   0.982   2.872
 7477SOL     OW23329   2.247   3.469   6.112
 7477SOL    HW123330   2.323   3.456   6.047
 7477SOL    HW223331   2.237   3.566   6.132
 7478SOL     OW23332   0.057   1.833   5.755
 7478SOL    HW123333   7.008   1.850   5.827
 7478SOL    HW223334   0.009   1.805   5.671
 7479SOL     OW23335   4.646   2.676   1.323
 7479SOL    HW123336   4.714   2.647   1.256
 7479SOL    HW223337   4.653   2.619   1.405
 7480SOL     OW23338   3.700   6.273   2.908
 7480SOL    HW123339   3.775   6.236   2.961
 7480SOL    HW223340   3.735   6.338   2.841
 7481SOL     OW23341   0.116   3.639   6.003
 7481SOL    HW123342   0.136   3.726   5.957
 7481SOL    HW223343   0.096   3.656   6.100
 7482SOL     OW23344   5.311   2.193   4.089
 7482SOL    HW123345   5.350   2.214   3.999
 7482SOL    HW223346   5.223   2.148   4.079
 7483SOL     OW23347   4.613   1.673   6.287
 7483SOL    HW123348   4.604   1.628   6.375
 7483SOL    HW223349   4.684   1.744   6.293
 7484SOL     OW23350   3.078   0.493   4.286
 7484SOL    HW123351   3.118   0.540   4.208
 7484SOL    HW223352   3.032   0.410   4.256
 7485SOL     OW23353   3.773   0.324   6.603
 7485SOL    HW123354   3.826   0.359   6.526
 7485SOL    HW223355   3.835   0.282   6.669
 7486SOL     OW23356   4.637   6.863   0.789
 7486SOL    HW123357   4.736   6.851   0.785
 7486SOL    HW223358   4.600   6.861   0.696
 7487SOL     OW23359   3.408   6.465   4.060
 7487SOL    HW123360   3.380   6.379   4.017
 7487SOL    HW223361   3.508   6.466   4.068
 7488SOL     OW23362   0.953   5.736   4.060
 7488SOL    HW123363   0.876   5.757   4.000
 7488SOL    HW223364   1.032   5.791   4.032
 7489SOL     OW23365   5.334   2.750   6.785
 7489SOL    HW123366   5.241   2.749   6.748
 7489SOL    HW223367   5.359   2.844   6.810
 7490SOL     OW23368   1.847   2.871   2.319
 7490SOL    HW123369   1.779   2.800   2.307
 7490SOL    HW223370   1.905   2.876   2.238
 7491SOL     OW23371   4.319   3.785   6.969
 7491SOL    HW123372   4.317   3.836   0.038
 7491SOL    HW223373   4.268   3.700   6.980
 7492SOL     OW23374   1.558   0.424   4.084
 7492SOL    HW123375   1.607   0.380   4.158
 7492SOL    HW223376   1.470   0.379   4.070
 7493SOL     OW23377   6.385   4.875   4.602
 7493SOL    HW123378   6.311   4.941   4.613
 7493SOL    HW223379   6.471   4.916   4.633
 7494SOL     OW23380   6.344   1.412   2.851
 7494SOL    HW123381   6.279   1.487   2.858
 7494SOL    HW223382   6.303   1.337   2.800
 7495SOL     OW23383   1.641   3.181   4.981
 7495SOL    HW123384   1.728   3.165   5.028
 7495SOL    HW223385   1.633   3.119   4.903
 7496SOL     OW23386   6.435   4.086   2.273
 7496SOL    HW123387   6.349   4.134   2.292
 7496SOL    HW223388   6.472   4.049   2.358
 7497SOL     OW23389   6.134   0.062   1.487
 7497SOL    HW123390   6.083   6.996   1.468
 7497SOL    HW223391   6.069   0.138   1.498
 7498SOL     OW23392   3.011   6.813   3.659
 7498SOL    HW123393   2.979   6.889   3.603
 7498SOL    HW223394   3.101   6.783   3.626
 7499SOL     OW23395   3.363   1.314   3.437
 7499SOL    HW123396   3.387   1.317   3.534
 7499SOL    HW223397   3.265   1.299   3.427
 7500SOL     OW23398   4.276   0.702   3.892
 7500SOL    HW123399   4.239   0.609   3.900
 7500SOL    HW223400   4.217   0.766   3.941
 7501SOL     OW23401   6.708   2.039   4.454
 7501SOL    HW123402   6.806   2.033   4.471
 7501SOL    HW223403   6.658   2.005   4.535
 7502SOL     OW23404   4.571   0.970   3.760
 7502SOL    HW123405   4.615   1.060   3.763
 7502SOL    HW223406   4.560   0.936   3.853
 7503SOL     OW23407   1.461   5.895   1.812
 7503SOL    HW123408   1.544   5.859   1.855
 7503SOL    HW223409   1.485   5.969   1.749
 7504SOL     OW23410   5.526   6.641   4.373
 7504SOL    HW123411   5.567   6.730   4.351
 7504SOL    HW223412   5.561   6.608   4.460
 7505SOL     OW23413   0.738   6.444   5.625
 7505SOL    HW123414   0.814   6.414   5.567
 7505SOL    HW223415   0.770   6.517   5.686
 7506SOL     OW23416   3.076   2.160   3.826
 7506SOL    HW123417   3.125   2.210   3.754
 7506SOL    HW223418   3.142   2.107   3.879
 7507SOL     OW23419   6.568   4.307   6.476
 7507SOL    HW123420   6.626   4.254   6.538
 7507SOL    HW223421   6.479   4.264   6.468
 7508SOL     OW23422   2.720   6.364   0.600
 7508SOL    HW123423   2.675   6.287   0.556
 7508SOL    HW223424   2.693   6.368   0.696
 7509SOL     OW23425   6.143   4.210   2.281
 7509SOL    HW123426   6.148   4.282   2.351
 7509SOL    HW223427   6.078   4.237   2.210
 7510SOL     OW23428   3.644   3.991   2.081
 7510SOL    HW123429   3.742   4.000   2.095
 7510SOL    HW223430   3.599   3.975   2.169
 7511SOL     OW23431   4.519   5.929   3.976
 7511SOL    HW123432   4.462   5.848   3.990
 7511SOL    HW223433   4.611   5.912   4.011
 7512SOL     OW23434   4.252   0.761   1.073
 7512SOL    HW123435   4.325   0.703   1.037
 7512SOL    HW223436   4.284   0.855   1.080
 7513SOL     OW23437   1.158   0.943   1.920
 7513SOL    HW123438   1.167   0.901   2.010
 7513SOL    HW223439   1.247   0.940   1.873
 7514SOL     OW23440   0.094   6.661   1.278
 7514SOL    HW123441   0.144   6.585   1.320
 7514SOL    HW223442   0.082   6.734   1.344
 7515SOL     OW23443   0.119   4.337   5.150
 7515SOL    HW123444   0.023   4.313   5.135
 7515SOL    HW223445   0.163   4.264   5.203
 7516SOL     OW23446   1.867   6.380   5.199
 7516SOL    HW123447   1.795   6.393   5.267
 7516SOL    HW223448   1.907   6.289   5.210
 7517SOL     OW23449   0.805   1.881   6.204
 7517SOL    HW123450   0.727   1.818   6.200
 7517SOL    HW223451   0.873   1.855   6.135
 7518SOL     OW23452   3.954   1.987   4.381
 7518SOL    HW123453   3.860   2.020   4.392
 7518SOL    HW223454   4.017   2.057   4.414
 7519SOL     OW23455   4.043   0.108   4.338
 7519SOL    HW123456   4.117   0.132   4.275
 7519SOL    HW223457   4.063   0.019   4.379
 7520SOL     OW23458   1.975   1.334   0.618
 7520SOL    HW123459   2.030   1.277   0.680
 7520SOL    HW223460   1.977   1.295   0.526
 7521SOL     OW23461   4.118   1.559   5.167
 7521SOL    HW123462   4.118   1.503   5.250
 7521SOL    HW223463   4.053   1.633   5.177
 7522SOL     OW23464   2.075   6.635   4.125
 7522SOL    HW123465   2.038   6.625   4.032
 7522SOL    HW223466   2.151   6.699   4.124
 7523SOL     OW23467   5.623   1.561   0.363
 7523SOL    HW123468   5.638   1.471   0.322
 7523SOL    HW223469   5.588   1.550   0.456
 7524SOL     OW23470   0.264   3.478   4.741
 7524SOL    HW123471   0.223   3.569   4.745
 7524SOL    HW223472   0.333   3.469   4.812
 7525SOL     OW23473   3.011   4.865   6.035
 7525SOL    HW123474   3.021   4.855   5.936
 7525SOL    HW223475   3.089   4.823   6.081
 7526SOL     OW23476   2.037   4.205   0.815
 7526SOL    HW123477   2.035   4.268   0.893
 7526SOL    HW223478   2.059   4.113   0.847
 7527SOL     OW23479   2.872   5.197   2.638
 7527SOL    HW123480   2.805   5.143   2.588
 7527SOL    HW223481   2.961   5.190   2.592
 7528SOL     OW23482   6.212   2.540   5.716
 7528SOL    HW123483   6.128   2.578   5.676
 7528SOL    HW223484   6.286   2.606   5.708
 7529SOL     OW23485   6.431   3.364   4.270
 7529SOL    HW123486   6.471   3.351   4.361
 7529SOL    HW223487   6.335   3.390   4.279
 7530SOL     OW23488   0.896   3.048   3.202
 7530SOL    HW123489   0.993   3.025   3.192
 7530SOL    HW223490   0.844   2.963   3.213
 7531SOL     OW23491   3.855   1.919   3.796
 7531SOL    HW123492   3.841   1.998   3.856
 7531SOL    HW223493   3.951   1.917   3.766
 7532SOL     OW23494   4.862   5.784   6.633
 7532SOL    HW123495   4.822   5.841   6.561
 7532SOL    HW223496   4.799   5.779   6.711
 7533SOL     OW23497   4.330   4.547   1.852
 7533SOL    HW123498   4.382   4.588   1.927
 7533SOL    HW223499   4.347   4.448   1.850
 7534SOL     OW23500   4.595   6.018   4.998
 7534SOL    HW123501   4.512   6.005   5.053
 7534SOL    HW223502   4.665   6.064   5.054
 7535SOL     OW23503   0.432   6.661   4.176
 7535SOL    HW123504   0.332   6.665   4.177
 7535SOL    HW223505   0.462   6.570   4.205
 7536SOL     OW23506   6.380   6.284   3.631
 7536SOL    HW123507   6.402   6.350   3.703
 7536SOL    HW223508   6.285   6.297   3.602
 7537SOL     OW23509   1.805   6.550   2.794
 7537SOL    HW123510   1.770   6.626   2.740
 7537SOL    HW223511   1.890   6.517   2.753
 7538SOL     OW23512   0.098   4.771   0.058
 7538SOL    HW123513   0.030   4.701   0.038
 7538SOL    HW223514   0.155   4.786   6.995
 7539SOL     OW23515   6.737   0.272   4.399
 7539SOL    HW123516   6.682   0.313   4.471
 7539SOL    HW223517   6.829   0.311   4.401
 7540SOL     OW23518   5.368   4.851   3.253
 7540SOL    HW123519   5.343   4.797   3.333
 7540SOL    HW223520   5.299   4.840   3.181
 7541SOL     OW23521   2.432   3.857   6.009
 7541SOL    HW123522   2.437   3.922   6.085
 7541SOL    HW223523   2.433   3.907   5.923
 7542SOL     OW23524   5.938   5.688   4.604
 7542SOL    HW123525   5.958   5.668   4.508
 7542SOL    HW223526   5.910   5.603   4.650
 7543SOL     OW23527   2.298   1.424   0.611
 7543SOL    HW123528   2.345   1.336   0.616
 7543SOL    HW223529   2.308   1.473   0.698
 7544SOL     OW23530   6.393   1.093   4.469
 7544SOL    HW123531   6.315   1.155   4.481
 7544SOL    HW223532   6.473   1.132   4.515
 7545SOL     OW23533   1.454   5.225   5.519
 7545SOL    HW123534   1.528   5.159   5.534
 7545SOL    HW223535   1.397   5.230   5.600
 7546SOL     OW23536   2.460   2.686   1.841
 7546SOL    HW123537   2.417   2.775   1.827
 7546SOL    HW223538   2.559   2.693   1.823
 7547SOL     OW23539   4.185   0.016   1.780
 7547SOL    HW123540   4.090   0.042   1.799
 7547SOL    HW223541   4.208   0.040   1.686
 7548SOL     OW23542   2.680   2.357   6.497
 7548SOL    HW123543   2.591   2.314   6.482
 7548SOL    HW223544   2.681   2.448   6.455
 7549SOL     OW23545   4.989   0.857   4.637
 7549SOL    HW123546   4.890   0.852   4.650
 7549SOL    HW223547   5.010   0.856   4.539
 7550SOL     OW23548   2.930   6.009   4.522
 7550SOL    HW123549   2.899   5.917   4.500
 7550SOL    HW223550   2.854   6.073   4.511
 7551SOL     OW23551   6.432   2.732   6.476
 7551SOL    HW123552   6.529   2.751   6.491
 7551SOL    HW223553   6.413   2.732   6.377
 7552SOL     OW23554   2.484   6.304   4.807
 7552SOL    HW123555   2.527   6.214   4.803
 7552SOL    HW223556   2.388   6.294   4.833
 7553SOL     OW23557   6.636   6.310   5.887
 7553SOL    HW123558   6.566   6.270   5.946
 7553SOL    HW223559   6.593   6.372   5.822
 7554SOL     OW23560   5.070   1.596   0.784
 7554SOL    HW123561   5.030   1.567   0.870
 7554SOL    HW223562   5.052   1.528   0.713
 7555SOL     OW23563   4.462   5.006   4.080
 7555SOL    HW123564   4.386   5.012   4.015
 7555SOL    HW223565   4.444   4.933   4.145
 7556SOL     OW23566   1.204   6.020   1.561
 7556SOL    HW123567   1.204   6.100   1.622
 7556SOL    HW223568   1.204   5.936   1.615
 7557SOL     OW23569   4.632   6.640   1.275
 7557SOL    HW123570   4.701   6.644   1.347
 7557SOL    HW223571   4.671   6.599   1.193
 7558SOL     OW23572   0.726   1.822   3.338
 7558SOL    HW123573   0.643   1.872   3.361
 7558SOL    HW223574   0.707   1.724   3.335
 7559SOL     OW23575   3.067   1.039   4.942
 7559SOL    HW123576   2.974   1.071   4.963
 7559SOL    HW223577   3.069   0.939   4.941
 7560SOL     OW23578   1.133   1.167   6.011
 7560SOL    HW123579   1.151   1.236   5.941
 7560SOL    HW223580   1.116   1.211   6.098
 7561SOL     OW23581   5.472   1.115   5.496
 7561SOL    HW123582   5.439   1.209   5.488
 7561SOL    HW223583   5.428   1.071   5.574
 7562SOL     OW23584   2.477   5.666   3.419
 7562SOL    HW123585   2.509   5.620   3.336
 7562SOL    HW223586   2.509   5.760   3.420
 7563SOL     OW23587   3.198   6.058   2.798
 7563SOL    HW123588   3.229   6.129   2.861
 7563SOL    HW223589   3.142   6.099   2.726
 7564SOL     OW23590   5.043   1.917   5.462
 7564SOL    HW123591   5.031   1.876   5.371
 7564SOL    HW223592   5.101   1.998   5.454
 7565SOL     OW23593   6.857   2.976   5.595
 7565SOL    HW123594   6.866   2.940   5.502
 7565SOL    HW223595   6.798   3.057   5.593
 7566SOL     OW23596   5.028   4.758   2.059
 7566SOL    HW123597   5.028   4.852   2.094
 7566SOL    HW223598   5.018   4.760   1.959
 7567SOL     OW23599   1.057   0.067   4.574
 7567SOL    HW123600   1.122   7.015   4.543
 7567SOL    HW223601   0.964   0.036   4.556
 7568SOL     OW23602   6.395   4.217   1.302
 7568SOL    HW123603   6.380   4.179   1.211
 7568SOL    HW223604   6.451   4.154   1.356
 7569SOL     OW23605   4.620   3.639   0.279
 7569SOL    HW123606   4.542   3.687   0.319
 7569SOL    HW223607   4.701   3.697   0.284
 7570SOL     OW23608   0.745   3.157   1.786
 7570SOL    HW123609   0.755   3.100   1.705
 7570SOL    HW223610   0.648   3.165   1.808
 7571SOL     OW23611   4.427   1.423   2.722
 7571SOL    HW123612   4.350   1.463   2.672
 7571SOL    HW223613   4.393   1.352   2.784
 7572SOL     OW23614   4.851   6.628   3.922
 7572SOL    HW123615   4.850   6.555   3.854
 7572SOL    HW223616   4.766   6.628   3.974
 7573SOL     OW23617   4.380   6.560   6.238
 7573SOL    HW123618   4.421   6.535   6.326
 7573SOL    HW223619   4.347   6.477   6.192
 7574SOL     OW23620   0.803   2.777   4.130
 7574SOL    HW123621   0.789   2.730   4.042
 7574SOL    HW223622   0.888   2.828   4.128
 7575SOL     OW23623   6.522   6.613   1.217
 7575SOL    HW123624   6.457   6.653   1.282
 7575SOL    HW223625   6.493   6.634   1.124
 7576SOL     OW23626   4.842   2.437   6.741
 7576SOL    HW123627   4.882   2.489   6.817
 7576SOL    HW223628   4.843   2.340   6.763
 7577SOL     OW23629   0.761   0.080   6.881
 7577SOL    HW123630   0.849   0.036   6.899
 7577SOL    HW223631   0.772   0.179   6.885
 7578SOL     OW23632   6.462   6.327   3.143
 7578SOL    HW123633   6.448   6.229   3.155
 7578SOL    HW223634   6.405   6.360   3.068
 7579SOL     OW23635   0.494   1.829   6.902
 7579SOL    HW123636   0.479   1.749   6.961
 7579SOL    HW223637   0.405   1.864   6.871
 7580SOL     OW23638   2.433   5.469   2.822
 7580SOL    HW123639   2.422   5.471   2.723
 7580SOL    HW223640   2.429   5.562   2.858
 7581SOL     OW23641   6.710   6.753   1.397
 7581SOL    HW123642   6.778   6.816   1.360
 7581SOL    HW223643   6.719   6.664   1.352
 7582SOL     OW23644   1.991   1.682   6.157
 7582SOL    HW123645   1.909   1.697   6.212
 7582SOL    HW223646   2.059   1.753   6.177
 7583SOL     OW23647   5.596   3.625   2.296
 7583SOL    HW123648   5.640   3.713   2.310
 7583SOL    HW223649   5.537   3.630   2.215
 7584SOL     OW23650   0.455   1.158   3.216
 7584SOL    HW123651   0.389   1.170   3.290
 7584SOL    HW223652   0.486   1.063   3.213
 7585SOL     OW23653   0.981   1.579   5.910
 7585SOL    HW123654   1.044   1.501   5.916
 7585SOL    HW223655   0.889   1.546   5.888
 7586SOL     OW23656   1.959   6.623   3.880
 7586SOL    HW123657   1.870   6.598   3.916
 7586SOL    HW223658   1.948   6.684   3.802
 7587SOL     OW23659   4.863   0.222   1.559
 7587SOL    HW123660   4.917   0.169   1.625
 7587SOL    HW223661   4.824   0.302   1.605
 7588SOL     OW23662   2.189   3.111   4.574
 7588SOL    HW123663   2.220   3.148   4.486
 7588SOL    HW223664   2.091   3.130   4.585
 7589SOL     OW23665   7.002   0.509   2.787
 7589SOL    HW123666   0.057   0.457   2.743
 7589SOL    HW223667   6.946   0.447   2.843
 7590SOL     OW23668   6.300   1.215   0.656
 7590SOL    HW123669   6.307   1.208   0.557
 7590SOL    HW223670   6.297   1.124   0.696
 7591SOL     OW23671   2.975   3.922   4.689
 7591SOL    HW123672   2.876   3.929   4.702
 7591SOL    HW223673   2.995   3.905   4.593
 7592SOL     OW23674   0.426   6.549   3.824
 7592SOL    HW123675   0.331   6.539   3.853
 7592SOL    HW223676   0.476   6.603   3.892
 7593SOL     OW23677   6.759   0.929   6.317
 7593SOL    HW123678   6.754   0.978   6.230
 7593SOL    HW223679   6.781   0.994   6.391
 7594SOL     OW23680   6.586   3.766   5.938
 7594SOL    HW123681   6.682   3.741   5.924
 7594SOL    HW223682   6.551   3.812   5.856
 7595SOL     OW23683   0.195   3.379   6.606
 7595SOL    HW123684   0.278   3.362   6.660
 7595SOL    HW223685   0.182   3.478   6.596
 7596SOL     OW23686   2.604   1.552   0.720
 7596SOL    HW123687   2.523   1.597   0.755
 7596SOL    HW223688   2.582   1.503   0.635
 7597SOL     OW23689   2.295   4.936   0.905
 7597SOL    HW123690   2.313   4.990   0.986
 7597SOL    HW223691   2.205   4.960   0.868
 7598SOL     OW23692   5.904   0.931   2.108
 7598SOL    HW123693   5.833   0.934   2.038
 7598SOL    HW223694   5.879   0.991   2.184
 7599SOL     OW23695   3.233   3.317   0.421
 7599SOL    HW123696   3.150   3.368   0.445
 7599SOL    HW223697   3.303   3.334   0.490
 7600SOL     OW23698   0.852   6.890   4.019
 7600SOL    HW123699   0.879   6.832   4.096
 7600SOL    HW223700   0.932   6.910   3.963
 7601SOL     OW23701   3.165   6.799   1.434
 7601SOL    HW123702   3.097   6.826   1.503
 7601SOL    HW223703   3.120   6.747   1.362
 7602SOL     OW23704   0.905   1.847   0.787
 7602SOL    HW123705   0.978   1.809   0.730
 7602SOL    HW223706   0.931   1.939   0.817
 7603SOL     OW23707   4.463   1.093   5.927
 7603SOL    HW123708   4.482   1.192   5.932
 7603SOL    HW223709   4.435   1.060   6.017
 7604SOL     OW23710   2.033   2.371   4.792
 7604SOL    HW123711   1.961   2.434   4.821
 7604SOL    HW223712   2.098   2.420   4.733
 7605SOL     OW23713   2.797   6.141   0.026
 7605SOL    HW123714   2.886   6.151   0.070
 7605SOL    HW223715   2.727   6.190   0.079
 7606SOL     OW23716   0.213   0.907   3.258
 7606SOL    HW123717   0.176   0.913   3.166
 7606SOL    HW223718   0.194   0.817   3.297
 7607SOL     OW23719   1.920   5.842   5.710
 7607SOL    HW123720   1.841   5.879   5.661
 7607SOL    HW223721   1.925   5.883   5.801
 7608SOL     OW23722   0.245   2.135   6.593
 7608SOL    HW123723   0.306   2.208   6.625
 7608SOL    HW223724   0.282   2.095   6.509
 7609SOL     OW23725   3.395   1.028   4.879
 7609SOL    HW123726   3.431   0.966   4.810
 7609SOL    HW223727   3.355   0.976   4.955
 7610SOL     OW23728   4.100   4.879   4.795
 7610SOL    HW123729   4.185   4.898   4.843
 7610SOL    HW223730   4.120   4.823   4.714
 7611SOL     OW23731   4.698   2.580   0.416
 7611SOL    HW123732   4.646   2.642   0.475
 7611SOL    HW223733   4.650   2.570   0.328
 7612SOL     OW23734   4.104   2.170   2.901
 7612SOL    HW123735   4.126   2.207   2.992
 7612SOL    HW223736   4.006   2.177   2.885
 7613SOL     OW23737   0.803   0.361   6.927
 7613SOL    HW123738   0.806   0.459   6.905
 7613SOL    HW223739   0.801   0.350   0.008
 7614SOL     OW23740   5.515   4.526   0.722
 7614SOL    HW123741   5.493   4.517   0.819
 7614SOL    HW223742   5.455   4.468   0.668
 7615SOL     OW23743   6.140   3.291   5.784
 7615SOL    HW123744   6.141   3.308   5.686
 7615SOL    HW223745   6.174   3.372   5.832
 7616SOL     OW23746   6.973   6.666   2.127
 7616SOL    HW123747   6.960   6.613   2.211
 7616SOL    HW223748   6.894   6.727   2.114
 7617SOL     OW23749   6.589   3.923   2.828
 7617SOL    HW123750   6.667   3.891   2.773
 7617SOL    HW223751   6.557   4.010   2.792
 7618SOL     OW23752   2.670   2.429   0.387
 7618SOL    HW123753   2.767   2.451   0.386
 7618SOL    HW223754   2.658   2.333   0.413
 7619SOL     OW23755   1.135   1.044   4.725
 7619SOL    HW123756   1.119   1.026   4.628
 7619SOL    HW223757   1.047   1.048   4.773
 7620SOL     OW23758   3.471   3.354   0.613
 7620SOL    HW123759   3.523   3.297   0.678
 7620SOL    HW223760   3.510   3.344   0.522
 7621SOL     OW23761   5.931   4.609   6.636
 7621SOL    HW123762   5.885   4.618   6.725
 7621SOL    HW223763   6.025   4.642   6.643
 7622SOL     OW23764   3.628   3.606   1.802
 7622SOL    HW123765   3.533   3.612   1.832
 7622SOL    HW223766   3.638   3.530   1.738
 7623SOL     OW23767   5.291   4.344   1.909
 7623SOL    HW123768   5.275   4.416   1.976
 7623SOL    HW223769   5.205   4.297   1.889
 7624SOL     OW23770   0.507   3.487   2.412
 7624SOL    HW123771   0.527   3.399   2.455
 7624SOL    HW223772   0.500   3.558   2.482
 7625SOL     OW23773   5.355   0.291   1.598
 7625SOL    HW123774   5.435   0.343   1.567
 7625SOL    HW223775   5.338   0.215   1.536
 7626SOL     OW23776   4.236   0.523   0.328
 7626SOL    HW123777   4.173   0.547   0.255
 7626SOL    HW223778   4.315   0.475   0.290
 7627SOL     OW23779   4.316   2.603   6.025
 7627SOL    HW123780   4.413   2.585   6.044
 7627SOL    HW223781   4.273   2.519   5.991
 7628SOL     OW23782   3.140   3.036   0.528
 7628SOL    HW123783   3.180   3.082   0.450
 7628SOL    HW223784   3.041   3.048   0.528
 7629SOL     OW23785   6.050   2.457   3.503
 7629SOL    HW123786   6.136   2.495   3.536
 7629SOL    HW223787   5.974   2.504   3.548
 7630SOL     OW23788   1.355   6.383   4.019
 7630SOL    HW123789   1.447   6.382   4.059
 7630SOL    HW223790   1.343   6.466   3.965
 7631SOL     OW23791   0.922   0.680   5.908
 7631SOL    HW123792   0.878   0.639   5.827
 7631SOL    HW223793   1.021   0.674   5.898
 7632SOL     OW23794   4.591   5.463   1.230
 7632SOL    HW123795   4.498   5.431   1.249
 7632SOL    HW223796   4.641   5.472   1.315
 7633SOL     OW23797   5.645   0.951   1.446
 7633SOL    HW123798   5.578   0.927   1.376
 7633SOL    HW223799   5.629   1.044   1.478
 7634SOL     OW23800   0.252   1.964   6.845
 7634SOL    HW123801   0.202   1.906   6.909
 7634SOL    HW223802   0.208   1.959   6.755
 7635SOL     OW23803   1.337   3.269   5.406
 7635SOL    HW123804   1.435   3.288   5.397
 7635SOL    HW223805   1.304   3.223   5.323
 7636SOL     OW23806   6.911   3.711   3.552
 7636SOL    HW123807   6.941   3.718   3.647
 7636SOL    HW223808   6.947   3.628   3.511
 7637SOL     OW23809   0.451   4.175   4.941
 7637SOL    HW123810   0.351   4.184   4.944
 7637SOL    HW223811   0.481   4.117   5.017
 7638SOL     OW23812   0.276   6.100   1.352
 7638SOL    HW123813   0.279   6.006   1.316
 7638SOL    HW223814   0.235   6.099   1.443
 7639SOL     OW23815   2.072   6.722   0.644
 7639SOL    HW123816   1.979   6.753   0.624
 7639SOL    HW223817   2.070   6.663   0.724
 7640SOL     OW23818   3.217   0.661   0.698
 7640SOL    HW123819   3.311   0.665   0.734
 7640SOL    HW223820   3.163   0.735   0.738
 7641SOL     OW23821   0.137   5.122   4.889
 7641SOL    HW123822   0.192   5.063   4.830
 7641SOL    HW223823   0.156   5.218   4.868
 7642SOL     OW23824   5.457   0.937   3.730
 7642SOL    HW123825   5.386   0.928   3.800
 7642SOL    HW223826   5.433   0.881   3.651
 7643SOL     OW23827   5.444   3.298   4.713
 7643SOL    HW123828   5.487   3.288   4.623
 7643SOL    HW223829   5.442   3.395   4.738
 7644SOL     OW23830   5.170   4.111   0.837
 7644SOL    HW123831   5.247   4.114   0.901
 7644SOL    HW223832   5.203   4.085   0.747
 7645SOL     OW23833   4.550   5.051   6.993
 7645SOL    HW123834   4.526   5.050   6.896
 7645SOL    HW223835   4.649   5.066   7.003
 7646SOL     OW23836   0.067   1.933   1.241
 7646SOL    HW123837   6.993   1.966   1.261
 7646SOL    HW223838   0.128   2.011   1.227
 7647SOL     OW23839   0.108   1.978   3.918
 7647SOL    HW123840   0.060   2.027   3.846
 7647SOL    HW223841   0.070   2.002   4.007
 7648SOL     OW23842   1.604   2.703   1.556
 7648SOL    HW123843   1.569   2.789   1.592
 7648SOL    HW223844   1.623   2.640   1.632
 7649SOL     OW23845   4.017   0.536   0.165
 7649SOL    HW123846   3.994   0.479   0.086
 7649SOL    HW223847   3.966   0.506   0.245
 7650SOL     OW23848   3.789   2.742   0.102
 7650SOL    HW123849   3.834   2.689   0.029
 7650SOL    HW223850   3.690   2.730   0.094
 7651SOL     OW23851   3.650   5.573   6.385
 7651SOL    HW123852   3.648   5.671   6.367
 7651SOL    HW223853   3.557   5.540   6.401
 7652SOL     OW23854   0.739   0.940   5.192
 7652SOL    HW123855   0.685   0.961   5.273
 7652SOL    HW223856   0.836   0.961   5.210
 7653SOL     OW23857   1.743   6.645   0.038
 7653SOL    HW123858   1.741   6.669   0.135
 7653SOL    HW223859   1.825   6.592   0.018
 7654SOL     OW23860   0.021   2.183   5.596
 7654SOL    HW123861   6.977   2.132   5.536
 7654SOL    HW223862   6.986   2.232   5.665
 7655SOL     OW23863   3.596   1.678   4.842
 7655SOL    HW123864   3.500   1.655   4.827
 7655SOL    HW223865   3.613   1.771   4.809
 7656SOL     OW23866   5.684   3.884   6.786
 7656SOL    HW123867   5.679   3.786   6.804
 7656SOL    HW223868   5.594   3.916   6.755
 7657SOL     OW23869   0.988   3.794   4.851
 7657SOL    HW123870   0.980   3.875   4.909
 7657SOL    HW223871   0.898   3.750   4.843
 7658SOL     OW23872   2.582   0.596   1.364
 7658SOL    HW123873   2.485   0.600   1.342
 7658SOL    HW223874   2.596   0.624   1.459
 7659SOL     OW23875   5.249   5.238   5.932
 7659SOL    HW123876   5.321   5.307   5.936
 7659SOL    HW223877   5.281   5.159   5.879
 7660SOL     OW23878   6.494   6.463   5.686
 7660SOL    HW123879   6.421   6.530   5.699
 7660SOL    HW223880   6.531   6.472   5.594
 7661SOL     OW23881   2.900   1.111   5.251
 7661SOL    HW123882   2.970   1.062   5.302
 7661SOL    HW223883   2.894   1.205   5.285
 7662SOL     OW23884   0.238   5.650   1.162
 7662SOL    HW123885   0.166   5.676   1.097
 7662SOL    HW223886   0.196   5.612   1.244
 7663SOL     OW23887   1.094   5.861   4.460
 7663SOL    HW123888   1.069   5.939   4.401
 7663SOL    HW223889   1.145   5.894   4.540
 7664SOL     OW23890   4.951   2.337   2.319
 7664SOL    HW123891   4.902   2.249   2.323
 7664SOL    HW223892   4.981   2.363   2.411
 7665SOL     OW23893   3.262   0.904   5.571
 7665SOL    HW123894   3.225   0.995   5.553
 7665SOL    HW223895   3.210   0.836   5.520
 7666SOL     OW23896   5.468   5.367   3.879
 7666SOL    HW123897   5.561   5.333   3.889
 7666SOL    HW223898   5.465   5.463   3.906
 7667SOL     OW23899   4.008   6.123   2.126
 7667SOL    HW123900   4.015   6.071   2.041
 7667SOL    HW223901   4.100   6.148   2.157
 7668SOL     OW23902   1.864   5.804   0.227
 7668SOL    HW123903   1.819   5.764   0.147
 7668SOL    HW223904   1.872   5.903   0.214
 7669SOL     OW23905   2.314   1.673   6.830
 7669SOL    HW123906   2.308   1.626   6.918
 7669SOL    HW223907   2.252   1.752   6.830
 7670SOL     OW23908   0.796   0.619   0.838
 7670SOL    HW123909   0.849   0.625   0.922
 7670SOL    HW223910   0.835   0.680   0.769
 7671SOL     OW23911   2.895   0.237   1.640
 7671SOL    HW123912   2.859   0.301   1.571
 7671SOL    HW223913   2.989   0.261   1.662
 7672SOL     OW23914   5.554   3.808   2.080
 7672SOL    HW123915   5.494   3.787   2.002
 7672SOL    HW223916   5.563   3.907   2.089
 7673SOL     OW23917   1.834   6.706   4.799
 7673SOL    HW123918   1.833   6.649   4.717
 7673SOL    HW223919   1.843   6.648   4.880
 7674SOL     OW23920   3.809   5.677   4.404
 7674SOL    HW123921   3.802   5.675   4.504
 7674SOL    HW223922   3.882   5.739   4.377
 7675SOL     OW23923   4.328   6.361   3.265
 7675SOL    HW123924   4.255   6.417   3.304
 7675SOL    HW223925   4.362   6.297   3.334
 7676SOL     OW23926   3.421   3.164   4.657
 7676SOL    HW123927   3.338   3.108   4.657
 7676SOL    HW223928   3.500   3.106   4.680
 7677SOL     OW23929   6.863   5.322   6.799
 7677SOL    HW123930   6.951   5.369   6.794
 7677SOL    HW223931   6.822   5.339   6.889
 7678SOL     OW23932   4.041   1.409   5.850
 7678SOL    HW123933   4.062   1.504   5.829
 7678SOL    HW223934   4.108   1.349   5.806
 7679SOL     OW23935   2.862   5.180   4.272
 7679SOL    HW123936   2.870   5.174   4.173
 7679SOL    HW223937   2.769   5.156   4.300
 7680SOL     OW23938   2.140   0.035   4.213
 7680SOL    HW123939   2.068   0.080   4.159
 7680SOL    HW223940   2.104   6.968   4.252
 7681SOL     OW23941   1.975   2.497   5.412
 7681SOL    HW123942   2.049   2.434   5.432
 7681SOL    HW223943   1.981   2.576   5.473
 7682SOL     OW23944   3.110   0.773   2.383
 7682SOL    HW123945   3.113   0.674   2.372
 7682SOL    HW223946   3.190   0.814   2.340
 7683SOL     OW23947   0.395   4.683   4.508
 7683SOL    HW123948   0.474   4.656   4.452
 7683SOL    HW223949   0.424   4.696   4.603
 7684SOL     OW23950   5.094   3.101   1.666
 7684SOL    HW123951   5.176   3.075   1.717
 7684SOL    HW223952   5.014   3.056   1.705
 7685SOL     OW23953   2.599   0.295   0.400
 7685SOL    HW123954   2.579   0.198   0.386
 7685SOL    HW223955   2.682   0.319   0.350
 7686SOL     OW23956   6.985   0.424   4.433
 7686SOL    HW123957   0.041   0.374   4.389
 7686SOL    HW223958   6.979   0.516   4.394
 7687SOL     OW23959   4.968   3.439   6.218
 7687SOL    HW123960   5.010   3.352   6.242
 7687SOL    HW223961   4.930   3.482   6.301
 7688SOL     OW23962   5.929   3.013   0.127
 7688SOL    HW123963   5.891   2.989   0.038
 7688SOL    HW223964   5.871   2.976   0.200
 7689SOL     OW23965   5.718   0.523   2.647
 7689SOL    HW123966   5.638   0.576   2.673
 7689SOL    HW223967   5.792   0.585   2.619
 7690SOL     OW23968   5.297   4.915   2.265
 7690SOL    HW123969   5.365   4.857   2.220
 7690SOL    HW223970   5.270   4.989   2.203
 7691SOL     OW23971   5.104   2.877   4.012
 7691SOL    HW123972   5.148   2.808   4.070
 7691SOL    HW223973   5.090   2.839   3.920
 7692SOL     OW23974   2.483   6.672   2.131
 7692SOL    HW123975   2.453   6.582   2.100
 7692SOL    HW223976   2.523   6.722   2.054
 7693SOL     OW23977   2.834   1.535   1.919
 7693SOL    HW123978   2.873   1.564   1.831
 7693SOL    HW223979   2.758   1.472   1.903
 7694SOL     OW23980   3.594   2.272   0.269
 7694SOL    HW123981   3.658   2.348   0.272
 7694SOL    HW223982   3.501   2.307   0.254
 7695SOL     OW23983   5.230   6.688   3.695
 7695SOL    HW123984   5.293   6.613   3.680
 7695SOL    HW223985   5.272   6.774   3.667
 7696SOL     OW23986   2.968   2.497   5.571
 7696SOL    HW123987   3.065   2.516   5.586
 7696SOL    HW223988   2.953   2.480   5.473
 7697SOL     OW23989   5.593   6.312   2.758
 7697SOL    HW123990   5.691   6.329   2.770
 7697SOL    HW223991   5.542   6.366   2.825
 7698SOL     OW23992   6.577   2.536   1.083
 7698SOL    HW123993   6.560   2.522   1.181
 7698SOL    HW223994   6.638   2.615   1.071
 7699SOL     OW23995   3.853   0.032   5.833
 7699SOL    HW123996   3.893   0.115   5.873
 7699SOL    HW223997   3.804   7.000   5.904
 7700SOL     OW23998   6.433   5.355   1.595
 7700SOL    HW123999   6.454   5.276   1.538
 7700SOL    HW224000   6.335   5.373   1.593
 7701SOL     OW24001   2.143   1.422   6.493
 7701SOL    HW124002   2.212   1.411   6.565
 7701SOL    HW224003   2.187   1.414   6.404
 7702SOL     OW24004   5.783   6.685   5.430
 7702SOL    HW124005   5.854   6.688   5.359
 7702SOL    HW224006   5.734   6.598   5.424
 7703SOL     OW24007   0.024   6.281   5.676
 7703SOL    HW124008   0.031   6.366   5.728
 7703SOL    HW224009   0.116   6.247   5.656
 7704SOL     OW24010   1.496   1.900   4.669
 7704SOL    HW124011   1.482   1.890   4.768
 7704SOL    HW224012   1.592   1.918   4.651
 7705SOL     OW24013   0.397   4.555   6.959
 7705SOL    HW124014   0.330   4.542   0.014
 7705SOL    HW224015   0.371   4.635   6.905
 7706SOL     OW24016   3.003   3.795   2.426
 7706SOL    HW124017   2.923   3.812   2.368
 7706SOL    HW224018   3.040   3.704   2.407
 7707SOL     OW24019   0.067   4.244   6.368
 7707SOL    HW124020   6.996   4.283   6.388
 7707SOL    HW224021   0.113   4.218   6.453
 7708SOL     OW24022   0.790   6.723   4.647
 7708SOL    HW124023   0.732   6.695   4.724
 7708SOL    HW224024   0.853   6.648   4.624
 7709SOL     OW24025   6.533   4.385   0.863
 7709SOL    HW124026   6.543   4.452   0.937
 7709SOL    HW224027   6.597   4.407   0.790
 7710SOL     OW24028   5.964   3.041   2.066
 7710SOL    HW124029   6.028   3.117   2.057
 7710SOL    HW224030   5.998   2.963   2.013
 7711SOL     OW24031   0.847   4.400   3.775
 7711SOL    HW124032   0.817   4.323   3.719
 7711SOL    HW224033   0.881   4.366   3.863
 7712SOL     OW24034   0.655   4.806   4.292
 7712SOL    HW124035   0.592   4.859   4.235
 7712SOL    HW224036   0.626   4.710   4.293
 7713SOL     OW24037   0.701   5.077   0.688
 7713SOL    HW124038   0.655   4.991   0.713
 7713SOL    HW224039   0.646   5.154   0.719
 7714SOL     OW24040   6.099   1.814   5.475
 7714SOL    HW124041   6.060   1.757   5.403
 7714SOL    HW224042   6.183   1.858   5.441
 7715SOL     OW24043   3.893   3.219   6.610
 7715SOL    HW124044   3.796   3.232   6.631
 7715SOL    HW224045   3.926   3.136   6.655
 7716SOL     OW24046   1.106   0.366   6.259
 7716SOL    HW124047   1.055   0.352   6.175
 7716SOL    HW224048   1.060   0.435   6.315
 7717SOL     OW24049   0.638   1.729   5.987
 7717SOL    HW124050   0.565   1.663   6.006
 7717SOL    HW224051   0.676   1.712   5.896
 7718SOL     OW24052   0.112   3.264   2.711
 7718SOL    HW124053   0.081   3.211   2.632
 7718SOL    HW224054   0.078   3.222   2.795
 7719SOL     OW24055   2.111   5.878   5.054
 7719SOL    HW124056   2.135   5.974   5.064
 7719SOL    HW224057   2.069   5.845   5.138
 7720SOL     OW24058   4.691   1.549   6.796
 7720SOL    HW124059   4.614   1.524   6.855
 7720SOL    HW224060   4.732   1.634   6.829
 7721SOL     OW24061   5.706   5.611   2.142
 7721SOL    HW124062   5.803   5.608   2.117
 7721SOL    HW224063   5.673   5.518   2.157
 7722SOL     OW24064   0.829   5.800   4.445
 7722SOL    HW124065   0.925   5.831   4.445
 7722SOL    HW224066   0.772   5.868   4.491
 7723SOL     OW24067   4.049   4.212   6.895
 7723SOL    HW124068   3.960   4.256   6.904
 7723SOL    HW224069   4.053   4.162   6.809
 7724SOL     OW24070   1.084   3.700   0.251
 7724SOL    HW124071   1.137   3.627   0.294
 7724SOL    HW224072   1.102   3.699   0.152
 7725SOL     OW24073   5.744   3.821   4.451
 7725SOL    HW124074   5.829   3.836   4.502
 7725SOL    HW224075   5.707   3.731   4.472
 7726SOL     OW24076   2.171   3.115   0.130
 7726SOL    HW124077   2.179   3.096   0.228
 7726SOL    HW224078   2.096   3.180   0.115
 7727SOL     OW24079   5.580   0.777   2.718
 7727SOL    HW124080   5.506   0.765   2.784
 7727SOL    HW224081   5.660   0.816   2.765
 7728SOL     OW24082   2.123   3.548   4.626
 7728SOL    HW124083   2.147   3.530   4.722
 7728SOL    HW224084   2.117   3.462   4.576
 7729SOL     OW24085   0.026   1.342   2.849
 7729SOL    HW124086   6.997   1.313   2.932
 7729SOL    HW224087   6.996   1.307   2.768
 7730SOL     OW24088   5.909   4.580   5.528
 7730SOL    HW124089   5.949   4.546   5.443
 7730SOL    HW224090   5.815   4.611   5.511
 7731SOL     OW24091   6.699   0.326   6.067
 7731SOL    HW124092   6.748   0.310   6.153
 7731SOL    HW224093   6.641   0.248   6.046
 7732SOL     OW24094   4.862   1.003   0.226
 7732SOL    HW124095   4.804   1.041   0.154
 7732SOL    HW224096   4.902   0.917   0.194
 7733SOL     OW24097   6.790   5.570   1.070
 7733SOL    HW124098   6.783   5.580   1.170
 7733SOL    HW224099   6.760   5.654   1.026
 7734SOL     OW24100   4.070   3.766   3.269
 7734SOL    HW124101   4.140   3.832   3.243
 7734SOL    HW224102   4.082   3.682   3.216
 7735SOL     OW24103   1.160   5.939   1.022
 7735SOL    HW124104   1.111   5.969   1.104
 7735SOL    HW224105   1.097   5.936   0.944
 7736SOL     OW24106   1.591   1.831   0.734
 7736SOL    HW124107   1.669   1.860   0.789
 7736SOL    HW224108   1.584   1.731   0.735
 7737SOL     OW24109   4.314   4.286   6.718
 7737SOL    HW124110   4.242   4.290   6.788
 7737SOL    HW224111   4.396   4.245   6.757
 7738SOL     OW24112   1.535   1.404   5.562
 7738SOL    HW124113   1.557   1.360   5.474
 7738SOL    HW224114   1.447   1.451   5.555
 7739SOL     OW24115   1.753   2.829   0.561
 7739SOL    HW124116   1.753   2.754   0.626
 7739SOL    HW224117   1.843   2.839   0.520
 7740SOL     OW24118   2.717   0.735   4.003
 7740SOL    HW124119   2.644   0.676   4.038
 7740SOL    HW224120   2.737   0.806   4.069
 7741SOL     OW24121   6.584   4.109   6.028
 7741SOL    HW124122   6.667   4.140   6.074
 7741SOL    HW224123   6.504   4.134   6.083
 7742SOL     OW24124   4.215   2.215   3.624
 7742SOL    HW124125   4.291   2.236   3.562
 7742SOL    HW224126   4.223   2.120   3.656
 7743SOL     OW24127   3.544   1.291   6.301
 7743SOL    HW124128   3.556   1.365   6.366
 7743SOL    HW224129   3.459   1.304   6.250
 7744SOL     OW24130   0.615   6.636   4.828
 7744SOL    HW124131   0.588   6.711   4.888
 7744SOL    HW224132   0.577   6.550   4.863
 7745SOL     OW24133   3.100   0.045   0.806
 7745SOL    HW124134   3.072   0.109   0.877
 7745SOL    HW224135   3.018   0.012   0.757
 7746SOL     OW24136   0.083   6.297   1.078
 7746SOL    HW124137   0.070   6.379   1.022
 7746SOL    HW224138   0.172   6.256   1.058
 7747SOL     OW24139   0.470   5.539   1.256
 7747SOL    HW124140   0.401   5.599   1.215
 7747SOL    HW224141   0.526   5.591   1.320
 7748SOL     OW24142   4.661   0.934   5.806
 7748SOL    HW124143   4.650   0.944   5.707
 7748SOL    HW224144   4.601   0.999   5.853
 7749SOL     OW24145   3.287   3.252   3.021
 7749SOL    HW124146   3.212   3.244   2.956
 7749SOL    HW224147   3.313   3.349   3.030
 7750SOL     OW24148   4.956   5.212   6.190
 7750SOL    HW124149   5.042   5.162   6.178
 7750SOL    HW224150   4.909   5.178   6.272
 7751SOL     OW24151   7.001   1.174   4.695
 7751SOL    HW124152   6.991   1.121   4.611
 7751SOL    HW224153   6.963   1.123   4.772
 7752SOL     OW24154   6.660   4.820   5.113
 7752SOL    HW124155   6.745   4.822   5.165
 7752SOL    HW224156   6.623   4.912   5.104
 7753SOL     OW24157   3.039   0.748   4.945
 7753SOL    HW124158   3.085   0.685   4.883
 7753SOL    HW224159   2.940   0.740   4.932
 7754SOL     OW24160   5.988   0.965   1.033
 7754SOL    HW124161   5.960   0.917   1.116
 7754SOL    HW224162   6.087   0.979   1.034
 7755SOL     OW24163   1.617   6.163   5.433
 7755SOL    HW124164   1.609   6.261   5.413
 7755SOL    HW224165   1.628   6.113   5.347
 7756SOL     OW24166   4.160   5.784   3.156
 7756SOL    HW124167   4.256   5.811   3.153
 7756SOL    HW224168   4.152   5.688   3.127
 7757SOL     OW24169   3.514   0.524   6.057
 7757SOL    HW124170   3.458   0.577   5.993
 7757SOL    HW224171   3.494   0.551   6.151
 7758SOL     OW24172   2.623   2.587   6.373
 7758SOL    HW124173   2.653   2.672   6.331
 7758SOL    HW224174   2.527   2.571   6.352
 7759SOL     OW24175   1.641   0.744   4.722
 7759SOL    HW124176   1.571   0.814   4.714
 7759SOL    HW224177   1.680   0.725   4.631
 7760SOL     OW24178   4.960   2.188   3.202
 7760SOL    HW124179   4.953   2.287   3.195
 7760SOL    HW224180   4.964   2.148   3.110
 7761SOL     OW24181   4.598   0.928   6.905
 7761SOL    HW124182   4.520   0.948   6.964
 7761SOL    HW224183   4.579   0.845   6.853
 7762SOL     OW24184   1.564   2.534   0.230
 7762SOL    HW124185   1.570   2.623   0.274
 7762SOL    HW224186   1.470   2.499   0.239
 7763SOL     OW24187   2.350   2.550   1.502
 7763SOL    HW124188   2.341   2.492   1.583
 7763SOL    HW224189   2.298   2.635   1.516
 7764SOL     OW24190   3.612   3.419   2.423
 7764SOL    HW124191   3.601   3.321   2.439
 7764SOL    HW224192   3.540   3.452   2.362
 7765SOL     OW24193   6.714   1.515   2.099
 7765SOL    HW124194   6.625   1.527   2.144
 7765SOL    HW224195   6.707   1.546   2.004
 7766SOL     OW24196   6.892   3.021   6.715
 7766SOL    HW124197   6.804   3.045   6.674
 7766SOL    HW224198   6.966   3.050   6.656
 7767SOL     OW24199   5.550   4.137   5.277
 7767SOL    HW124200   5.618   4.196   5.233
 7767SOL    HW224201   5.569   4.131   5.375
 7768SOL     OW24202   4.023   5.268   1.501
 7768SOL    HW124203   4.061   5.288   1.411
 7768SOL    HW224204   3.952   5.334   1.523
 7769SOL     OW24205   5.832   2.197   2.896
 7769SOL    HW124206   5.746   2.146   2.896
 7769SOL    HW224207   5.855   2.222   2.802
 7770SOL     OW24208   3.631   6.112   1.254
 7770SOL    HW124209   3.540   6.094   1.290
 7770SOL    HW224210   3.687   6.157   1.324
 7771SOL     OW24211   1.821   1.291   4.099
 7771SOL    HW124212   1.865   1.333   4.178
 7771SOL    HW224213   1.856   1.332   4.015
 7772SOL     OW24214   5.945   0.700   5.286
 7772SOL    HW124215   5.864   0.712   5.344
 7772SOL    HW224216   5.928   0.627   5.220
 7773SOL     OW24217   3.817   4.343   6.191
 7773SOL    HW124218   3.758   4.359   6.271
 7773SOL    HW224219   3.795   4.410   6.120
 7774SOL     OW24220   5.135   1.930   6.598
 7774SOL    HW124221   5.082   1.848   6.621
 7774SOL    HW224222   5.216   1.935   6.657
 7775SOL     OW24223   1.580   6.732   2.204
 7775SOL    HW124224   1.531   6.692   2.282
 7775SOL    HW224225   1.625   6.816   2.233
 7776SOL     OW24226   3.413   3.706   0.937
 7776SOL    HW124227   3.427   3.612   0.970
 7776SOL    HW224228   3.475   3.768   0.985
 7777SOL     OW24229   1.071   6.982   6.379
 7777SOL    HW124230   0.996   6.935   6.424
 7777SOL    HW224231   1.066   0.062   6.399
 7778SOL     OW24232   5.070   1.731   1.624
 7778SOL    HW124233   4.995   1.718   1.690
 7778SOL    HW224234   5.041   1.795   1.553
 7779SOL     OW24235   4.040   2.697   0.381
 7779SOL    HW124236   4.096   2.774   0.351
 7779SOL    HW224237   4.094   2.638   0.442
 7780SOL     OW24238   1.026   0.185   4.840
 7780SOL    HW124239   1.040   0.138   4.753
 7780SOL    HW224240   1.100   0.250   4.854
 7781SOL     OW24241   1.850   4.711   5.314
 7781SOL    HW124242   1.784   4.785   5.304
 7781SOL    HW224243   1.911   4.709   5.235
 7782SOL     OW24244   4.602   4.433   0.202
 7782SOL    HW124245   4.656   4.465   0.279
 7782SOL    HW224246   4.651   4.360   0.154
 7783SOL     OW24247   2.245   6.160   7.004
 7783SOL    HW124248   2.335   6.205   6.996
 7783SOL    HW224249   2.216   6.159   0.081
 7784SOL     OW24250   6.643   3.528   0.687
 7784SOL    HW124251   6.609   3.440   0.722
 7784SOL    HW224252   6.566   3.591   0.678
 7785SOL     OW24253   1.563   5.719   6.450
 7785SOL    HW124254   1.594   5.645   6.390
 7785SOL    HW224255   1.608   5.710   6.539
 7786SOL     OW24256   3.460   4.174   5.003
 7786SOL    HW124257   3.485   4.140   4.913
 7786SOL    HW224258   3.375   4.226   4.997
 7787SOL     OW24259   2.931   2.491   5.279
 7787SOL    HW124260   3.018   2.467   5.237
 7787SOL    HW224261   2.871   2.412   5.279
 7788SOL     OW24262   0.275   1.894   0.891
 7788SOL    HW124263   0.362   1.908   0.939
 7788SOL    HW224264   0.218   1.830   0.943
 7789SOL     OW24265   1.933   0.055   1.551
 7789SOL    HW124266   1.999   0.121   1.515
 7789SOL    HW224267   1.953   0.035   1.647
 7790SOL     OW24268   6.685   3.563   2.480
 7790SOL    HW124269   6.682   3.625   2.401
 7790SOL    HW224270   6.781   3.540   2.500
 7791SOL     OW24271   0.087   5.326   5.650
 7791SOL    HW124272   7.012   5.358   5.632
 7791SOL    HW224273   0.121   5.278   5.570
 7792SOL     OW24274   1.980   5.630   6.632
 7792SOL    HW124275   1.974   5.537   6.669
 7792SOL    HW224276   2.045   5.632   6.556
 7793SOL     OW24277   2.058   1.133   6.364
 7793SOL    HW124278   2.150   1.126   6.327
 7793SOL    HW224279   2.062   1.136   6.464
 7794SOL     OW24280   5.271   5.428   2.836
 7794SOL    HW124281   5.180   5.464   2.856
 7794SOL    HW224282   5.310   5.387   2.919
 7795SOL     OW24283   1.405   4.223   6.657
 7795SOL    HW124284   1.498   4.218   6.622
 7795SOL    HW224285   1.362   4.307   6.626
 7796SOL     OW24286   3.941   3.965   4.863
 7796SOL    HW124287   3.933   4.038   4.931
 7796SOL    HW224288   3.979   3.883   4.906
 7797SOL     OW24289   1.114   0.109   3.004
 7797SOL    HW124290   1.099   0.114   3.103
 7797SOL    HW224291   1.110   0.014   2.974
 7798SOL     OW24292   3.870   6.248   6.072
 7798SOL    HW124293   3.926   6.306   6.132
 7798SOL    HW224294   3.861   6.291   5.982
 7799SOL     OW24295   6.173   5.475   1.432
 7799SOL    HW124296   6.116   5.557   1.436
 7799SOL    HW224297   6.262   5.499   1.391
 7800SOL     OW24298   0.798   6.377   2.017
 7800SOL    HW124299   0.884   6.389   1.967
 7800SOL    HW224300   0.751   6.295   1.983
 7801SOL     OW24301   4.163   2.095   5.203
 7801SOL    HW124302   4.240   2.099   5.140
 7801SOL    HW224303   4.078   2.078   5.152
 7802SOL     OW24304   5.471   2.240   0.249
 7802SOL    HW124305   5.424   2.192   0.174
 7802SOL    HW224306   5.560   2.198   0.265
 7803SOL     OW24307   3.403   3.629   5.652
 7803SOL    HW124308   3.376   3.687   5.729
 7803SOL    HW224309   3.337   3.638   5.578
 7804SOL     OW24310   4.953   0.878   6.411
 7804SOL    HW124311   4.888   0.925   6.350
 7804SOL    HW224312   4.996   0.802   6.362
 7805SOL     OW24313   5.026   2.760   1.482
 7805SOL    HW124314   4.936   2.782   1.446
 7805SOL    HW224315   5.094   2.819   1.439
 7806SOL     OW24316   4.870   3.294   6.929
 7806SOL    HW124317   4.776   3.262   6.942
 7806SOL    HW224318   4.925   3.220   6.892
 7807SOL     OW24319   0.396   3.001   0.289
 7807SOL    HW124320   0.422   2.931   0.223
 7807SOL    HW224321   0.476   3.059   0.309
 7808SOL     OW24322   0.646   0.432   5.274
 7808SOL    HW124323   0.692   0.447   5.361
 7808SOL    HW224324   0.633   0.521   5.228
 7809SOL     OW24325   1.007   5.567   5.814
 7809SOL    HW124326   1.063   5.509   5.874
 7809SOL    HW224327   0.911   5.556   5.838
 7810SOL     OW24328   2.584   1.307   0.071
 7810SOL    HW124329   2.502   1.255   0.046
 7810SOL    HW224330   2.570   1.404   0.051
 7811SOL     OW24331   0.307   4.619   4.873
 7811SOL    HW124332   0.237   4.584   4.935
 7811SOL    HW224333   0.324   4.715   4.893
 7812SOL     OW24334   0.512   2.007   3.481
 7812SOL    HW124335   0.429   1.970   3.523
 7812SOL    HW224336   0.553   2.074   3.543
 7813SOL     OW24337   6.341   2.434   1.098
 7813SOL    HW124338   6.303   2.516   1.056
 7813SOL    HW224339   6.441   2.436   1.091
 7814SOL     OW24340   1.923   3.135   4.718
 7814SOL    HW124341   1.856   3.061   4.708
 7814SOL    HW224342   2.010   3.098   4.749
 7815SOL     OW24343   0.164   1.756   5.385
 7815SOL    HW124344   0.217   1.818   5.327
 7815SOL    HW224345   0.178   1.662   5.354
 7816SOL     OW24346   0.761   4.819   5.133
 7816SOL    HW124347   0.791   4.800   5.040
 7816SOL    HW224348   0.665   4.794   5.143
 7817SOL     OW24349   5.486   3.287   5.848
 7817SOL    HW124350   5.402   3.340   5.855
 7817SOL    HW224351   5.510   3.274   5.752
 7818SOL     OW24352   5.032   4.213   3.101
 7818SOL    HW124353   5.097   4.137   3.098
 7818SOL    HW224354   4.939   4.178   3.093
 7819SOL     OW24355   1.070   1.122   0.939
 7819SOL    HW124356   1.152   1.153   0.987
 7819SOL    HW224357   0.989   1.160   0.984
 7820SOL     OW24358   2.760   0.289   6.448
 7820SOL    HW124359   2.706   0.229   6.508
 7820SOL    HW224360   2.858   0.274   6.465
 7821SOL     OW24361   3.212   5.216   0.682
 7821SOL    HW124362   3.226   5.162   0.599
 7821SOL    HW224363   3.205   5.313   0.659
 7822SOL     OW24364   1.810   6.507   5.819
 7822SOL    HW124365   1.841   6.418   5.785
 7822SOL    HW224366   1.888   6.567   5.832
 7823SOL     OW24367   1.926   3.828   5.026
 7823SOL    HW124368   2.002   3.861   4.969
 7823SOL    HW224369   1.871   3.764   4.974
 7824SOL     OW24370   0.757   3.453   5.227
 7824SOL    HW124371   0.746   3.438   5.325
 7824SOL    HW224372   0.839   3.404   5.196
 7825SOL     OW24373   2.972   0.915   0.292
 7825SOL    HW124374   2.908   0.846   0.328
 7825SOL    HW224375   3.066   0.886   0.310
 7826SOL     OW24376   0.786   3.672   5.540
 7826SOL    HW124377   0.824   3.580   5.533
 7826SOL    HW224378   0.692   3.672   5.504
 7827SOL     OW24379   6.150   5.145   4.337
 7827SOL    HW124380   6.066   5.193   4.312
 7827SOL    HW224381   6.204   5.126   4.255
 7828SOL     OW24382   0.977   4.940   6.582
 7828SOL    HW124383   0.948   4.869   6.519
 7828SOL    HW224384   0.912   5.017   6.578
 7829SOL     OW24385   4.367   4.731   0.701
 7829SOL    HW124386   4.466   4.722   0.699
 7829SOL    HW224387   4.332   4.691   0.786
 7830SOL     OW24388   2.274   5.328   3.499
 7830SOL    HW124389   2.194   5.359   3.448
 7830SOL    HW224390   2.307   5.403   3.557
 7831SOL     OW24391   1.668   0.337   5.669
 7831SOL    HW124392   1.691   0.371   5.578
 7831SOL    HW224393   1.752   0.306   5.715
 7832SOL     OW24394   6.666   1.004   5.522
 7832SOL    HW124395   6.576   1.047   5.518
 7832SOL    HW224396   6.665   0.919   5.470
 7833SOL     OW24397   0.559   0.396   2.698
 7833SOL    HW124398   0.649   0.355   2.680
 7833SOL    HW224399   0.560   0.492   2.673
 7834SOL     OW24400   6.677   3.444   4.776
 7834SOL    HW124401   6.593   3.494   4.758
 7834SOL    HW224402   6.740   3.503   4.827
 7835SOL     OW24403   4.345   2.110   5.522
 7835SOL    HW124404   4.366   2.194   5.473
 7835SOL    HW224405   4.272   2.127   5.588
 7836SOL     OW24406   3.057   3.802   4.920
 7836SOL    HW124407   3.054   3.879   4.985
 7836SOL    HW224408   3.062   3.838   4.827
 7837SOL     OW24409   1.031   5.641   6.580
 7837SOL    HW124410   1.063   5.648   6.674
 7837SOL    HW224411   1.110   5.641   6.518
 7838SOL     OW24412   4.330   5.169   1.938
 7838SOL    HW124413   4.398   5.234   1.970
 7838SOL    HW224414   4.280   5.208   1.861
 7839SOL     OW24415   6.378   4.427   4.345
 7839SOL    HW124416   6.308   4.446   4.414
 7839SOL    HW224417   6.427   4.343   4.369
 7840SOL     OW24418   2.289   2.812   3.729
 7840SOL    HW124419   2.204   2.844   3.686
 7840SOL    HW224420   2.325   2.735   3.676
 7841SOL     OW24421   4.168   1.895   5.952
 7841SOL    HW124422   4.084   1.844   5.936
 7841SOL    HW224423   4.223   1.848   6.021
 7842SOL     OW24424   1.237   0.600   0.948
 7842SOL    HW124425   1.252   0.565   0.855
 7842SOL    HW224426   1.190   0.689   0.943
 7843SOL     OW24427   6.922   6.908   1.764
 7843SOL    HW124428   6.845   6.849   1.742
 7843SOL    HW224429   6.889   6.990   1.811
 7844SOL     OW24430   4.290   0.386   2.544
 7844SOL    HW124431   4.286   0.345   2.635
 7844SOL    HW224432   4.233   0.333   2.481
 7845SOL     OW24433   6.021   3.137   1.346
 7845SOL    HW124434   6.042   3.211   1.409
 7845SOL    HW224435   5.929   3.150   1.308
 7846SOL     OW24436   1.031   1.008   0.663
 7846SOL    HW124437   1.114   1.023   0.609
 7846SOL    HW224438   1.011   1.090   0.717
 7847SOL     OW24439   5.427   4.349   6.084
 7847SOL    HW124440   5.439   4.266   6.137
 7847SOL    HW224441   5.458   4.335   5.990
 7848SOL     OW24442   4.119   4.604   0.121
 7848SOL    HW124443   4.038   4.564   0.164
 7848SOL    HW224444   4.201   4.568   0.163
 7849SOL     OW24445   4.194   5.059   6.611
 7849SOL    HW124446   4.238   5.027   6.695
 7849SOL    HW224447   4.095   5.048   6.619
 7850SOL     OW24448   0.087   0.614   3.558
 7850SOL    HW124449   0.156   0.638   3.490
 7850SOL    HW224450   0.126   0.551   3.624
 7851SOL     OW24451   0.354   5.311   1.154
 7851SOL    HW124452   0.413   5.232   1.171
 7851SOL    HW224453   0.389   5.390   1.205
 7852SOL     OW24454   1.056   3.223   5.818
 7852SOL    HW124455   1.138   3.206   5.765
 7852SOL    HW224456   1.081   3.237   5.914
 7853SOL     OW24457   4.131   3.005   1.668
 7853SOL    HW124458   4.120   2.906   1.671
 7853SOL    HW224459   4.056   3.046   1.616
 7854SOL     OW24460   4.330   1.291   1.404
 7854SOL    HW124461   4.377   1.368   1.447
 7854SOL    HW224462   4.308   1.222   1.473
 7855SOL     OW24463   5.248   6.451   4.084
 7855SOL    HW124464   5.198   6.529   4.048
 7855SOL    HW224465   5.344   6.477   4.099
 7856SOL     OW24466   1.887   6.262   5.769
 7856SOL    HW124467   1.843   6.180   5.805
 7856SOL    HW224468   1.922   6.244   5.678
 7857SOL     OW24469   6.642   4.826   0.703
 7857SOL    HW124470   6.545   4.839   0.683
 7857SOL    HW224471   6.695   4.900   0.661
 7858SOL     OW24472   0.230   4.033   6.022
 7858SOL    HW124473   0.169   3.982   5.963
 7858SOL    HW224474   0.297   3.971   6.063
 7859SOL     OW24475   4.873   2.005   0.771
 7859SOL    HW124476   4.831   2.053   0.848
 7859SOL    HW224477   4.873   1.907   0.788
 7860SOL     OW24478   2.234   1.491   3.494
 7860SOL    HW124479   2.292   1.514   3.572
 7860SOL    HW224480   2.288   1.493   3.410
 7861SOL     OW24481   1.640   5.980   1.008
 7861SOL    HW124482   1.639   6.080   1.009
 7861SOL    HW224483   1.728   5.947   1.039
 7862SOL     OW24484   1.459   6.740   0.312
 7862SOL    HW124485   1.413   6.656   0.342
 7862SOL    HW224486   1.551   6.717   0.278
 7863SOL     OW24487   1.283   4.271   4.311
 7863SOL    HW124488   1.277   4.233   4.403
 7863SOL    HW224489   1.197   4.316   4.289
 7864SOL     OW24490   2.833   5.948   5.160
 7864SOL    HW124491   2.782   5.957   5.245
 7864SOL    HW224492   2.929   5.928   5.180
 7865SOL     OW24493   5.886   4.755   3.781
 7865SOL    HW124494   5.877   4.727   3.876
 7865SOL    HW224495   5.934   4.683   3.730
 7866SOL     OW24496   1.204   0.902   5.658
 7866SOL    HW124497   1.238   0.988   5.696
 7866SOL    HW224498   1.229   0.826   5.718
 7867SOL     OW24499   3.858   4.852   3.863
 7867SOL    HW124500   3.765   4.887   3.852
 7867SOL    HW224501   3.919   4.927   3.886
 7868SOL     OW24502   3.460   6.437   1.683
 7868SOL    HW124503   3.548   6.463   1.643
 7868SOL    HW224504   3.386   6.471   1.625
 7869SOL     OW24505   5.613   4.684   0.209
 7869SOL    HW124506   5.637   4.650   0.300
 7869SOL    HW224507   5.621   4.610   0.142
 7870SOL     OW24508   6.116   6.910   3.655
 7870SOL    HW124509   6.144   6.872   3.567
 7870SOL    HW224510   6.184   6.976   3.686
 7871SOL     OW24511   4.583   1.475   0.731
 7871SOL    HW124512   4.651   1.413   0.691
 7871SOL    HW224513   4.510   1.421   0.773
 7872SOL     OW24514   0.183   5.020   2.831
 7872SOL    HW124515   0.168   4.935   2.781
 7872SOL    HW224516   0.208   5.093   2.766
 7873SOL     OW24517   4.570   2.107   6.576
 7873SOL    HW124518   4.563   2.017   6.618
 7873SOL    HW224519   4.546   2.178   6.642
 7874SOL     OW24520   6.237   2.760   6.874
 7874SOL    HW124521   6.330   2.739   6.905
 7874SOL    HW224522   6.175   2.766   6.952
 7875SOL     OW24523   6.542   4.711   6.668
 7875SOL    HW124524   6.468   4.651   6.699
 7875SOL    HW224525   6.522   4.805   6.695
 7876SOL     OW24526   1.523   6.174   3.267
 7876SOL    HW124527   1.494   6.238   3.339
 7876SOL    HW224528   1.592   6.217   3.210
 7877SOL     OW24529   0.041   3.137   2.455
 7877SOL    HW124530   7.012   3.057   2.491
 7877SOL    HW224531   0.116   3.108   2.395
 7878SOL     OW24532   3.841   6.869   2.520
 7878SOL    HW124533   3.790   6.870   2.434
 7878SOL    HW224534   3.907   6.944   2.520
 7879SOL     OW24535   3.026   5.586   2.689
 7879SOL    HW124536   2.947   5.532   2.717
 7879SOL    HW224537   3.045   5.656   2.759
 7880SOL     OW24538   0.971   4.919   2.190
 7880SOL    HW124539   1.016   5.006   2.174
 7880SOL    HW224540   0.989   4.856   2.115
 7881SOL     OW24541   4.882   3.242   4.010
 7881SOL    HW124542   4.945   3.319   4.001
 7881SOL    HW224543   4.879   3.191   3.925
 7882SOL     OW24544   0.003   2.558   6.699
 7882SOL    HW124545   7.017   2.621   6.777
 7882SOL    HW224546   0.037   2.607   6.619
 7883SOL     OW24547   0.716   6.713   4.362
 7883SOL    HW124548   0.692   6.616   4.351
 7883SOL    HW224549   0.773   6.723   4.443
 7884SOL     OW24550   1.431   2.830   4.166
 7884SOL    HW124551   1.347   2.806   4.215
 7884SOL    HW224552   1.510   2.801   4.220
 7885SOL     OW24553   7.006   6.070   6.854
 7885SOL    HW124554   6.930   6.091   6.793
 7885SOL    HW224555   6.998   5.976   6.888
 7886SOL     OW24556   4.845   3.871   0.670
 7886SOL    HW124557   4.837   3.954   0.616
 7886SOL    HW224558   4.756   3.848   0.709
 7887SOL     OW24559   4.615   2.562   6.119
 7887SOL    HW124560   4.650   2.501   6.190
 7887SOL    HW224561   4.685   2.629   6.095
 7888SOL     OW24562   4.468   6.020   4.576
 7888SOL    HW124563   4.404   6.036   4.501
 7888SOL    HW224564   4.444   6.078   4.654
 7889SOL     OW24565   6.710   5.042   3.161
 7889SOL    HW124566   6.735   4.945   3.159
 7889SOL    HW224567   6.776   5.095   3.109
 7890SOL     OW24568   1.632   3.352   2.809
 7890SOL    HW124569   1.655   3.276   2.749
 7890SOL    HW224570   1.695   3.354   2.887
 7891SOL     OW24571   0.925   4.478   2.965
 7891SOL    HW124572   0.939   4.394   2.914
 7891SOL    HW224573   1.007   4.499   3.019
 7892SOL     OW24574   2.420   1.968   4.720
 7892SOL    HW124575   2.420   2.008   4.628
 7892SOL    HW224576   2.435   1.870   4.714
 7893SOL     OW24577   5.606   6.566   0.932
 7893SOL    HW124578   5.571   6.640   0.990
 7893SOL    HW224579   5.532   6.534   0.872
 7894SOL     OW24580   2.599   0.163   1.919
 7894SOL    HW124581   2.611   0.262   1.911
 7894SOL    HW224582   2.598   0.137   2.015
 7895SOL     OW24583   0.524   1.191   2.949
 7895SOL    HW124584   0.601   1.254   2.941
 7895SOL    HW224585   0.494   1.187   3.044
 7896SOL     OW24586   3.804   1.604   6.240
 7896SOL    HW124587   3.746   1.554   6.176
 7896SOL    HW224588   3.791   1.703   6.227
 7897SOL     OW24589   2.994   3.204   6.458
 7897SOL    HW124590   2.931   3.132   6.489
 7897SOL    HW224591   2.947   3.292   6.462
 7898SOL     OW24592   5.345   1.330   4.195
 7898SOL    HW124593   5.426   1.273   4.206
 7898SOL    HW224594   5.326   1.379   4.280
 7899SOL     OW24595   4.613   0.941   2.166
 7899SOL    HW124596   4.625   0.997   2.248
 7899SOL    HW224597   4.694   0.883   2.153
 7900SOL     OW24598   1.002   5.733   1.434
 7900SOL    HW124599   1.098   5.757   1.448
 7900SOL    HW224600   0.995   5.653   1.374
 7901SOL     OW24601   5.789   5.068   1.066
 7901SOL    HW124602   5.745   5.136   1.007
 7901SOL    HW224603   5.788   4.980   1.020
 7902SOL     OW24604   5.211   4.833   5.722
 7902SOL    HW124605   5.172   4.923   5.739
 7902SOL    HW224606   5.178   4.799   5.634
 7903SOL     OW24607   0.172   3.075   1.273
 7903SOL    HW124608   0.102   3.046   1.207
 7903SOL    HW224609   0.210   3.163   1.245
 7904SOL     OW24610   6.014   2.528   2.513
 7904SOL    HW124611   6.095   2.470   2.514
 7904SOL    HW224612   5.952   2.501   2.587
 7905SOL     OW24613   1.646   1.615   2.043
 7905SOL    HW124614   1.695   1.652   2.121
 7905SOL    HW224615   1.666   1.670   1.962
 7906SOL     OW24616   0.706   4.500   6.615
 7906SOL    HW124617   0.735   4.425   6.556
 7906SOL    HW224618   0.670   4.463   6.701
 7907SOL     OW24619   0.040   2.815   2.968
 7907SOL    HW124620   6.961   2.819   2.989
 7907SOL    HW224621   0.055   2.840   2.873
 7908SOL     OW24622   0.406   1.689   2.795
 7908SOL    HW124623   0.459   1.613   2.832
 7908SOL    HW224624   0.413   1.768   2.857
 7909SOL     OW24625   4.311   6.624   4.826
 7909SOL    HW124626   4.370   6.545   4.808
 7909SOL    HW224627   4.301   6.636   4.924
 7910SOL     OW24628   6.638   2.542   5.510
 7910SOL    HW124629   6.659   2.451   5.546
 7910SOL    HW224630   6.539   2.553   5.502
 7911SOL     OW24631   0.079   5.453   6.749
 7911SOL    HW124632   0.114   5.488   6.662
 7911SOL    HW224633   0.153   5.451   6.816
 7912SOL     OW24634   6.937   5.226   5.333
 7912SOL    HW124635   0.015   5.204   5.350
 7912SOL    HW224636   6.884   5.208   5.416
 7913SOL     OW24637   1.417   6.305   6.389
 7913SOL    HW124638   1.390   6.277   6.297
 7913SOL    HW224639   1.349   6.273   6.455
 7914SOL     OW24640   6.148   4.647   0.575
 7914SOL    HW124641   6.076   4.699   0.621
 7914SOL    HW224642   6.237   4.690   0.593
 7915SOL     OW24643   2.704   1.007   2.641
 7915SOL    HW124644   2.793   0.970   2.667
 7915SOL    HW224645   2.632   0.947   2.676
 7916SOL     OW24646   4.344   3.908   5.641
 7916SOL    HW124647   4.373   4.003   5.652
 7916SOL    HW224648   4.335   3.886   5.544
 7917SOL     OW24649   4.004   3.752   3.525
 7917SOL    HW124650   4.031   3.734   3.430
 7917SOL    HW224651   3.995   3.664   3.573
 7918SOL     OW24652   5.982   1.943   2.726
 7918SOL    HW124653   5.936   1.874   2.782
 7918SOL    HW224654   6.076   1.953   2.757
 7919SOL     OW24655   5.502   4.075   2.090
 7919SOL    HW124656   5.594   4.107   2.066
 7919SOL    HW224657   5.454   4.047   2.008
 7920SOL     OW24658   0.307   6.676   1.814
 7920SOL    HW124659   0.218   6.666   1.860
 7920SOL    HW224660   0.356   6.589   1.817
 7921SOL     OW24661   2.782   5.731   1.813
 7921SOL    HW124662   2.867   5.681   1.825
 7921SOL    HW224663   2.786   5.816   1.866
 7922SOL     OW24664   0.814   4.505   5.272
 7922SOL    HW124665   0.736   4.555   5.309
 7922SOL    HW224666   0.800   4.407   5.284
 7923SOL     OW24667   1.306   1.920   3.017
 7923SOL    HW124668   1.358   1.859   2.957
 7923SOL    HW224669   1.216   1.935   2.977
 7924SOL     OW24670   2.049   0.802   3.474
 7924SOL    HW124671   2.041   0.737   3.550
 7924SOL    HW224672   2.145   0.815   3.452
 7925SOL     OW24673   0.808   1.218   6.971
 7925SOL    HW124674   0.840   1.174   6.887
 7925SOL    HW224675   0.807   1.317   6.959
 7926SOL     OW24676   3.203   0.366   2.019
 7926SOL    HW124677   3.198   0.461   2.050
 7926SOL    HW224678   3.299   0.340   2.007
 7927SOL     OW24679   4.360   4.625   4.546
 7927SOL    HW124680   4.307   4.592   4.624
 7927SOL    HW224681   4.450   4.655   4.577
 7928SOL     OW24682   0.576   4.400   6.852
 7928SOL    HW124683   0.606   4.338   6.924
 7928SOL    HW224684   0.519   4.472   6.891
 7929SOL     OW24685   3.556   4.073   4.763
 7929SOL    HW124686   3.472   4.060   4.710
 7929SOL    HW224687   3.634   4.079   4.702
 7930SOL     OW24688   4.286   6.854   2.948
 7930SOL    HW124689   4.264   6.762   2.981
 7930SOL    HW224690   4.353   6.895   3.010
 7931SOL     OW24691   2.906   3.473   6.099
 7931SOL    HW124692   2.862   3.539   6.039
 7931SOL    HW224693   2.850   3.390   6.104
 7932SOL     OW24694   3.080   0.198   0.496
 7932SOL    HW124695   3.088   0.288   0.540
 7932SOL    HW224696   3.170   0.156   0.490
 7933SOL     OW24697   1.913   1.518   6.591
 7933SOL    HW124698   1.995   1.464   6.568
 7933SOL    HW224699   1.911   1.600   6.534
 7934SOL     OW24700   4.203   2.397   5.884
 7934SOL    HW124701   4.211   2.469   5.815
 7934SOL    HW224702   4.235   2.311   5.846
 7935SOL     OW24703   4.776   5.831   2.117
 7935SOL    HW124704   4.688   5.792   2.091
 7935SOL    HW224705   4.811   5.888   2.042
 7936SOL     OW24706   4.214   6.391   2.033
 7936SOL    HW124707   4.246   6.328   2.104
 7936SOL    HW224708   4.266   6.376   1.949
 7937SOL     OW24709   6.252   1.790   6.072
 7937SOL    HW124710   6.225   1.788   6.168
 7937SOL    HW224711   6.339   1.742   6.061
 7938SOL     OW24712   6.511   5.147   4.317
 7938SOL    HW124713   6.558   5.059   4.304
 7938SOL    HW224714   6.579   5.220   4.325
 7939SOL     OW24715   0.484   6.231   4.099
 7939SOL    HW124716   0.533   6.146   4.116
 7939SOL    HW224717   0.544   6.295   4.053
 7940SOL     OW24718   1.416   5.907   0.753
 7940SOL    HW124719   1.406   5.992   0.806
 7940SOL    HW224720   1.396   5.829   0.812
 7941SOL     OW24721   0.570   0.521   1.052
 7941SOL    HW124722   0.666   0.511   1.025
 7941SOL    HW224723   0.558   0.485   1.145
 7942SOL     OW24724   1.210   0.699   1.771
 7942SOL    HW124725   1.219   0.799   1.770
 7942SOL    HW224726   1.301   0.658   1.765
 7943SOL     OW24727   6.265   2.107   0.230
 7943SOL    HW124728   6.269   2.146   0.322
 7943SOL    HW224729   6.233   2.012   0.236
 7944SOL     OW24730   6.834   3.828   1.922
 7944SOL    HW124731   6.910   3.765   1.904
 7944SOL    HW224732   6.850   3.874   2.009
 7945SOL     OW24733   5.715   0.653   0.487
 7945SOL    HW124734   5.796   0.644   0.545
 7945SOL    HW224735   5.654   0.721   0.526
 7946SOL     OW24736   2.357   1.775   5.676
 7946SOL    HW124737   2.260   1.790   5.698
 7946SOL    HW224738   2.414   1.833   5.734
 7947SOL     OW24739   4.238   5.474   6.235
 7947SOL    HW124740   4.184   5.443   6.314
 7947SOL    HW224741   4.218   5.570   6.217
 7948SOL     OW24742   0.828   5.242   6.199
 7948SOL    HW124743   0.795   5.294   6.121
 7948SOL    HW224744   0.920   5.208   6.180
 7949SOL     OW24745   7.010   3.964   3.903
 7949SOL    HW124746   6.966   3.876   3.885
 7949SOL    HW224747   6.941   4.033   3.922
 7950SOL     OW24748   3.730   4.927   4.118
 7950SOL    HW124749   3.772   4.845   4.078
 7950SOL    HW224750   3.732   4.921   4.217
 7951SOL     OW24751   2.251   3.602   0.793
 7951SOL    HW124752   2.192   3.662   0.848
 7951SOL    HW224753   2.346   3.617   0.818
 7952SOL     OW24754   5.605   4.780   0.583
 7952SOL    HW124755   5.597   4.856   0.648
 7952SOL    HW224756   5.552   4.702   0.617
 7953SOL     OW24757   1.723   3.629   2.680
 7953SOL    HW124758   1.670   3.544   2.687
 7953SOL    HW224759   1.731   3.671   2.771
 7954SOL     OW24760   5.244   4.961   4.377
 7954SOL    HW124761   5.277   5.034   4.318
 7954SOL    HW224762   5.216   4.999   4.465
 7955SOL     OW24763   2.269   6.368   6.220
 7955SOL    HW124764   2.185   6.359   6.273
 7955SOL    HW224765   2.247   6.393   6.126
 7956SOL     OW24766   5.924   6.363   2.744
 7956SOL    HW124767   5.902   6.455   2.712
 7956SOL    HW224768   5.964   6.310   2.669
 7957SOL     OW24769   1.396   2.520   1.295
 7957SOL    HW124770   1.425   2.585   1.225
 7957SOL    HW224771   1.437   2.431   1.276
 7958SOL     OW24772   2.690   5.899   3.391
 7958SOL    HW124773   2.788   5.918   3.384
 7958SOL    HW224774   2.638   5.983   3.375
 7959SOL     OW24775   5.454   5.381   1.850
 7959SOL    HW124776   5.515   5.336   1.916
 7959SOL    HW224777   5.430   5.472   1.884
 7960SOL     OW24778   1.277   2.801   1.715
 7960SOL    HW124779   1.245   2.893   1.740
 7960SOL    HW224780   1.356   2.777   1.771
 7961SOL     OW24781   0.722   6.028   0.259
 7961SOL    HW124782   0.739   5.962   0.332
 7961SOL    HW224783   0.628   6.062   0.265
 7962SOL     OW24784   1.534   6.537   2.585
 7962SOL    HW124785   1.563   6.443   2.565
 7962SOL    HW224786   1.475   6.570   2.510
 7963SOL     OW24787   0.996   6.443   5.186
 7963SOL    HW124788   1.007   6.499   5.268
 7963SOL    HW224789   0.919   6.381   5.199
 7964SOL     OW24790   6.440   5.692   3.586
 7964SOL    HW124791   6.398   5.766   3.535
 7964SOL    HW224792   6.479   5.729   3.671
 7965SOL     OW24793   4.142   1.757   0.606
 7965SOL    HW124794   4.063   1.696   0.601
 7965SOL    HW224795   4.219   1.716   0.558
 7966SOL     OW24796   0.112   0.130   3.589
 7966SOL    HW124797   0.130   0.171   3.500
 7966SOL    HW224798   0.128   0.198   3.661
 7967SOL     OW24799   3.277   0.557   3.671
 7967SOL    HW124800   3.244   0.636   3.723
 7967SOL    HW224801   3.209   0.531   3.602
 7968SOL     OW24802   2.621   1.012   1.289
 7968SOL    HW124803   2.567   0.957   1.352
 7968SOL    HW224804   2.585   1.002   1.196
 7969SOL     OW24805   3.598   1.449   3.529
 7969SOL    HW124806   3.514   1.421   3.484
 7969SOL    HW224807   3.639   1.370   3.574
 7970SOL     OW24808   0.622   5.068   3.511
 7970SOL    HW124809   0.636   4.986   3.566
 7970SOL    HW224810   0.605   5.043   3.416
 7971SOL     OW24811   3.374   1.836   2.094
 7971SOL    HW124812   3.307   1.909   2.101
 7971SOL    HW224813   3.334   1.758   2.046
 7972SOL     OW24814   5.981   5.671   1.449
 7972SOL    HW124815   5.975   5.770   1.437
 7972SOL    HW224816   5.893   5.629   1.431
 7973SOL     OW24817   4.985   1.809   2.942
 7973SOL    HW124818   4.926   1.794   2.863
 7973SOL    HW224819   4.929   1.815   3.025
 7974SOL     OW24820   5.511   6.088   4.221
 7974SOL    HW124821   5.446   6.082   4.145
 7974SOL    HW224822   5.537   6.184   4.235
 7975SOL     OW24823   1.636   1.535   2.698
 7975SOL    HW124824   1.574   1.612   2.684
 7975SOL    HW224825   1.585   1.450   2.692
 7976SOL     OW24826   1.549   0.044   6.378
 7976SOL    HW124827   1.528   0.141   6.392
 7976SOL    HW224828   1.581   0.004   6.463
 7977SOL     OW24829   5.426   6.308   1.131
 7977SOL    HW124830   5.392   6.351   1.047
 7977SOL    HW224831   5.352   6.261   1.177
 7978SOL     OW24832   3.437   1.452   5.607
 7978SOL    HW124833   3.445   1.477   5.510
 7978SOL    HW224834   3.454   1.533   5.663
 7979SOL     OW24835   4.846   6.267   4.072
 7979SOL    HW124836   4.908   6.243   3.998
 7979SOL    HW224837   4.753   6.240   4.047
 7980SOL     OW24838   2.764   0.660   2.528
 7980SOL    HW124839   2.863   0.657   2.543
 7980SOL    HW224840   2.742   0.738   2.469
 7981SOL     OW24841   1.019   5.862   2.439
 7981SOL    HW124842   1.022   5.897   2.533
 7981SOL    HW224843   1.107   5.877   2.395
 7982SOL     OW24844   0.019   2.457   0.431
 7982SOL    HW124845   6.981   2.513   0.491
 7982SOL    HW224846   0.113   2.491   0.430
 7983SOL     OW24847   5.059   2.482   1.583
 7983SOL    HW124848   5.042   2.568   1.535
 7983SOL    HW224849   5.124   2.427   1.531
 7984SOL     OW24850   6.850   0.768   0.635
 7984SOL    HW124851   6.827   0.862   0.660
 7984SOL    HW224852   6.949   0.755   0.644
 7985SOL     OW24853   1.258   1.244   1.154
 7985SOL    HW124854   1.250   1.153   1.195
 7985SOL    HW224855   1.201   1.309   1.205
 7986SOL     OW24856   4.820   3.812   0.303
 7986SOL    HW124857   4.896   3.867   0.269
 7986SOL    HW224858   4.849   3.761   0.384
 7987SOL     OW24859   0.926   2.906   4.760
 7987SOL    HW124860   0.901   2.811   4.777
 7987SOL    HW224861   1.019   2.923   4.794
 7988SOL     OW24862   2.884   1.361   5.330
 7988SOL    HW124863   2.936   1.401   5.254
 7988SOL    HW224864   2.886   1.424   5.408
 7989SOL     OW24865   3.546   3.598   6.513
 7989SOL    HW124866   3.515   3.618   6.420
 7989SOL    HW224867   3.475   3.546   6.562
 7990SOL     OW24868   2.047   2.782   4.849
 7990SOL    HW124869   1.959   2.822   4.877
 7990SOL    HW224870   2.102   2.763   4.931
 7991SOL     OW24871   2.507   2.545   6.059
 7991SOL    HW124872   2.578   2.550   5.988
 7991SOL    HW224873   2.431   2.605   6.034
 7992SOL     OW24874   2.979   1.460   1.139
 7992SOL    HW124875   2.992   1.508   1.053
 7992SOL    HW224876   2.953   1.365   1.120
 7993SOL     OW24877   2.984   5.639   6.254
 7993SOL    HW124878   3.053   5.594   6.197
 7993SOL    HW224879   2.905   5.579   6.264
 7994SOL     OW24880   6.078   0.766   4.400
 7994SOL    HW124881   6.010   0.726   4.462
 7994SOL    HW224882   6.093   0.703   4.323
 7995SOL     OW24883   4.057   5.417   2.881
 7995SOL    HW124884   4.118   5.446   2.807
 7995SOL    HW224885   4.100   5.341   2.931
 7996SOL     OW24886   4.384   1.445   5.355
 7996SOL    HW124887   4.442   1.507   5.302
 7996SOL    HW224888   4.442   1.386   5.412
 7997SOL     OW24889   5.365   2.425   1.201
 7997SOL    HW124890   5.453   2.468   1.179
 7997SOL    HW224891   5.350   2.348   1.140
 7998SOL     OW24892   6.527   4.578   6.402
 7998SOL    HW124893   6.538   4.480   6.414
 7998SOL    HW224894   6.532   4.623   6.491
 7999SOL     OW24895   2.440   2.063   5.321
 7999SOL    HW124896   2.390   2.003   5.259
 7999SOL    HW224897   2.535   2.033   5.327
 8000SOL     OW24898   5.014   0.477   5.882
 8000SOL    HW124899   5.108   0.511   5.892
 8000SOL    HW224900   5.003   0.435   5.792
 8001SOL     OW24901   2.457   5.301   1.068
 8001SOL    HW124902   2.543   5.303   1.016
 8001SOL    HW224903   2.385   5.344   1.014
 8002SOL     OW24904   4.920   2.422   5.497
 8002SOL    HW124905   4.848   2.492   5.500
 8002SOL    HW224906   4.883   2.340   5.454
 8003SOL     OW24907   4.400   5.461   3.443
 8003SOL    HW124908   4.419   5.447   3.345
 8003SOL    HW224909   4.333   5.534   3.454
 8004SOL     OW24910   1.439   4.138   3.560
 8004SOL    HW124911   1.459   4.090   3.645
 8004SOL    HW224912   1.486   4.092   3.484
 8005SOL     OW24913   2.118   0.417   2.738
 8005SOL    HW124914   2.040   0.479   2.727
 8005SOL    HW224915   2.186   0.437   2.667
 8006SOL     OW24916   3.915   6.385   1.711
 8006SOL    HW124917   3.903   6.358   1.806
 8006SOL    HW224918   3.988   6.454   1.705
 8007SOL     OW24919   0.229   1.129   3.919
 8007SOL    HW124920   0.279   1.214   3.938
 8007SOL    HW224921   0.193   1.132   3.826
 8008SOL     OW24922   6.048   5.313   1.006
 8008SOL    HW124923   6.115   5.239   1.005
 8008SOL    HW224924   6.095   5.401   1.016
 8009SOL     OW24925   0.094   6.665   3.661
 8009SOL    HW124926   0.180   6.706   3.631
 8009SOL    HW224927   0.018   6.720   3.628
 8010SOL     OW24928   2.120   2.437   6.858
 8010SOL    HW124929   2.024   2.439   6.830
 8010SOL    HW224930   2.151   2.530   6.877
 8011SOL     OW24931   2.403   2.850   0.284
 8011SOL    HW124932   2.374   2.865   0.190
 8011SOL    HW224933   2.477   2.782   0.285
 8012SOL     OW24934   2.682   6.590   2.966
 8012SOL    HW124935   2.770   6.553   2.935
 8012SOL    HW224936   2.617   6.588   2.890
 8013SOL     OW24937   6.059   5.394   4.803
 8013SOL    HW124938   6.129   5.401   4.732
 8013SOL    HW224939   5.973   5.365   4.763
 8014SOL     OW24940   2.472   6.761   6.431
 8014SOL    HW124941   2.453   6.664   6.419
 8014SOL    HW224942   2.439   6.790   6.521
 8015SOL     OW24943   1.458   2.248   6.794
 8015SOL    HW124944   1.499   2.225   6.883
 8015SOL    HW224945   1.431   2.163   6.748
 8016SOL     OW24946   4.448   6.112   2.026
 8016SOL    HW124947   4.476   6.119   1.931
 8016SOL    HW224948   4.529   6.103   2.084
 8017SOL     OW24949   6.760   3.493   5.708
 8017SOL    HW124950   6.820   3.422   5.670
 8017SOL    HW224951   6.682   3.451   5.753
 8018SOL     OW24952   5.578   3.120   4.096
 8018SOL    HW124953   5.552   3.026   4.115
 8018SOL    HW224954   5.497   3.178   4.097
 8019SOL     OW24955   2.997   5.133   1.026
 8019SOL    HW124956   3.086   5.096   0.998
 8019SOL    HW224957   2.924   5.082   0.980
 8020SOL     OW24958   5.579   6.796   6.527
 8020SOL    HW124959   5.648   6.863   6.555
 8020SOL    HW224960   5.515   6.781   6.603
 8021SOL     OW24961   6.819   1.024   0.677
 8021SOL    HW124962   6.719   1.025   0.673
 8021SOL    HW224963   6.849   1.045   0.770
 8022SOL     OW24964   4.529   5.040   3.547
 8022SOL    HW124965   4.615   5.030   3.596
 8022SOL    HW224966   4.457   4.989   3.594
 8023SOL     OW24967   6.889   5.975   3.131
 8023SOL    HW124968   6.907   6.063   3.086
 8023SOL    HW224969   6.951   5.963   3.208
 8024SOL     OW24970   4.479   5.589   4.946
 8024SOL    HW124971   4.395   5.643   4.944
 8024SOL    HW224972   4.459   5.494   4.922
 8025SOL     OW24973   3.480   5.973   0.686
 8025SOL    HW124974   3.460   6.071   0.696
 8025SOL    HW224975   3.400   5.920   0.715
 8026SOL     OW24976   2.434   2.253   6.462
 8026SOL    HW124977   2.359   2.318   6.449
 8026SOL    HW224978   2.397   2.163   6.485
 8027SOL     OW24979   4.547   3.424   5.629
 8027SOL    HW124980   4.496   3.506   5.656
 8027SOL    HW224981   4.602   3.445   5.547
 8028SOL     OW24982   5.709   4.973   0.035
 8028SOL    HW124983   5.633   4.910   0.020
 8028SOL    HW224984   5.681   5.065   0.010
 8029SOL     OW24985   2.763   4.694   6.846
 8029SOL    HW124986   2.700   4.744   6.904
 8029SOL    HW224987   2.789   4.608   6.890
 8030SOL     OW24988   6.099   3.277   0.839
 8030SOL    HW124989   6.031   3.225   0.788
 8030SOL    HW224990   6.188   3.233   0.831
 8031SOL     OW24991   3.672   6.570   1.135
 8031SOL    HW124992   3.753   6.519   1.163
 8031SOL    HW224993   3.699   6.652   1.085
 8032SOL     OW24994   4.650   3.992   5.495
 8032SOL    HW124995   4.595   4.075   5.486
 8032SOL    HW224996   4.595   3.913   5.467
 8033SOL     OW24997   5.866   1.962   1.515
 8033SOL    HW124998   5.858   1.963   1.415
 8033SOL    HW224999   5.948   2.011   1.543
 8034SOL     OW25000   6.559   2.006   5.810
 8034SOL    HW125001   6.548   1.907   5.811
 8034SOL    HW225002   6.597   2.034   5.722
 8035SOL     OW25003   5.634   5.831   6.089
 8035SOL    HW125004   5.653   5.929   6.094
 8035SOL    HW225005   5.549   5.811   6.137
 8036SOL     OW25006   1.298   4.633   1.921
 8036SOL    HW125007   1.206   4.654   1.887
 8036SOL    HW225008   1.308   4.667   2.014
 8037SOL     OW25009   2.075   3.247   1.943
 8037SOL    HW125010   2.141   3.319   1.966
 8037SOL    HW225011   2.077   3.230   1.845
 8038SOL     OW25012   5.859   1.609   4.307
 8038SOL    HW125013   5.797   1.686   4.327
 8038SOL    HW225014   5.891   1.617   4.213
 8039SOL     OW25015   2.440   6.038   3.878
 8039SOL    HW125016   2.530   5.995   3.887
 8039SOL    HW225017   2.404   6.060   3.969
 8040SOL     OW25018   5.599   5.900   0.134
 8040SOL    HW125019   5.610   5.969   0.062
 8040SOL    HW225020   5.503   5.872   0.139
 8041SOL     OW25021   3.262   1.905   1.432
 8041SOL    HW125022   3.186   1.935   1.490
 8041SOL    HW225023   3.228   1.847   1.359
 8042SOL     OW25024   2.560   5.197   0.253
 8042SOL    HW125025   2.556   5.214   0.154
 8042SOL    HW225026   2.586   5.102   0.270
 8043SOL     OW25027   2.918   0.545   1.633
 8043SOL    HW125028   2.900   0.507   1.542
 8043SOL    HW225029   3.003   0.597   1.632
 8044SOL     OW25030   2.880   3.316   2.194
 8044SOL    HW125031   2.802   3.334   2.134
 8044SOL    HW225032   2.934   3.241   2.157
 8045SOL     OW25033   6.458   2.821   3.894
 8045SOL    HW125034   6.424   2.785   3.807
 8045SOL    HW225035   6.556   2.805   3.901
 8046SOL     OW25036   0.180   5.221   5.418
 8046SOL    HW125037   0.221   5.147   5.365
 8046SOL    HW225038   0.205   5.309   5.377
 8047SOL     OW25039   2.691   0.144   4.763
 8047SOL    HW125040   2.597   0.160   4.794
 8047SOL    HW225041   2.752   0.142   4.842
 8048SOL     OW25042   5.892   0.835   5.616
 8048SOL    HW125043   5.967   0.853   5.552
 8048SOL    HW225044   5.818   0.787   5.568
 8049SOL     OW25045   1.637   7.007   0.500
 8049SOL    HW125046   1.571   6.932   0.512
 8049SOL    HW225047   1.588   0.075   0.493
 8050SOL     OW25048   0.148   3.201   1.511
 8050SOL    HW125049   0.148   3.298   1.490
 8050SOL    HW225050   0.158   3.148   1.426
 8051SOL     OW25051   2.596   1.393   3.602
 8051SOL    HW125052   2.529   1.453   3.646
 8051SOL    HW225053   2.661   1.361   3.671
 8052SOL     OW25054   3.533   1.822   3.069
 8052SOL    HW125055   3.610   1.800   3.129
 8052SOL    HW225056   3.537   1.919   3.044
 8053SOL     OW25057   4.230   3.452   1.709
 8053SOL    HW125058   4.188   3.500   1.786
 8053SOL    HW225059   4.258   3.361   1.738
 8054SOL     OW25060   4.685   6.500   4.486
 8054SOL    HW125061   4.706   6.495   4.388
 8054SOL    HW225062   4.702   6.593   4.519
 8055SOL     OW25063   0.713   0.173   5.458
 8055SOL    HW125064   0.741   0.088   5.503
 8055SOL    HW225065   0.761   0.183   5.371
 8056SOL     OW25066   4.360   1.224   2.494
 8056SOL    HW125067   4.412   1.286   2.552
 8056SOL    HW225068   4.271   1.205   2.536
 8057SOL     OW25069   3.493   0.096   3.887
 8057SOL    HW125070   3.432   0.160   3.840
 8057SOL    HW225071   3.438   0.030   3.938
 8058SOL     OW25072   2.149   6.576   3.492
 8058SOL    HW125073   2.212   6.651   3.509
 8058SOL    HW225074   2.157   6.545   3.398
 8059SOL     OW25075   2.087   1.284   3.845
 8059SOL    HW125076   2.045   1.359   3.896
 8059SOL    HW225077   2.186   1.283   3.863
 8060SOL     OW25078   0.637   2.728   5.084
 8060SOL    HW125079   0.718   2.716   5.142
 8060SOL    HW225080   0.626   2.825   5.063
 8061SOL     OW25081   6.321   6.510   2.837
 8061SOL    HW125082   6.267   6.474   2.914
 8061SOL    HW225083   6.399   6.450   2.820
 8062SOL     OW25084   1.393   3.728   1.927
 8062SOL    HW125085   1.427   3.777   2.006
 8062SOL    HW225086   1.441   3.641   1.918
 8063SOL     OW25087   2.353   2.943   6.138
 8063SOL    HW125088   2.360   3.024   6.080
 8063SOL    HW225089   2.443   2.920   6.174
 8064SOL     OW25090   6.839   2.267   5.776
 8064SOL    HW125091   6.758   2.281   5.719
 8064SOL    HW225092   6.819   2.198   5.846
 8065SOL     OW25093   4.606   0.003   6.458
 8065SOL    HW125094   4.561   0.002   6.368
 8065SOL    HW225095   4.550   0.053   6.523
 8066SOL     OW25096   2.150   6.771   1.554
 8066SOL    HW125097   2.086   6.835   1.597
 8066SOL    HW225098   2.190   6.711   1.624
 8067SOL     OW25099   4.751   2.482   2.196
 8067SOL    HW125100   4.812   2.427   2.254
 8067SOL    HW225101   4.692   2.537   2.254
 8068SOL     OW25102   6.598   4.899   4.271
 8068SOL    HW125103   6.688   4.890   4.312
 8068SOL    HW225104   6.559   4.808   4.256
 8069SOL     OW25105   1.197   6.529   2.099
 8069SOL    HW125106   1.142   6.612   2.112
 8069SOL    HW225107   1.214   6.487   2.188
 8070SOL     OW25108   3.719   0.295   2.719
 8070SOL    HW125109   3.702   0.203   2.754
 8070SOL    HW225110   3.808   0.297   2.673
 8071SOL     OW25111   4.963   5.667   6.926
 8071SOL    HW125112   4.866   5.686   6.935
 8071SOL    HW225113   4.976   5.593   6.860
 8072SOL     OW25114   4.179   0.679   3.095
 8072SOL    HW125115   4.117   0.611   3.055
 8072SOL    HW225116   4.189   0.756   3.032
 8073SOL     OW25117   5.069   0.699   6.180
 8073SOL    HW125118   5.032   0.769   6.120
 8073SOL    HW225119   5.126   0.637   6.127
 8074SOL     OW25120   2.961   4.051   6.733
 8074SOL    HW125121   2.900   4.019   6.661
 8074SOL    HW225122   3.054   4.019   6.716
 8075SOL     OW25123   5.883   2.584   3.686
 8075SOL    HW125124   5.957   2.621   3.743
 8075SOL    HW225125   5.815   2.655   3.669
 8076SOL     OW25126   4.825   3.161   6.501
 8076SOL    HW125127   4.862   3.141   6.410
 8076SOL    HW225128   4.738   3.210   6.492
 8077SOL     OW25129   0.916   0.129   0.362
 8077SOL    HW125130   1.008   0.167   0.359
 8077SOL    HW225131   0.869   0.160   0.445
 8078SOL     OW25132   5.687   2.778   1.104
 8078SOL    HW125133   5.730   2.818   1.186
 8078SOL    HW225134   5.651   2.687   1.126
 8079SOL     OW25135   1.096   2.506   1.409
 8079SOL    HW125136   1.122   2.420   1.453
 8079SOL    HW225137   1.177   2.551   1.372
 8080SOL     OW25138   3.947   5.052   0.222
 8080SOL    HW125139   4.009   4.989   0.268
 8080SOL    HW225140   3.996   5.135   0.196
 8081SOL     OW25141   5.928   2.412   4.827
 8081SOL    HW125142   5.981   2.477   4.773
 8081SOL    HW225143   5.836   2.403   4.787
 8082SOL     OW25144   5.920   3.599   4.582
 8082SOL    HW125145   5.914   3.647   4.670
 8082SOL    HW225146   6.015   3.597   4.551
 8083SOL     OW25147   6.083   1.862   5.088
 8083SOL    HW125148   6.027   1.822   5.161
 8083SOL    HW225149   6.025   1.920   5.030
 8084SOL     OW25150   6.381   0.144   0.497
 8084SOL    HW125151   6.399   0.059   0.447
 8084SOL    HW225152   6.322   0.124   0.575
 8085SOL     OW25153   5.346   2.595   0.865
 8085SOL    HW125154   5.364   2.688   0.833
 8085SOL    HW225155   5.271   2.597   0.931
 8086SOL     OW25156   2.430   5.605   5.912
 8086SOL    HW125157   2.527   5.620   5.930
 8086SOL    HW225158   2.419   5.535   5.841
 8087SOL     OW25159   2.650   4.045   0.663
 8087SOL    HW125160   2.688   4.111   0.727
 8087SOL    HW225161   2.569   4.002   0.703
 8088SOL     OW25162   4.441   0.995   3.142
 8088SOL    HW125163   4.450   0.911   3.196
 8088SOL    HW225164   4.458   0.975   3.046
 8089SOL     OW25165   6.619   2.830   0.813
 8089SOL    HW125166   6.548   2.831   0.741
 8089SOL    HW225167   6.709   2.827   0.770
 8090SOL     OW25168   4.550   2.158   5.186
 8090SOL    HW125169   4.546   2.065   5.222
 8090SOL    HW225170   4.497   2.164   5.102
 8091SOL     OW25171   1.792   4.028   5.126
 8091SOL    HW125172   1.824   3.938   5.095
 8091SOL    HW225173   1.721   4.061   5.064
 8092SOL     OW25174   6.632   1.713   4.209
 8092SOL    HW125175   6.636   1.692   4.307
 8092SOL    HW225176   6.639   1.811   4.196
 8093SOL     OW25177   5.711   5.361   0.598
 8093SOL    HW125178   5.748   5.379   0.507
 8093SOL    HW225179   5.612   5.378   0.597
 8094SOL     OW25180   0.515   3.753   3.947
 8094SOL    HW125181   0.456   3.753   3.866
 8094SOL    HW225182   0.488   3.679   4.008
 8095SOL     OW25183   6.441   3.121   4.654
 8095SOL    HW125184   6.508   3.110   4.728
 8095SOL    HW225185   6.476   3.079   4.571
 8096SOL     OW25186   4.709   0.184   0.659
 8096SOL    HW125187   4.650   0.246   0.607
 8096SOL    HW225188   4.653   0.127   0.719
 8097SOL     OW25189   4.600   1.652   4.391
 8097SOL    HW125190   4.518   1.594   4.398
 8097SOL    HW225191   4.680   1.599   4.418
 8098SOL     OW25192   2.198   1.284   4.193
 8098SOL    HW125193   2.208   1.332   4.280
 8098SOL    HW225194   2.130   1.331   4.136
 8099SOL     OW25195   3.704   6.586   4.835
 8099SOL    HW125196   3.711   6.576   4.934
 8099SOL    HW225197   3.777   6.647   4.802
 8100SOL     OW25198   6.309   5.788   1.342
 8100SOL    HW125199   6.370   5.759   1.269
 8100SOL    HW225200   6.259   5.870   1.314
 8101SOL     OW25201   6.961   4.957   1.960
 8101SOL    HW125202   6.894   5.022   1.995
 8101SOL    HW225203   6.918   4.868   1.950
 8102SOL     OW25204   6.734   0.411   5.728
 8102SOL    HW125205   6.777   0.379   5.813
 8102SOL    HW225206   6.656   0.470   5.751
 8103SOL     OW25207   2.496   2.452   2.409
 8103SOL    HW125208   2.503   2.545   2.443
 8103SOL    HW225209   2.487   2.388   2.486
 8104SOL     OW25210   2.974   0.235   6.131
 8104SOL    HW125211   2.902   0.256   6.066
 8104SOL    HW225212   2.994   0.316   6.186
 8105SOL     OW25213   1.813   3.038   3.400
 8105SOL    HW125214   1.889   2.973   3.398
 8105SOL    HW225215   1.727   2.989   3.414
 8106SOL     OW25216   0.203   3.643   5.301
 8106SOL    HW125217   0.187   3.702   5.222
 8106SOL    HW225218   0.198   3.698   5.385
 8107SOL     OW25219   1.354   5.570   6.858
 8107SOL    HW125220   1.431   5.585   6.921
 8107SOL    HW225221   1.354   5.642   6.788
 8108SOL     OW25222   2.241   3.131   5.697
 8108SOL    HW125223   2.164   3.082   5.658
 8108SOL    HW225224   2.324   3.109   5.646
 8109SOL     OW25225   0.598   5.200   5.906
 8109SOL    HW125226   0.675   5.264   5.906
 8109SOL    HW225227   0.527   5.233   5.843
 8110SOL     OW25228   1.361   4.962   0.549
 8110SOL    HW125229   1.271   5.007   0.546
 8110SOL    HW225230   1.422   5.014   0.609
 8111SOL     OW25231   3.198   6.152   4.141
 8111SOL    HW125232   3.161   6.080   4.199
 8111SOL    HW225233   3.123   6.199   4.094
 8112SOL     OW25234   4.104   0.915   4.027
 8112SOL    HW125235   4.149   0.990   4.075
 8112SOL    HW225236   4.012   0.942   4.002
 8113SOL     OW25237   3.222   2.858   5.571
 8113SOL    HW125238   3.127   2.881   5.590
 8113SOL    HW225239   3.278   2.881   5.650
 8114SOL     OW25240   3.068   3.426   1.748
 8114SOL    HW125241   2.999   3.465   1.688
 8114SOL    HW225242   3.159   3.452   1.716
 8115SOL     OW25243   3.430   2.885   0.824
 8115SOL    HW125244   3.514   2.924   0.786
 8115SOL    HW225245   3.399   2.943   0.900
 8116SOL     OW25246   5.485   1.335   5.731
 8116SOL    HW125247   5.553   1.262   5.735
 8116SOL    HW225248   5.398   1.301   5.768
 8117SOL     OW25249   3.289   2.463   5.807
 8117SOL    HW125250   3.197   2.430   5.830
 8117SOL    HW225251   3.289   2.500   5.714
 8118SOL     OW25252   1.262   2.115   3.531
 8118SOL    HW125253   1.356   2.107   3.565
 8118SOL    HW225254   1.213   2.030   3.548
 8119SOL     OW25255   1.389   6.632   2.372
 8119SOL    HW125256   1.324   6.707   2.365
 8119SOL    HW225257   1.348   6.548   2.335
 8120SOL     OW25258   4.605   4.362   2.407
 8120SOL    HW125259   4.594   4.410   2.493
 8120SOL    HW225260   4.562   4.415   2.333
 8121SOL     OW25261   6.683   5.828   2.979
 8121SOL    HW125262   6.745   5.876   3.041
 8121SOL    HW225263   6.609   5.786   3.032
 8122SOL     OW25264   6.913   5.637   1.712
 8122SOL    HW125265   6.990   5.575   1.696
 8122SOL    HW225266   6.948   5.728   1.737
 8123SOL     OW25267   1.456   5.104   0.010
 8123SOL    HW125268   1.367   5.148   0.001
 8123SOL    HW225269   1.471   5.043   6.950
 8124SOL     OW25270   1.716   6.262   3.103
 8124SOL    HW125271   1.707   6.302   3.011
 8124SOL    HW225272   1.741   6.334   3.168
 8125SOL     OW25273   5.266   4.967   2.772
 8125SOL    HW125274   5.246   4.873   2.800
 8125SOL    HW225275   5.345   5.000   2.823
 8126SOL     OW25276   6.936   4.652   2.533
 8126SOL    HW125277   6.929   4.555   2.557
 8126SOL    HW225278   6.867   4.673   2.463
 8127SOL     OW25279   4.591   5.272   1.018
 8127SOL    HW125280   4.503   5.231   0.994
 8127SOL    HW225281   4.579   5.334   1.095
 8128SOL     OW25282   3.747   1.732   5.572
 8128SOL    HW125283   3.765   1.634   5.566
 8128SOL    HW225284   3.664   1.748   5.625
 8129SOL     OW25285   4.718   6.208   6.305
 8129SOL    HW125286   4.715   6.263   6.221
 8129SOL    HW225287   4.739   6.268   6.382
 8130SOL     OW25288   0.767   6.804   6.879
 8130SOL    HW125289   0.850   6.859   6.872
 8130SOL    HW225290   0.786   6.712   6.846
 8131SOL     OW25291   2.349   1.589   1.375
 8131SOL    HW125292   2.298   1.674   1.384
 8131SOL    HW225293   2.313   1.535   1.298
 8132SOL     OW25294   5.271   4.730   3.480
 8132SOL    HW125295   5.339   4.683   3.537
 8132SOL    HW225296   5.202   4.664   3.451
 8133SOL     OW25297   0.233   5.683   1.852
 8133SOL    HW125298   0.271   5.773   1.827
 8133SOL    HW225299   0.148   5.696   1.903
 8134SOL     OW25300   2.068   2.580   1.780
 8134SOL    HW125301   2.122   2.611   1.858
 8134SOL    HW225302   2.124   2.583   1.697
 8135SOL     OW25303   4.037   6.687   2.570
 8135SOL    HW125304   4.106   6.736   2.623
 8135SOL    HW225305   3.965   6.751   2.543
 8136SOL     OW25306   2.194   5.958   1.866
 8136SOL    HW125307   2.224   5.863   1.863
 8136SOL    HW225308   2.251   6.013   1.805
 8137SOL     OW25309   3.124   3.437   5.052
 8137SOL    HW125310   3.152   3.341   5.044
 8137SOL    HW225311   3.162   3.490   4.976
 8138SOL     OW25312   4.423   1.310   3.538
 8138SOL    HW125313   4.390   1.225   3.495
 8138SOL    HW225314   4.494   1.351   3.480
 8139SOL     OW25315   1.512   3.192   6.138
 8139SOL    HW125316   1.542   3.162   6.047
 8139SOL    HW225317   1.591   3.204   6.197
 8140SOL     OW25318   4.666   1.609   0.942
 8140SOL    HW125319   4.643   1.565   0.855
 8140SOL    HW225320   4.607   1.689   0.956
 8141SOL     OW25321   6.256   0.751   5.309
 8141SOL    HW125322   6.306   0.781   5.228
 8141SOL    HW225323   6.158   0.767   5.295
 8142SOL     OW25324   3.507   5.503   0.549
 8142SOL    HW125325   3.511   5.428   0.615
 8142SOL    HW225326   3.573   5.574   0.575
 8143SOL     OW25327   5.909   4.580   0.163
 8143SOL    HW125328   5.845   4.656   0.159
 8143SOL    HW225329   6.002   4.615   0.171
 8144SOL     OW25330   1.728   5.162   6.921
 8144SOL    HW125331   1.633   5.133   6.907
 8144SOL    HW225332   1.769   5.183   6.832
 8145SOL     OW25333   5.446   5.762   5.893
 8145SOL    HW125334   5.525   5.780   5.952
 8145SOL    HW225335   5.377   5.711   5.944
 8146SOL     OW25336   6.707   6.463   4.969
 8146SOL    HW125337   6.637   6.533   4.957
 8146SOL    HW225338   6.793   6.494   4.929
 8147SOL     OW25339   2.494   0.256   5.437
 8147SOL    HW125340   2.580   0.282   5.480
 8147SOL    HW225341   2.498   0.276   5.339
 8148SOL     OW25342   5.063   4.799   6.824
 8148SOL    HW125343   5.065   4.871   6.755
 8148SOL    HW225344   4.994   4.731   6.799
 8149SOL     OW25345   1.472   6.937   5.834
 8149SOL    HW125346   1.466   6.995   5.915
 8149SOL    HW225347   1.508   6.990   5.758
 8150SOL     OW25348   0.639   4.212   0.181
 8150SOL    HW125349   0.715   4.157   0.214
 8150SOL    HW225350   0.609   4.177   0.092
 8151SOL     OW25351   5.830   4.553   2.276
 8151SOL    HW125352   5.780   4.467   2.286
 8151SOL    HW225353   5.780   4.614   2.215
 8152SOL     OW25354   5.867   2.149   3.818
 8152SOL    HW125355   5.858   2.053   3.845
 8152SOL    HW225356   5.798   2.204   3.864
 8153SOL     OW25357   0.304   1.534   1.516
 8153SOL    HW125358   0.247   1.605   1.476
 8153SOL    HW225359   0.312   1.458   1.451
 8154SOL     OW25360   0.847   0.510   3.257
 8154SOL    HW125361   0.932   0.562   3.264
 8154SOL    HW225362   0.770   0.569   3.281
 8155SOL     OW25363   1.511   4.732   4.663
 8155SOL    HW125364   1.608   4.746   4.686
 8155SOL    HW225365   1.454   4.768   4.737
 8156SOL     OW25366   1.438   4.101   0.599
 8156SOL    HW125367   1.415   4.193   0.568
 8156SOL    HW225368   1.354   4.049   0.613
 8157SOL     OW25369   6.158   4.731   4.693
 8157SOL    HW125370   6.244   4.775   4.720
 8157SOL    HW225371   6.084   4.798   4.699
 8158SOL     OW25372   6.080   5.110   6.082
 8158SOL    HW125373   6.078   5.208   6.062
 8158SOL    HW225374   5.998   5.067   6.045
 8159SOL     OW25375   2.881   0.063   4.963
 8159SOL    HW125376   2.860   6.986   4.986
 8159SOL    HW225377   2.875   0.119   5.046
 8160SOL     OW25378   5.453   2.635   2.884
 8160SOL    HW125379   5.537   2.626   2.937
 8160SOL    HW225380   5.459   2.715   2.825
 8161SOL     OW25381   6.902   2.591   2.056
 8161SOL    HW125382   6.877   2.555   1.966
 8161SOL    HW225383   6.957   2.524   2.105
 8162SOL     OW25384   0.926   6.011   5.670
 8162SOL    HW125385   0.918   6.026   5.571
 8162SOL    HW225386   0.938   5.914   5.689
 8163SOL     OW25387   3.982   4.781   5.430
 8163SOL    HW125388   3.972   4.721   5.509
 8163SOL    HW225389   3.892   4.798   5.390
 8164SOL     OW25390   5.071   1.806   0.451
 8164SOL    HW125391   5.032   1.894   0.426
 8164SOL    HW225392   5.087   1.751   0.368
 8165SOL     OW25393   0.651   2.173   6.474
 8165SOL    HW125394   0.714   2.250   6.469
 8165SOL    HW225395   0.598   2.167   6.389
 8166SOL     OW25396   2.310   2.196   4.479
 8166SOL    HW125397   2.243   2.130   4.511
 8166SOL    HW225398   2.336   2.257   4.554
 8167SOL     OW25399   1.783   2.224   3.188
 8167SOL    HW125400   1.777   2.272   3.100
 8167SOL    HW225401   1.822   2.285   3.257
 8168SOL     OW25402   1.618   6.327   2.841
 8168SOL    HW125403   1.649   6.422   2.829
 8168SOL    HW225404   1.683   6.265   2.797
 8169SOL     OW25405   4.585   4.099   0.115
 8169SOL    HW125406   4.558   4.148   0.198
 8169SOL    HW225407   4.685   4.094   0.110
 8170SOL     OW25408   0.167   4.356   2.806
 8170SOL    HW125409   0.188   4.350   2.903
 8170SOL    HW225410   0.120   4.273   2.777
 8171SOL     OW25411   1.988   1.850   1.599
 8171SOL    HW125412   2.032   1.827   1.686
 8171SOL    HW225413   1.895   1.882   1.617
 8172SOL     OW25414   1.205   4.311   0.436
 8172SOL    HW125415   1.235   4.404   0.416
 8172SOL    HW225416   1.123   4.289   0.383
 8173SOL     OW25417   5.840   0.090   1.241
 8173SOL    HW125418   5.811   0.178   1.204
 8173SOL    HW225419   5.885   0.104   1.330
 8174SOL     OW25420   2.691   6.681   3.985
 8174SOL    HW125421   2.655   6.682   4.078
 8174SOL    HW225422   2.614   6.682   3.920
 8175SOL     OW25423   0.858   2.314   5.504
 8175SOL    HW125424   0.923   2.387   5.483
 8175SOL    HW225425   0.879   2.277   5.595
 8176SOL     OW25426   2.897   5.056   0.391
 8176SOL    HW125427   2.878   4.971   0.441
 8176SOL    HW225428   2.865   5.134   0.444
 8177SOL     OW25429   3.216   1.087   2.681
 8177SOL    HW125430   3.303   1.127   2.655
 8177SOL    HW225431   3.141   1.142   2.645
 8178SOL     OW25432   2.358   6.282   1.044
 8178SOL    HW125433   2.352   6.194   1.090
 8178SOL    HW225434   2.353   6.356   1.111
 8179SOL     OW25435   6.213   0.135   3.366
 8179SOL    HW125436   6.264   0.058   3.405
 8179SOL    HW225437   6.232   0.218   3.419
 8180SOL     OW25438   4.756   5.180   0.619
 8180SOL    HW125439   4.744   5.279   0.615
 8180SOL    HW225440   4.841   5.155   0.572
 8181SOL     OW25441   6.079   0.716   6.428
 8181SOL    HW125442   6.013   0.785   6.400
 8181SOL    HW225443   6.089   0.649   6.355
 8182SOL     OW25444   3.498   3.452   3.303
 8182SOL    HW125445   3.525   3.367   3.349
 8182SOL    HW225446   3.535   3.530   3.353
 8183SOL     OW25447   6.996   0.151   5.778
 8183SOL    HW125448   0.007   0.232   5.829
 8183SOL    HW225449   6.915   0.172   5.723
 8184SOL     OW25450   0.333   6.272   5.110
 8184SOL    HW125451   0.260   6.341   5.115
 8184SOL    HW225452   0.293   6.181   5.104
 8185SOL     OW25453   0.560   6.150   5.240
 8185SOL    HW125454   0.473   6.196   5.256
 8185SOL    HW225455   0.543   6.060   5.199
 8186SOL     OW25456   1.648   5.678   0.489
 8186SOL    HW125457   1.658   5.659   0.587
 8186SOL    HW225458   1.605   5.768   0.477
 8187SOL     OW25459   1.638   6.322   4.737
 8187SOL    HW125460   1.613   6.389   4.666
 8187SOL    HW225461   1.560   6.263   4.756
 8188SOL     OW25462   1.886   2.831   2.685
 8188SOL    HW125463   1.981   2.841   2.653
 8188SOL    HW225464   1.833   2.783   2.615
 8189SOL     OW25465   6.310   5.097   4.120
 8189SOL    HW125466   6.388   5.126   4.176
 8189SOL    HW225467   6.322   5.128   4.026
 8190SOL     OW25468   6.160   3.740   2.738
 8190SOL    HW125469   6.252   3.755   2.703
 8190SOL    HW225470   6.101   3.817   2.712
 8191SOL     OW25471   4.363   5.477   1.015
 8191SOL    HW125472   4.323   5.462   0.924
 8191SOL    HW225473   4.331   5.406   1.077
 8192SOL     OW25474   0.513   6.008   3.332
 8192SOL    HW125475   0.415   6.017   3.316
 8192SOL    HW225476   0.561   6.084   3.287
 8193SOL     OW25477   0.433   4.632   3.916
 8193SOL    HW125478   0.532   4.636   3.930
 8193SOL    HW225479   0.407   4.540   3.886
 8194SOL     OW25480   5.116   0.380   1.710
 8194SOL    HW125481   5.204   0.354   1.670
 8194SOL    HW225482   5.079   0.459   1.660
 8195SOL     OW25483   6.547   6.739   3.624
 8195SOL    HW125484   6.598   6.780   3.699
 8195SOL    HW225485   6.451   6.767   3.630
 8196SOL     OW25486   5.133   0.185   2.553
 8196SOL    HW125487   5.062   0.230   2.607
 8196SOL    HW225488   5.173   0.110   2.606
 8197SOL     OW25489   4.509   1.688   3.303
 8197SOL    HW125490   4.461   1.603   3.283
 8197SOL    HW225491   4.536   1.732   3.217
 8198SOL     OW25492   1.867   5.844   1.114
 8198SOL    HW125493   1.965   5.854   1.134
 8198SOL    HW225494   1.834   5.758   1.152
 8199SOL     OW25495   5.661   2.310   0.577
 8199SOL    HW125496   5.697   2.232   0.526
 8199SOL    HW225497   5.571   2.334   0.542
 8200SOL     OW25498   5.504   4.122   0.709
 8200SOL    HW125499   5.419   4.070   0.698
 8200SOL    HW225500   5.562   4.109   0.629
 8201SOL     OW25501   5.691   0.368   5.307
 8201SOL    HW125502   5.610   0.336   5.259
 8201SOL    HW225503   5.685   0.345   5.404
 8202SOL     OW25504   1.267   6.074   2.141
 8202SOL    HW125505   1.234   5.997   2.087
 8202SOL    HW225506   1.200   6.149   2.136
 8203SOL     OW25507   1.894   3.307   0.694
 8203SOL    HW125508   1.929   3.216   0.718
 8203SOL    HW225509   1.971   3.367   0.670
 8204SOL     OW25510   1.638   3.334   0.767
 8204SOL    HW125511   1.665   3.425   0.734
 8204SOL    HW225512   1.709   3.268   0.744
 8205SOL     OW25513   0.049   3.731   6.236
 8205SOL    HW125514   0.117   3.755   6.305
 8205SOL    HW225515   6.978   3.722   6.280
 8206SOL     OW25516   3.558   1.086   1.652
 8206SOL    HW125517   3.565   1.171   1.704
 8206SOL    HW225518   3.535   1.107   1.557
 8207SOL     OW25519   4.126   3.690   3.896
 8207SOL    HW125520   4.212   3.638   3.899
 8207SOL    HW225521   4.053   3.635   3.936
 8208SOL     OW25522   2.564   0.209   0.091
 8208SOL    HW125523   2.550   0.156   0.175
 8208SOL    HW225524   2.589   0.148   0.016
 8209SOL     OW25525   5.885   2.326   4.442
 8209SOL    HW125526   5.870   2.382   4.523
 8209SOL    HW225527   5.813   2.257   4.435
 8210SOL     OW25528   2.290   2.702   5.983
 8210SOL    HW125529   2.274   2.731   5.889
 8210SOL    HW225530   2.271   2.778   6.045
 8211SOL     OW25531   4.291   4.413   1.164
 8211SOL    HW125532   4.254   4.325   1.192
 8211SOL    HW225533   4.268   4.482   1.233
 8212SOL     OW25534   1.858   2.427   2.981
 8212SOL    HW125535   1.851   2.500   3.048
 8212SOL    HW225536   1.933   2.446   2.917
 8213SOL     OW25537   6.727   4.504   0.517
 8213SOL    HW125538   6.663   4.574   0.485
 8213SOL    HW225539   6.813   4.511   0.465
 8214SOL     OW25540   5.093   3.651   2.888
 8214SOL    HW125541   5.027   3.619   2.820
 8214SOL    HW225542   5.064   3.740   2.924
 8215SOL     OW25543   3.474   5.150   2.161
 8215SOL    HW125544   3.401   5.219   2.158
 8215SOL    HW225545   3.553   5.182   2.109
 8216SOL     OW25546   5.447   3.652   3.355
 8216SOL    HW125547   5.432   3.643   3.256
 8216SOL    HW225548   5.380   3.716   3.393
 8217SOL     OW25549   2.196   5.776   0.641
 8217SOL    HW125550   2.231   5.862   0.679
 8217SOL    HW225551   2.097   5.770   0.658
 8218SOL     OW25552   4.954   1.886   0.121
 8218SOL    HW125553   4.897   1.873   0.202
 8218SOL    HW225554   4.964   1.983   0.102
 8219SOL     OW25555   5.219   1.887   0.061
 8219SOL    HW125556   5.291   1.876   0.130
 8219SOL    HW225557   5.130   1.884   0.106
 8220SOL     OW25558   4.149   3.822   1.619
 8220SOL    HW125559   4.110   3.769   1.695
 8220SOL    HW225560   4.173   3.913   1.651
 8221SOL     OW25561   5.521   4.446   3.040
 8221SOL    HW125562   5.469   4.524   3.004
 8221SOL    HW225563   5.540   4.382   2.966
 8222SOL     OW25564   6.417   1.120   3.043
 8222SOL    HW125565   6.466   1.207   3.044
 8222SOL    HW225566   6.460   1.057   3.108
 8223SOL     OW25567   0.145   5.001   6.670
 8223SOL    HW125568   0.158   4.918   6.615
 8223SOL    HW225569   0.206   5.073   6.638
 8224SOL     OW25570   0.694   3.978   2.572
 8224SOL    HW125571   0.703   3.894   2.519
 8224SOL    HW225572   0.632   3.962   2.649
 8225SOL     OW25573   4.682   1.376   1.087
 8225SOL    HW125574   4.692   1.464   1.042
 8225SOL    HW225575   4.767   1.353   1.135
 8226SOL     OW25576   3.900   0.391   6.965
 8226SOL    HW125577   3.919   0.422   6.872
 8226SOL    HW225578   3.802   0.394   6.982
 8227SOL     OW25579   6.050   4.117   3.358
 8227SOL    HW125580   6.068   4.085   3.265
 8227SOL    HW225581   6.095   4.056   3.424
 8228SOL     OW25582   0.031   1.575   4.097
 8228SOL    HW125583   7.003   1.633   4.163
 8228SOL    HW225584   0.119   1.615   4.072
 8229SOL     OW25585   5.024   5.534   0.329
 8229SOL    HW125586   5.058   5.603   0.265
 8229SOL    HW225587   5.102   5.487   0.371
 8230SOL     OW25588   5.283   0.026   3.484
 8230SOL    HW125589   5.280   0.073   3.573
 8230SOL    HW225590   5.352   0.070   3.426
 8231SOL     OW25591   4.042   5.780   1.412
 8231SOL    HW125592   3.971   5.847   1.433
 8231SOL    HW225593   4.126   5.827   1.387
 8232SOL     OW25594   2.508   1.854   0.015
 8232SOL    HW125595   2.430   1.792   0.003
 8232SOL    HW225596   2.494   1.911   0.095
 8233SOL     OW25597   0.213   5.517   6.210
 8233SOL    HW125598   0.277   5.473   6.147
 8233SOL    HW225599   0.216   5.616   6.198
 8234SOL     OW25600   2.730   3.030   0.006
 8234SOL    HW125601   2.780   2.945   7.007
 8234SOL    HW225602   2.728   3.085   6.941
 8235SOL     OW25603   4.550   2.262   6.796
 8235SOL    HW125604   4.626   2.266   6.862
 8235SOL    HW225605   4.521   2.354   6.772
 8236SOL     OW25606   6.126   2.849   1.385
 8236SOL    HW125607   6.155   2.824   1.292
 8236SOL    HW225608   6.121   2.949   1.392
 8237SOL     OW25609   3.608   6.565   5.529
 8237SOL    HW125610   3.557   6.485   5.561
 8237SOL    HW225611   3.558   6.648   5.553
 8238SOL     OW25612   1.739   0.559   0.019
 8238SOL    HW125613   1.799   0.579   0.097
 8238SOL    HW225614   1.783   0.491   6.978
 8239SOL     OW25615   5.643   1.366   0.121
 8239SOL    HW125616   5.742   1.378   0.120
 8239SOL    HW225617   5.607   1.380   0.029
 8240SOL     OW25618   3.980   3.169   3.268
 8240SOL    HW125619   4.023   3.179   3.179
 8240SOL    HW225620   3.912   3.242   3.280
 8241SOL     OW25621   4.785   6.327   1.507
 8241SOL    HW125622   4.707   6.283   1.463
 8241SOL    HW225623   4.785   6.425   1.483
 8242SOL     OW25624   1.091   4.035   5.473
 8242SOL    HW125625   1.148   3.975   5.418
 8242SOL    HW225626   1.085   4.000   5.566
 8243SOL     OW25627   0.534   3.295   4.849
 8243SOL    HW125628   0.464   3.227   4.826
 8243SOL    HW225629   0.528   3.317   4.946
 8244SOL     OW25630   2.393   5.352   4.788
 8244SOL    HW125631   2.365   5.440   4.826
 8244SOL    HW225632   2.312   5.295   4.772
 8245SOL     OW25633   4.417   3.875   0.628
 8245SOL    HW125634   4.346   3.818   0.670
 8245SOL    HW225635   4.374   3.944   0.569
 8246SOL     OW25636   5.007   3.980   5.309
 8246SOL    HW125637   5.029   4.053   5.244
 8246SOL    HW225638   4.919   3.938   5.284
 8247SOL     OW25639   0.964   6.455   0.287
 8247SOL    HW125640   0.964   6.366   0.242
 8247SOL    HW225641   0.943   6.443   0.384
 8248SOL     OW25642   0.339   4.632   3.112
 8248SOL    HW125643   0.307   4.608   3.204
 8248SOL    HW225644   0.267   4.680   3.063
 8249SOL     OW25645   0.993   5.516   2.945
 8249SOL    HW125646   0.961   5.497   3.038
 8249SOL    HW225647   0.916   5.549   2.890
 8250SOL     OW25648   3.741   3.626   2.196
 8250SOL    HW125649   3.642   3.637   2.191
 8250SOL    HW225650   3.770   3.623   2.292
 8251SOL     OW25651   6.171   1.226   4.583
 8251SOL    HW125652   6.206   1.191   4.669
 8251SOL    HW225653   6.115   1.155   4.539
 8252SOL     OW25654   1.551   3.527   4.150
 8252SOL    HW125655   1.602   3.612   4.162
 8252SOL    HW225656   1.511   3.525   4.059
 8253SOL     OW25657   2.624   3.089   5.806
 8253SOL    HW125658   2.606   2.992   5.826
 8253SOL    HW225659   2.653   3.099   5.711
 8254SOL     OW25660   4.372   5.919   3.091
 8254SOL    HW125661   4.317   6.002   3.080
 8254SOL    HW225662   4.431   5.929   3.171
 8255SOL     OW25663   3.962   4.821   3.611
 8255SOL    HW125664   3.927   4.817   3.705
 8255SOL    HW225665   3.889   4.795   3.548
 8256SOL     OW25666   5.665   2.829   4.086
 8256SOL    HW125667   5.567   2.825   4.107
 8256SOL    HW225668   5.677   2.845   3.988
 8257SOL     OW25669   6.202   4.849   4.296
 8257SOL    HW125670   6.257   4.918   4.343
 8257SOL    HW225671   6.181   4.880   4.203
 8258SOL     OW25672   5.115   1.637   0.243
 8258SOL    HW125673   5.197   1.604   0.196
 8258SOL    HW225674   5.033   1.604   0.196
 8259SOL     OW25675   4.453   1.252   1.149
 8259SOL    HW125676   4.538   1.293   1.116
 8259SOL    HW225677   4.423   1.300   1.231
 8260SOL     OW25678   2.849   5.679   6.595
 8260SOL    HW125679   2.936   5.726   6.613
 8260SOL    HW225680   2.774   5.745   6.600
 8261SOL     OW25681   5.272   1.283   1.677
 8261SOL    HW125682   5.293   1.356   1.612
 8261SOL    HW225683   5.267   1.196   1.629
 8262SOL     OW25684   0.220   2.165   1.212
 8262SOL    HW125685   0.276   2.186   1.292
 8262SOL    HW225686   0.263   2.204   1.130
 8263SOL     OW25687   5.400   1.665   0.773
 8263SOL    HW125688   5.368   1.612   0.851
 8263SOL    HW225689   5.419   1.759   0.801
 8264SOL     OW25690   1.576   4.160   2.067
 8264SOL    HW125691   1.550   4.254   2.045
 8264SOL    HW225692   1.675   4.155   2.083
 8265SOL     OW25693   1.620   0.870   2.592
 8265SOL    HW125694   1.713   0.838   2.612
 8265SOL    HW225695   1.562   0.855   2.672
 8266SOL     OW25696   2.922   0.399   3.074
 8266SOL    HW125697   2.958   0.447   3.154
 8266SOL    HW225698   2.851   0.334   3.103
 8267SOL     OW25699   0.048   3.814   0.524
 8267SOL    HW125700   7.016   3.730   0.502
 8267SOL    HW225701   0.044   3.830   0.622
 8268SOL     OW25702   3.344   5.724   6.598
 8268SOL    HW125703   3.408   5.794   6.627
 8268SOL    HW225704   3.256   5.766   6.577
 8269SOL     OW25705   6.002   2.320   0.800
 8269SOL    HW125706   5.987   2.408   0.845
 8269SOL    HW225707   6.099   2.296   0.804
 8270SOL     OW25708   2.919   6.288   4.320
 8270SOL    HW125709   2.922   6.210   4.258
 8270SOL    HW225710   3.012   6.317   4.342
 8271SOL     OW25711   6.483   2.488   2.924
 8271SOL    HW125712   6.545   2.471   3.001
 8271SOL    HW225713   6.529   2.544   2.856
 8272SOL     OW25714   4.020   1.299   4.218
 8272SOL    HW125715   3.951   1.270   4.152
 8272SOL    HW225716   4.004   1.252   4.305
 8273SOL     OW25717   2.103   6.491   1.923
 8273SOL    HW125718   2.090   6.566   1.988
 8273SOL    HW225719   2.173   6.429   1.958
 8274SOL     OW25720   5.102   4.160   3.400
 8274SOL    HW125721   5.197   4.171   3.370
 8274SOL    HW225722   5.040   4.192   3.329
 8275SOL     OW25723   5.308   2.163   0.018
 8275SOL    HW125724   5.362   2.203   6.963
 8275SOL    HW225725   5.268   2.077   7.005
 8276SOL     OW25726   0.479   1.939   2.967
 8276SOL    HW125727   0.572   1.951   2.931
 8276SOL    HW225728   0.426   2.023   2.953
 8277SOL     OW25729   0.074   1.027   0.009
 8277SOL    HW125730   0.006   1.068   6.967
 8277SOL    HW225731   0.158   1.008   6.977
 8278SOL     OW25732   1.548   2.288   0.510
 8278SOL    HW125733   1.470   2.314   0.567
 8278SOL    HW225734   1.607   2.368   0.497
 8279SOL     OW25735   0.133   6.221   3.716
 8279SOL    HW125736   0.211   6.228   3.654
 8279SOL    HW225737   0.163   6.241   3.809
 8280SOL     OW25738   3.203   2.000   5.749
 8280SOL    HW125739   3.248   1.951   5.824
 8280SOL    HW225740   3.121   2.046   5.784
 8281SOL     OW25741   4.693   5.526   2.723
 8281SOL    HW125742   4.753   5.601   2.697
 8281SOL    HW225743   4.608   5.531   2.672
 8282SOL     OW25744   5.677   2.540   6.171
 8282SOL    HW125745   5.597   2.567   6.117
 8282SOL    HW225746   5.724   2.622   6.204
 8283SOL     OW25747   1.972   2.377   5.844
 8283SOL    HW125748   1.883   2.417   5.865
 8283SOL    HW225749   1.960   2.302   5.779
 8284SOL     OW25750   6.641   4.179   1.791
 8284SOL    HW125751   6.725   4.231   1.776
 8284SOL    HW225752   6.661   4.081   1.786
 8285SOL     OW25753   4.101   3.255   4.048
 8285SOL    HW125754   4.076   3.189   3.978
 8285SOL    HW225755   4.069   3.346   4.022
 8286SOL     OW25756   0.469   2.173   6.249
 8286SOL    HW125757   0.420   2.245   6.199
 8286SOL    HW225758   0.555   2.153   6.203
 8287SOL     OW25759   1.805   6.574   4.284
 8287SOL    HW125760   1.852   6.486   4.274
 8287SOL    HW225761   1.775   6.607   4.194
 8288SOL     OW25762   3.315   1.621   3.356
 8288SOL    HW125763   3.367   1.536   3.352
 8288SOL    HW225764   3.228   1.609   3.307
 8289SOL     OW25765   6.916   5.625   6.798
 8289SOL    HW125766   6.927   5.698   6.730
 8289SOL    HW225767   6.982   5.552   6.779
 8290SOL     OW25768   6.534   2.164   0.771
 8290SOL    HW125769   6.562   2.072   0.742
 8290SOL    HW225770   6.603   2.201   0.834
 8291SOL     OW25771   4.142   0.401   0.688
 8291SOL    HW125772   4.183   0.310   0.686
 8291SOL    HW225773   4.070   0.404   0.757
 8292SOL     OW25774   3.027   0.726   6.472
 8292SOL    HW125775   3.101   0.765   6.416
 8292SOL    HW225776   2.972   0.664   6.416
 8293SOL     OW25777   5.836   5.299   4.635
 8293SOL    HW125778   5.773   5.247   4.693
 8293SOL    HW225779   5.799   5.303   4.542
 8294SOL     OW25780   6.137   3.202   0.084
 8294SOL    HW125781   6.217   3.157   0.046
 8294SOL    HW225782   6.059   3.139   0.082
 8295SOL     OW25783   4.518   3.475   6.864
 8295SOL    HW125784   4.437   3.534   6.854
 8295SOL    HW225785   4.599   3.525   6.834
 8296SOL     OW25786   1.164   4.948   6.293
 8296SOL    HW125787   1.142   5.040   6.326
 8296SOL    HW225788   1.160   4.884   6.369
 8297SOL     OW25789   1.231   2.768   3.963
 8297SOL    HW125790   1.299   2.794   4.031
 8297SOL    HW225791   1.205   2.672   3.978
 8298SOL     OW25792   5.040   1.644   2.062
 8298SOL    HW125793   5.002   1.641   1.970
 8298SOL    HW225794   5.061   1.552   2.094
 8299SOL     OW25795   6.317   2.271   1.482
 8299SOL    HW125796   6.307   2.188   1.536
 8299SOL    HW225797   6.260   2.343   1.522
 8300SOL     OW25798   0.759   5.151   3.113
 8300SOL    HW125799   0.686   5.213   3.084
 8300SOL    HW225800   0.721   5.075   3.164
 8301SOL     OW25801   2.639   2.487   6.761
 8301SOL    HW125802   2.681   2.473   6.851
 8301SOL    HW225803   2.693   2.441   6.691
 8302SOL     OW25804   6.143   5.854   5.498
 8302SOL    HW125805   6.171   5.924   5.563
 8302SOL    HW225806   6.071   5.889   5.439
 8303SOL     OW25807   0.289   0.277   6.120
 8303SOL    HW125808   0.250   0.185   6.115
 8303SOL    HW225809   0.218   0.343   6.144
 8304SOL     OW25810   0.343   3.227   0.625
 8304SOL    HW125811   0.296   3.200   0.541
 8304SOL    HW225812   0.328   3.325   0.641
 8305SOL     OW25813   3.608   5.248   3.246
 8305SOL    HW125814   3.628   5.330   3.299
 8305SOL    HW225815   3.509   5.237   3.236
 8306SOL     OW25816   1.203   2.824   4.311
 8306SOL    HW125817   1.127   2.780   4.359
 8306SOL    HW225818   1.167   2.889   4.244
 8307SOL     OW25819   3.974   5.609   0.798
 8307SOL    HW125820   3.894   5.616   0.739
 8307SOL    HW225821   3.992   5.512   0.818
 8308SOL     OW25822   3.425   0.339   2.853
 8308SOL    HW125823   3.440   0.414   2.917
 8308SOL    HW225824   3.512   0.313   2.811
 8309SOL     OW25825   5.881   6.807   2.422
 8309SOL    HW125826   5.784   6.803   2.449
 8309SOL    HW225827   5.891   6.863   2.340
 8310SOL     OW25828   6.215   4.266   6.743
 8310SOL    HW125829   6.136   4.245   6.686
 8310SOL    HW225830   6.298   4.228   6.701
 8311SOL     OW25831   6.745   0.441   6.601
 8311SOL    HW125832   6.686   0.408   6.674
 8311SOL    HW225833   6.689   0.471   6.523
 8312SOL     OW25834   5.389   6.556   1.227
 8312SOL    HW125835   5.419   6.480   1.168
 8312SOL    HW225836   5.313   6.526   1.285
 8313SOL     OW25837   4.025   1.322   2.413
 8313SOL    HW125838   3.932   1.351   2.435
 8313SOL    HW225839   4.054   1.251   2.478
 8314SOL     OW25840   0.241   6.069   3.241
 8314SOL    HW125841   0.171   6.009   3.278
 8314SOL    HW225842   0.219   6.164   3.265
 8315SOL     OW25843   4.921   4.567   6.486
 8315SOL    HW125844   4.966   4.560   6.575
 8315SOL    HW225845   4.953   4.648   6.438
 8316SOL     OW25846   2.838   5.959   6.453
 8316SOL    HW125847   2.851   5.925   6.360
 8316SOL    HW225848   2.815   6.056   6.451
 8317SOL     OW25849   2.217   4.242   2.273
 8317SOL    HW125850   2.171   4.191   2.346
 8317SOL    HW225851   2.170   4.329   2.260
 8318SOL     OW25852   3.638   1.253   5.931
 8318SOL    HW125853   3.716   1.239   5.992
 8318SOL    HW225854   3.565   1.302   5.980
 8319SOL     OW25855   3.565   0.760   5.162
 8319SOL    HW125856   3.630   0.832   5.139
 8319SOL    HW225857   3.521   0.782   5.249
 8320SOL     OW25858   4.208   4.783   1.242
 8320SOL    HW125859   4.193   4.695   1.287
 8320SOL    HW225860   4.125   4.810   1.193
 8321SOL     OW25861   0.030   1.013   1.373
 8321SOL    HW125862   0.075   0.944   1.316
 8321SOL    HW225863   6.984   1.066   1.317
 8322SOL     OW25864   5.718   6.952   6.936
 8322SOL    HW125865   5.725   0.033   6.922
 8322SOL    HW225866   5.706   6.906   6.849
 8323SOL     OW25867   1.742   1.109   1.816
 8323SOL    HW125868   1.706   1.201   1.801
 8323SOL    HW225869   1.824   1.114   1.872
 8324SOL     OW25870   6.857   1.420   2.458
 8324SOL    HW125871   6.785   1.367   2.413
 8324SOL    HW225872   6.844   1.417   2.557
 8325SOL     OW25873   3.566   4.212   4.400
 8325SOL    HW125874   3.566   4.293   4.459
 8325SOL    HW225875   3.475   4.173   4.397
 8326SOL     OW25876   4.164   2.752   6.535
 8326SOL    HW125877   4.104   2.697   6.477
 8326SOL    HW225878   4.236   2.793   6.480
 8327SOL     OW25879   5.305   2.231   6.301
 8327SOL    HW125880   5.248   2.306   6.268
 8327SOL    HW225881   5.361   2.197   6.226
 8328SOL     OW25882   2.497   2.621   4.211
 8328SOL    HW125883   2.553   2.539   4.197
 8328SOL    HW225884   2.493   2.674   4.126
 8329SOL     OW25885   0.529   2.221   4.454
 8329SOL    HW125886   0.455   2.283   4.482
 8329SOL    HW225887   0.543   2.228   4.356
 8330SOL     OW25888   2.513   6.712   0.766
 8330SOL    HW125889   2.445   6.779   0.734
 8330SOL    HW225890   2.466   6.627   0.791
 8331SOL     OW25891   3.327   6.913   0.865
 8331SOL    HW125892   3.233   6.948   0.867
 8331SOL    HW225893   3.382   6.964   0.931
 8332SOL     OW25894   4.859   6.012   3.337
 8332SOL    HW125895   4.802   6.094   3.331
 8332SOL    HW225896   4.800   5.931   3.340
 8333SOL     OW25897   1.319   5.244   5.863
 8333SOL    HW125898   1.241   5.237   5.926
 8333SOL    HW225899   1.344   5.154   5.830
 8334SOL     OW25900   6.556   0.150   3.889
 8334SOL    HW125901   6.561   0.224   3.956
 8334SOL    HW225902   6.632   0.086   3.903
 8335SOL     OW25903   6.126   6.570   5.430
 8335SOL    HW125904   6.166   6.651   5.474
 8335SOL    HW225905   6.115   6.497   5.497
 8336SOL     OW25906   0.728   2.079   2.264
 8336SOL    HW125907   0.638   2.034   2.261
 8336SOL    HW225908   0.795   2.022   2.216
 8337SOL     OW25909   0.250   6.153   1.799
 8337SOL    HW125910   0.283   6.235   1.752
 8337SOL    HW225911   0.228   6.177   1.893
 8338SOL     OW25912   1.859   4.780   0.863
 8338SOL    HW125913   1.807   4.793   0.947
 8338SOL    HW225914   1.875   4.682   0.848
 8339SOL     OW25915   5.893   0.557   3.264
 8339SOL    HW125916   5.818   0.606   3.310
 8339SOL    HW225917   5.903   0.466   3.304
 8340SOL     OW25918   4.572   3.396   1.288
 8340SOL    HW125919   4.508   3.353   1.351
 8340SOL    HW225920   4.542   3.490   1.270
 8341SOL     OW25921   2.597   0.008   0.848
 8341SOL    HW125922   2.510   6.998   0.886
 8341SOL    HW225923   2.657   0.040   0.922
 8342SOL     OW25924   5.076   0.014   1.100
 8342SOL    HW125925   5.144   0.045   1.035
 8342SOL    HW225926   4.992   0.068   1.090
 8343SOL     OW25927   1.074   5.324   5.588
 8343SOL    HW125928   1.071   5.387   5.665
 8343SOL    HW225929   1.041   5.234   5.617
 8344SOL     OW25930   3.912   0.067   5.319
 8344SOL    HW125931   3.831   0.024   5.359
 8344SOL    HW225932   3.977   7.015   5.292
 8345SOL     OW25933   5.861   1.506   3.020
 8345SOL    HW125934   5.819   1.427   2.975
 8345SOL    HW225935   5.956   1.486   3.041
 8346SOL     OW25936   3.798   5.416   1.536
 8346SOL    HW125937   3.725   5.373   1.483
 8346SOL    HW225938   3.795   5.515   1.523
 8347SOL     OW25939   3.790   5.210   3.835
 8347SOL    HW125940   3.868   5.170   3.883
 8347SOL    HW225941   3.728   5.138   3.805
 8348SOL     OW25942   1.620   0.591   0.726
 8348SOL    HW125943   1.659   0.574   0.816
 8348SOL    HW225944   1.552   0.520   0.706
 8349SOL     OW25945   6.030   5.150   1.641
 8349SOL    HW125946   6.013   5.249   1.645
 8349SOL    HW225947   6.071   5.120   1.727
 8350SOL     OW25948   6.538   0.332   4.765
 8350SOL    HW125949   6.492   0.243   4.768
 8350SOL    HW225950   6.621   0.324   4.710
 8351SOL     OW25951   2.601   6.635   2.392
 8351SOL    HW125952   2.573   6.608   2.300
 8351SOL    HW225953   2.634   6.554   2.442
 8352SOL     OW25954   6.322   5.760   1.612
 8352SOL    HW125955   6.387   5.828   1.646
 8352SOL    HW225956   6.324   5.759   1.512
 8353SOL     OW25957   0.888   3.940   2.237
 8353SOL    HW125958   0.885   3.873   2.163
 8353SOL    HW225959   0.804   3.932   2.292
 8354SOL     OW25960   2.585   0.362   0.677
 8354SOL    HW125961   2.611   0.458   0.668
 8354SOL    HW225962   2.584   0.320   0.586
 8355SOL     OW25963   3.114   1.272   0.558
 8355SOL    HW125964   3.079   1.365   0.569
 8355SOL    HW225965   3.037   1.208   0.549
 8356SOL     OW25966   2.614   5.473   0.641
 8356SOL    HW125967   2.649   5.561   0.608
 8356SOL    HW225968   2.515   5.477   0.647
 8357SOL     OW25969   4.756   6.268   3.347
 8357SOL    HW125970   4.819   6.340   3.375
 8357SOL    HW225971   4.697   6.244   3.425
 8358SOL     OW25972   2.936   2.273   4.836
 8358SOL    HW125973   2.857   2.317   4.879
 8358SOL    HW225974   3.017   2.284   4.895
 8359SOL     OW25975   4.082   4.785   4.092
 8359SOL    HW125976   4.160   4.734   4.055
 8359SOL    HW225977   4.011   4.791   4.022
 8360SOL     OW25978   4.576   0.593   2.921
 8360SOL    HW125979   4.633   0.633   2.994
 8360SOL    HW225980   4.616   0.614   2.832
 8361SOL     OW25981   1.601   0.296   2.764
 8361SOL    HW125982   1.502   0.306   2.753
 8361SOL    HW225983   1.620   0.240   2.844
 8362SOL     OW25984   2.345   3.082   0.390
 8362SOL    HW125985   2.355   2.998   0.336
 8362SOL    HW225986   2.414   3.082   0.463
 8363SOL     OW25987   6.959   3.737   1.093
 8363SOL    HW125988   6.997   3.771   1.179
 8363SOL    HW225989   6.966   3.638   1.090
 8364SOL     OW25990   6.831   4.921   4.590
 8364SOL    HW125991   6.886   4.950   4.669
 8364SOL    HW225992   6.735   4.945   4.606
 8365SOL     OW25993   0.996   3.691   5.909
 8365SOL    HW125994   1.031   3.777   5.945
 8365SOL    HW225995   1.072   3.627   5.894
 8366SOL     OW25996   2.685   6.886   3.002
 8366SOL    HW125997   2.723   6.795   3.019
 8366SOL    HW225998   2.706   6.945   3.080
 8367SOL     OW25999   5.046   5.856   3.776
 8367SOL    HW126000   5.014   5.886   3.866
 8367SOL    HW226001   5.036   5.757   3.768
 8368SOL     OW26002   3.223   5.774   6.266
 8368SOL    HW126003   3.294   5.737   6.205
 8368SOL    HW226004   3.140   5.719   6.258
 8369SOL     OW26005   2.725   1.268   1.341
 8369SOL    HW126006   2.705   1.178   1.302
 8369SOL    HW226007   2.674   1.338   1.293
 8370SOL     OW26008   1.681   1.655   0.399
 8370SOL    HW126009   1.746   1.588   0.436
 8370SOL    HW226010   1.609   1.607   0.349
 8371SOL     OW26011   2.149   2.694   6.995
 8371SOL    HW126012   2.169   2.623   0.045
 8371SOL    HW226013   2.233   2.746   6.977
 8372SOL     OW26014   6.480   0.781   0.960
 8372SOL    HW126015   6.516   0.691   0.936
 8372SOL    HW226016   6.493   0.797   1.058
 8373SOL     OW26017   1.526   6.475   4.518
 8373SOL    HW126018   1.611   6.527   4.511
 8373SOL    HW226019   1.529   6.397   4.455
 8374SOL     OW26020   6.604   0.568   6.367
 8374SOL    HW126021   6.692   0.597   6.328
 8374SOL    HW226022   6.558   0.648   6.406
 8375SOL     OW26023   4.070   0.756   6.013
 8375SOL    HW126024   4.068   0.856   6.015
 8375SOL    HW226025   4.157   0.724   6.051
 8376SOL     OW26026   4.798   0.450   4.405
 8376SOL    HW126027   4.770   0.356   4.425
 8376SOL    HW226028   4.890   0.466   4.441
 8377SOL     OW26029   5.790   4.948   1.320
 8377SOL    HW126030   5.837   4.860   1.315
 8377SOL    HW226031   5.788   4.989   1.229
 8378SOL     OW26032   5.106   3.333   3.797
 8378SOL    HW126033   5.173   3.391   3.751
 8378SOL    HW226034   5.142   3.240   3.806
 8379SOL     OW26035   4.923   2.684   2.115
 8379SOL    HW126036   4.845   2.628   2.142
 8379SOL    HW226037   4.908   2.719   2.022
 8380SOL     OW26038   5.889   1.862   3.854
 8380SOL    HW126039   5.878   1.766   3.878
 8380SOL    HW226040   5.985   1.882   3.835
 8381SOL     OW26041   2.100   5.385   4.266
 8381SOL    HW126042   2.093   5.341   4.356
 8381SOL    HW226043   2.170   5.338   4.212
 8382SOL     OW26044   1.024   4.282   2.565
 8382SOL    HW126045   1.094   4.213   2.546
 8382SOL    HW226046   1.006   4.285   2.663
 8383SOL     OW26047   3.118   1.149   5.519
 8383SOL    HW126048   3.043   1.200   5.561
 8383SOL    HW226049   3.166   1.209   5.454
 8384SOL     OW26050   1.019   6.805   2.037
 8384SOL    HW126051   1.000   6.882   1.977
 8384SOL    HW226052   1.112   6.812   2.072
 8385SOL     OW26053   4.816   2.328   0.978
 8385SOL    HW126054   4.897   2.311   0.922
 8385SOL    HW226055   4.821   2.273   1.062
 8386SOL     OW26056   0.696   4.267   2.641
 8386SOL    HW126057   0.681   4.178   2.597
 8386SOL    HW226058   0.706   4.337   2.571
 8387SOL     OW26059   0.973   2.088   0.877
 8387SOL    HW126060   1.030   2.106   0.957
 8387SOL    HW226061   0.918   2.169   0.856
 8388SOL     OW26062   0.996   6.786   2.857
 8388SOL    HW126063   1.093   6.798   2.878
 8388SOL    HW226064   0.968   6.693   2.882
 8389SOL     OW26065   5.703   2.769   3.524
 8389SOL    HW126066   5.697   2.674   3.493
 8389SOL    HW226067   5.727   2.828   3.447
 8390SOL     OW26068   6.065   1.487   6.298
 8390SOL    HW126069   6.079   1.586   6.307
 8390SOL    HW226070   5.969   1.468   6.282
 8391SOL     OW26071   6.549   6.994   1.185
 8391SOL    HW126072   6.595   0.060   1.157
 8391SOL    HW226073   6.497   7.010   1.268
 8392SOL     OW26074   3.777   3.023   5.561
 8392SOL    HW126075   3.837   3.050   5.637
 8392SOL    HW226076   3.758   2.925   5.567
 8393SOL     OW26077   5.525   0.237   1.250
 8393SOL    HW126078   5.510   0.138   1.245
 8393SOL    HW226079   5.437   0.283   1.265
 8394SOL     OW26080   5.777   2.387   2.051
 8394SOL    HW126081   5.683   2.371   2.081
 8394SOL    HW226082   5.829   2.430   2.126
 8395SOL     OW26083   2.486   1.472   5.352
 8395SOL    HW126084   2.418   1.516   5.410
 8395SOL    HW226085   2.466   1.493   5.256
 8396SOL     OW26086   5.088   5.515   4.570
 8396SOL    HW126087   5.161   5.526   4.502
 8396SOL    HW226088   5.056   5.421   4.569
 8397SOL     OW26089   6.724   0.036   2.905
 8397SOL    HW126090   6.634   0.030   2.861
 8397SOL    HW226091   6.753   6.963   2.934
 8398SOL     OW26092   5.824   1.858   6.151
 8398SOL    HW126093   5.891   1.932   6.151
 8398SOL    HW226094   5.845   1.794   6.077
 8399SOL     OW26095   0.366   4.757   1.596
 8399SOL    HW126096   0.364   4.701   1.679
 8399SOL    HW226097   0.277   4.754   1.551
 8400SOL     OW26098   1.275   1.401   4.513
 8400SOL    HW126099   1.347   1.437   4.573
 8400SOL    HW226100   1.295   1.427   4.418
 8401SOL     OW26101   2.060   0.618   5.345
 8401SOL    HW126102   2.112   0.673   5.279
 8401SOL    HW226103   2.041   0.673   5.426
 8402SOL     OW26104   3.485   0.757   6.768
 8402SOL    HW126105   3.570   0.803   6.740
 8402SOL    HW226106   3.451   0.800   6.852
 8403SOL     OW26107   5.361   4.744   5.130
 8403SOL    HW126108   5.375   4.650   5.101
 8403SOL    HW226109   5.402   4.806   5.064
 8404SOL     OW26110   1.166   1.344   6.715
 8404SOL    HW126111   1.217   1.259   6.702
 8404SOL    HW226112   1.190   1.384   6.804
 8405SOL     OW26113   4.085   0.012   5.668
 8405SOL    HW126114   3.999   7.017   5.718
 8405SOL    HW226115   4.095   6.956   5.601
 8406SOL     OW26116   5.638   0.453   6.084
 8406SOL    HW126117   5.655   0.380   6.150
 8406SOL    HW226118   5.622   0.413   5.994
 8407SOL     OW26119   4.268   0.331   4.452
 8407SOL    HW126120   4.201   0.370   4.389
 8407SOL    HW226121   4.342   0.397   4.468
 8408SOL     OW26122   3.898   1.678   1.180
 8408SOL    HW126123   3.898   1.582   1.151
 8408SOL    HW226124   3.957   1.689   1.259
 8409SOL     OW26125   4.164   2.215   2.176
 8409SOL    HW126126   4.147   2.186   2.270
 8409SOL    HW226127   4.083   2.196   2.120
 8410SOL     OW26128   0.165   1.771   1.718
 8410SOL    HW126129   0.101   1.793   1.791
 8410SOL    HW226130   0.127   1.799   1.630
 8411SOL     OW26131   0.923   6.527   1.349
 8411SOL    HW126132   0.997   6.592   1.370
 8411SOL    HW226133   0.835   6.571   1.367
 8412SOL     OW26134   2.707   2.379   7.015
 8412SOL    HW126135   2.610   2.382   0.023
 8412SOL    HW226136   2.730   2.288   6.982
 8413SOL     OW26137   3.805   5.371   4.586
 8413SOL    HW126138   3.862   5.326   4.655
 8413SOL    HW226139   3.779   5.462   4.618
 8414SOL     OW26140   1.587   0.009   1.060
 8414SOL    HW126141   1.595   0.035   0.964
 8414SOL    HW226142   1.623   0.082   1.117
 8415SOL     OW26143   3.159   1.671   6.024
 8415SOL    HW126144   3.071   1.683   6.069
 8415SOL    HW226145   3.214   1.606   6.076
 8416SOL     OW26146   0.291   2.344   5.191
 8416SOL    HW126147   0.206   2.303   5.222
 8416SOL    HW226148   0.273   2.436   5.155
 8417SOL     OW26149   1.787   3.572   6.102
 8417SOL    HW126150   1.854   3.532   6.040
 8417SOL    HW226151   1.775   3.669   6.080
 8418SOL     OW26152   0.481   5.810   2.077
 8418SOL    HW126153   0.542   5.870   2.128
 8418SOL    HW226154   0.476   5.840   1.982
 8419SOL     OW26155   3.670   1.809   4.412
 8419SOL    HW126156   3.655   1.819   4.314
 8419SOL    HW226157   3.743   1.871   4.441
 8420SOL     OW26158   3.725   0.870   1.955
 8420SOL    HW126159   3.796   0.877   2.025
 8420SOL    HW226160   3.764   0.893   1.866
 8421SOL     OW26161   4.642   6.823   6.634
 8421SOL    HW126162   4.636   6.897   6.568
 8421SOL    HW226163   4.550   6.786   6.651
 8422SOL     OW26164   5.402   2.911   4.159
 8422SOL    HW126165   5.352   2.825   4.171
 8422SOL    HW226166   5.339   2.983   4.132
 8423SOL     OW26167   6.402   5.525   0.088
 8423SOL    HW126168   6.346   5.508   0.007
 8423SOL    HW226169   6.351   5.584   0.151
 8424SOL     OW26170   3.474   0.652   4.907
 8424SOL    HW126171   3.482   0.680   5.003
 8424SOL    HW226172   3.542   0.582   4.887
 8425SOL     OW26173   3.512   4.161   2.593
 8425SOL    HW126174   3.561   4.171   2.679
 8425SOL    HW226175   3.414   4.177   2.607
 8426SOL     OW26176   3.929   2.978   1.904
 8426SOL    HW126177   3.951   3.028   1.821
 8426SOL    HW226178   3.980   3.017   1.981
 8427SOL     OW26179   4.142   3.516   3.147
 8427SOL    HW126180   4.147   3.492   3.244
 8427SOL    HW226181   4.139   3.432   3.092
 8428SOL     OW26182   5.991   0.281   2.221
 8428SOL    HW126183   6.057   0.206   2.228
 8428SOL    HW226184   6.023   0.346   2.151
 8429SOL     OW26185   2.874   5.583   5.460
 8429SOL    HW126186   2.867   5.484   5.465
 8429SOL    HW226187   2.839   5.615   5.372
 8430SOL     OW26188   5.093   6.665   5.331
 8430SOL    HW126189   5.174   6.681   5.276
 8430SOL    HW226190   5.086   6.736   5.402
 8431SOL     OW26191   1.841   3.268   5.766
 8431SOL    HW126192   1.894   3.320   5.834
 8431SOL    HW226193   1.797   3.331   5.703
 8432SOL     OW26194   6.326   4.981   5.786
 8432SOL    HW126195   6.411   4.999   5.837
 8432SOL    HW226196   6.313   4.882   5.777
 8433SOL     OW26197   5.574   1.898   1.159
 8433SOL    HW126198   5.621   1.812   1.140
 8433SOL    HW226199   5.639   1.966   1.193
 8434SOL     OW26200   2.366   5.995   4.850
 8434SOL    HW126201   2.413   5.915   4.888
 8434SOL    HW226202   2.371   5.992   4.750
 8435SOL     OW26203   5.563   1.885   3.484
 8435SOL    HW126204   5.616   1.907   3.566
 8435SOL    HW226205   5.471   1.923   3.493
 8436SOL     OW26206   2.436   5.836   2.211
 8436SOL    HW126207   2.449   5.739   2.188
 8436SOL    HW226208   2.421   5.888   2.127
 8437SOL     OW26209   0.859   5.681   0.976
 8437SOL    HW126210   0.874   5.709   0.881
 8437SOL    HW226211   0.938   5.628   1.008
 8438SOL     OW26212   0.953   4.073   1.786
 8438SOL    HW126213   1.038   4.039   1.747
 8438SOL    HW226214   0.968   4.097   1.882
 8439SOL     OW26215   6.402   4.394   3.024
 8439SOL    HW126216   6.342   4.314   3.030
 8439SOL    HW226217   6.377   4.449   2.944
 8440SOL     OW26218   1.715   1.977   2.535
 8440SOL    HW126219   1.758   2.066   2.552
 8440SOL    HW226220   1.774   1.905   2.572
 8441SOL     OW26221   0.137   2.430   5.572
 8441SOL    HW126222   0.075   2.454   5.497
 8441SOL    HW226223   0.120   2.335   5.599
 8442SOL     OW26224   3.675   1.967   6.714
 8442SOL    HW126225   3.588   1.923   6.694
 8442SOL    HW226226   3.668   2.019   6.798
 8443SOL     OW26227   1.785   4.385   2.901
 8443SOL    HW126228   1.781   4.334   2.815
 8443SOL    HW226229   1.764   4.323   2.977
 8444SOL     OW26230   5.541   5.203   4.853
 8444SOL    HW126231   5.537   5.154   4.766
 8444SOL    HW226232   5.523   5.300   4.838
 8445SOL     OW26233   4.719   6.583   6.776
 8445SOL    HW126234   4.620   6.585   6.787
 8445SOL    HW226235   4.745   6.636   6.695
 8446SOL     OW26236   0.104   5.592   5.070
 8446SOL    HW126237   0.135   5.685   5.052
 8446SOL    HW226238   0.020   5.574   5.017
 8447SOL     OW26239   3.806   1.212   4.059
 8447SOL    HW126240   3.715   1.213   4.101
 8447SOL    HW226241   3.826   1.121   4.025
 8448SOL     OW26242   3.509   5.913   3.023
 8448SOL    HW126243   3.411   5.897   3.007
 8448SOL    HW226244   3.558   5.907   2.937
 8449SOL     OW26245   1.692   1.810   3.748
 8449SOL    HW126246   1.654   1.897   3.718
 8449SOL    HW226247   1.630   1.736   3.721
 8450SOL     OW26248   6.779   0.466   0.189
 8450SOL    HW126249   6.802   0.525   0.112
 8450SOL    HW226250   6.680   0.468   0.204
 8451SOL     OW26251   3.917   2.544   1.324
 8451SOL    HW126252   3.874   2.519   1.411
 8451SOL    HW226253   3.851   2.534   1.250
 8452SOL     OW26254   5.038   1.357   6.251
 8452SOL    HW126255   5.087   1.281   6.294
 8452SOL    HW226256   4.978   1.401   6.318
 8453SOL     OW26257   6.765   0.280   6.884
 8453SOL    HW126258   6.818   0.212   6.832
 8453SOL    HW226259   6.667   0.265   6.868
 8454SOL     OW26260   6.137   5.035   6.683
 8454SOL    HW126261   6.185   5.118   6.713
 8454SOL    HW226262   6.132   5.033   6.584
 8455SOL     OW26263   6.458   1.134   2.506
 8455SOL    HW126264   6.440   1.048   2.460
 8455SOL    HW226265   6.528   1.120   2.576
 8456SOL     OW26266   0.159   0.380   2.604
 8456SOL    HW126267   0.229   0.318   2.639
 8456SOL    HW226268   0.119   0.341   2.520
 8457SOL     OW26269   6.859   6.959   5.311
 8457SOL    HW126270   6.820   6.916   5.393
 8457SOL    HW226271   6.879   6.889   5.243
 8458SOL     OW26272   1.281   6.607   6.749
 8458SOL    HW126273   1.262   6.704   6.733
 8458SOL    HW226274   1.374   6.586   6.718
 8459SOL     OW26275   1.245   6.013   3.395
 8459SOL    HW126276   1.203   5.958   3.322
 8459SOL    HW226277   1.300   6.085   3.354
 8460SOL     OW26278   3.935   3.640   3.010
 8460SOL    HW126279   3.911   3.595   2.924
 8460SOL    HW226280   4.020   3.601   3.046
 8461SOL     OW26281   6.095   3.534   3.642
 8461SOL    HW126282   6.001   3.500   3.639
 8461SOL    HW226283   6.159   3.458   3.633
 8462SOL     OW26284   2.703   2.690   1.712
 8462SOL    HW126285   2.667   2.645   1.630
 8462SOL    HW226286   2.791   2.648   1.736
 8463SOL     OW26287   6.039   0.718   2.028
 8463SOL    HW126288   5.988   0.795   2.066
 8463SOL    HW226289   5.998   0.691   1.941
 8464SOL     OW26290   6.583   1.554   4.689
 8464SOL    HW126291   6.486   1.547   4.715
 8464SOL    HW226292   6.634   1.600   4.763
 8465SOL     OW26293   1.557   1.890   0.326
 8465SOL    HW126294   1.487   1.859   0.262
 8465SOL    HW226295   1.609   1.811   0.360
 8466SOL     OW26296   0.514   7.002   4.432
 8466SOL    HW126297   0.560   6.930   4.379
 8466SOL    HW226298   0.436   0.018   4.380
 8467SOL     OW26299   4.048   5.327   0.824
 8467SOL    HW126300   4.147   5.334   0.816
 8467SOL    HW226301   4.020   5.231   0.812
 8468SOL     OW26302   3.631   2.177   6.932
 8468SOL    HW126303   3.704   2.233   6.970
 8468SOL    HW226304   3.593   2.119   7.004
 8469SOL     OW26305   4.048   2.066   6.159
 8469SOL    HW126306   4.075   2.008   6.082
 8469SOL    HW226307   4.127   2.118   6.191
 8470SOL     OW26308   1.479   3.022   6.790
 8470SOL    HW126309   1.456   2.997   6.695
 8470SOL    HW226310   1.548   2.958   6.825
 8471SOL     OW26311   3.997   1.976   4.109
 8471SOL    HW126312   3.996   1.971   4.209
 8471SOL    HW226313   4.078   1.929   4.074
 8472SOL     OW26314   1.197   6.587   3.086
 8472SOL    HW126315   1.180   6.520   3.158
 8472SOL    HW226316   1.181   6.545   2.996
 8473SOL     OW26317   6.453   5.748   6.499
 8473SOL    HW126318   6.365   5.715   6.535
 8473SOL    HW226319   6.457   5.730   6.401
 8474SOL     OW26320   3.745   5.357   0.570
 8474SOL    HW126321   3.736   5.455   0.590
 8474SOL    HW226322   3.770   5.309   0.654
 8475SOL     OW26323   4.665   2.242   3.275
 8475SOL    HW126324   4.607   2.323   3.276
 8475SOL    HW226325   4.635   2.181   3.201
 8476SOL     OW26326   4.534   0.489   2.285
 8476SOL    HW126327   4.535   0.409   2.345
 8476SOL    HW226328   4.493   0.465   2.198
 8477SOL     OW26329   2.530   0.169   2.635
 8477SOL    HW126330   2.495   0.263   2.635
 8477SOL    HW226331   2.469   0.111   2.582
 8478SOL     OW26332   1.671   0.683   5.838
 8478SOL    HW126333   1.657   0.781   5.827
 8478SOL    HW226334   1.760   0.657   5.802
 8479SOL     OW26335   5.248   0.956   2.697
 8479SOL    HW126336   5.178   0.939   2.766
 8479SOL    HW226337   5.211   0.934   2.607
 8480SOL     OW26338   1.949   1.573   1.509
 8480SOL    HW126339   2.034   1.529   1.481
 8480SOL    HW226340   1.964   1.671   1.523
 8481SOL     OW26341   4.482   0.107   5.987
 8481SOL    HW126342   4.551   0.047   5.947
 8481SOL    HW226343   4.515   0.201   5.986
 8482SOL     OW26344   0.496   0.609   1.805
 8482SOL    HW126345   0.491   0.668   1.885
 8482SOL    HW226346   0.549   0.527   1.826
 8483SOL     OW26347   5.617   6.597   1.667
 8483SOL    HW126348   5.666   6.552   1.741
 8483SOL    HW226349   5.521   6.568   1.669
 8484SOL     OW26350   6.897   4.237   5.062
 8484SOL    HW126351   6.869   4.146   5.093
 8484SOL    HW226352   6.837   4.268   4.989
 8485SOL     OW26353   2.160   3.226   5.955
 8485SOL    HW126354   2.252   3.242   5.991
 8485SOL    HW226355   2.166   3.172   5.871
 8486SOL     OW26356   4.410   0.837   2.905
 8486SOL    HW126357   4.374   0.828   2.812
 8486SOL    HW226358   4.443   0.749   2.937
 8487SOL     OW26359   4.385   1.334   0.849
 8487SOL    HW126360   4.378   1.373   0.941
 8487SOL    HW226361   4.378   1.234   0.854
 8488SOL     OW26362   5.733   4.009   4.788
 8488SOL    HW126363   5.814   4.061   4.761
 8488SOL    HW226364   5.759   3.916   4.811
 8489SOL     OW26365   3.339   6.479   2.870
 8489SOL    HW126366   3.317   6.402   2.811
 8489SOL    HW226367   3.327   6.565   2.820
 8490SOL     OW26368   3.614   5.403   2.593
 8490SOL    HW126369   3.562   5.398   2.678
 8490SOL    HW226370   3.629   5.311   2.557
 8491SOL     OW26371   1.008   1.265   1.825
 8491SOL    HW126372   1.082   1.259   1.759
 8491SOL    HW226373   1.041   1.307   1.909
 8492SOL     OW26374   5.622   4.293   4.553
 8492SOL    HW126375   5.693   4.270   4.486
 8492SOL    HW226376   5.545   4.336   4.506
 8493SOL     OW26377   3.546   2.453   1.451
 8493SOL    HW126378   3.633   2.463   1.499
 8493SOL    HW226379   3.479   2.411   1.511
 8494SOL     OW26380   3.670   5.880   6.623
 8494SOL    HW126381   3.762   5.917   6.636
 8494SOL    HW226382   3.618   5.890   6.708
 8495SOL     OW26383   0.679   2.287   0.212
 8495SOL    HW126384   0.686   2.369   0.155
 8495SOL    HW226385   0.590   2.286   0.258
 8496SOL     OW26386   0.409   2.219   3.303
 8496SOL    HW126387   0.459   2.132   3.310
 8496SOL    HW226388   0.316   2.201   3.273
 8497SOL     OW26389   5.854   4.579   3.321
 8497SOL    HW126390   5.947   4.543   3.317
 8497SOL    HW226391   5.792   4.512   3.280
 8498SOL     OW26392   6.054   0.665   1.440
 8498SOL    HW126393   6.117   0.598   1.401
 8498SOL    HW226394   6.090   0.700   1.526
 8499SOL     OW26395   0.852   3.828   6.542
 8499SOL    HW126396   0.900   3.776   6.471
 8499SOL    HW226397   0.919   3.875   6.599
 8500SOL     OW26398   3.010   0.836   5.722
 8500SOL    HW126399   3.095   0.883   5.699
 8500SOL    HW226400   2.973   0.794   5.639
 8501SOL     OW26401   3.084   4.319   5.834
 8501SOL    HW126402   3.077   4.418   5.846
 8501SOL    HW226403   3.007   4.275   5.880
 8502SOL     OW26404   1.081   6.853   1.669
 8502SOL    HW126405   1.167   6.803   1.672
 8502SOL    HW226406   1.005   6.789   1.678
 8503SOL     OW26407   3.365   5.651   3.615
 8503SOL    HW126408   3.271   5.618   3.615
 8503SOL    HW226409   3.411   5.620   3.699
 8504SOL     OW26410   1.236   5.382   3.270
 8504SOL    HW126411   1.179   5.445   3.217
 8504SOL    HW226412   1.199   5.374   3.363
 8505SOL     OW26413   4.560   2.443   4.173
 8505SOL    HW126414   4.612   2.489   4.102
 8505SOL    HW226415   4.559   2.500   4.256
 8506SOL     OW26416   0.998   6.246   6.878
 8506SOL    HW126417   1.062   6.178   6.842
 8506SOL    HW226418   1.039   6.337   6.873
 8507SOL     OW26419   1.849   0.128   5.106
 8507SOL    HW126420   1.858   0.048   5.047
 8507SOL    HW226421   1.754   0.161   5.103
 8508SOL     OW26422   0.622   3.075   5.315
 8508SOL    HW126423   0.598   3.172   5.325
 8508SOL    HW226424   0.650   3.057   5.221
 8509SOL     OW26425   6.300   1.529   4.728
 8509SOL    HW126426   6.213   1.526   4.679
 8509SOL    HW226427   6.305   1.453   4.792
 8510SOL     OW26428   5.367   0.168   2.365
 8510SOL    HW126429   5.318   0.247   2.330
 8510SOL    HW226430   5.332   0.145   2.456
 8511SOL     OW26431   6.775   5.447   1.594
 8511SOL    HW126432   6.831   5.522   1.630
 8511SOL    HW226433   6.683   5.480   1.575
 8512SOL     OW26434   3.589   2.780   0.547
 8512SOL    HW126435   3.528   2.859   0.550
 8512SOL    HW226436   3.662   2.796   0.480
 8513SOL     OW26437   1.105   3.210   0.616
 8513SOL    HW126438   1.036   3.181   0.682
 8513SOL    HW226439   1.136   3.303   0.638
 8514SOL     OW26440   2.508   2.718   5.171
 8514SOL    HW126441   2.489   2.807   5.131
 8514SOL    HW226442   2.555   2.730   5.258
 8515SOL     OW26443   2.908   0.359   0.866
 8515SOL    HW126444   2.992   0.368   0.812
 8515SOL    HW226445   2.833   0.330   0.807
 8516SOL     OW26446   5.768   3.192   4.277
 8516SOL    HW126447   5.689   3.173   4.219
 8516SOL    HW226448   5.818   3.107   4.295
 8517SOL     OW26449   1.662   1.852   6.234
 8517SOL    HW126450   1.619   1.923   6.289
 8517SOL    HW226451   1.758   1.875   6.218
 8518SOL     OW26452   5.103   5.202   6.732
 8518SOL    HW126453   5.064   5.157   6.812
 8518SOL    HW226454   5.191   5.160   6.710
 8519SOL     OW26455   0.549   3.509   0.421
 8519SOL    HW126456   0.480   3.471   0.482
 8519SOL    HW226457   0.607   3.572   0.472
 8520SOL     OW26458   3.336   3.927   5.746
 8520SOL    HW126459   3.256   3.877   5.778
 8520SOL    HW226460   3.400   3.938   5.822
 8521SOL     OW26461   1.744   6.804   5.112
 8521SOL    HW126462   1.814   6.810   5.183
 8521SOL    HW226463   1.769   6.732   5.047
 8522SOL     OW26464   1.256   6.517   0.334
 8522SOL    HW126465   1.214   6.444   0.389
 8522SOL    HW226466   1.193   6.544   0.261
 8523SOL     OW26467   3.653   1.782   0.932
 8523SOL    HW126468   3.680   1.855   0.995
 8523SOL    HW226469   3.570   1.809   0.883
 8524SOL     OW26470   2.463   5.695   5.234
 8524SOL    HW126471   2.537   5.642   5.276
 8524SOL    HW226472   2.376   5.670   5.277
 8525SOL     OW26473   6.325   3.291   2.323
 8525SOL    HW126474   6.329   3.298   2.223
 8525SOL    HW226475   6.417   3.280   2.360
 8526SOL     OW26476   0.130   4.363   6.788
 8526SOL    HW126477   0.188   4.414   6.724
 8526SOL    HW226478   0.094   4.425   6.857
 8527SOL     OW26479   2.610   1.120   6.178
 8527SOL    HW126480   2.558   1.035   6.165
 8527SOL    HW226481   2.555   1.197   6.148
 8528SOL     OW26482   5.774   0.943   0.737
 8528SOL    HW126483   5.865   0.982   0.751
 8528SOL    HW226484   5.750   0.885   0.816
 8529SOL     OW26485   0.702   6.233   6.746
 8529SOL    HW126486   0.645   6.312   6.769
 8529SOL    HW226487   0.747   6.199   6.829
 8530SOL     OW26488   3.828   3.991   2.790
 8530SOL    HW126489   3.884   3.908   2.798
 8530SOL    HW226490   3.761   3.979   2.717
 8531SOL     OW26491   6.112   5.419   3.405
 8531SOL    HW126492   6.088   5.466   3.320
 8531SOL    HW226493   6.211   5.420   3.418
 8532SOL     OW26494   3.433   5.596   7.002
 8532SOL    HW126495   3.461   5.525   6.938
 8532SOL    HW226496   3.350   5.567   0.032
 8533SOL     OW26497   2.218   6.342   4.861
 8533SOL    HW126498   2.217   6.430   4.909
 8533SOL    HW226499   2.209   6.268   4.928
 8534SOL     OW26500   1.665   2.294   2.848
 8534SOL    HW126501   1.750   2.338   2.876
 8534SOL    HW226502   1.632   2.334   2.762
 8535SOL     OW26503   5.613   0.504   2.318
 8535SOL    HW126504   5.548   0.509   2.393
 8535SOL    HW226505   5.678   0.579   2.325
 8536SOL     OW26506   1.444   0.791   3.765
 8536SOL    HW126507   1.384   0.859   3.809
 8536SOL    HW226508   1.533   0.833   3.748
 8537SOL     OW26509   6.020   1.333   3.390
 8537SOL    HW126510   6.054   1.379   3.308
 8537SOL    HW226511   5.933   1.374   3.418
 8538SOL     OW26512   0.910   2.272   0.336
 8538SOL    HW126513   0.824   2.262   0.286
 8538SOL    HW226514   0.921   2.366   0.367
 8539SOL     OW26515   5.244   2.997   1.869
 8539SOL    HW126516   5.229   3.014   1.967
 8539SOL    HW226517   5.249   2.899   1.852
 8540SOL     OW26518   4.292   0.656   1.337
 8540SOL    HW126519   4.357   0.581   1.319
 8540SOL    HW226520   4.232   0.666   1.258
 8541SOL     OW26521   1.784   2.866   3.642
 8541SOL    HW126522   1.747   2.774   3.654
 8541SOL    HW226523   1.746   2.927   3.713
 8542SOL     OW26524   3.384   4.799   0.351
 8542SOL    HW126525   3.411   4.765   0.441
 8542SOL    HW226526   3.284   4.800   0.344
 8543SOL     OW26527   3.468   1.707   6.365
 8543SOL    HW126528   3.490   1.752   6.279
 8543SOL    HW226529   3.370   1.715   6.383
 8544SOL     OW26530   6.337   1.839   4.703
 8544SOL    HW126531   6.247   1.871   4.672
 8544SOL    HW226532   6.342   1.740   4.691
 8545SOL     OW26533   4.476   6.640   5.218
 8545SOL    HW126534   4.484   6.587   5.303
 8545SOL    HW226535   4.387   6.624   5.177
 8546SOL     OW26536   4.338   2.460   0.006
 8546SOL    HW126537   4.267   2.399   6.989
 8546SOL    HW226538   4.409   2.472   6.954
 8547SOL     OW26539   1.643   4.579   1.911
 8547SOL    HW126540   1.704   4.563   1.833
 8547SOL    HW226541   1.592   4.495   1.931
 8548SOL     OW26542   6.370   2.185   5.567
 8548SOL    HW126543   6.371   2.118   5.493
 8548SOL    HW226544   6.285   2.175   5.619
 8549SOL     OW26545   5.144   3.331   5.585
 8549SOL    HW126546   5.214   3.372   5.526
 8549SOL    HW226547   5.062   3.388   5.583
 8550SOL     OW26548   0.863   4.335   5.769
 8550SOL    HW126549   0.794   4.300   5.831
 8550SOL    HW226550   0.950   4.288   5.784
 8551SOL     OW26551   2.369   4.280   0.799
 8551SOL    HW126552   2.426   4.330   0.865
 8551SOL    HW226553   2.292   4.337   0.772
 8552SOL     OW26554   3.215   6.681   4.595
 8552SOL    HW126555   3.304   6.692   4.639
 8552SOL    HW226556   3.205   6.749   4.523
 8553SOL     OW26557   5.937   5.394   6.944
 8553SOL    HW126558   6.002   5.318   6.944
 8553SOL    HW226559   5.971   5.467   7.003
 8554SOL     OW26560   5.648   3.612   6.828
 8554SOL    HW126561   5.737   3.569   6.819
 8554SOL    HW226562   5.579   3.556   6.783
 8555SOL     OW26563   1.950   6.834   4.301
 8555SOL    HW126564   1.905   6.752   4.265
 8555SOL    HW226565   2.014   6.808   4.374
 8556SOL     OW26566   5.953   6.987   4.022
 8556SOL    HW126567   6.012   6.939   3.957
 8556SOL    HW226568   5.873   0.004   3.973
 8557SOL     OW26569   0.107   1.350   0.607
 8557SOL    HW126570   0.015   1.337   0.571
 8557SOL    HW226571   0.103   1.380   0.702
 8558SOL     OW26572   1.235   4.717   2.236
 8558SOL    HW126573   1.224   4.732   2.334
 8558SOL    HW226574   1.155   4.670   2.199
 8559SOL     OW26575   0.640   1.882   5.599
 8559SOL    HW126576   0.541   1.893   5.597
 8559SOL    HW226577   0.682   1.940   5.530
 8560SOL     OW26578   6.473   2.268   6.458
 8560SOL    HW126579   6.491   2.172   6.481
 8560SOL    HW226580   6.429   2.313   6.536
 8561SOL     OW26581   4.390   6.514   5.843
 8561SOL    HW126582   4.447   6.439   5.876
 8561SOL    HW226583   4.303   6.477   5.808
 8562SOL     OW26584   4.191   0.194   4.665
 8562SOL    HW126585   4.271   0.162   4.716
 8562SOL    HW226586   4.221   0.243   4.583
 8563SOL     OW26587   2.953   2.494   6.404
 8563SOL    HW126588   2.945   2.592   6.425
 8563SOL    HW226589   3.046   2.464   6.424
 8564SOL     OW26590   0.433   6.319   2.743
 8564SOL    HW126591   0.342   6.294   2.776
 8564SOL    HW226592   0.429   6.410   2.700
 8565SOL     OW26593   3.960   0.626   1.249
 8565SOL    HW126594   3.953   0.605   1.151
 8565SOL    HW226595   3.946   0.723   1.264
 8566SOL     OW26596   1.552   3.956   3.772
 8566SOL    HW126597   1.590   3.873   3.732
 8566SOL    HW226598   1.623   4.027   3.775
 8567SOL     OW26599   5.231   6.061   6.161
 8567SOL    HW126600   5.242   6.048   6.062
 8567SOL    HW226601   5.233   6.158   6.183
 8568SOL     OW26602   5.342   0.365   0.074
 8568SOL    HW126603   5.430   0.319   0.086
 8568SOL    HW226604   5.326   0.427   0.151
 8569SOL     OW26605   4.054   1.073   5.344
 8569SOL    HW126606   3.965   1.079   5.389
 8569SOL    HW226607   4.105   0.996   5.382
 8570SOL     OW26608   0.198   3.048   6.225
 8570SOL    HW126609   0.227   3.140   6.250
 8570SOL    HW226610   0.194   2.991   6.307
 8571SOL     OW26611   0.106   4.601   5.093
 8571SOL    HW126612   0.058   4.658   5.159
 8571SOL    HW226613   0.112   4.507   5.127
 8572SOL     OW26614   2.821   4.776   5.556
 8572SOL    HW126615   2.797   4.779   5.653
 8572SOL    HW226616   2.902   4.832   5.539
 8573SOL     OW26617   3.498   5.934   4.241
 8573SOL    HW126618   3.506   5.853   4.299
 8573SOL    HW226619   3.471   6.012   4.298
 8574SOL     OW26620   0.418   4.048   4.077
 8574SOL    HW126621   0.406   3.949   4.068
 8574SOL    HW226622   0.332   4.094   4.055
 8575SOL     OW26623   2.816   3.436   6.459
 8575SOL    HW126624   2.863   3.504   6.402
 8575SOL    HW226625   2.750   3.385   6.404
 8576SOL     OW26626   2.091   0.304   0.702
 8576SOL    HW126627   2.088   0.402   0.680
 8576SOL    HW226628   1.998   0.268   0.705
 8577SOL     OW26629   6.267   5.703   4.340
 8577SOL    HW126630   6.274   5.656   4.252
 8577SOL    HW226631   6.206   5.652   4.400
 8578SOL     OW26632   4.962   0.534   3.131
 8578SOL    HW126633   4.905   0.482   3.196
 8578SOL    HW226634   4.905   0.596   3.079
 8579SOL     OW26635   0.417   5.116   2.449
 8579SOL    HW126636   0.443   5.048   2.517
 8579SOL    HW226637   0.477   5.108   2.369
 8580SOL     OW26638   2.707   4.991   6.047
 8580SOL    HW126639   2.798   4.973   6.085
 8580SOL    HW226640   2.679   5.083   6.072
 8581SOL     OW26641   3.289   2.943   0.289
 8581SOL    HW126642   3.271   3.023   0.232
 8581SOL    HW226643   3.350   2.880   0.240
 8582SOL     OW26644   4.149   4.876   0.557
 8582SOL    HW126645   4.231   4.856   0.611
 8582SOL    HW226646   4.167   4.858   0.461
 8583SOL     OW26647   5.780   6.724   4.999
 8583SOL    HW126648   5.793   6.752   4.904
 8583SOL    HW226649   5.863   6.680   5.033
 8584SOL     OW26650   0.489   5.582   6.790
 8584SOL    HW126651   0.551   5.660   6.777
 8584SOL    HW226652   0.416   5.586   6.722
 8585SOL     OW26653   1.371   1.955   1.212
 8585SOL    HW126654   1.405   1.973   1.120
 8585SOL    HW226655   1.335   2.039   1.253
 8586SOL     OW26656   3.899   5.179   4.394
 8586SOL    HW126657   3.868   5.246   4.461
 8586SOL    HW226658   3.845   5.095   4.403
 8587SOL     OW26659   6.671   1.806   1.387
 8587SOL    HW126660   6.733   1.767   1.455
 8587SOL    HW226661   6.658   1.741   1.312
 8588SOL     OW26662   3.585   2.295   6.378
 8588SOL    HW126663   3.638   2.360   6.323
 8588SOL    HW226664   3.586   2.324   6.473
 8589SOL     OW26665   2.887   1.600   4.635
 8589SOL    HW126666   2.874   1.668   4.707
 8589SOL    HW226667   2.806   1.542   4.629
 8590SOL     OW26668   5.682   5.046   5.186
 8590SOL    HW126669   5.738   5.127   5.200
 8590SOL    HW226670   5.693   4.983   5.263
 8591SOL     OW26671   0.299   2.723   0.797
 8591SOL    HW126672   0.358   2.772   0.733
 8591SOL    HW226673   0.210   2.768   0.801
 8592SOL     OW26674   6.363   5.986   6.744
 8592SOL    HW126675   6.394   6.080   6.755
 8592SOL    HW226676   6.442   5.926   6.729
 8593SOL     OW26677   0.384   5.929   3.053
 8593SOL    HW126678   0.329   5.972   3.125
 8593SOL    HW226679   0.459   5.879   3.094
 8594SOL     OW26680   3.648   4.109   3.194
 8594SOL    HW126681   3.736   4.079   3.230
 8594SOL    HW226682   3.585   4.126   3.270
 8595SOL     OW26683   1.251   3.332   1.568
 8595SOL    HW126684   1.163   3.283   1.572
 8595SOL    HW226685   1.326   3.266   1.579
 8596SOL     OW26686   6.822   4.085   2.457
 8596SOL    HW126687   6.741   4.136   2.483
 8596SOL    HW226688   6.895   4.149   2.431
 8597SOL     OW26689   2.625   1.740   0.482
 8597SOL    HW126690   2.655   1.651   0.446
 8597SOL    HW226691   2.599   1.729   0.578
 8598SOL     OW26692   5.929   3.492   2.001
 8598SOL    HW126693   5.921   3.526   2.094
 8598SOL    HW226694   5.918   3.392   2.000
 8599SOL     OW26695   0.579   3.157   0.742
 8599SOL    HW126696   0.509   3.191   0.679
 8599SOL    HW226697   0.594   3.059   0.724
 8600SOL     OW26698   6.655   2.496   6.465
 8600SOL    HW126699   6.640   2.522   6.561
 8600SOL    HW226700   6.586   2.428   6.438
 8601SOL     OW26701   0.559   0.263   5.099
 8601SOL    HW126702   0.628   0.255   5.027
 8601SOL    HW226703   0.602   0.300   5.181
 8602SOL     OW26704   1.680   6.499   1.631
 8602SOL    HW126705   1.584   6.522   1.615
 8602SOL    HW226706   1.697   6.405   1.604
 8603SOL     OW26707   4.839   3.386   1.288
 8603SOL    HW126708   4.877   3.318   1.351
 8603SOL    HW226709   4.741   3.397   1.305
 8604SOL     OW26710   5.669   2.617   3.045
 8604SOL    HW126711   5.726   2.698   3.029
 8604SOL    HW226712   5.723   2.549   3.095
 8605SOL     OW26713   3.219   5.455   1.765
 8605SOL    HW126714   3.204   5.394   1.687
 8605SOL    HW226715   3.309   5.498   1.758
 8606SOL     OW26716   3.617   5.629   5.191
 8606SOL    HW126717   3.672   5.690   5.134
 8606SOL    HW226718   3.618   5.662   5.285
 8607SOL     OW26719   2.972   6.253   0.926
 8607SOL    HW126720   2.905   6.201   0.874
 8607SOL    HW226721   3.049   6.194   0.950
 8608SOL     OW26722   5.863   6.988   2.196
 8608SOL    HW126723   5.824   0.050   2.150
 8608SOL    HW226724   5.946   6.959   2.148
 8609SOL     OW26725   4.803   0.622   6.226
 8609SOL    HW126726   4.816   0.538   6.279
 8609SOL    HW226727   4.892   0.656   6.195
 8610SOL     OW26728   0.548   6.671   5.913
 8610SOL    HW126729   0.476   6.664   5.843
 8610SOL    HW226730   0.629   6.714   5.874
 8611SOL     OW26731   1.782   1.697   3.314
 8611SOL    HW126732   1.777   1.789   3.275
 8611SOL    HW226733   1.853   1.695   3.384
 8612SOL     OW26734   5.194   3.447   4.439
 8612SOL    HW126735   5.259   3.479   4.509
 8612SOL    HW226736   5.105   3.490   4.455
 8613SOL     OW26737   1.238   0.723   0.684
 8613SOL    HW126738   1.297   0.804   0.687
 8613SOL    HW226739   1.142   0.752   0.674
 8614SOL     OW26740   1.448   1.863   3.569
 8614SOL    HW126741   1.435   1.875   3.471
 8614SOL    HW226742   1.469   1.952   3.611
 8615SOL     OW26743   4.802   1.840   5.602
 8615SOL    HW126744   4.736   1.914   5.595
 8615SOL    HW226745   4.876   1.855   5.536
 8616SOL     OW26746   0.831   3.105   0.168
 8616SOL    HW126747   0.890   3.154   0.104
 8616SOL    HW226748   0.871   3.108   0.260
 8617SOL     OW26749   5.556   2.403   0.873
 8617SOL    HW126750   5.471   2.455   0.875
 8617SOL    HW226751   5.584   2.388   0.778
 8618SOL     OW26752   4.144   1.244   3.108
 8618SOL    HW126753   4.130   1.330   3.058
 8618SOL    HW226754   4.125   1.258   3.205
 8619SOL     OW26755   3.942   6.361   0.752
 8619SOL    HW126756   3.919   6.334   0.845
 8619SOL    HW226757   3.964   6.459   0.750
 8620SOL     OW26758   6.275   5.878   3.431
 8620SOL    HW126759   6.212   5.815   3.476
 8620SOL    HW226760   6.227   5.964   3.412
 8621SOL     OW26761   5.037   0.823   4.371
 8621SOL    HW126762   4.952   0.811   4.319
 8621SOL    HW226763   5.065   0.919   4.366
 8622SOL     OW26764   4.752   4.972   6.330
 8622SOL    HW126765   4.686   4.976   6.256
 8622SOL    HW226766   4.735   5.047   6.394
 8623SOL     OW26767   6.556   2.225   4.088
 8623SOL    HW126768   6.491   2.291   4.128
 8623SOL    HW226769   6.549   2.138   4.136
 8624SOL     OW26770   6.317   3.270   3.865
 8624SOL    HW126771   6.353   3.363   3.878
 8624SOL    HW226772   6.268   3.265   3.778
 8625SOL     OW26773   3.577   1.509   6.558
 8625SOL    HW126774   3.550   1.552   6.472
 8625SOL    HW226775   3.674   1.524   6.575
 8626SOL     OW26776   2.845   3.465   2.439
 8626SOL    HW126777   2.875   3.420   2.355
 8626SOL    HW226778   2.748   3.487   2.431
 8627SOL     OW26779   2.444   0.633   0.183
 8627SOL    HW126780   2.396   0.585   0.256
 8627SOL    HW226781   2.471   0.569   0.112
 8628SOL     OW26782   6.330   1.454   1.103
 8628SOL    HW126783   6.251   1.477   1.160
 8628SOL    HW226784   6.400   1.411   1.159
 8629SOL     OW26785   1.367   5.701   3.540
 8629SOL    HW126786   1.290   5.748   3.585
 8629SOL    HW226787   1.430   5.667   3.610
 8630SOL     OW26788   5.282   5.166   3.936
 8630SOL    HW126789   5.299   5.151   4.034
 8630SOL    HW226790   5.338   5.241   3.904
 8631SOL     OW26791   4.466   6.415   4.039
 8631SOL    HW126792   4.501   6.329   4.076
 8631SOL    HW226793   4.490   6.422   3.942
 8632SOL     OW26794   3.227   0.512   3.259
 8632SOL    HW126795   3.150   0.505   3.322
 8632SOL    HW226796   3.199   0.565   3.179
 8633SOL     OW26797   6.844   6.589   2.718
 8633SOL    HW126798   6.932   6.630   2.742
 8633SOL    HW226799   6.857   6.492   2.701
 8634SOL     OW26800   6.108   5.927   1.696
 8634SOL    HW126801   6.163   5.853   1.659
 8634SOL    HW226802   6.060   5.896   1.778
 8635SOL     OW26803   6.158   3.352   5.508
 8635SOL    HW126804   6.094   3.294   5.457
 8635SOL    HW226805   6.128   3.447   5.504
 8636SOL     OW26806   5.332   4.922   0.459
 8636SOL    HW126807   5.302   4.949   0.550
 8636SOL    HW226808   5.256   4.934   0.394
 8637SOL     OW26809   1.417   0.918   1.635
 8637SOL    HW126810   1.390   0.867   1.553
 8637SOL    HW226811   1.476   0.994   1.608
 8638SOL     OW26812   5.567   4.641   1.162
 8638SOL    HW126813   5.517   4.624   1.247
 8638SOL    HW226814   5.648   4.583   1.158
 8639SOL     OW26815   6.284   2.236   1.947
 8639SOL    HW126816   6.313   2.296   1.872
 8639SOL    HW226817   6.211   2.282   1.999
 8640SOL     OW26818   5.038   6.280   1.601
 8640SOL    HW126819   4.953   6.264   1.550
 8640SOL    HW226820   5.017   6.334   1.683
 8641SOL     OW26821   4.855   4.334   3.697
 8641SOL    HW126822   4.910   4.406   3.738
 8641SOL    HW226823   4.845   4.352   3.599
 8642SOL     OW26824   4.266   1.802   1.686
 8642SOL    HW126825   4.229   1.854   1.609
 8642SOL    HW226826   4.224   1.834   1.771
 8643SOL     OW26827   4.913   0.313   0.305
 8643SOL    HW126828   4.898   0.407   0.275
 8643SOL    HW226829   4.969   0.265   0.238
 8644SOL     OW26830   6.668   3.020   5.056
 8644SOL    HW126831   6.686   3.014   4.958
 8644SOL    HW226832   6.613   2.941   5.085
 8645SOL     OW26833   6.375   3.722   1.596
 8645SOL    HW126834   6.377   3.775   1.511
 8645SOL    HW226835   6.378   3.783   1.675
 8646SOL     OW26836   5.015   5.883   1.080
 8646SOL    HW126837   4.928   5.846   1.047
 8646SOL    HW226838   5.029   5.856   1.175
 8647SOL     OW26839   4.496   4.718   1.998
 8647SOL    HW126840   4.586   4.744   2.033
 8647SOL    HW226841   4.464   4.787   1.933
 8648SOL     OW26842   6.118   1.310   4.174
 8648SOL    HW126843   6.054   1.351   4.109
 8648SOL    HW226844   6.188   1.259   4.125
 8649SOL     OW26845   6.541   4.654   5.556
 8649SOL    HW126846   6.529   4.593   5.634
 8649SOL    HW226847   6.620   4.714   5.572
 8650SOL     OW26848   0.140   5.191   1.608
 8650SOL    HW126849   0.148   5.124   1.534
 8650SOL    HW226850   0.104   5.146   1.690
 8651SOL     OW26851   3.956   3.304   1.002
 8651SOL    HW126852   3.961   3.289   1.100
 8651SOL    HW226853   3.889   3.242   0.962
 8652SOL     OW26854   1.156   3.110   4.150
 8652SOL    HW126855   1.176   3.177   4.079
 8652SOL    HW226856   1.163   3.154   4.240
 8653SOL     OW26857   5.123   2.532   6.450
 8653SOL    HW126858   5.216   2.567   6.438
 8653SOL    HW226859   5.119   2.478   6.535
 8654SOL     OW26860   1.378   5.320   1.561
 8654SOL    HW126861   1.326   5.393   1.517
 8654SOL    HW226862   1.330   5.233   1.549
 8655SOL     OW26863   6.221   6.660   2.253
 8655SOL    HW126864   6.230   6.565   2.283
 8655SOL    HW226865   6.240   6.721   2.330
 8656SOL     OW26866   6.837   2.068   1.351
 8656SOL    HW126867   6.769   2.127   1.393
 8656SOL    HW226868   6.795   2.014   1.279
 8657SOL     OW26869   2.875   4.396   1.026
 8657SOL    HW126870   2.952   4.334   1.035
 8657SOL    HW226871   2.899   4.471   0.964
 8658SOL     OW26872   0.981   5.464   6.360
 8658SOL    HW126873   0.996   5.526   6.436
 8658SOL    HW226874   0.883   5.457   6.342
 8659SOL     OW26875   4.307   6.875   4.004
 8659SOL    HW126876   4.383   6.932   3.975
 8659SOL    HW226877   4.312   6.859   4.103
 8660SOL     OW26878   5.453   4.445   0.031
 8660SOL    HW126879   5.464   4.353   0.069
 8660SOL    HW226880   5.514   4.456   6.971
 8661SOL     OW26881   6.597   3.258   1.673
 8661SOL    HW126882   6.513   3.266   1.620
 8661SOL    HW226883   6.640   3.348   1.682
 8662SOL     OW26884   0.763   0.215   0.177
 8662SOL    HW126885   0.732   0.142   0.116
 8662SOL    HW226886   0.824   0.178   0.246
 8663SOL     OW26887   2.662   5.520   1.067
 8663SOL    HW126888   2.741   5.474   1.026
 8663SOL    HW226889   2.621   5.461   1.136
 8664SOL     OW26890   4.431   4.919   1.793
 8664SOL    HW126891   4.390   4.927   1.702
 8664SOL    HW226892   4.450   5.010   1.829
 8665SOL     OW26893   4.791   5.567   4.550
 8665SOL    HW126894   4.742   5.572   4.637
 8665SOL    HW226895   4.868   5.630   4.552
 8666SOL     OW26896   6.412   4.632   3.987
 8666SOL    HW126897   6.405   4.722   3.943
 8666SOL    HW226898   6.411   4.644   4.086
 8667SOL     OW26899   5.706   2.509   3.378
 8667SOL    HW126900   5.620   2.545   3.342
 8667SOL    HW226901   5.713   2.412   3.356
 8668SOL     OW26902   3.774   0.750   4.679
 8668SOL    HW126903   3.718   0.811   4.735
 8668SOL    HW226904   3.739   0.750   4.585
 8669SOL     OW26905   4.229   7.003   5.988
 8669SOL    HW126906   4.318   0.015   6.021
 8669SOL    HW226907   4.166   6.994   6.065
 8670SOL     OW26908   4.528   4.565   2.611
 8670SOL    HW126909   4.491   4.525   2.694
 8670SOL    HW226910   4.560   4.658   2.630
 8671SOL     OW26911   6.222   6.082   2.277
 8671SOL    HW126912   6.303   6.076   2.220
 8671SOL    HW226913   6.190   5.990   2.300
 8672SOL     OW26914   3.469   4.928   5.474
 8672SOL    HW126915   3.420   4.897   5.555
 8672SOL    HW226916   3.494   4.850   5.417
 8673SOL     OW26917   4.927   2.189   0.098
 8673SOL    HW126918   4.955   2.269   0.151
 8673SOL    HW226919   4.840   2.208   0.053
 8674SOL     OW26920   0.786   0.167   2.967
 8674SOL    HW126921   0.755   0.072   2.968
 8674SOL    HW226922   0.811   0.192   2.873
 8675SOL     OW26923   2.361   2.247   2.724
 8675SOL    HW126924   2.421   2.197   2.661
 8675SOL    HW226925   2.415   2.290   2.796
 8676SOL     OW26926   4.514   0.921   4.299
 8676SOL    HW126927   4.533   0.830   4.337
 8676SOL    HW226928   4.417   0.943   4.312
 8677SOL     OW26929   1.921   3.863   5.633
 8677SOL    HW126930   1.930   3.888   5.536
 8677SOL    HW226931   1.936   3.765   5.643
 8678SOL     OW26932   1.533   1.065   6.064
 8678SOL    HW126933   1.546   1.150   6.116
 8678SOL    HW226934   1.442   1.029   6.081
 8679SOL     OW26935   6.076   1.628   4.503
 8679SOL    HW126936   6.004   1.662   4.442
 8679SOL    HW226937   6.156   1.603   4.448
 8680SOL     OW26938   0.738   3.671   0.563
 8680SOL    HW126939   0.677   3.748   0.542
 8680SOL    HW226940   0.780   3.685   0.653
 8681SOL     OW26941   4.128   3.592   1.434
 8681SOL    HW126942   4.157   3.681   1.471
 8681SOL    HW226943   4.136   3.523   1.506
 8682SOL     OW26944   1.327   5.820   2.752
 8682SOL    HW126945   1.398   5.833   2.822
 8682SOL    HW226946   1.335   5.728   2.714
 8683SOL     OW26947   5.027   2.820   6.170
 8683SOL    HW126948   5.125   2.839   6.167
 8683SOL    HW226949   5.012   2.722   6.175
 8684SOL     OW26950   6.958   2.579   4.006
 8684SOL    HW126951   6.899   2.580   4.086
 8684SOL    HW226952   6.979   2.485   3.980
 8685SOL     OW26953   0.439   1.196   5.643
 8685SOL    HW126954   0.507   1.262   5.610
 8685SOL    HW226955   0.352   1.243   5.657
 8686SOL     OW26956   6.489   1.904   3.591
 8686SOL    HW126957   6.487   1.935   3.686
 8686SOL    HW226958   6.449   1.974   3.532
 8687SOL     OW26959   4.027   0.603   2.764
 8687SOL    HW126960   3.955   0.626   2.829
 8687SOL    HW226961   4.001   0.520   2.714
 8688SOL     OW26962   1.049   0.102   2.136
 8688SOL    HW126963   1.130   0.043   2.144
 8688SOL    HW226964   1.002   0.105   2.223
 8689SOL     OW26965   4.944   4.721   0.774
 8689SOL    HW126966   4.920   4.759   0.864
 8689SOL    HW226967   5.043   4.726   0.762
 8690SOL     OW26968   1.111   0.606   2.958
 8690SOL    HW126969   1.044   0.536   2.981
 8690SOL    HW226970   1.177   0.615   3.033
 8691SOL     OW26971   5.701   1.842   0.440
 8691SOL    HW126972   5.685   1.794   0.353
 8691SOL    HW226973   5.684   1.779   0.516
 8692SOL     OW26974   1.732   1.285   3.657
 8692SOL    HW126975   1.765   1.222   3.585
 8692SOL    HW226976   1.714   1.374   3.616
 8693SOL     OW26977   5.423   2.301   6.859
 8693SOL    HW126978   5.401   2.397   6.880
 8693SOL    HW226979   5.456   2.294   6.765
 8694SOL     OW26980   3.628   6.856   6.827
 8694SOL    HW126981   3.651   6.953   6.825
 8694SOL    HW226982   3.652   6.818   6.917
 8695SOL     OW26983   4.639   4.034   5.204
 8695SOL    HW126984   4.699   3.958   5.228
 8695SOL    HW226985   4.584   4.059   5.284
 8696SOL     OW26986   2.001   5.487   1.041
 8696SOL    HW126987   1.924   5.540   1.077
 8696SOL    HW226988   2.028   5.417   1.107
 8697SOL     OW26989   5.007   5.097   6.494
 8697SOL    HW126990   5.052   5.169   6.547
 8697SOL    HW226991   5.068   5.065   6.422
 8698SOL     OW26992   6.039   6.225   4.612
 8698SOL    HW126993   5.960   6.183   4.656
 8698SOL    HW226994   6.107   6.249   4.681
 8699SOL     OW26995   1.220   1.565   5.012
 8699SOL    HW126996   1.260   1.552   4.921
 8699SOL    HW226997   1.233   1.482   5.066
 8700SOL     OW26998   2.992   2.434   5.842
 8700SOL    HW126999   3.007   2.502   5.914
 8700SOL    HW227000   2.957   2.481   5.760
 8701SOL     OW27001   1.246   1.287   3.497
 8701SOL    HW127002   1.283   1.248   3.580
 8701SOL    HW227003   1.169   1.232   3.465
 8702SOL     OW27004   5.439   5.939   6.729
 8702SOL    HW127005   5.362   6.001   6.719
 8702SOL    HW227006   5.443   5.878   6.649
 8703SOL     OW27007   1.273   5.462   1.336
 8703SOL    HW127008   1.218   5.383   1.307
 8703SOL    HW227009   1.231   5.546   1.301
 8704SOL     OW27010   0.464   4.204   2.020
 8704SOL    HW127011   0.392   4.262   2.058
 8704SOL    HW227012   0.520   4.168   2.095
 8705SOL     OW27013   5.007   6.784   4.524
 8705SOL    HW127014   5.037   6.824   4.437
 8705SOL    HW227015   4.908   6.781   4.528
 8706SOL     OW27016   5.106   1.789   5.677
 8706SOL    HW127017   5.091   1.834   5.589
 8706SOL    HW227018   5.074   1.694   5.671
 8707SOL     OW27019   4.827   2.293   5.751
 8707SOL    HW127020   4.832   2.351   5.670
 8707SOL    HW227021   4.735   2.255   5.760
 8708SOL     OW27022   3.996   1.711   0.912
 8708SOL    HW127023   3.974   1.727   1.008
 8708SOL    HW227024   4.036   1.793   0.873
 8709SOL     OW27025   6.012   3.337   0.418
 8709SOL    HW127026   5.936   3.400   0.428
 8709SOL    HW227027   6.087   3.382   0.368
 8710SOL     OW27028   6.163   3.115   4.051
 8710SOL    HW127029   6.082   3.174   4.058
 8710SOL    HW227030   6.241   3.169   4.018
 8711SOL     OW27031   0.801   1.338   4.449
 8711SOL    HW127032   0.743   1.400   4.503
 8711SOL    HW227033   0.778   1.244   4.470
 8712SOL     OW27034   3.996   1.011   6.876
 8712SOL    HW127035   3.943   1.060   6.807
 8712SOL    HW227036   3.939   0.939   6.917
 8713SOL     OW27037   6.162   4.618   2.680
 8713SOL    HW127038   6.109   4.640   2.597
 8713SOL    HW227039   6.103   4.624   2.760
 8714SOL     OW27040   1.585   1.576   4.238
 8714SOL    HW127041   1.504   1.525   4.209
 8714SOL    HW227042   1.577   1.599   4.335
 8715SOL     OW27043   6.128   1.032   2.716
 8715SOL    HW127044   6.156   1.127   2.701
 8715SOL    HW227045   6.131   1.011   2.814
 8716SOL     OW27046   0.625   0.981   1.896
 8716SOL    HW127047   0.660   1.071   1.922
 8716SOL    HW227048   0.640   0.916   1.970
 8717SOL     OW27049   4.182   3.617   0.624
 8717SOL    HW127050   4.189   3.529   0.577
 8717SOL    HW227051   4.209   3.605   0.720
 8718SOL     OW27052   0.383   2.519   5.710
 8718SOL    HW127053   0.458   2.455   5.693
 8718SOL    HW227054   0.301   2.489   5.660
 8719SOL     OW27055   6.252   0.982   5.760
 8719SOL    HW127056   6.343   0.951   5.785
 8719SOL    HW227057   6.237   0.968   5.662
 8720SOL     OW27058   4.720   3.363   5.852
 8720SOL    HW127059   4.793   3.427   5.875
 8720SOL    HW227060   4.658   3.406   5.786
 8721SOL     OW27061   6.917   0.919   5.138
 8721SOL    HW127062   6.844   0.858   5.168
 8721SOL    HW227063   7.005   0.873   5.149
 8722SOL     OW27064   2.987   2.982   1.227
 8722SOL    HW127065   2.967   2.941   1.316
 8722SOL    HW227066   2.901   3.001   1.179
 8723SOL     OW27067   0.401   5.316   0.327
 8723SOL    HW127068   0.319   5.286   0.378
 8723SOL    HW227069   0.381   5.401   0.279
 8724SOL     OW27070   5.403   6.288   6.267
 8724SOL    HW127071   5.441   6.244   6.349
 8724SOL    HW227072   5.411   6.387   6.276
 8725SOL     OW27073   2.105   6.041   1.479
 8725SOL    HW127074   2.021   5.997   1.448
 8725SOL    HW227075   2.155   5.979   1.540
 8726SOL     OW27076   6.508   0.439   1.454
 8726SOL    HW127077   6.603   0.421   1.428
 8726SOL    HW227078   6.463   0.352   1.474
 8727SOL     OW27079   6.165   6.682   1.062
 8727SOL    HW127080   6.170   6.782   1.065
 8727SOL    HW227081   6.091   6.655   1.000
 8728SOL     OW27082   1.986   6.202   5.532
 8728SOL    HW127083   1.965   6.150   5.449
 8728SOL    HW227084   2.048   6.277   5.508
 8729SOL     OW27085   5.042   5.956   4.745
 8729SOL    HW127086   5.080   5.866   4.724
 8729SOL    HW227087   5.097   6.027   4.701
 8730SOL     OW27088   6.631   5.989   0.731
 8730SOL    HW127089   6.698   5.992   0.806
 8730SOL    HW227090   6.657   6.055   0.661
 8731SOL     OW27091   0.517   1.754   2.276
 8731SOL    HW127092   0.487   1.744   2.371
 8731SOL    HW227093   0.614   1.728   2.270
 8732SOL     OW27094   6.387   5.618   2.078
 8732SOL    HW127095   6.353   5.707   2.048
 8732SOL    HW227096   6.475   5.629   2.123
 8733SOL     OW27097   6.911   6.849   1.036
 8733SOL    HW127098   6.856   6.774   1.074
 8733SOL    HW227099   6.994   6.813   0.995
 8734SOL     OW27100   0.038   5.843   0.563
 8734SOL    HW127101   0.042   5.744   0.575
 8734SOL    HW227102   0.131   5.880   0.557
 8735SOL     OW27103   0.078   2.694   6.476
 8735SOL    HW127104   0.003   2.682   6.411
 8735SOL    HW227105   0.126   2.780   6.455
 8736SOL     OW27106   6.980   4.707   5.651
 8736SOL    HW127107   0.004   4.688   5.562
 8736SOL    HW227108   0.033   4.718   5.720
 8737SOL     OW27109   3.876   6.301   6.630
 8737SOL    HW127110   3.797   6.265   6.582
 8737SOL    HW227111   3.960   6.279   6.580
 8738SOL     OW27112   0.902   3.832   5.361
 8738SOL    HW127113   0.866   3.775   5.434
 8738SOL    HW227114   0.925   3.922   5.398
 8739SOL     OW27115   1.111   3.545   5.593
 8739SOL    HW127116   1.134   3.570   5.687
 8739SOL    HW227117   1.021   3.502   5.592
 8740SOL     OW27118   1.392   6.647   1.277
 8740SOL    HW127119   1.354   6.567   1.231
 8740SOL    HW227120   1.485   6.664   1.245
 8741SOL     OW27121   1.539   3.635   2.292
 8741SOL    HW127122   1.441   3.638   2.277
 8741SOL    HW227123   1.580   3.722   2.264
 8742SOL     OW27124   4.682   6.105   2.192
 8742SOL    HW127125   4.674   6.132   2.288
 8742SOL    HW227126   4.720   6.013   2.187
 8743SOL     OW27127   2.279   4.993   2.940
 8743SOL    HW127128   2.221   4.913   2.961
 8743SOL    HW227129   2.322   5.026   3.023
 8744SOL     OW27130   3.241   3.167   5.473
 8744SOL    HW127131   3.244   3.210   5.563
 8744SOL    HW227132   3.255   3.236   5.402
 8745SOL     OW27133   6.330   1.386   6.937
 8745SOL    HW127134   6.377   1.471   6.913
 8745SOL    HW227135   6.264   1.363   6.865
 8746SOL     OW27136   5.332   4.038   5.165
 8746SOL    HW127137   5.407   4.073   5.220
 8746SOL    HW227138   5.280   4.114   5.125
 8747SOL     OW27139   0.978   2.187   4.190
 8747SOL    HW127140   0.949   2.278   4.218
 8747SOL    HW227141   0.932   2.162   4.105
 8748SOL     OW27142   2.883   0.025   0.451
 8748SOL    HW127143   2.930   0.114   0.461
 8748SOL    HW227144   2.879   6.998   0.540
 8749SOL     OW27145   4.091   1.856   3.648
 8749SOL    HW127146   4.077   1.757   3.637
 8749SOL    HW227147   4.188   1.873   3.667
 8750SOL     OW27148   1.647   0.879   5.584
 8750SOL    HW127149   1.580   0.804   5.587
 8750SOL    HW227150   1.646   0.928   5.671
 8751SOL     OW27151   2.088   6.823   3.127
 8751SOL    HW127152   2.042   6.906   3.158
 8751SOL    HW227153   2.020   6.757   3.094
 8752SOL     OW27154   2.469   1.658   5.976
 8752SOL    HW127155   2.522   1.615   5.903
 8752SOL    HW227156   2.485   1.608   6.062
 8753SOL     OW27157   6.243   1.430   5.191
 8753SOL    HW127158   6.155   1.459   5.155
 8753SOL    HW227159   6.240   1.333   5.216
 8754SOL     OW27160   2.195   1.130   5.254
 8754SOL    HW127161   2.261   1.088   5.316
 8754SOL    HW227162   2.121   1.065   5.235
 8755SOL     OW27163   2.230   2.238   0.839
 8755SOL    HW127164   2.275   2.208   0.923
 8755SOL    HW227165   2.168   2.314   0.860
 8756SOL     OW27166   1.924   4.269   4.444
 8756SOL    HW127167   2.001   4.205   4.447
 8756SOL    HW227168   1.942   4.345   4.506
 8757SOL     OW27169   3.709   5.931   4.055
 8757SOL    HW127170   3.664   5.867   3.993
 8757SOL    HW227171   3.642   5.967   4.120
 8758SOL     OW27172   5.023   6.505   2.220
 8758SOL    HW127173   4.925   6.520   2.233
 8758SOL    HW227174   5.070   6.517   2.307
 8759SOL     OW27175   5.193   1.197   5.847
 8759SOL    HW127176   5.210   1.117   5.904
 8759SOL    HW227177   5.111   1.244   5.880
 8760SOL     OW27178   2.124   3.200   3.556
 8760SOL    HW127179   2.176   3.253   3.622
 8760SOL    HW227180   2.031   3.235   3.549
 8761SOL     OW27181   5.460   6.063   1.641
 8761SOL    HW127182   5.392   6.005   1.597
 8761SOL    HW227183   5.472   6.146   1.587
 8762SOL     OW27184   0.889   4.530   0.495
 8762SOL    HW127185   0.967   4.584   0.466
 8762SOL    HW227186   0.883   4.447   0.439
 8763SOL     OW27187   0.122   6.046   6.538
 8763SOL    HW127188   0.027   6.022   6.555
 8763SOL    HW227189   0.181   5.971   6.567
 8764SOL     OW27190   3.861   2.166   5.690
 8764SOL    HW127191   3.858   2.142   5.593
 8764SOL    HW227192   3.781   2.128   5.737
 8765SOL     OW27193   6.756   0.374   5.039
 8765SOL    HW127194   6.786   0.400   5.131
 8765SOL    HW227195   6.667   0.328   5.045
 8766SOL     OW27196   2.159   4.512   2.223
 8766SOL    HW127197   2.168   4.562   2.309
 8766SOL    HW227198   2.087   4.553   2.168
 8767SOL     OW27199   5.234   1.512   5.784
 8767SOL    HW127200   5.200   1.483   5.874
 8767SOL    HW227201   5.323   1.556   5.794
 8768SOL     OW27202   0.984   3.614   6.998
 8768SOL    HW127203   1.060   3.647   6.941
 8768SOL    HW227204   0.935   3.691   0.019
 8769SOL     OW27205   1.905   1.211   5.878
 8769SOL    HW127206   1.905   1.136   5.944
 8769SOL    HW227207   1.811   1.228   5.846
 8770SOL     OW27208   5.469   1.172   3.318
 8770SOL    HW127209   5.444   1.175   3.221
 8770SOL    HW227210   5.569   1.181   3.326
 8771SOL     OW27211   2.516   2.765   5.584
 8771SOL    HW127212   2.530   2.851   5.535
 8771SOL    HW227213   2.542   2.689   5.525
 8772SOL     OW27214   6.100   6.561   6.683
 8772SOL    HW127215   6.188   6.578   6.728
 8772SOL    HW227216   6.113   6.558   6.584
 8773SOL     OW27217   2.807   1.889   3.070
 8773SOL    HW127218   2.888   1.850   3.026
 8773SOL    HW227219   2.727   1.874   3.012
 8774SOL     OW27220   1.563   0.517   0.414
 8774SOL    HW127221   1.651   0.536   0.458
 8774SOL    HW227222   1.535   0.597   0.361
 8775SOL     OW27223   6.218   6.356   4.066
 8775SOL    HW127224   6.196   6.314   4.154
 8775SOL    HW227225   6.134   6.381   4.018
 8776SOL     OW27226   3.250   3.640   4.849
 8776SOL    HW127227   3.345   3.672   4.847
 8776SOL    HW227228   3.189   3.719   4.859
 8777SOL     OW27229   6.401   5.731   2.652
 8777SOL    HW127230   6.425   5.652   2.708
 8777SOL    HW227231   6.471   5.746   2.582
 8778SOL     OW27232   1.295   2.792   2.961
 8778SOL    HW127233   1.199   2.768   2.947
 8778SOL    HW227234   1.313   2.881   2.920
 8779SOL     OW27235   1.445   4.827   0.878
 8779SOL    HW127236   1.383   4.871   0.943
 8779SOL    HW227237   1.393   4.775   0.811
 8780SOL     OW27238   2.043   5.710   4.438
 8780SOL    HW127239   1.992   5.740   4.357
 8780SOL    HW227240   2.002   5.751   4.520
 8781SOL     OW27241   0.954   2.268   2.588
 8781SOL    HW127242   0.945   2.237   2.683
 8781SOL    HW227243   0.971   2.367   2.587
 8782SOL     OW27244   5.101   1.489   3.519
 8782SOL    HW127245   5.184   1.529   3.558
 8782SOL    HW227246   5.054   1.557   3.464
 8783SOL     OW27247   6.386   2.735   5.668
 8783SOL    HW127248   6.485   2.720   5.663
 8783SOL    HW227249   6.365   2.828   5.638
 8784SOL     OW27250   5.808   4.393   5.801
 8784SOL    HW127251   5.857   4.446   5.871
 8784SOL    HW227252   5.801   4.448   5.717
 8785SOL     OW27253   5.114   4.106   5.969
 8785SOL    HW127254   5.058   4.188   5.968
 8785SOL    HW227255   5.126   4.074   6.063
 8786SOL     OW27256   1.652   6.483   0.566
 8786SOL    HW127257   1.728   6.523   0.515
 8786SOL    HW227258   1.686   6.442   0.651
 8787SOL     OW27259   1.027   2.583   0.091
 8787SOL    HW127260   1.095   2.511   0.086
 8787SOL    HW227261   0.997   2.607   7.017
 8788SOL     OW27262   1.478   1.973   5.312
 8788SOL    HW127263   1.451   1.891   5.262
 8788SOL    HW227264   1.478   2.051   5.249
 8789SOL     OW27265   0.745   0.755   0.223
 8789SOL    HW127266   0.679   0.737   0.296
 8789SOL    HW227267   0.741   0.852   0.198
 8790SOL     OW27268   3.979   1.923   6.912
 8790SOL    HW127269   3.952   2.006   6.863
 8790SOL    HW227270   4.044   1.947   6.984
 8791SOL     OW27271   4.845   6.225   5.477
 8791SOL    HW127272   4.927   6.193   5.431
 8791SOL    HW227273   4.846   6.324   5.484
 8792SOL     OW27274   5.485   6.565   2.607
 8792SOL    HW127275   5.568   6.533   2.652
 8792SOL    HW227276   5.452   6.495   2.544
 8793SOL     OW27277   1.200   4.570   3.664
 8793SOL    HW127278   1.164   4.507   3.596
 8793SOL    HW227279   1.234   4.653   3.618
 8794SOL     OW27280   2.793   5.656   2.865
 8794SOL    HW127281   2.762   5.577   2.813
 8794SOL    HW227282   2.747   5.738   2.831
 8795SOL     OW27283   2.490   5.802   4.984
 8795SOL    HW127284   2.572   5.780   4.931
 8795SOL    HW227285   2.477   5.734   5.056
 8796SOL     OW27286   5.642   2.475   5.337
 8796SOL    HW127287   5.571   2.428   5.389
 8796SOL    HW227288   5.600   2.528   5.264
 8797SOL     OW27289   0.857   5.992   6.620
 8797SOL    HW127290   0.799   6.062   6.662
 8797SOL    HW227291   0.850   5.997   6.521
 8798SOL     OW27292   3.555   3.184   5.335
 8798SOL    HW127293   3.531   3.250   5.264
 8798SOL    HW227294   3.623   3.224   5.396
 8799SOL     OW27295   2.999   0.622   2.871
 8799SOL    HW127296   2.923   0.559   2.890
 8799SOL    HW227297   3.044   0.594   2.787
 8800SOL     OW27298   4.384   4.504   0.529
 8800SOL    HW127299   4.369   4.431   0.595
 8800SOL    HW227300   4.367   4.593   0.573
 8801SOL     OW27301   3.075   6.602   5.725
 8801SOL    HW127302   3.096   6.519   5.673
 8801SOL    HW227303   2.997   6.585   5.785
 8802SOL     OW27304   2.434   6.056   1.736
 8802SOL    HW127305   2.449   6.132   1.672
 8802SOL    HW227306   2.386   5.982   1.689
 8803SOL     OW27307   4.109   6.185   1.642
 8803SOL    HW127308   4.112   6.172   1.543
 8803SOL    HW227309   4.054   6.266   1.663
 8804SOL     OW27310   2.914   0.982   1.425
 8804SOL    HW127311   2.954   1.068   1.455
 8804SOL    HW227312   2.814   0.988   1.430
 8805SOL     OW27313   0.204   0.618   3.310
 8805SOL    HW127314   0.299   0.614   3.341
 8805SOL    HW227315   0.180   0.532   3.266
 8806SOL     OW27316   1.845   5.309   0.495
 8806SOL    HW127317   1.878   5.344   0.583
 8806SOL    HW227318   1.807   5.217   0.509
 8807SOL     OW27319   2.234   5.599   6.546
 8807SOL    HW127320   2.296   5.613   6.469
 8807SOL    HW227321   2.248   5.509   6.585
 8808SOL     OW27322   5.936   1.792   1.053
 8808SOL    HW127323   5.861   1.831   0.999
 8808SOL    HW227324   6.000   1.865   1.078
 8809SOL     OW27325   5.888   4.371   0.302
 8809SOL    HW127326   5.825   4.389   0.377
 8809SOL    HW227327   5.911   4.457   0.257
 8810SOL     OW27328   5.269   1.621   4.097
 8810SOL    HW127329   5.304   1.527   4.094
 8810SOL    HW227330   5.213   1.633   4.179
 8811SOL     OW27331   1.478   0.946   3.347
 8811SOL    HW127332   1.529   0.947   3.260
 8811SOL    HW227333   1.509   1.023   3.403
 8812SOL     OW27334   2.418   1.289   0.400
 8812SOL    HW127335   2.340   1.337   0.438
 8812SOL    HW227336   2.386   1.221   0.334
 8813SOL     OW27337   1.295   5.746   1.378
 8813SOL    HW127338   1.261   5.833   1.341
 8813SOL    HW227339   1.389   5.732   1.348
 8814SOL     OW27340   5.398   6.935   5.912
 8814SOL    HW127341   5.468   6.920   5.983
 8814SOL    HW227342   5.390   6.854   5.855
 8815SOL     OW27343   5.996   5.894   3.206
 8815SOL    HW127344   6.005   5.831   3.284
 8815SOL    HW227345   6.040   5.981   3.229
 8816SOL     OW27346   0.692   5.389   1.976
 8816SOL    HW127347   0.733   5.346   2.057
 8816SOL    HW227348   0.628   5.460   2.005
 8817SOL     OW27349   2.192   3.895   5.250
 8817SOL    HW127350   2.281   3.917   5.211
 8817SOL    HW227351   2.171   3.799   5.232
 8818SOL     OW27352   6.738   4.393   4.892
 8818SOL    HW127353   6.669   4.380   4.821
 8818SOL    HW227354   6.699   4.444   4.968
 8819SOL     OW27355   6.908   0.103   4.193
 8819SOL    HW127356   6.846   0.161   4.246
 8819SOL    HW227357   6.995   0.150   4.181
 8820SOL     OW27358   0.670   2.741   3.325
 8820SOL    HW127359   0.606   2.664   3.324
 8820SOL    HW227360   0.761   2.708   3.349
 8821SOL     OW27361   1.674   6.927   6.580
 8821SOL    HW127362   1.687   6.871   6.661
 8821SOL    HW227363   1.761   6.967   6.552
 8822SOL     OW27364   0.978   2.611   3.712
 8822SOL    HW127365   1.022   2.549   3.777
 8822SOL    HW227366   1.039   2.626   3.634
 8823SOL     OW27367   2.064   5.019   1.882
 8823SOL    HW127368   1.975   5.042   1.923
 8823SOL    HW227369   2.054   4.938   1.824
 8824SOL     OW27370   4.353   4.295   0.722
 8824SOL    HW127371   4.270   4.244   0.700
 8824SOL    HW227372   4.408   4.243   0.787
 8825SOL     OW27373   2.269   2.791   0.718
 8825SOL    HW127374   2.174   2.766   0.736
 8825SOL    HW227375   2.322   2.784   0.802
 8826SOL     OW27376   5.924   0.588   0.651
 8826SOL    HW127377   5.988   0.572   0.726
 8826SOL    HW227378   5.974   0.604   0.567
 8827SOL     OW27379   6.503   1.580   3.024
 8827SOL    HW127380   6.441   1.507   2.995
 8827SOL    HW227381   6.501   1.654   2.956
 8828SOL     OW27382   1.461   6.225   3.532
 8828SOL    HW127383   1.492   6.134   3.560
 8828SOL    HW227384   1.404   6.264   3.604
 8829SOL     OW27385   1.637   0.808   1.425
 8829SOL    HW127386   1.542   0.836   1.436
 8829SOL    HW227387   1.646   0.711   1.448
 8830SOL     OW27388   1.172   1.219   0.187
 8830SOL    HW127389   1.271   1.233   0.185
 8830SOL    HW227390   1.139   1.199   0.094
 8831SOL     OW27391   6.998   1.117   1.803
 8831SOL    HW127392   6.945   1.128   1.887
 8831SOL    HW227393   6.941   1.141   1.724
 8832SOL     OW27394   6.655   1.041   2.146
 8832SOL    HW127395   6.642   0.942   2.152
 8832SOL    HW227396   6.570   1.083   2.115
 8833SOL     OW27397   1.327   5.047   2.499
 8833SOL    HW127398   1.231   5.052   2.525
 8833SOL    HW227399   1.336   5.059   2.400
 8834SOL     OW27400   6.228   4.117   3.960
 8834SOL    HW127401   6.132   4.108   3.986
 8834SOL    HW227402   6.260   4.209   3.983
 8835SOL     OW27403   0.564   1.025   6.968
 8835SOL    HW127404   0.596   0.948   6.914
 8835SOL    HW227405   0.608   1.023   0.040
 8836SOL     OW27406   4.807   2.108   2.315
 8836SOL    HW127407   4.723   2.067   2.279
 8836SOL    HW227408   4.833   2.062   2.400
 8837SOL     OW27409   0.428   2.521   1.997
 8837SOL    HW127410   0.380   2.493   1.913
 8837SOL    HW227411   0.434   2.444   2.059
 8838SOL     OW27412   1.604   6.338   4.144
 8838SOL    HW127413   1.670   6.407   4.116
 8838SOL    HW227414   1.653   6.253   4.167
 8839SOL     OW27415   5.229   6.057   4.199
 8839SOL    HW127416   5.206   6.144   4.244
 8839SOL    HW227417   5.245   5.987   4.269
 8840SOL     OW27418   4.340   0.582   2.027
 8840SOL    HW127419   4.308   0.487   2.031
 8840SOL    HW227420   4.261   0.643   2.025
 8841SOL     OW27421   2.955   0.209   4.325
 8841SOL    HW127422   2.959   0.139   4.253
 8841SOL    HW227423   2.861   0.217   4.359
 8842SOL     OW27424   1.283   2.485   1.837
 8842SOL    HW127425   1.374   2.454   1.864
 8842SOL    HW227426   1.281   2.585   1.834
 8843SOL     OW27427   0.099   3.169   4.127
 8843SOL    HW127428   0.029   3.099   4.109
 8843SOL    HW227429   0.168   3.166   4.055
 8844SOL     OW27430   6.033   1.751   6.324
 8844SOL    HW127431   5.996   1.771   6.415
 8844SOL    HW227432   5.970   1.785   6.254
 8845SOL     OW27433   5.126   2.819   7.003
 8845SOL    HW127434   5.137   2.820   6.904
 8845SOL    HW227435   5.210   2.788   0.028
 8846SOL     OW27436   3.230   4.883   3.693
 8846SOL    HW127437   3.176   4.870   3.777
 8846SOL    HW227438   3.301   4.814   3.688
 8847SOL     OW27439   0.929   1.078   2.884
 8847SOL    HW127440   0.903   1.147   2.816
 8847SOL    HW227441   0.896   1.106   2.974
 8848SOL     OW27442   0.801   1.071   3.400
 8848SOL    HW127443   0.892   1.067   3.442
 8848SOL    HW227444   0.750   0.988   3.421
 8849SOL     OW27445   2.927   6.818   1.590
 8849SOL    HW127446   2.835   6.844   1.558
 8849SOL    HW227447   2.940   6.853   1.683
 8850SOL     OW27448   3.144   2.610   6.825
 8850SOL    HW127449   3.099   2.695   6.799
 8850SOL    HW227450   3.076   2.538   6.841
 8851SOL     OW27451   1.779   3.530   2.127
 8851SOL    HW127452   1.768   3.532   2.226
 8851SOL    HW227453   1.871   3.562   2.103
 8852SOL     OW27454   0.236   2.063   4.735
 8852SOL    HW127455   0.335   2.069   4.722
 8852SOL    HW227456   0.192   2.138   4.687
 8853SOL     OW27457   4.538   0.512   1.522
 8853SOL    HW127458   4.621   0.487   1.571
 8853SOL    HW227459   4.472   0.552   1.587
 8854SOL     OW27460   0.455   2.805   4.733
 8854SOL    HW127461   0.491   2.739   4.798
 8854SOL    HW227462   0.428   2.757   4.649
 8855SOL     OW27463   5.183   4.412   1.627
 8855SOL    HW127464   5.246   4.488   1.638
 8855SOL    HW227465   5.232   4.332   1.591
 8856SOL     OW27466   6.104   0.574   6.188
 8856SOL    HW127467   6.184   0.521   6.157
 8856SOL    HW227468   6.072   0.631   6.113
 8857SOL     OW27469   6.829   1.772   6.629
 8857SOL    HW127470   6.794   1.843   6.691
 8857SOL    HW227471   6.919   1.742   6.661
 8858SOL     OW27472   6.451   5.604   4.700
 8858SOL    HW127473   6.501   5.676   4.748
 8858SOL    HW227474   6.497   5.584   4.614
 8859SOL     OW27475   0.814   5.769   2.771
 8859SOL    HW127476   0.797   5.854   2.722
 8859SOL    HW227477   0.903   5.774   2.817
 8860SOL     OW27478   6.703   3.140   2.195
 8860SOL    HW127479   6.652   3.190   2.265
 8860SOL    HW227480   6.695   3.042   2.212
 8861SOL     OW27481   3.304   2.704   1.609
 8861SOL    HW127482   3.379   2.770   1.606
 8861SOL    HW227483   3.227   2.744   1.660
 8862SOL     OW27484   4.347   4.844   4.854
 8862SOL    HW127485   4.331   4.754   4.897
 8862SOL    HW227486   4.405   4.833   4.774
 8863SOL     OW27487   1.020   4.126   2.079
 8863SOL    HW127488   1.030   4.216   2.121
 8863SOL    HW227489   0.966   4.067   2.139
 8864SOL     OW27490   6.513   1.742   5.164
 8864SOL    HW127491   6.443   1.764   5.097
 8864SOL    HW227492   6.598   1.788   5.140
 8865SOL     OW27493   3.228   1.632   0.865
 8865SOL    HW127494   3.149   1.579   0.837
 8865SOL    HW227495   3.258   1.691   0.790
 8866SOL     OW27496   5.742   0.101   1.992
 8866SOL    HW127497   5.707   0.087   1.899
 8866SOL    HW227498   5.669   0.084   2.058
 8867SOL     OW27499   5.991   2.979   2.908
 8867SOL    HW127500   5.905   2.981   2.959
 8867SOL    HW227501   5.974   2.999   2.812
 8868SOL     OW27502   6.973   3.081   3.593
 8868SOL    HW127503   6.952   2.995   3.545
 8868SOL    HW227504   0.053   3.088   3.607
 8869SOL     OW27505   4.843   0.164   3.495
 8869SOL    HW127506   4.850   0.103   3.573
 8869SOL    HW227507   4.840   0.259   3.527
 8870SOL     OW27508   0.935   0.983   1.791
 8870SOL    HW127509   1.019   0.953   1.837
 8870SOL    HW227510   0.917   1.078   1.814
 8871SOL     OW27511   6.892   6.944   1.320
 8871SOL    HW127512   6.970   7.007   1.318
 8871SOL    HW227513   6.847   6.945   1.231
 8872SOL     OW27514   0.047   4.421   3.644
 8872SOL    HW127515   0.057   4.329   3.607
 8872SOL    HW227516   0.001   4.479   3.576
 8873SOL     OW27517   2.028   1.232   3.276
 8873SOL    HW127518   1.993   1.312   3.228
 8873SOL    HW227519   2.123   1.247   3.302
 8874SOL     OW27520   2.921   5.903   0.555
 8874SOL    HW127521   2.977   5.826   0.525
 8874SOL    HW227522   2.975   5.987   0.552
 8875SOL     OW27523   6.079   3.262   4.485
 8875SOL    HW127524   5.994   3.234   4.529
 8875SOL    HW227525   6.121   3.184   4.439
 8876SOL     OW27526   4.230   1.061   0.803
 8876SOL    HW127527   4.219   0.962   0.801
 8876SOL    HW227528   4.144   1.105   0.778
 8877SOL     OW27529   0.961   4.721   1.131
 8877SOL    HW127530   0.877   4.700   1.181
 8877SOL    HW227531   0.948   4.804   1.077
 8878SOL     OW27532   5.125   3.334   1.834
 8878SOL    HW127533   5.210   3.343   1.885
 8878SOL    HW227534   5.110   3.238   1.810
 8879SOL     OW27535   6.767   4.349   3.802
 8879SOL    HW127536   6.680   4.398   3.809
 8879SOL    HW227537   6.766   4.291   3.720
 8880SOL     OW27538   4.135   2.262   3.208
 8880SOL    HW127539   4.133   2.353   3.251
 8880SOL    HW227540   4.210   2.209   3.246
 8881SOL     OW27541   3.587   4.945   2.363
 8881SOL    HW127542   3.549   4.917   2.275
 8881SOL    HW227543   3.522   4.921   2.436
 8882SOL     OW27544   3.898   0.985   0.426
 8882SOL    HW127545   3.854   0.936   0.501
 8882SOL    HW227546   3.982   0.938   0.399
 8883SOL     OW27547   7.017   6.331   2.705
 8883SOL    HW127548   7.001   6.380   2.791
 8883SOL    HW227549   6.996   6.234   2.718
 8884SOL     OW27550   4.262   2.931   5.791
 8884SOL    HW127551   4.307   2.911   5.703
 8884SOL    HW227552   4.315   3.000   5.841
 8885SOL     OW27553   5.595   5.206   0.896
 8885SOL    HW127554   5.497   5.221   0.883
 8885SOL    HW227555   5.639   5.293   0.921
 8886SOL     OW27556   4.892   6.621   0.159
 8886SOL    HW127557   4.954   6.548   0.187
 8886SOL    HW227558   4.801   6.583   0.141
 8887SOL     OW27559   3.662   0.360   1.544
 8887SOL    HW127560   3.618   0.331   1.458
 8887SOL    HW227561   3.730   0.430   1.524
 8888SOL     OW27562   3.653   2.091   2.254
 8888SOL    HW127563   3.643   2.154   2.177
 8888SOL    HW227564   3.626   1.999   2.226
 8889SOL     OW27565   1.222   4.685   0.096
 8889SOL    HW127566   1.299   4.748   0.086
 8889SOL    HW227567   1.233   4.632   0.180
 8890SOL     OW27568   1.541   5.874   0.078
 8890SOL    HW127569   1.553   5.945   0.148
 8890SOL    HW227570   1.530   5.918   7.007
 8891SOL     OW27571   6.378   3.547   5.023
 8891SOL    HW127572   6.290   3.501   5.017
 8891SOL    HW227573   6.444   3.487   5.069
 8892SOL     OW27574   2.557   5.148   4.672
 8892SOL    HW127575   2.532   5.146   4.575
 8892SOL    HW227576   2.508   5.223   4.717
 8893SOL     OW27577   0.576   4.649   5.403
 8893SOL    HW127578   0.550   4.685   5.313
 8893SOL    HW227579   0.500   4.660   5.467
 8894SOL     OW27580   5.106   2.434   1.851
 8894SOL    HW127581   5.194   2.387   1.862
 8894SOL    HW227582   5.097   2.466   1.757
 8895SOL     OW27583   6.386   3.616   0.890
 8895SOL    HW127584   6.448   3.588   0.963
 8895SOL    HW227585   6.392   3.715   0.877
 8896SOL     OW27586   1.054   1.044   3.553
 8896SOL    HW127587   1.117   1.007   3.484
 8896SOL    HW227588   1.082   1.013   3.643
 8897SOL     OW27589   1.849   5.475   4.372
 8897SOL    HW127590   1.939   5.518   4.372
 8897SOL    HW227591   1.853   5.389   4.321
 8898SOL     OW27592   5.443   4.243   2.284
 8898SOL    HW127593   5.455   4.169   2.217
 8898SOL    HW227594   5.352   4.236   2.325
 8899SOL     OW27595   1.842   3.855   2.525
 8899SOL    HW127596   1.849   3.761   2.558
 8899SOL    HW227597   1.890   3.863   2.438
 8900SOL     OW27598   4.004   1.666   4.623
 8900SOL    HW127599   3.956   1.688   4.708
 8900SOL    HW227600   4.034   1.750   4.580
 8901SOL     OW27601   1.743   5.234   5.068
 8901SOL    HW127602   1.791   5.299   5.009
 8901SOL    HW227603   1.652   5.217   5.032
 8902SOL     OW27604   0.533   4.948   6.680
 8902SOL    HW127605   0.591   5.007   6.737
 8902SOL    HW227606   0.446   4.994   6.663
 8903SOL     OW27607   0.921   0.568   4.968
 8903SOL    HW127608   0.930   0.503   4.892
 8903SOL    HW227609   0.981   0.646   4.953
 8904SOL     OW27610   0.516   0.908   3.153
 8904SOL    HW127611   0.573   0.857   3.089
 8904SOL    HW227612   0.430   0.860   3.167
 8905SOL     OW27613   1.739   4.224   1.312
 8905SOL    HW127614   1.798   4.170   1.372
 8905SOL    HW227615   1.705   4.165   1.238
 8906SOL     OW27616   6.405   0.631   6.880
 8906SOL    HW127617   6.345   0.667   6.808
 8906SOL    HW227618   6.349   0.599   6.956
 8907SOL     OW27619   2.974   3.132   5.048
 8907SOL    HW127620   2.884   3.095   5.025
 8907SOL    HW227621   2.971   3.169   5.141
 8908SOL     OW27622   1.677   5.013   6.149
 8908SOL    HW127623   1.588   4.969   6.158
 8908SOL    HW227624   1.670   5.090   6.086
 8909SOL     OW27625   2.342   5.729   1.892
 8909SOL    HW127626   2.356   5.676   1.975
 8909SOL    HW227627   2.405   5.699   1.821
 8910SOL     OW27628   1.142   0.910   3.800
 8910SOL    HW127629   1.163   0.946   3.891
 8910SOL    HW227630   1.182   0.818   3.792
 8911SOL     OW27631   5.304   2.893   4.709
 8911SOL    HW127632   5.304   2.878   4.611
 8911SOL    HW227633   5.230   2.841   4.751
 8912SOL     OW27634   3.488   2.882   3.681
 8912SOL    HW127635   3.564   2.944   3.699
 8912SOL    HW227636   3.524   2.794   3.648
 8913SOL     OW27637   5.227   5.652   1.334
 8913SOL    HW127638   5.200   5.559   1.360
 8913SOL    HW227639   5.260   5.652   1.239
 8914SOL     OW27640   4.729   5.745   5.586
 8914SOL    HW127641   4.712   5.838   5.618
 8914SOL    HW227642   4.720   5.681   5.663
 8915SOL     OW27643   2.093   0.876   3.773
 8915SOL    HW127644   2.147   0.922   3.703
 8915SOL    HW227645   2.047   0.944   3.829
 8916SOL     OW27646   5.838   1.072   2.325
 8916SOL    HW127647   5.849   1.050   2.422
 8916SOL    HW227648   5.772   1.146   2.315
 8917SOL     OW27649   5.428   2.077   0.662
 8917SOL    HW127650   5.369   2.042   0.589
 8917SOL    HW227651   5.469   2.164   0.633
 8918SOL     OW27652   1.015   3.542   2.287
 8918SOL    HW127653   0.921   3.515   2.269
 8918SOL    HW227654   1.023   3.575   2.381
 8919SOL     OW27655   6.507   2.788   2.508
 8919SOL    HW127656   6.434   2.838   2.461
 8919SOL    HW227657   6.571   2.752   2.440
 8920SOL     OW27658   1.199   1.737   0.333
 8920SOL    HW127659   1.184   1.695   0.423
 8920SOL    HW227660   1.146   1.822   0.327
 8921SOL     OW27661   1.019   3.081   1.585
 8921SOL    HW127662   1.105   3.061   1.632
 8921SOL    HW227663   1.038   3.099   1.488
 8922SOL     OW27664   2.784   4.828   3.266
 8922SOL    HW127665   2.831   4.909   3.233
 8922SOL    HW227666   2.824   4.800   3.354
 8923SOL     OW27667   2.578   1.149   3.426
 8923SOL    HW127668   2.586   1.239   3.469
 8923SOL    HW227669   2.563   1.080   3.497
 8924SOL     OW27670   6.185   5.050   4.609
 8924SOL    HW127671   6.157   5.074   4.515
 8924SOL    HW227672   6.107   5.014   4.659
 8925SOL     OW27673   0.605   6.842   3.725
 8925SOL    HW127674   0.596   6.827   3.824
 8925SOL    HW227675   0.620   6.754   3.679
 8926SOL     OW27676   6.108   1.640   6.950
 8926SOL    HW127677   6.066   1.566   7.002
 8926SOL    HW227678   6.185   1.678   7.000
 8927SOL     OW27679   1.436   0.970   6.433
 8927SOL    HW127680   1.443   0.870   6.437
 8927SOL    HW227681   1.405   0.997   6.342
 8928SOL     OW27682   1.621   7.013   5.604
 8928SOL    HW127683   1.588   0.045   5.524
 8928SOL    HW227684   1.721   7.016   5.606
 8929SOL     OW27685   0.149   1.718   3.416
 8929SOL    HW127686   0.210   1.719   3.337
 8929SOL    HW227687   0.060   1.683   3.390
 8930SOL     OW27688   2.347   5.075   3.418
 8930SOL    HW127689   2.261   5.039   3.381
 8930SOL    HW227690   2.332   5.167   3.453
 8931SOL     OW27691   4.362   3.211   0.210
 8931SOL    HW127692   4.379   3.307   0.186
 8931SOL    HW227693   4.264   3.192   0.205
 8932SOL     OW27694   0.772   3.876   3.355
 8932SOL    HW127695   0.852   3.860   3.297
 8932SOL    HW227696   0.756   3.796   3.413
 8933SOL     OW27697   4.754   1.842   6.604
 8933SOL    HW127698   4.666   1.826   6.648
 8933SOL    HW227699   4.741   1.896   6.521
 8934SOL     OW27700   2.663   5.903   2.991
 8934SOL    HW127701   2.638   5.969   3.062
 8934SOL    HW227702   2.642   5.941   2.901
 8935SOL     OW27703   6.723   5.317   0.198
 8935SOL    HW127704   6.751   5.305   0.293
 8935SOL    HW227705   6.729   5.413   0.173
 8936SOL     OW27706   3.851   2.985   0.971
 8936SOL    HW127707   3.840   3.009   1.068
 8936SOL    HW227708   3.917   2.911   0.963
 8937SOL     OW27709   0.825   0.640   6.175
 8937SOL    HW127710   0.747   0.702   6.175
 8937SOL    HW227711   0.862   0.633   6.083
 8938SOL     OW27712   4.565   6.102   1.774
 8938SOL    HW127713   4.644   6.096   1.713
 8938SOL    HW227714   4.497   6.034   1.746
 8939SOL     OW27715   5.708   2.104   4.852
 8939SOL    HW127716   5.707   2.110   4.752
 8939SOL    HW227717   5.618   2.129   4.888
 8940SOL     OW27718   5.976   0.064   2.540
 8940SOL    HW127719   5.964   0.141   2.602
 8940SOL    HW227720   5.888   0.037   2.502
 8941SOL     OW27721   4.082   1.395   6.741
 8941SOL    HW127722   4.068   1.379   6.839
 8941SOL    HW227723   4.007   1.450   6.705
 8942SOL     OW27724   1.158   2.181   5.123
 8942SOL    HW127725   1.160   2.270   5.077
 8942SOL    HW227726   1.218   2.117   5.075
 8943SOL     OW27727   5.260   3.689   0.876
 8943SOL    HW127728   5.311   3.637   0.808
 8943SOL    HW227729   5.309   3.773   0.898
 8944SOL     OW27730   4.274   5.930   1.368
 8944SOL    HW127731   4.277   6.010   1.307
 8944SOL    HW227732   4.312   5.851   1.320
 8945SOL     OW27733   2.101   0.996   4.238
 8945SOL    HW127734   2.130   1.090   4.260
 8945SOL    HW227735   2.065   0.992   4.145
 8946SOL     OW27736   4.433   0.548   4.460
 8946SOL    HW127737   4.358   0.608   4.489
 8946SOL    HW227738   4.480   0.512   4.541
 8947SOL     OW27739   3.929   4.139   5.118
 8947SOL    HW127740   3.988   4.206   5.162
 8947SOL    HW227741   3.834   4.170   5.124
 8948SOL     OW27742   5.750   5.058   3.074
 8948SOL    HW127743   5.654   5.050   3.100
 8948SOL    HW227744   5.803   5.090   3.153
 8949SOL     OW27745   1.605   5.251   5.856
 8949SOL    HW127746   1.505   5.250   5.862
 8949SOL    HW227747   1.643   5.269   5.946
 8950SOL     OW27748   4.859   2.729   4.734
 8950SOL    HW127749   4.831   2.823   4.756
 8950SOL    HW227750   4.778   2.671   4.724
 8951SOL     OW27751   2.725   2.365   5.560
 8951SOL    HW127752   2.722   2.274   5.601
 8951SOL    HW227753   2.819   2.400   5.566
 8952SOL     OW27754   6.362   6.501   3.430
 8952SOL    HW127755   6.411   6.415   3.444
 8952SOL    HW227756   6.407   6.554   3.359
 8953SOL     OW27757   1.676   5.271   6.116
 8953SOL    HW127758   1.604   5.311   6.173
 8953SOL    HW227759   1.763   5.315   6.138
 8954SOL     OW27760   2.619   6.092   5.690
 8954SOL    HW127761   2.546   6.105   5.758
 8954SOL    HW227762   2.644   5.996   5.686
 8955SOL     OW27763   6.597   3.668   4.401
 8955SOL    HW127764   6.520   3.631   4.350
 8955SOL    HW227765   6.590   3.768   4.404
 8956SOL     OW27766   1.087   0.694   4.719
 8956SOL    HW127767   1.133   0.738   4.796
 8956SOL    HW227768   1.066   0.599   4.741
 8957SOL     OW27769   3.037   6.125   1.666
 8957SOL    HW127770   3.075   6.049   1.612
 8957SOL    HW227771   3.095   6.206   1.654
 8958SOL     OW27772   2.692   0.248   4.470
 8958SOL    HW127773   2.594   0.235   4.455
 8958SOL    HW227774   2.715   0.225   4.564
 8959SOL     OW27775   3.635   5.677   0.250
 8959SOL    HW127776   3.630   5.580   0.274
 8959SOL    HW227777   3.720   5.715   0.287
 8960SOL     OW27778   3.978   6.027   0.866
 8960SOL    HW127779   3.931   6.112   0.891
 8960SOL    HW227780   3.957   5.956   0.933
 8961SOL     OW27781   1.012   2.946   3.977
 8961SOL    HW127782   1.041   2.978   4.067
 8961SOL    HW227783   1.062   2.864   3.952
 8962SOL     OW27784   4.973   0.812   3.722
 8962SOL    HW127785   4.957   0.909   3.707
 8962SOL    HW227786   5.066   0.797   3.753
 8963SOL     OW27787   0.538   1.053   3.790
 8963SOL    HW127788   0.529   1.142   3.835
 8963SOL    HW227789   0.633   1.021   3.797
 8964SOL     OW27790   6.803   3.251   2.706
 8964SOL    HW127791   6.883   3.289   2.752
 8964SOL    HW227792   6.720   3.291   2.745
 8965SOL     OW27793   1.596   5.125   1.367
 8965SOL    HW127794   1.635   5.059   1.431
 8965SOL    HW227795   1.504   5.150   1.396
 8966SOL     OW27796   3.817   1.967   5.158
 8966SOL    HW127797   3.852   1.991   5.067
 8966SOL    HW227798   3.717   1.974   5.158
 8967SOL     OW27799   5.271   6.137   0.780
 8967SOL    HW127800   5.185   6.135   0.832
 8967SOL    HW227801   5.261   6.082   0.697
 8968SOL     OW27802   5.226   4.474   3.107
 8968SOL    HW127803   5.312   4.432   3.078
 8968SOL    HW227804   5.156   4.403   3.115
 8969SOL     OW27805   6.489   0.425   4.406
 8969SOL    HW127806   6.393   0.450   4.421
 8969SOL    HW227807   6.546   0.469   4.476
 8970SOL     OW27808   2.811   2.490   1.513
 8970SOL    HW127809   2.860   2.515   1.597
 8970SOL    HW227810   2.755   2.409   1.529
 8971SOL     OW27811   4.063   6.385   2.643
 8971SOL    HW127812   4.037   6.478   2.616
 8971SOL    HW227813   4.010   6.320   2.589
 8972SOL     OW27814   5.065   0.336   4.997
 8972SOL    HW127815   5.092   0.240   5.005
 8972SOL    HW227816   5.117   0.391   5.062
 8973SOL     OW27817   1.990   5.138   6.146
 8973SOL    HW127818   2.007   5.193   6.064
 8973SOL    HW227819   1.906   5.085   6.132
 8974SOL     OW27820   0.730   2.949   3.869
 8974SOL    HW127821   0.715   2.851   3.885
 8974SOL    HW227822   0.827   2.971   3.884
 8975SOL     OW27823   3.681   0.938   6.020
 8975SOL    HW127824   3.619   0.931   5.942
 8975SOL    HW227825   3.628   0.955   6.103
 8976SOL     OW27826   1.504   5.369   4.161
 8976SOL    HW127827   1.600   5.363   4.189
 8976SOL    HW227828   1.462   5.279   4.167
 8977SOL     OW27829   5.486   1.401   6.654
 8977SOL    HW127830   5.569   1.346   6.668
 8977SOL    HW227831   5.462   1.401   6.557
 8978SOL     OW27832   5.946   4.699   1.390
 8978SOL    HW127833   5.979   4.625   1.331
 8978SOL    HW227834   6.023   4.757   1.418
 8979SOL     OW27835   1.133   4.390   5.038
 8979SOL    HW127836   1.089   4.354   4.955
 8979SOL    HW227837   1.126   4.323   5.111
 8980SOL     OW27838   4.175   3.408   4.668
 8980SOL    HW127839   4.086   3.372   4.643
 8980SOL    HW227840   4.244   3.375   4.603
 8981SOL     OW27841   2.893   1.771   5.101
 8981SOL    HW127842   2.970   1.823   5.065
 8981SOL    HW227843   2.891   1.778   5.201
 8982SOL     OW27844   3.512   4.236   0.639
 8982SOL    HW127845   3.452   4.253   0.717
 8982SOL    HW227846   3.480   4.289   0.561
 8983SOL     OW27847   4.742   4.573   1.082
 8983SOL    HW127848   4.804   4.503   1.046
 8983SOL    HW227849   4.654   4.531   1.105
 8984SOL     OW27850   1.404   6.467   3.390
 8984SOL    HW127851   1.362   6.543   3.439
 8984SOL    HW227852   1.437   6.399   3.455
 8985SOL     OW27853   3.126   3.529   5.941
 8985SOL    HW127854   3.042   3.530   5.996
 8985SOL    HW227855   3.127   3.446   5.885
 8986SOL     OW27856   3.136   6.557   2.261
 8986SOL    HW127857   3.100   6.601   2.179
 8986SOL    HW227858   3.165   6.464   2.240
 8987SOL     OW27859   5.435   6.621   2.134
 8987SOL    HW127860   5.479   6.701   2.094
 8987SOL    HW227861   5.336   6.637   2.138
 8988SOL     OW27862   0.778   4.748   4.767
 8988SOL    HW127863   0.725   4.793   4.695
 8988SOL    HW227864   0.777   4.649   4.753
 8989SOL     OW27865   2.400   2.622   6.873
 8989SOL    HW127866   2.328   2.614   6.804
 8989SOL    HW227867   2.474   2.559   6.850
 8990SOL     OW27868   6.955   5.124   3.343
 8990SOL    HW127869   6.896   5.204   3.357
 8990SOL    HW227870   0.015   5.129   3.405
 8991SOL     OW27871   1.482   2.199   5.159
 8991SOL    HW127872   1.537   2.276   5.127
 8991SOL    HW227873   1.425   2.166   5.085
 8992SOL     OW27874   6.977   2.359   1.260
 8992SOL    HW127875   0.046   2.350   1.211
 8992SOL    HW227876   6.916   2.286   1.230
 8993SOL     OW27877   3.754   2.247   0.946
 8993SOL    HW127878   3.667   2.242   0.995
 8993SOL    HW227879   3.737   2.279   0.853
 8994SOL     OW27880   1.685   5.514   2.359
 8994SOL    HW127881   1.620   5.441   2.336
 8994SOL    HW227882   1.747   5.481   2.430
 8995SOL     OW27883   0.482   0.268   1.493
 8995SOL    HW127884   0.514   0.313   1.576
 8995SOL    HW227885   0.396   0.221   1.512
 8996SOL     OW27886   3.958   6.614   5.734
 8996SOL    HW127887   4.028   6.676   5.769
 8996SOL    HW227888   3.902   6.662   5.666
 8997SOL     OW27889   6.231   0.257   4.676
 8997SOL    HW127890   6.311   0.237   4.618
 8997SOL    HW227891   6.152   0.275   4.619
 8998SOL     OW27892   6.784   3.965   4.214
 8998SOL    HW127893   6.874   4.007   4.203
 8998SOL    HW227894   6.783   3.875   4.170
 8999SOL     OW27895   4.048   6.712   6.097
 8999SOL    HW127896   4.141   6.712   6.132
 8999SOL    HW227897   4.043   6.659   6.013
 9000SOL     OW27898   1.085   4.025   1.475
 9000SOL    HW127899   1.057   4.112   1.514
 9000SOL    HW227900   1.182   4.030   1.449
 9001SOL     OW27901   1.123   5.514   1.034
 9001SOL    HW127902   1.130   5.427   0.984
 9001SOL    HW227903   1.196   5.576   1.003
 9002SOL     OW27904   0.136   4.902   6.269
 9002SOL    HW127905   0.202   4.846   6.221
 9002SOL    HW227906   0.137   4.995   6.232
 9003SOL     OW27907   5.675   0.069   0.697
 9003SOL    HW127908   5.671   0.079   0.598
 9003SOL    HW227909   5.662   6.991   0.722
 9004SOL     OW27910   5.787   4.676   1.603
 9004SOL    HW127911   5.727   4.755   1.587
 9004SOL    HW227912   5.843   4.660   1.522
 9005SOL     OW27913   5.404   0.647   5.477
 9005SOL    HW127914   5.448   0.658   5.387
 9005SOL    HW227915   5.473   0.654   5.549
 9006SOL     OW27916   4.227   5.560   0.291
 9006SOL    HW127917   4.180   5.608   0.365
 9006SOL    HW227918   4.171   5.483   0.261
 9007SOL     OW27919   1.352   0.928   2.823
 9007SOL    HW127920   1.311   0.938   2.732
 9007SOL    HW227921   1.425   0.996   2.834
 9008SOL     OW27922   0.036   5.688   2.081
 9008SOL    HW127923   0.050   5.710   2.178
 9008SOL    HW227924   6.985   5.616   2.073
 9009SOL     OW27925   3.344   6.734   1.987
 9009SOL    HW127926   3.371   6.725   1.891
 9009SOL    HW227927   3.268   6.799   1.995
 9010SOL     OW27928   1.716   5.721   4.676
 9010SOL    HW127929   1.706   5.630   4.715
 9010SOL    HW227930   1.630   5.749   4.634
 9011SOL     OW27931   2.100   2.195   2.318
 9011SOL    HW127932   2.168   2.149   2.262
 9011SOL    HW227933   2.128   2.193   2.414
 9012SOL     OW27934   2.534   6.053   6.992
 9012SOL    HW127935   2.482   5.967   6.991
 9012SOL    HW227936   2.630   6.033   6.972
 9013SOL     OW27937   1.874   0.092   4.587
 9013SOL    HW127938   1.887   0.102   4.686
 9013SOL    HW227939   1.794   0.034   4.570
 9014SOL     OW27940   5.567   3.214   3.828
 9014SOL    HW127941   5.519   3.158   3.761
 9014SOL    HW227942   5.569   3.166   3.916
 9015SOL     OW27943   4.391   0.304   6.308
 9015SOL    HW127944   4.300   0.270   6.332
 9015SOL    HW227945   4.428   0.356   6.386
 9016SOL     OW27946   4.707   5.342   5.728
 9016SOL    HW127947   4.764   5.314   5.804
 9016SOL    HW227948   4.684   5.439   5.737
 9017SOL     OW27949   3.687   6.951   5.400
 9017SOL    HW127950   3.619   0.003   5.377
 9017SOL    HW227951   3.667   6.868   5.348
 9018SOL     OW27952   3.510   4.427   0.426
 9018SOL    HW127953   3.462   4.493   0.368
 9018SOL    HW227954   3.596   4.466   0.457
 9019SOL     OW27955   0.652   3.419   3.409
 9019SOL    HW127956   0.589   3.383   3.478
 9019SOL    HW227957   0.730   3.357   3.400
 9020SOL     OW27958   5.140   4.739   3.129
 9020SOL    HW127959   5.042   4.723   3.135
 9020SOL    HW227960   5.189   4.652   3.132
 9021SOL     OW27961   0.471   1.340   3.913
 9021SOL    HW127962   0.483   1.389   3.999
 9021SOL    HW227963   0.453   1.406   3.839
 9022SOL     OW27964   3.948   3.713   6.338
 9022SOL    HW127965   3.946   3.781   6.265
 9022SOL    HW227966   4.043   3.683   6.354
 9023SOL     OW27967   7.011   4.589   0.526
 9023SOL    HW127968   0.021   4.543   0.610
 9023SOL    HW227969   0.001   4.688   0.537
 9024SOL     OW27970   2.254   5.369   6.182
 9024SOL    HW127971   2.259   5.365   6.082
 9024SOL    HW227972   2.269   5.277   6.220
 9025SOL     OW27973   0.858   5.991   1.489
 9025SOL    HW127974   0.775   6.005   1.435
 9025SOL    HW227975   0.907   5.911   1.455
 9026SOL     OW27976   5.325   1.363   0.610
 9026SOL    HW127977   5.310   1.455   0.574
 9026SOL    HW227978   5.247   1.336   0.667
 9027SOL     OW27979   0.754   4.189   3.641
 9027SOL    HW127980   0.691   4.117   3.615
 9027SOL    HW227981   0.846   4.151   3.649
 9028SOL     OW27982   3.108   4.640   6.553
 9028SOL    HW127983   3.174   4.677   6.617
 9028SOL    HW227984   3.036   4.707   6.536
 9029SOL     OW27985   4.629   6.832   4.286
 9029SOL    HW127986   4.674   6.915   4.253
 9029SOL    HW227987   4.638   6.760   4.217
 9030SOL     OW27988   3.170   2.031   2.113
 9030SOL    HW127989   3.221   2.099   2.060
 9030SOL    HW227990   3.080   2.016   2.070
 9031SOL     OW27991   4.810   6.821   5.030
 9031SOL    HW127992   4.800   6.730   5.071
 9031SOL    HW227993   4.745   6.884   5.073
 9032SOL     OW27994   5.223   2.308   1.425
 9032SOL    HW127995   5.285   2.233   1.449
 9032SOL    HW227996   5.275   2.383   1.386
 9033SOL     OW27997   0.896   6.339   2.617
 9033SOL    HW127998   0.850   6.285   2.687
 9033SOL    HW227999   0.971   6.285   2.578
 9034SOL     OW28000   4.724   6.786   4.540
 9034SOL    HW128001   4.694   6.794   4.445
 9034SOL    HW228002   4.735   6.877   4.580
 9035SOL     OW28003   3.073   5.308   6.343
 9035SOL    HW128004   3.039   5.246   6.272
 9035SOL    HW228005   3.173   5.313   6.338
 9036SOL     OW28006   0.993   4.622   5.115
 9036SOL    HW128007   1.040   4.542   5.078
 9036SOL    HW228008   0.914   4.592   5.168
 9037SOL     OW28009   0.076   0.833   2.319
 9037SOL    HW128010   6.996   0.854   2.320
 9037SOL    HW228011   0.092   0.743   2.359
 9038SOL     OW28012   3.949   3.700   5.685
 9038SOL    HW128013   3.956   3.665   5.592
 9038SOL    HW228014   3.874   3.766   5.691
 9039SOL     OW28015   4.497   6.500   6.483
 9039SOL    HW128016   4.470   6.536   6.573
 9039SOL    HW228017   4.551   6.417   6.496
 9040SOL     OW28018   1.834   2.485   1.647
 9040SOL    HW128019   1.921   2.525   1.678
 9040SOL    HW228020   1.775   2.471   1.726
 9041SOL     OW28021   5.985   1.985   3.056
 9041SOL    HW128022   5.939   1.980   3.145
 9041SOL    HW228023   5.949   2.063   3.005
 9042SOL     OW28024   4.568   5.879   0.101
 9042SOL    HW128025   4.526   5.788   0.097
 9042SOL    HW228026   4.499   5.948   0.080
 9043SOL     OW28027   2.679   2.708   1.403
 9043SOL    HW128028   2.603   2.693   1.341
 9043SOL    HW228029   2.728   2.622   1.417
 9044SOL     OW28030   0.944   0.688   0.430
 9044SOL    HW128031   1.041   0.710   0.422
 9044SOL    HW228032   0.892   0.741   0.364
 9045SOL     OW28033   4.262   1.002   3.749
 9045SOL    HW128034   4.350   1.011   3.797
 9045SOL    HW228035   4.267   0.927   3.683
 9046SOL     OW28036   3.427   2.805   2.158
 9046SOL    HW128037   3.498   2.842   2.097
 9046SOL    HW228038   3.348   2.776   2.103
 9047SOL     OW28039   1.195   4.599   6.159
 9047SOL    HW128040   1.114   4.644   6.122
 9047SOL    HW228041   1.215   4.517   6.106
 9048SOL     OW28042   0.058   1.543   5.688
 9048SOL    HW128043   6.997   1.501   5.733
 9048SOL    HW228044   0.076   1.633   5.728
 9049SOL     OW28045   2.221   6.357   5.431
 9049SOL    HW128046   2.182   6.420   5.363
 9049SOL    HW228047   2.287   6.407   5.488
 9050SOL     OW28048   0.668   4.567   0.705
 9050SOL    HW128049   0.654   4.538   0.800
 9050SOL    HW228050   0.752   4.525   0.670
 9051SOL     OW28051   1.996   1.083   1.932
 9051SOL    HW128052   2.072   1.110   1.990
 9051SOL    HW228053   1.994   0.983   1.924
 9052SOL     OW28054   1.744   3.465   6.344
 9052SOL    HW128055   1.761   3.512   6.258
 9052SOL    HW228056   1.692   3.524   6.406
 9053SOL     OW28057   1.051   0.797   6.746
 9053SOL    HW128058   1.000   0.843   6.674
 9053SOL    HW228059   1.141   0.770   6.712
 9054SOL     OW28060   1.638   5.539   2.787
 9054SOL    HW128061   1.558   5.489   2.821
 9054SOL    HW228062   1.720   5.506   2.834
 9055SOL     OW28063   0.505   2.763   5.686
 9055SOL    HW128064   0.483   2.667   5.669
 9055SOL    HW228065   0.568   2.795   5.615
 9056SOL     OW28066   6.031   2.370   3.834
 9056SOL    HW128067   5.998   2.277   3.850
 9056SOL    HW228068   5.953   2.429   3.811
 9057SOL     OW28069   4.851   2.131   3.893
 9057SOL    HW128070   4.769   2.136   3.952
 9057SOL    HW228071   4.914   2.064   3.931
 9058SOL     OW28072   2.576   0.130   5.859
 9058SOL    HW128073   2.596   0.152   5.764
 9058SOL    HW228074   2.478   0.142   5.876
 9059SOL     OW28075   1.003   2.213   3.529
 9059SOL    HW128076   0.965   2.135   3.479
 9059SOL    HW228077   1.103   2.209   3.526
 9060SOL     OW28078   4.898   3.310   5.065
 9060SOL    HW128079   4.911   3.327   4.967
 9060SOL    HW228080   4.957   3.371   5.117
 9061SOL     OW28081   1.825   4.887   3.006
 9061SOL    HW128082   1.891   4.834   2.954
 9061SOL    HW228083   1.869   4.970   3.040
 9062SOL     OW28084   1.836   6.236   1.620
 9062SOL    HW128085   1.854   6.156   1.678
 9062SOL    HW228086   1.916   6.297   1.621
 9063SOL     OW28087   3.122   1.798   2.412
 9063SOL    HW128088   3.046   1.795   2.347
 9063SOL    HW228089   3.157   1.891   2.419
 9064SOL     OW28090   5.219   4.103   6.919
 9064SOL    HW128091   5.176   4.013   6.914
 9064SOL    HW228092   5.186   4.152   7.000
 9065SOL     OW28093   3.039   0.748   1.420
 9065SOL    HW128094   2.994   0.837   1.422
 9065SOL    HW228095   2.998   0.692   1.348
 9066SOL     OW28096   5.035   6.702   6.900
 9066SOL    HW128097   5.009   6.610   6.929
 9066SOL    HW228098   5.107   6.737   6.960
 9067SOL     OW28099   1.355   0.243   1.628
 9067SOL    HW128100   1.312   0.173   1.685
 9067SOL    HW228101   1.311   0.245   1.538
 9068SOL     OW28102   1.769   6.052   6.553
 9068SOL    HW128103   1.741   6.010   6.639
 9068SOL    HW228104   1.691   6.099   6.512
 9069SOL     OW28105   1.364   2.303   6.240
 9069SOL    HW128106   1.405   2.345   6.322
 9069SOL    HW228107   1.383   2.361   6.161
 9070SOL     OW28108   1.511   4.714   4.040
 9070SOL    HW128109   1.565   4.798   4.035
 9070SOL    HW228110   1.563   4.638   4.002
 9071SOL     OW28111   5.000   5.942   6.881
 9071SOL    HW128112   5.072   5.973   6.818
 9071SOL    HW228113   5.008   5.843   6.893
 9072SOL     OW28114   4.832   4.520   0.369
 9072SOL    HW128115   4.886   4.604   0.377
 9072SOL    HW228116   4.846   4.464   0.451
 9073SOL     OW28117   2.371   0.576   0.991
 9073SOL    HW128118   2.365   0.629   1.076
 9073SOL    HW228119   2.279   0.565   0.953
 9074SOL     OW28120   0.353   0.680   2.077
 9074SOL    HW128121   0.386   0.595   2.036
 9074SOL    HW228122   0.286   0.723   2.016
 9075SOL     OW28123   6.909   0.258   1.765
 9075SOL    HW128124   6.818   0.216   1.756
 9075SOL    HW228125   6.962   0.240   1.682
 9076SOL     OW28126   1.069   1.926   4.880
 9076SOL    HW128127   1.147   1.958   4.934
 9076SOL    HW228128   1.090   1.835   4.843
 9077SOL     OW28129   5.804   6.459   1.966
 9077SOL    HW128130   5.716   6.412   1.961
 9077SOL    HW228131   5.790   6.554   1.991
 9078SOL     OW28132   4.655   2.994   5.599
 9078SOL    HW128133   4.603   3.058   5.656
 9078SOL    HW228134   4.736   3.040   5.563
 9079SOL     OW28135   3.239   0.515   5.534
 9079SOL    HW128136   3.281   0.446   5.474
 9079SOL    HW228137   3.191   0.582   5.478
 9080SOL     OW28138   4.816   1.425   6.606
 9080SOL    HW128139   4.873   1.349   6.635
 9080SOL    HW228140   4.773   1.467   6.687
 9081SOL     OW28141   5.463   6.668   3.246
 9081SOL    HW128142   5.370   6.639   3.270
 9081SOL    HW228143   5.503   6.717   3.324
 9082SOL     OW28144   2.644   0.499   2.299
 9082SOL    HW128145   2.690   0.482   2.211
 9082SOL    HW228146   2.545   0.492   2.286
 9083SOL     OW28147   4.482   4.454   3.881
 9083SOL    HW128148   4.560   4.505   3.918
 9083SOL    HW228149   4.513   4.365   3.847
 9084SOL     OW28150   3.906   3.543   2.760
 9084SOL    HW128151   3.811   3.540   2.729
 9084SOL    HW228152   3.958   3.474   2.710
 9085SOL     OW28153   0.856   2.841   0.737
 9085SOL    HW128154   0.906   2.777   0.679
 9085SOL    HW228155   0.771   2.868   0.691
 9086SOL     OW28156   6.622   3.529   6.854
 9086SOL    HW128157   6.574   3.537   6.767
 9086SOL    HW228158   6.718   3.550   6.841
 9087SOL     OW28159   5.273   3.258   2.427
 9087SOL    HW128160   5.195   3.196   2.430
 9087SOL    HW228161   5.312   3.259   2.335
 9088SOL     OW28162   5.700   5.611   1.469
 9088SOL    HW128163   5.636   5.535   1.484
 9088SOL    HW228164   5.726   5.650   1.558
 9089SOL     OW28165   4.322   1.008   5.460
 9089SOL    HW128166   4.302   1.057   5.545
 9089SOL    HW228167   4.311   1.070   5.382
 9090SOL     OW28168   6.071   1.729   3.435
 9090SOL    HW128169   6.166   1.726   3.463
 9090SOL    HW228170   6.021   1.796   3.490
 9091SOL     OW28171   4.138   2.835   6.061
 9091SOL    HW128172   4.200   2.757   6.057
 9091SOL    HW228173   4.151   2.891   5.979
 9092SOL     OW28174   6.878   3.329   5.994
 9092SOL    HW128175   6.962   3.367   5.957
 9092SOL    HW228176   6.892   3.233   6.019
 9093SOL     OW28177   1.900   6.572   5.017
 9093SOL    HW128178   1.996   6.583   4.991
 9093SOL    HW228179   1.892   6.504   5.089
 9094SOL     OW28180   1.663   3.592   0.664
 9094SOL    HW128181   1.575   3.638   0.652
 9094SOL    HW228182   1.726   3.623   0.592
 9095SOL     OW28183   7.003   6.744   6.525
 9095SOL    HW128184   6.945   6.705   6.453
 9095SOL    HW228185   0.036   6.822   6.488
 9096SOL     OW28186   5.937   5.227   3.460
 9096SOL    HW128187   6.021   5.273   3.435
 9096SOL    HW228188   5.956   5.159   3.532
 9097SOL     OW28189   1.416   2.678   6.208
 9097SOL    HW128190   1.322   2.710   6.217
 9097SOL    HW228191   1.479   2.755   6.213
 9098SOL     OW28192   2.168   4.688   4.184
 9098SOL    HW128193   2.268   4.679   4.178
 9098SOL    HW228194   2.126   4.628   4.117
 9099SOL     OW28195   2.304   1.636   0.110
 9099SOL    HW128196   2.237   1.686   0.164
 9099SOL    HW228197   2.306   1.540   0.138
 9100SOL     OW28198   1.667   4.989   4.295
 9100SOL    HW128199   1.712   4.950   4.215
 9100SOL    HW228200   1.615   4.919   4.342
 9101SOL     OW28201   0.134   2.097   0.584
 9101SOL    HW128202   0.131   2.131   0.489
 9101SOL    HW228203   0.229   2.077   0.609
 9102SOL     OW28204   3.899   1.122   3.203
 9102SOL    HW128205   3.939   1.031   3.195
 9102SOL    HW228206   3.972   1.191   3.209
 9103SOL     OW28207   6.226   0.454   1.370
 9103SOL    HW128208   6.263   0.444   1.462
 9103SOL    HW228209   6.295   0.426   1.303
 9104SOL     OW28210   6.402   2.013   6.243
 9104SOL    HW128211   6.341   1.976   6.313
 9104SOL    HW228212   6.359   2.090   6.197
 9105SOL     OW28213   2.937   1.035   6.806
 9105SOL    HW128214   2.841   1.006   6.804
 9105SOL    HW228215   2.991   0.978   6.745
 9106SOL     OW28216   2.331   3.063   6.444
 9106SOL    HW128217   2.309   3.043   6.348
 9106SOL    HW228218   2.247   3.061   6.498
 9107SOL     OW28219   3.442   0.765   0.835
 9107SOL    HW128220   3.450   0.771   0.934
 9107SOL    HW228221   3.473   0.851   0.793
 9108SOL     OW28222   6.689   5.831   5.898
 9108SOL    HW128223   6.754   5.907   5.901
 9108SOL    HW228224   6.606   5.856   5.947
 9109SOL     OW28225   5.513   4.202   2.884
 9109SOL    HW128226   5.593   4.157   2.844
 9109SOL    HW228227   5.442   4.214   2.814
 9110SOL     OW28228   0.941   6.831   2.585
 9110SOL    HW128229   0.984   6.805   2.671
 9110SOL    HW228230   0.976   6.774   2.511
 9111SOL     OW28231   3.919   2.592   5.467
 9111SOL    HW128232   3.935   2.627   5.375
 9111SOL    HW228233   3.859   2.655   5.517
 9112SOL     OW28234   0.661   5.116   2.272
 9112SOL    HW128235   0.714   5.201   2.267
 9112SOL    HW228236   0.640   5.084   2.180
 9113SOL     OW28237   6.006   0.316   4.489
 9113SOL    HW128238   5.993   0.252   4.413
 9113SOL    HW228239   5.918   0.355   4.516
 9114SOL     OW28240   1.283   0.690   6.395
 9114SOL    HW128241   1.193   0.660   6.362
 9114SOL    HW228242   1.353   0.625   6.364
 9115SOL     OW28243   5.254   3.774   5.125
 9115SOL    HW128244   5.287   3.868   5.133
 9115SOL    HW228245   5.190   3.755   5.200
 9116SOL     OW28246   0.986   6.158   3.701
 9116SOL    HW128247   1.068   6.137   3.755
 9116SOL    HW228248   0.933   6.074   3.688
 9117SOL     OW28249   1.754   6.720   0.287
 9117SOL    HW128250   1.793   6.810   0.307
 9117SOL    HW228251   1.785   6.655   0.356
 9118SOL     OW28252   6.653   4.497   1.526
 9118SOL    HW128253   6.561   4.526   1.552
 9118SOL    HW228254   6.674   4.531   1.435
 9119SOL     OW28255   3.756   0.836   1.061
 9119SOL    HW128256   3.768   0.918   1.006
 9119SOL    HW228257   3.808   0.844   1.146
 9120SOL     OW28258   6.718   4.158   4.534
 9120SOL    HW128259   6.796   4.184   4.477
 9120SOL    HW228260   6.667   4.085   4.489
 9121SOL     OW28261   4.154   0.693   4.201
 9121SOL    HW128262   4.127   0.757   4.128
 9121SOL    HW228263   4.252   0.676   4.194
 9122SOL     OW28264   0.088   1.928   2.250
 9122SOL    HW128265   0.174   1.942   2.299
 9122SOL    HW228266   0.081   1.833   2.221
 9123SOL     OW28267   0.635   6.470   4.563
 9123SOL    HW128268   0.600   6.535   4.630
 9123SOL    HW228269   0.587   6.481   4.476
 9124SOL     OW28270   4.137   5.687   0.554
 9124SOL    HW128271   4.228   5.726   0.570
 9124SOL    HW228272   4.087   5.683   0.640
 9125SOL     OW28273   5.356   6.763   1.480
 9125SOL    HW128274   5.350   6.717   1.569
 9125SOL    HW228275   5.272   6.814   1.463
 9126SOL     OW28276   4.073   5.052   0.814
 9126SOL    HW128277   4.170   5.051   0.791
 9126SOL    HW228278   4.021   5.011   0.740
 9127SOL     OW28279   6.584   4.541   5.088
 9127SOL    HW128280   6.601   4.637   5.113
 9127SOL    HW228281   6.519   4.538   5.011
 9128SOL     OW28282   5.718   3.937   6.240
 9128SOL    HW128283   5.651   3.940   6.314
 9128SOL    HW228284   5.671   3.924   6.152
 9129SOL     OW28285   6.760   3.209   0.908
 9129SOL    HW128286   6.850   3.233   0.872
 9129SOL    HW228287   6.689   3.242   0.846
 9130SOL     OW28288   3.271   3.299   5.730
 9130SOL    HW128289   3.221   3.266   5.810
 9130SOL    HW228290   3.352   3.350   5.760
 9131SOL     OW28291   6.091   2.727   0.620
 9131SOL    HW128292   6.118   2.750   0.527
 9131SOL    HW228293   6.015   2.787   0.648
 9132SOL     OW28294   1.305   3.847   3.816
 9132SOL    HW128295   1.250   3.925   3.847
 9132SOL    HW228296   1.393   3.880   3.782
 9133SOL     OW28297   5.266   0.073   0.894
 9133SOL    HW128298   5.205   0.109   0.824
 9133SOL    HW228299   5.259   6.991   0.896
 9134SOL     OW28300   4.699   4.474   6.689
 9134SOL    HW128301   4.783   4.494   6.640
 9134SOL    HW228302   4.620   4.487   6.629
 9135SOL     OW28303   6.535   5.282   2.442
 9135SOL    HW128304   6.514   5.299   2.345
 9135SOL    HW228305   6.462   5.227   2.483
 9136SOL     OW28306   0.715   5.073   6.871
 9136SOL    HW128307   0.783   5.039   6.935
 9136SOL    HW228308   0.625   5.074   6.915
 9137SOL     OW28309   5.541   5.467   6.267
 9137SOL    HW128310   5.604   5.391   6.284
 9137SOL    HW228311   5.583   5.552   6.298
 9138SOL     OW28312   1.695   4.444   6.753
 9138SOL    HW128313   1.771   4.508   6.748
 9138SOL    HW228314   1.652   4.450   6.843
 9139SOL     OW28315   0.003   0.210   1.243
 9139SOL    HW128316   6.965   0.182   1.166
 9139SOL    HW228317   0.097   0.227   1.211
 9140SOL     OW28318   1.639   4.352   2.283
 9140SOL    HW128319   1.583   4.408   2.344
 9140SOL    HW228320   1.583   4.279   2.244
 9141SOL     OW28321   0.277   5.950   4.658
 9141SOL    HW128322   0.280   6.036   4.607
 9141SOL    HW228323   0.327   5.879   4.607
 9142SOL     OW28324   1.514   4.947   3.823
 9142SOL    HW128325   1.470   4.987   3.743
 9142SOL    HW228326   1.590   4.888   3.794
 9143SOL     OW28327   5.830   3.533   2.669
 9143SOL    HW128328   5.845   3.450   2.723
 9143SOL    HW228329   5.738   3.529   2.628
 9144SOL     OW28330   2.572   4.364   5.493
 9144SOL    HW128331   2.518   4.304   5.435
 9144SOL    HW228332   2.614   4.436   5.438
 9145SOL     OW28333   2.724   6.546   6.308
 9145SOL    HW128334   2.780   6.469   6.278
 9145SOL    HW228335   2.763   6.585   6.391
 9146SOL     OW28336   6.294   1.949   4.400
 9146SOL    HW128337   6.223   1.988   4.458
 9146SOL    HW228338   6.357   2.021   4.373
 9147SOL     OW28339   4.297   0.633   6.082
 9147SOL    HW128340   4.357   0.694   6.031
 9147SOL    HW228341   4.282   0.669   6.174
 9148SOL     OW28342   4.087   5.625   2.473
 9148SOL    HW128343   4.038   5.684   2.537
 9148SOL    HW228344   4.021   5.571   2.420
 9149SOL     OW28345   0.305   4.340   1.441
 9149SOL    HW128346   0.391   4.289   1.443
 9149SOL    HW228347   0.308   4.408   1.367
 9150SOL     OW28348   3.135   3.763   6.788
 9150SOL    HW128349   3.193   3.682   6.798
 9150SOL    HW228350   3.042   3.741   6.816
 9151SOL     OW28351   2.127   3.197   3.962
 9151SOL    HW128352   2.056   3.208   3.892
 9151SOL    HW228353   2.155   3.101   3.966
 9152SOL     OW28354   1.796   5.060   1.898
 9152SOL    HW128355   1.816   5.105   1.811
 9152SOL    HW228356   1.699   5.072   1.921
 9153SOL     OW28357   0.292   3.621   0.168
 9153SOL    HW128358   0.269   3.532   0.127
 9153SOL    HW228359   0.389   3.639   0.154
 9154SOL     OW28360   4.414   5.403   3.163
 9154SOL    HW128361   4.415   5.472   3.090
 9154SOL    HW228362   4.323   5.364   3.171
 9155SOL     OW28363   1.136   6.210   2.442
 9155SOL    HW128364   1.148   6.119   2.482
 9155SOL    HW228365   1.055   6.211   2.383
 9156SOL     OW28366   6.906   4.116   5.550
 9156SOL    HW128367   6.961   4.185   5.598
 9156SOL    HW228368   6.872   4.155   5.464
 9157SOL     OW28369   1.748   4.424   5.116
 9157SOL    HW128370   1.778   4.366   5.040
 9157SOL    HW228371   1.759   4.520   5.091
 9158SOL     OW28372   0.151   2.703   4.339
 9158SOL    HW128373   0.057   2.716   4.370
 9158SOL    HW228374   0.175   2.774   4.273
 9159SOL     OW28375   1.932   0.697   3.964
 9159SOL    HW128376   1.900   0.643   3.886
 9159SOL    HW228377   1.854   0.730   4.016
 9160SOL     OW28378   0.424   3.578   6.069
 9160SOL    HW128379   0.329   3.588   6.039
 9160SOL    HW228380   0.478   3.538   5.996
 9161SOL     OW28381   5.630   2.883   2.770
 9161SOL    HW128382   5.569   2.951   2.729
 9161SOL    HW228383   5.685   2.840   2.699
 9162SOL     OW28384   4.568   1.982   2.236
 9162SOL    HW128385   4.566   2.070   2.187
 9162SOL    HW228386   4.493   1.925   2.203
 9163SOL     OW28387   2.000   3.539   3.392
 9163SOL    HW128388   2.049   3.577   3.313
 9163SOL    HW228389   2.057   3.547   3.473
 9164SOL     OW28390   3.299   0.027   0.582
 9164SOL    HW128391   3.229   0.051   0.650
 9164SOL    HW228392   3.255   7.002   0.504
 9165SOL     OW28393   5.705   0.780   6.896
 9165SOL    HW128394   5.756   0.840   6.834
 9165SOL    HW228395   5.670   0.701   6.845
 9166SOL     OW28396   4.341   6.317   1.788
 9166SOL    HW128397   4.283   6.257   1.733
 9166SOL    HW228398   4.437   6.303   1.764
 9167SOL     OW28399   1.226   1.951   4.483
 9167SOL    HW128400   1.162   1.945   4.406
 9167SOL    HW228401   1.208   1.877   4.547
 9168SOL     OW28402   6.267   6.049   4.805
 9168SOL    HW128403   6.241   5.990   4.881
 9168SOL    HW228404   6.239   6.143   4.825
 9169SOL     OW28405   6.187   5.846   6.895
 9169SOL    HW128406   6.172   5.902   6.976
 9169SOL    HW228407   6.230   5.901   6.823
 9170SOL     OW28408   2.074   0.817   5.728
 9170SOL    HW128409   2.133   0.745   5.693
 9170SOL    HW228410   2.124   0.904   5.731
 9171SOL     OW28411   4.034   5.320   0.158
 9171SOL    HW128412   4.010   5.338   0.063
 9171SOL    HW228413   3.966   5.362   0.218
 9172SOL     OW28414   4.894   1.140   6.087
 9172SOL    HW128415   4.833   1.172   6.014
 9172SOL    HW228416   4.903   1.210   6.157
 9173SOL     OW28417   5.999   4.431   5.324
 9173SOL    HW128418   5.932   4.364   5.356
 9173SOL    HW228419   6.088   4.386   5.314
 9174SOL     OW28420   5.884   4.231   0.041
 9174SOL    HW128421   5.874   4.290   0.122
 9174SOL    HW228422   5.928   4.282   6.986
 9175SOL     OW28423   2.114   1.250   1.729
 9175SOL    HW128424   2.023   1.292   1.722
 9175SOL    HW228425   2.111   1.176   1.796
 9176SOL     OW28426   1.553   0.711   2.346
 9176SOL    HW128427   1.478   0.683   2.406
 9176SOL    HW228428   1.622   0.760   2.399
 9177SOL     OW28429   0.700   5.837   3.466
 9177SOL    HW128430   0.699   5.737   3.461
 9177SOL    HW228431   0.628   5.873   3.406
 9178SOL     OW28432   1.206   3.476   0.574
 9178SOL    HW128433   1.293   3.439   0.541
 9178SOL    HW228434   1.220   3.522   0.662
 9179SOL     OW28435   3.954   5.008   2.981
 9179SOL    HW128436   4.035   5.067   2.982
 9179SOL    HW228437   3.977   4.920   2.940
 9180SOL     OW28438   0.264   0.848   4.967
 9180SOL    HW128439   0.189   0.801   4.920
 9180SOL    HW228440   0.339   0.864   4.902
 9181SOL     OW28441   2.630   2.131   3.342
 9181SOL    HW128442   2.661   2.182   3.262
 9181SOL    HW228443   2.708   2.084   3.383
 9182SOL     OW28444   6.516   1.819   2.870
 9182SOL    HW128445   6.604   1.802   2.825
 9182SOL    HW228446   6.444   1.825   2.801
 9183SOL     OW28447   2.776   1.672   5.795
 9183SOL    HW128448   2.736   1.696   5.707
 9183SOL    HW228449   2.871   1.645   5.782
 9184SOL     OW28450   2.904   5.003   1.375
 9184SOL    HW128451   2.900   4.937   1.301
 9184SOL    HW228452   2.894   4.955   1.463
 9185SOL     OW28453   1.033   0.959   5.211
 9185SOL    HW128454   1.044   1.052   5.245
 9185SOL    HW228455   1.089   0.896   5.264
 9186SOL     OW28456   5.666   7.018   6.140
 9186SOL    HW128457   5.605   6.993   6.215
 9186SOL    HW228458   5.755   0.027   6.178
 9187SOL     OW28459   5.120   3.098   1.105
 9187SOL    HW128460   5.056   3.026   1.078
 9187SOL    HW228461   5.082   3.187   1.083
 9188SOL     OW28462   1.148   0.570   2.418
 9188SOL    HW128463   1.098   0.484   2.414
 9188SOL    HW228464   1.090   0.641   2.459
 9189SOL     OW28465   2.861   0.921   6.188
 9189SOL    HW128466   2.796   0.994   6.167
 9189SOL    HW228467   2.825   0.834   6.153
 9190SOL     OW28468   4.071   0.966   5.702
 9190SOL    HW128469   4.147   1.030   5.708
 9190SOL    HW228470   3.990   1.007   5.745
 9191SOL     OW28471   5.762   0.345   1.180
 9191SOL    HW128472   5.670   0.308   1.194
 9191SOL    HW228473   5.771   0.377   1.086
 9192SOL     OW28474   5.106   4.551   4.425
 9192SOL    HW128475   5.128   4.459   4.456
 9192SOL    HW228476   5.019   4.551   4.377
 9193SOL     OW28477   4.028   3.303   2.624
 9193SOL    HW128478   4.055   3.219   2.577
 9193SOL    HW228479   3.973   3.359   2.562
 9194SOL     OW28480   3.140   5.088   3.096
 9194SOL    HW128481   3.113   5.054   3.006
 9194SOL    HW228482   3.064   5.076   3.160
 9195SOL     OW28483   0.808   3.300   3.737
 9195SOL    HW128484   0.808   3.308   3.637
 9195SOL    HW228485   0.716   3.319   3.772
 9196SOL     OW28486   5.328   5.627   3.055
 9196SOL    HW128487   5.330   5.654   2.959
 9196SOL    HW228488   5.411   5.577   3.078
 9197SOL     OW28489   4.507   2.441   0.254
 9197SOL    HW128490   4.566   2.361   0.259
 9197SOL    HW228491   4.462   2.443   0.165
 9198SOL     OW28492   6.327   3.232   5.180
 9198SOL    HW128493   6.271   3.235   5.097
 9198SOL    HW228494   6.301   3.152   5.234
 9199SOL     OW28495   0.665   3.574   6.591
 9199SOL    HW128496   0.729   3.544   6.521
 9199SOL    HW228497   0.710   3.640   6.652
 9200SOL     OW28498   4.647   6.370   1.793
 9200SOL    HW128499   4.628   6.273   1.780
 9200SOL    HW228500   4.665   6.388   1.889
 9201SOL     OW28501   0.231   3.083   2.281
 9201SOL    HW128502   0.165   3.059   2.210
 9201SOL    HW228503   0.316   3.113   2.239
 9202SOL     OW28504   1.749   6.090   3.858
 9202SOL    HW128505   1.794   6.141   3.931
 9202SOL    HW228506   1.757   6.140   3.772
 9203SOL     OW28507   5.450   1.926   0.864
 9203SOL    HW128508   5.373   1.920   0.928
 9203SOL    HW228509   5.433   1.998   0.797
 9204SOL     OW28510   4.719   4.641   2.335
 9204SOL    HW128511   4.806   4.603   2.301
 9204SOL    HW228512   4.644   4.580   2.309
 9205SOL     OW28513   4.238   2.291   1.119
 9205SOL    HW128514   4.252   2.390   1.109
 9205SOL    HW228515   4.145   2.273   1.150
 9206SOL     OW28516   6.969   6.449   5.162
 9206SOL    HW128517   0.015   6.480   5.092
 9206SOL    HW228518   6.907   6.381   5.124
 9207SOL     OW28519   5.220   6.766   0.102
 9207SOL    HW128520   5.252   6.826   0.176
 9207SOL    HW228521   5.206   6.674   0.137
 9208SOL     OW28522   5.383   4.602   1.654
 9208SOL    HW128523   5.475   4.562   1.652
 9208SOL    HW228524   5.383   4.681   1.716
 9209SOL     OW28525   5.034   0.408   4.552
 9209SOL    HW128526   5.068   0.500   4.534
 9209SOL    HW228527   5.097   0.340   4.513
 9210SOL     OW28528   1.046   0.133   0.092
 9210SOL    HW128529   1.130   0.097   0.132
 9210SOL    HW228530   0.975   0.138   0.162
 9211SOL     OW28531   5.148   1.745   6.106
 9211SOL    HW128532   5.114   1.763   6.198
 9211SOL    HW228533   5.175   1.649   6.098
 9212SOL     OW28534   6.105   3.545   6.399
 9212SOL    HW128535   6.059   3.457   6.413
 9212SOL    HW228536   6.203   3.529   6.383
 9213SOL     OW28537   6.870   5.581   2.597
 9213SOL    HW128538   6.945   5.514   2.593
 9213SOL    HW228539   6.786   5.535   2.624
 9214SOL     OW28540   2.159   1.306   6.151
 9214SOL    HW128541   2.085   1.239   6.142
 9214SOL    HW228542   2.212   1.310   6.066
 9215SOL     OW28543   0.148   4.190   3.449
 9215SOL    HW128544   0.234   4.215   3.405
 9215SOL    HW228545   0.075   4.187   3.380
 9216SOL     OW28546   2.326   6.770   4.046
 9216SOL    HW128547   2.370   6.847   4.000
 9216SOL    HW228548   2.329   6.690   3.987
 9217SOL     OW28549   3.239   2.370   0.227
 9217SOL    HW128550   3.246   2.462   0.187
 9217SOL    HW228551   3.144   2.339   0.222
 9218SOL     OW28552   4.379   6.169   5.559
 9218SOL    HW128553   4.360   6.074   5.584
 9218SOL    HW228554   4.293   6.218   5.543
 9219SOL     OW28555   3.867   2.946   6.463
 9219SOL    HW128556   3.856   3.010   6.387
 9219SOL    HW228557   3.841   2.854   6.433
 9220SOL     OW28558   0.795   0.052   3.728
 9220SOL    HW128559   0.742   6.986   3.717
 9220SOL    HW228560   0.741   0.119   3.778
 9221SOL     OW28561   2.771   1.553   2.202
 9221SOL    HW128562   2.835   1.508   2.264
 9221SOL    HW228563   2.811   1.558   2.110
 9222SOL     OW28564   2.224   5.642   3.307
 9222SOL    HW128565   2.201   5.546   3.293
 9222SOL    HW228566   2.296   5.650   3.375
 9223SOL     OW28567   6.228   2.321   4.634
 9223SOL    HW128568   6.232   2.421   4.635
 9223SOL    HW228569   6.192   2.289   4.721
 9224SOL     OW28570   1.848   5.391   2.891
 9224SOL    HW128571   1.809   5.356   2.976
 9224SOL    HW228572   1.924   5.453   2.912
 9225SOL     OW28573   0.391   5.270   5.716
 9225SOL    HW128574   0.417   5.250   5.622
 9225SOL    HW228575   0.372   5.368   5.726
 9226SOL     OW28576   0.801   7.005   4.557
 9226SOL    HW128577   0.724   0.030   4.604
 9226SOL    HW228578   0.797   6.906   4.570
 9227SOL     OW28579   3.961   3.436   0.364
 9227SOL    HW128580   3.942   3.412   0.269
 9227SOL    HW228581   4.051   3.400   0.390
 9228SOL     OW28582   3.957   3.383   5.229
 9228SOL    HW128583   4.014   3.342   5.158
 9228SOL    HW228584   3.894   3.314   5.266
 9229SOL     OW28585   0.327   5.090   0.802
 9229SOL    HW128586   0.248   5.070   0.860
 9229SOL    HW228587   0.373   5.004   0.778
 9230SOL     OW28588   3.744   0.156   6.281
 9230SOL    HW128589   3.680   0.095   6.328
 9230SOL    HW228590   3.748   0.244   6.329
 9231SOL     OW28591   5.884   6.669   1.206
 9231SOL    HW128592   5.800   6.659   1.258
 9231SOL    HW228593   5.862   6.677   1.108
 9232SOL     OW28594   1.070   5.165   2.132
 9232SOL    HW128595   1.079   5.151   2.033
 9232SOL    HW228596   1.160   5.156   2.174
 9233SOL     OW28597   1.146   0.286   5.816
 9233SOL    HW128598   1.078   0.347   5.856
 9233SOL    HW228599   1.106   0.238   5.738
 9234SOL     OW28600   3.420   3.995   6.506
 9234SOL    HW128601   3.433   4.092   6.526
 9234SOL    HW228602   3.504   3.946   6.525
 9235SOL     OW28603   2.395   2.309   3.150
 9235SOL    HW128604   2.304   2.290   3.187
 9235SOL    HW228605   2.441   2.222   3.129
 9236SOL     OW28606   2.191   4.030   6.341
 9236SOL    HW128607   2.192   3.948   6.399
 9236SOL    HW228608   2.099   4.046   6.307
 9237SOL     OW28609   6.731   5.420   3.960
 9237SOL    HW128610   6.632   5.415   3.967
 9237SOL    HW228611   6.770   5.430   4.052
 9238SOL     OW28612   1.453   2.409   5.408
 9238SOL    HW128613   1.440   2.310   5.413
 9238SOL    HW228614   1.550   2.429   5.393
 9239SOL     OW28615   1.716   6.036   6.247
 9239SOL    HW128616   1.746   6.126   6.215
 9239SOL    HW228617   1.796   5.982   6.272
 9240SOL     OW28618   3.829   1.622   5.048
 9240SOL    HW128619   3.802   1.565   4.970
 9240SOL    HW228620   3.857   1.563   5.123
 9241SOL     OW28621   5.598   6.078   6.942
 9241SOL    HW128622   5.518   6.040   6.896
 9241SOL    HW228623   5.618   6.169   6.904
 9242SOL     OW28624   2.640   2.720   7.016
 9242SOL    HW128625   2.634   2.665   0.081
 9242SOL    HW228626   2.550   2.723   6.972
 9243SOL     OW28627   2.338   0.450   0.369
 9243SOL    HW128628   2.432   0.420   0.354
 9243SOL    HW228629   2.275   0.377   0.343
 9244SOL     OW28630   2.843   6.414   6.815
 9244SOL    HW128631   2.824   6.512   6.826
 9244SOL    HW228632   2.758   6.363   6.825
 9245SOL     OW28633   0.743   4.705   2.639
 9245SOL    HW128634   0.660   4.658   2.609
 9245SOL    HW228635   0.819   4.682   2.579
 9246SOL     OW28636   5.105   0.205   0.103
 9246SOL    HW128637   5.183   0.267   0.095
 9246SOL    HW228638   5.114   0.151   0.187
 9247SOL     OW28639   3.325   6.767   2.790
 9247SOL    HW128640   3.359   6.839   2.730
 9247SOL    HW228641   3.400   6.731   2.845
 9248SOL     OW28642   3.111   0.241   0.176
 9248SOL    HW128643   3.164   0.220   0.094
 9248SOL    HW228644   3.099   0.340   0.184
 9249SOL     OW28645   3.770   0.740   0.554
 9249SOL    HW128646   3.843   0.692   0.507
 9249SOL    HW228647   3.802   0.772   0.643
 9250SOL     OW28648   0.385   3.705   2.577
 9250SOL    HW128649   0.322   3.630   2.594
 9250SOL    HW228650   0.336   3.792   2.583
 9251SOL     OW28651   4.220   1.927   1.434
 9251SOL    HW128652   4.219   2.018   1.475
 9251SOL    HW228653   4.222   1.935   1.334
 9252SOL     OW28654   5.511   1.760   4.623
 9252SOL    HW128655   5.550   1.733   4.711
 9252SOL    HW228656   5.550   1.704   4.551
 9253SOL     OW28657   2.366   4.884   3.609
 9253SOL    HW128658   2.359   4.968   3.555
 9253SOL    HW228659   2.449   4.834   3.582
 9254SOL     OW28660   6.805   6.229   2.369
 9254SOL    HW128661   6.905   6.221   2.370
 9254SOL    HW228662   6.765   6.144   2.404
 9255SOL     OW28663   6.637   3.518   1.074
 9255SOL    HW128664   6.666   3.606   1.111
 9255SOL    HW228665   6.717   3.468   1.041
 9256SOL     OW28666   2.676   6.441   1.060
 9256SOL    HW128667   2.763   6.459   1.015
 9256SOL    HW228668   2.632   6.361   1.018
 9257SOL     OW28669   6.495   6.223   4.878
 9257SOL    HW128670   6.536   6.175   4.955
 9257SOL    HW228671   6.432   6.162   4.830
 9258SOL     OW28672   5.385   4.486   2.656
 9258SOL    HW128673   5.339   4.514   2.572
 9258SOL    HW228674   5.480   4.516   2.654
 9259SOL     OW28675   0.915   2.389   6.783
 9259SOL    HW128676   0.966   2.456   6.729
 9259SOL    HW228677   0.883   2.431   6.868
 9260SOL     OW28678   4.947   4.435   5.053
 9260SOL    HW128679   4.941   4.384   5.139
 9260SOL    HW228680   4.905   4.381   4.980
 9261SOL     OW28681   1.656   3.303   1.326
 9261SOL    HW128682   1.585   3.331   1.390
 9261SOL    HW228683   1.733   3.262   1.375
 9262SOL     OW28684   0.619   6.260   5.773
 9262SOL    HW128685   0.669   6.327   5.719
 9262SOL    HW228686   0.644   6.268   5.869
 9263SOL     OW28687   2.578   4.571   2.940
 9263SOL    HW128688   2.658   4.630   2.951
 9263SOL    HW228689   2.547   4.573   2.845
 9264SOL     OW28690   4.847   3.696   5.714
 9264SOL    HW128691   4.813   3.676   5.806
 9264SOL    HW228692   4.916   3.768   5.719
 9265SOL     OW28693   4.949   0.013   2.399
 9265SOL    HW128694   4.991   0.099   2.427
 9265SOL    HW228695   4.889   6.998   2.472
 9266SOL     OW28696   0.638   4.643   1.591
 9266SOL    HW128697   0.646   4.564   1.652
 9266SOL    HW228698   0.543   4.676   1.592
 9267SOL     OW28699   0.183   1.263   3.681
 9267SOL    HW128700   0.153   1.314   3.761
 9267SOL    HW228701   0.258   1.312   3.636
 9268SOL     OW28702   0.553   0.827   1.311
 9268SOL    HW128703   0.542   0.912   1.364
 9268SOL    HW228704   0.574   0.752   1.374
 9269SOL     OW28705   3.399   6.683   0.736
 9269SOL    HW128706   3.323   6.621   0.752
 9269SOL    HW228707   3.371   6.777   0.756
 9270SOL     OW28708   2.365   1.111   4.908
 9270SOL    HW128709   2.430   1.090   4.836
 9270SOL    HW228710   2.272   1.091   4.876
 9271SOL     OW28711   1.532   4.704   5.822
 9271SOL    HW128712   1.549   4.606   5.820
 9271SOL    HW228713   1.438   4.721   5.852
 9272SOL     OW28714   6.743   6.609   5.587
 9272SOL    HW128715   6.695   6.610   5.499
 9272SOL    HW228716   6.810   6.534   5.587
 9273SOL     OW28717   6.421   3.731   3.550
 9273SOL    HW128718   6.478   3.786   3.610
 9273SOL    HW228719   6.459   3.639   3.542
 9274SOL     OW28720   6.729   3.334   0.385
 9274SOL    HW128721   6.756   3.321   0.289
 9274SOL    HW228722   6.656   3.269   0.408
 9275SOL     OW28723   4.786   1.865   0.333
 9275SOL    HW128724   4.839   1.930   0.389
 9275SOL    HW228725   4.762   1.785   0.388
 9276SOL     OW28726   1.741   3.922   0.249
 9276SOL    HW128727   1.766   3.826   0.238
 9276SOL    HW228728   1.647   3.928   0.284
 9277SOL     OW28729   3.331   5.765   2.479
 9277SOL    HW128730   3.359   5.860   2.486
 9277SOL    HW228731   3.235   5.761   2.449
 9278SOL     OW28732   1.090   0.143   5.550
 9278SOL    HW128733   1.159   0.100   5.608
 9278SOL    HW228734   0.999   0.129   5.590
 9279SOL     OW28735   3.630   5.950   1.741
 9279SOL    HW128736   3.536   5.919   1.733
 9279SOL    HW228737   3.631   6.048   1.764
 9280SOL     OW28738   1.211   4.861   1.253
 9280SOL    HW128739   1.240   4.773   1.215
 9280SOL    HW228740   1.249   4.935   1.197
 9281SOL     OW28741   1.259   5.466   0.698
 9281SOL    HW128742   1.313   5.496   0.619
 9281SOL    HW228743   1.207   5.544   0.734
 9282SOL     OW28744   1.835   0.348   4.696
 9282SOL    HW128745   1.883   0.429   4.661
 9282SOL    HW228746   1.841   0.274   4.629
 9283SOL     OW28747   5.021   5.460   6.713
 9283SOL    HW128748   5.095   5.507   6.664
 9283SOL    HW228749   5.056   5.375   6.751
 9284SOL     OW28750   4.266   6.215   1.156
 9284SOL    HW128751   4.270   6.136   1.095
 9284SOL    HW228752   4.273   6.299   1.102
 9285SOL     OW28753   0.008   5.911   3.378
 9285SOL    HW128754   7.011   5.966   3.459
 9285SOL    HW228755   6.939   5.876   3.344
 9286SOL     OW28756   5.247   6.365   1.430
 9286SOL    HW128757   5.176   6.329   1.491
 9286SOL    HW228758   5.258   6.304   1.352
 9287SOL     OW28759   4.471   4.192   0.339
 9287SOL    HW128760   4.397   4.146   0.388
 9287SOL    HW228761   4.471   4.290   0.362
 9288SOL     OW28762   3.778   1.121   2.825
 9288SOL    HW128763   3.728   1.108   2.911
 9288SOL    HW228764   3.780   1.036   2.774
 9289SOL     OW28765   4.431   6.175   2.482
 9289SOL    HW128766   4.378   6.100   2.521
 9289SOL    HW228767   4.399   6.262   2.519
 9290SOL     OW28768   5.013   1.352   3.742
 9290SOL    HW128769   5.088   1.335   3.806
 9290SOL    HW228770   5.039   1.422   3.676
 9291SOL     OW28771   0.603   4.338   5.526
 9291SOL    HW128772   0.577   4.434   5.539
 9291SOL    HW228773   0.692   4.322   5.569
 9292SOL     OW28774   1.547   2.173   0.039
 9292SOL    HW128775   1.500   2.085   0.044
 9292SOL    HW228776   1.561   2.209   0.131
 9293SOL     OW28777   4.724   0.930   5.176
 9293SOL    HW128778   4.693   1.010   5.228
 9293SOL    HW228779   4.781   0.873   5.236
 9294SOL     OW28780   5.136   6.360   5.675
 9294SOL    HW128781   5.148   6.268   5.638
 9294SOL    HW228782   5.066   6.359   5.746
 9295SOL     OW28783   6.441   0.397   2.827
 9295SOL    HW128784   6.374   0.325   2.808
 9295SOL    HW228785   6.520   0.386   2.767
 9296SOL     OW28786   1.896   3.639   5.262
 9296SOL    HW128787   1.826   3.709   5.253
 9296SOL    HW228788   1.976   3.665   5.208
 9297SOL     OW28789   6.655   5.288   1.956
 9297SOL    HW128790   6.741   5.298   1.904
 9297SOL    HW228791   6.583   5.341   1.911
 9298SOL     OW28792   0.287   4.490   6.264
 9298SOL    HW128793   0.189   4.494   6.242
 9298SOL    HW228794   0.336   4.558   6.210
 9299SOL     OW28795   2.905   2.267   4.020
 9299SOL    HW128796   2.977   2.239   3.957
 9299SOL    HW228797   2.832   2.312   3.969
 9300SOL     OW28798   2.693   5.646   5.948
 9300SOL    HW128799   2.714   5.573   5.884
 9300SOL    HW228800   2.741   5.730   5.921
 9301SOL     OW28801   0.213   3.413   4.203
 9301SOL    HW128802   0.168   3.455   4.282
 9301SOL    HW228803   0.159   3.336   4.170
 9302SOL     OW28804   3.157   5.236   3.973
 9302SOL    HW128805   3.250   5.222   4.007
 9302SOL    HW228806   3.142   5.334   3.957
 9303SOL     OW28807   2.561   4.645   0.143
 9303SOL    HW128808   2.523   4.662   0.052
 9303SOL    HW228809   2.562   4.546   0.160
 9304SOL     OW28810   5.859   5.871   5.768
 9304SOL    HW128811   5.857   5.963   5.807
 9304SOL    HW228812   5.786   5.863   5.699
 9305SOL     OW28813   1.872   1.527   1.219
 9305SOL    HW128814   1.873   1.429   1.197
 9305SOL    HW228815   1.822   1.540   1.305
 9306SOL     OW28816   6.759   6.349   4.581
 9306SOL    HW128817   6.691   6.315   4.517
 9306SOL    HW228818   6.838   6.287   4.583
 9307SOL     OW28819   2.106   3.964   0.943
 9307SOL    HW128820   2.085   3.868   0.963
 9307SOL    HW228821   2.100   4.017   1.028
 9308SOL     OW28822   2.406   3.504   1.129
 9308SOL    HW128823   2.387   3.449   1.048
 9308SOL    HW228824   2.459   3.585   1.103
 9309SOL     OW28825   4.168   5.609   5.713
 9309SOL    HW128826   4.200   5.628   5.806
 9309SOL    HW228827   4.210   5.525   5.679
 9310SOL     OW28828   0.065   6.449   6.367
 9310SOL    HW128829   6.997   6.492   6.342
 9310SOL    HW228830   0.140   6.491   6.315
 9311SOL     OW28831   5.707   4.483   0.479
 9311SOL    HW128832   5.694   4.549   0.552
 9311SOL    HW228833   5.672   4.394   0.508
 9312SOL     OW28834   5.968   3.327   4.114
 9312SOL    HW128835   5.884   3.294   4.157
 9312SOL    HW228836   5.951   3.349   4.018
 9313SOL     OW28837   0.222   0.679   1.791
 9313SOL    HW128838   0.320   0.678   1.773
 9313SOL    HW228839   0.175   0.725   1.716
 9314SOL     OW28840   5.157   4.771   1.154
 9314SOL    HW128841   5.068   4.812   1.135
 9314SOL    HW228842   5.173   4.769   1.253
 9315SOL     OW28843   5.995   5.447   5.730
 9315SOL    HW128844   5.962   5.397   5.650
 9315SOL    HW228845   6.014   5.542   5.705
 9316SOL     OW28846   5.205   5.981   0.533
 9316SOL    HW128847   5.231   5.895   0.577
 9316SOL    HW228848   5.259   5.993   0.449
 9317SOL     OW28849   2.833   6.142   3.080
 9317SOL    HW128850   2.880   6.230   3.087
 9317SOL    HW228851   2.738   6.152   3.110
 9318SOL     OW28852   3.205   0.120   3.536
 9318SOL    HW128853   3.220   0.044   3.473
 9318SOL    HW228854   3.251   0.202   3.502
 9319SOL     OW28855   3.641   2.058   0.522
 9319SOL    HW128856   3.541   2.063   0.518
 9319SOL    HW228857   3.680   2.112   0.447
 9320SOL     OW28858   6.420   6.940   0.369
 9320SOL    HW128859   6.507   6.898   0.397
 9320SOL    HW228860   6.431   6.981   0.279
 9321SOL     OW28861   0.908   2.243   3.875
 9321SOL    HW128862   0.839   2.291   3.821
 9321SOL    HW228863   0.998   2.283   3.859
 9322SOL     OW28864   5.321   2.923   0.242
 9322SOL    HW128865   5.328   2.844   0.182
 9322SOL    HW228866   5.335   3.007   0.188
 9323SOL     OW28867   0.841   2.257   5.166
 9323SOL    HW128868   0.751   2.217   5.185
 9323SOL    HW228869   0.905   2.228   5.238
 9324SOL     OW28870   0.783   4.343   1.026
 9324SOL    HW128871   0.733   4.345   0.940
 9324SOL    HW228872   0.746   4.272   1.086
 9325SOL     OW28873   1.129   4.493   3.221
 9325SOL    HW128874   1.096   4.467   3.312
 9325SOL    HW228875   1.213   4.546   3.230
 9326SOL     OW28876   5.033   4.773   1.413
 9326SOL    HW128877   4.992   4.702   1.356
 9326SOL    HW228878   4.965   4.844   1.431
 9327SOL     OW28879   2.377   1.523   3.273
 9327SOL    HW128880   2.399   1.426   3.266
 9327SOL    HW228881   2.355   1.559   3.182
 9328SOL     OW28882   1.187   6.850   3.175
 9328SOL    HW128883   1.200   6.759   3.136
 9328SOL    HW228884   1.089   6.871   3.180
 9329SOL     OW28885   1.634   4.751   6.475
 9329SOL    HW128886   1.617   4.732   6.379
 9329SOL    HW228887   1.581   4.831   6.503
 9330SOL     OW28888   0.314   6.573   0.874
 9330SOL    HW128889   0.255   6.639   0.921
 9330SOL    HW228890   0.281   6.561   0.781
 9331SOL     OW28891   1.881   5.017   4.780
 9331SOL    HW128892   1.950   5.004   4.851
 9331SOL    HW228893   1.888   5.110   4.743
 9332SOL     OW28894   6.200   5.296   0.085
 9332SOL    HW128895   6.153   5.235   0.022
 9332SOL    HW228896   6.144   5.309   0.167
 9333SOL     OW28897   1.546   5.101   0.698
 9333SOL    HW128898   1.597   5.030   0.747
 9333SOL    HW228899   1.542   5.184   0.754
 9334SOL     OW28900   6.980   5.148   0.567
 9334SOL    HW128901   0.058   5.148   0.537
 9334SOL    HW228902   6.967   5.221   0.634
 9335SOL     OW28903   0.210   3.583   0.895
 9335SOL    HW128904   0.154   3.665   0.879
 9335SOL    HW228905   0.256   3.591   0.984
 9336SOL     OW28906   4.106   5.988   5.223
 9336SOL    HW128907   4.080   5.977   5.319
 9336SOL    HW228908   4.120   6.085   5.203
 9337SOL     OW28909   3.317   1.407   4.611
 9337SOL    HW128910   3.220   1.398   4.631
 9337SOL    HW228911   3.334   1.384   4.515
 9338SOL     OW28912   4.676   6.614   0.941
 9338SOL    HW128913   4.654   6.696   0.888
 9338SOL    HW228914   4.774   6.595   0.933
 9339SOL     OW28915   6.992   3.487   4.889
 9339SOL    HW128916   6.936   3.555   4.935
 9339SOL    HW228917   0.033   3.532   4.822
 9340SOL     OW28918   2.394   4.641   2.139
 9340SOL    HW128919   2.367   4.734   2.114
 9340SOL    HW228920   2.315   4.593   2.178
 9341SOL     OW28921   5.847   5.605   0.697
 9341SOL    HW128922   5.866   5.594   0.794
 9341SOL    HW228923   5.817   5.517   0.659
 9342SOL     OW28924   2.853   0.200   5.183
 9342SOL    HW128925   2.925   0.261   5.150
 9342SOL    HW228926   2.766   0.248   5.181
 9343SOL     OW28927   5.255   3.651   1.516
 9343SOL    HW128928   5.209   3.651   1.605
 9343SOL    HW228929   5.340   3.704   1.522
 9344SOL     OW28930   5.845   0.100   4.763
 9344SOL    HW128931   5.794   0.078   4.846
 9344SOL    HW228932   5.943   0.097   4.783
 9345SOL     OW28933   6.876   4.506   6.377
 9345SOL    HW128934   6.876   4.573   6.303
 9345SOL    HW228935   6.889   4.553   6.465
 9346SOL     OW28936   4.830   0.376   2.031
 9346SOL    HW128937   4.871   0.289   2.057
 9346SOL    HW228938   4.738   0.360   1.996
 9347SOL     OW28939   4.774   6.758   1.898
 9347SOL    HW128940   4.708   6.729   1.966
 9347SOL    HW228941   4.766   6.856   1.882
 9348SOL     OW28942   2.103   5.187   1.679
 9348SOL    HW128943   2.056   5.274   1.695
 9348SOL    HW228944   2.089   5.127   1.758
 9349SOL     OW28945   6.380   5.514   1.238
 9349SOL    HW128946   6.410   5.419   1.239
 9349SOL    HW228947   6.314   5.527   1.164
 9350SOL     OW28948   6.512   0.404   6.785
 9350SOL    HW128949   6.495   0.496   6.819
 9350SOL    HW228950   6.453   0.339   6.834
 9351SOL     OW28951   4.856   3.942   6.497
 9351SOL    HW128952   4.759   3.941   6.518
 9351SOL    HW228953   4.883   3.852   6.461
 9352SOL     OW28954   2.582   2.167   0.426
 9352SOL    HW128955   2.529   2.157   0.341
 9352SOL    HW228956   2.653   2.097   0.429
 9353SOL     OW28957   1.046   3.102   2.267
 9353SOL    HW128958   0.960   3.153   2.265
 9353SOL    HW228959   1.113   3.148   2.209
 9354SOL     OW28960   5.373   2.295   2.569
 9354SOL    HW128961   5.324   2.376   2.536
 9354SOL    HW228962   5.453   2.280   2.512
 9355SOL     OW28963   0.031   1.649   2.136
 9355SOL    HW128964   0.001   1.558   2.106
 9355SOL    HW228965   7.011   1.668   2.226
 9356SOL     OW28966   4.649   2.637   2.412
 9356SOL    HW128967   4.555   2.661   2.437
 9356SOL    HW228968   4.709   2.656   2.489
 9357SOL     OW28969   2.562   4.986   6.631
 9357SOL    HW128970   2.571   4.892   6.598
 9357SOL    HW228971   2.580   4.989   6.729
 9358SOL     OW28972   5.128   3.773   2.074
 9358SOL    HW128973   5.150   3.682   2.108
 9358SOL    HW228974   5.031   3.791   2.087
 9359SOL     OW28975   4.486   5.397   6.345
 9359SOL    HW128976   4.402   5.407   6.292
 9359SOL    HW228977   4.558   5.360   6.286
 9360SOL     OW28978   1.234   1.347   5.183
 9360SOL    HW128979   1.258   1.284   5.109
 9360SOL    HW228980   1.136   1.344   5.200
 9361SOL     OW28981   1.910   1.296   2.563
 9361SOL    HW128982   1.867   1.357   2.496
 9361SOL    HW228983   2.008   1.314   2.566
 9362SOL     OW28984   1.552   1.125   2.880
 9362SOL    HW128985   1.501   1.207   2.903
 9362SOL    HW228986   1.632   1.150   2.825
 9363SOL     OW28987   1.334   6.425   1.900
 9363SOL    HW128988   1.302   6.466   1.985
 9363SOL    HW228989   1.430   6.449   1.885
 9364SOL     OW28990   5.465   4.145   1.273
 9364SOL    HW128991   5.382   4.191   1.304
 9364SOL    HW228992   5.455   4.120   1.177
 9365SOL     OW28993   1.896   1.053   3.531
 9365SOL    HW128994   1.940   0.978   3.482
 9365SOL    HW228995   1.962   1.127   3.544
 9366SOL     OW28996   3.064   1.760   1.936
 9366SOL    HW128997   3.000   1.771   2.013
 9366SOL    HW228998   3.017   1.714   1.861
 9367SOL     OW28999   5.581   6.802   3.465
 9367SOL    HW129000   5.629   6.885   3.437
 9367SOL    HW229001   5.529   6.819   3.548
 9368SOL     OW29002   5.184   3.042   0.619
 9368SOL    HW129003   5.170   2.949   0.584
 9368SOL    HW229004   5.104   3.071   0.671
 9369SOL     OW29005   0.268   1.477   5.303
 9369SOL    HW129006   0.352   1.503   5.255
 9369SOL    HW229007   0.231   1.393   5.263
 9370SOL     OW29008   5.533   5.532   2.751
 9370SOL    HW129009   5.453   5.508   2.806
 9370SOL    HW229010   5.505   5.556   2.658
 9371SOL     OW29011   1.383   6.534   0.658
 9371SOL    HW129012   1.472   6.503   0.625
 9371SOL    HW229013   1.362   6.624   0.620
 9372SOL     OW29014   5.500   5.293   0.230
 9372SOL    HW129015   5.595   5.323   0.222
 9372SOL    HW229016   5.491   5.229   0.307
 9373SOL     OW29017   5.301   2.663   4.164
 9373SOL    HW129018   5.206   2.630   4.157
 9373SOL    HW229019   5.349   2.612   4.235
 9374SOL     OW29020   5.238   4.333   6.775
 9374SOL    HW129021   5.216   4.289   6.688
 9374SOL    HW229022   5.252   4.263   6.846
 9375SOL     OW29023   6.211   0.508   4.411
 9375SOL    HW129024   6.130   0.452   4.427
 9375SOL    HW229025   6.202   0.555   4.323
 9376SOL     OW29026   2.155   3.156   1.641
 9376SOL    HW129027   2.221   3.087   1.612
 9376SOL    HW229028   2.199   3.246   1.644
 9377SOL     OW29029   6.359   4.944   3.350
 9377SOL    HW129030   6.362   4.863   3.291
 9377SOL    HW229031   6.292   4.930   3.422
 9378SOL     OW29032   3.862   6.225   0.998
 9378SOL    HW129033   3.762   6.234   1.001
 9378SOL    HW229034   3.900   6.244   1.089
 9379SOL     OW29035   5.406   5.453   5.320
 9379SOL    HW129036   5.308   5.437   5.326
 9379SOL    HW229037   5.450   5.374   5.276
 9380SOL     OW29038   6.095   5.724   5.755
 9380SOL    HW129039   6.008   5.767   5.779
 9380SOL    HW229040   6.120   5.749   5.661
 9381SOL     OW29041   1.357   0.557   0.083
 9381SOL    HW129042   1.399   0.473   0.118
 9381SOL    HW229043   1.410   0.590   0.005
 9382SOL     OW29044   5.384   1.567   2.898
 9382SOL    HW129045   5.459   1.631   2.882
 9382SOL    HW229046   5.331   1.556   2.815
 9383SOL     OW29047   6.569   5.224   6.090
 9383SOL    HW129048   6.563   5.139   6.039
 9383SOL    HW229049   6.491   5.283   6.067
 9384SOL     OW29050   3.979   6.755   3.278
 9384SOL    HW129051   3.888   6.759   3.235
 9384SOL    HW229052   4.024   6.670   3.251
 9385SOL     OW29053   3.681   0.679   3.908
 9385SOL    HW129054   3.763   0.627   3.888
 9385SOL    HW229055   3.650   0.657   4.001
 9386SOL     OW29056   4.011   0.227   5.514
 9386SOL    HW129057   3.961   0.186   5.438
 9386SOL    HW229058   4.035   0.157   5.581
 9387SOL     OW29059   4.788   5.641   0.442
 9387SOL    HW129060   4.730   5.589   0.379
 9387SOL    HW229061   4.884   5.620   0.423
 9388SOL     OW29062   6.760   0.027   1.960
 9388SOL    HW129063   6.766   0.119   1.998
 9388SOL    HW229064   6.671   0.014   1.917
 9389SOL     OW29065   2.787   1.038   0.828
 9389SOL    HW129066   2.781   1.114   0.763
 9389SOL    HW229067   2.832   1.069   0.911
 9390SOL     OW29068   3.610   5.359   1.248
 9390SOL    HW129069   3.554   5.385   1.169
 9390SOL    HW229070   3.583   5.412   1.328
 9391SOL     OW29071   6.240   1.499   4.306
 9391SOL    HW129072   6.182   1.436   4.255
 9391SOL    HW229073   6.309   1.539   4.245
 9392SOL     OW29074   0.951   6.534   4.558
 9392SOL    HW129075   1.024   6.466   4.551
 9392SOL    HW229076   0.869   6.500   4.511
 9393SOL     OW29077   3.956   1.753   5.279
 9393SOL    HW129078   3.900   1.713   5.351
 9393SOL    HW229079   3.899   1.808   5.219
 9394SOL     OW29080   6.286   1.985   1.900
 9394SOL    HW129081   6.294   2.084   1.914
 9394SOL    HW229082   6.298   1.938   1.987
 9395SOL     OW29083   2.122   2.844   6.570
 9395SOL    HW129084   2.035   2.804   6.599
 9395SOL    HW229085   2.133   2.832   6.471
 9396SOL     OW29086   0.103   0.968   6.143
 9396SOL    HW129087   0.139   0.878   6.118
 9396SOL    HW229088   0.043   1.001   6.070
 9397SOL     OW29089   2.082   2.073   0.516
 9397SOL    HW129090   2.171   2.105   0.548
 9397SOL    HW229091   2.059   1.988   0.563
 9398SOL     OW29092   2.155   1.681   1.784
 9398SOL    HW129093   2.210   1.607   1.746
 9398SOL    HW229094   2.096   1.645   1.857
 9399SOL     OW29095   0.061   0.423   5.830
 9399SOL    HW129096   0.148   0.419   5.880
 9399SOL    HW229097   0.075   0.469   5.742
 9400SOL     OW29098   3.710   1.817   3.501
 9400SOL    HW129099   3.778   1.745   3.516
 9400SOL    HW229100   3.721   1.888   3.571
 9401SOL     OW29101   4.698   6.847   3.771
 9401SOL    HW129102   4.767   6.920   3.777
 9401SOL    HW229103   4.740   6.760   3.798
 9402SOL     OW29104   2.619   5.408   6.615
 9402SOL    HW129105   2.601   5.506   6.616
 9402SOL    HW229106   2.699   5.389   6.558
 9403SOL     OW29107   5.736   0.326   4.238
 9403SOL    HW129108   5.648   0.303   4.198
 9403SOL    HW229109   5.768   0.413   4.201
 9404SOL     OW29110   1.477   3.982   5.860
 9404SOL    HW129111   1.430   4.042   5.795
 9404SOL    HW229112   1.576   3.995   5.852
 9405SOL     OW29113   0.790   0.506   1.497
 9405SOL    HW129114   0.729   0.584   1.481
 9405SOL    HW229115   0.866   0.535   1.555
 9406SOL     OW29116   6.877   1.207   5.231
 9406SOL    HW129117   6.830   1.207   5.142
 9406SOL    HW229118   6.812   1.233   5.302
 9407SOL     OW29119   3.759   5.713   2.972
 9407SOL    HW129120   3.753   5.651   2.894
 9407SOL    HW229121   3.675   5.707   3.026
 9408SOL     OW29122   3.865   1.827   6.546
 9408SOL    HW129123   3.813   1.863   6.623
 9408SOL    HW229124   3.859   1.890   6.469
 9409SOL     OW29125   5.958   3.710   3.441
 9409SOL    HW129126   5.922   3.726   3.349
 9409SOL    HW229127   5.892   3.744   3.509
 9410SOL     OW29128   4.443   6.679   1.467
 9410SOL    HW129129   4.488   6.676   1.556
 9410SOL    HW229130   4.513   6.677   1.395
 9411SOL     OW29131   4.952   5.566   1.929
 9411SOL    HW129132   4.943   5.488   1.990
 9411SOL    HW229133   4.861   5.591   1.893
 9412SOL     OW29134   6.216   2.810   3.247
 9412SOL    HW129135   6.288   2.813   3.178
 9412SOL    HW229136   6.255   2.825   3.338
 9413SOL     OW29137   3.746   5.102   3.438
 9413SOL    HW129138   3.703   5.146   3.359
 9413SOL    HW229139   3.731   5.004   3.434
 9414SOL     OW29140   2.081   0.166   2.422
 9414SOL    HW129141   2.074   0.104   2.344
 9414SOL    HW229142   2.061   0.116   2.506
 9415SOL     OW29143   1.888   1.067   2.414
 9415SOL    HW129144   1.920   0.984   2.459
 9415SOL    HW229145   1.907   1.146   2.471
 9416SOL     OW29146   1.520   2.746   1.842
 9416SOL    HW129147   1.576   2.663   1.845
 9416SOL    HW229148   1.568   2.820   1.890
 9417SOL     OW29149   1.614   0.275   5.092
 9417SOL    HW129150   1.584   0.284   5.187
 9417SOL    HW229151   1.534   0.277   5.032
 9418SOL     OW29152   4.692   4.027   1.053
 9418SOL    HW129153   4.771   3.984   1.010
 9418SOL    HW229154   4.628   3.957   1.083
 9419SOL     OW29155   2.687   5.384   4.026
 9419SOL    HW129156   2.675   5.386   4.125
 9419SOL    HW229157   2.757   5.317   4.002
 9420SOL     OW29158   1.828   0.426   4.026
 9420SOL    HW129159   1.732   0.448   4.038
 9420SOL    HW229160   1.884   0.492   4.077
 9421SOL     OW29161   1.904   5.285   4.705
 9421SOL    HW129162   1.811   5.294   4.669
 9421SOL    HW229163   1.949   5.374   4.704
 9422SOL     OW29164   4.168   0.962   2.960
 9422SOL    HW129165   4.265   0.939   2.960
 9422SOL    HW229166   4.154   1.051   3.003
 9423SOL     OW29167   4.903   0.436   4.801
 9423SOL    HW129168   4.908   0.369   4.875
 9423SOL    HW229169   4.957   0.404   4.723
 9424SOL     OW29170   3.369   6.235   3.946
 9424SOL    HW129171   3.388   6.167   3.875
 9424SOL    HW229172   3.317   6.192   4.020
 9425SOL     OW29173   0.929   5.390   3.196
 9425SOL    HW129174   0.831   5.385   3.177
 9425SOL    HW229175   0.944   5.392   3.295
 9426SOL     OW29176   3.767   5.632   0.615
 9426SOL    HW129177   3.786   5.673   0.525
 9426SOL    HW229178   3.743   5.704   0.680
 9427SOL     OW29179   3.382   5.036   3.872
 9427SOL    HW129180   3.299   4.995   3.911
 9427SOL    HW229181   3.358   5.087   3.790
 9428SOL     OW29182   4.756   6.325   2.369
 9428SOL    HW129183   4.710   6.303   2.455
 9428SOL    HW229184   4.733   6.418   2.342
 9429SOL     OW29185   0.687   3.651   2.851
 9429SOL    HW129186   0.708   3.560   2.888
 9429SOL    HW229187   0.771   3.703   2.840
 9430SOL     OW29188   5.932   0.249   1.507
 9430SOL    HW129189   5.900   0.338   1.474
 9430SOL    HW229190   5.877   0.221   1.586
 9431SOL     OW29191   6.469   4.217   6.866
 9431SOL    HW129192   6.490   4.314   6.851
 9431SOL    HW229193   6.371   4.207   6.883
 9432SOL     OW29194   6.443   0.035   4.187
 9432SOL    HW129195   6.401   6.981   4.132
 9432SOL    HW229196   6.400   0.122   4.165
 9433SOL     OW29197   2.451   5.762   4.071
 9433SOL    HW129198   2.525   5.804   4.018
 9433SOL    HW229199   2.458   5.663   4.066
 9434SOL     OW29200   5.640   4.398   3.280
 9434SOL    HW129201   5.575   4.396   3.356
 9434SOL    HW229202   5.589   4.401   3.193
 9435SOL     OW29203   2.228   2.337   4.994
 9435SOL    HW129204   2.319   2.369   5.020
 9435SOL    HW229205   2.177   2.411   4.951
 9436SOL     OW29206   3.228   1.780   5.542
 9436SOL    HW129207   3.175   1.863   5.525
 9436SOL    HW229208   3.275   1.753   5.458
 9437SOL     OW29209   0.407   5.692   4.225
 9437SOL    HW129210   0.497   5.667   4.261
 9437SOL    HW229211   0.415   5.719   4.129
 9438SOL     OW29212   0.793   6.597   2.193
 9438SOL    HW129213   0.856   6.664   2.154
 9438SOL    HW229214   0.778   6.523   2.127
 9439SOL     OW29215   1.409   3.661   0.681
 9439SOL    HW129216   1.429   3.608   0.763
 9439SOL    HW229217   1.338   3.729   0.701
 9440SOL     OW29218   3.750   5.603   4.690
 9440SOL    HW129219   3.668   5.653   4.720
 9440SOL    HW229220   3.831   5.648   4.726
 9441SOL     OW29221   1.749   5.740   5.367
 9441SOL    HW129222   1.724   5.645   5.349
 9441SOL    HW229223   1.844   5.756   5.342
 9442SOL     OW29224   1.076   3.585   0.931
 9442SOL    HW129225   1.074   3.485   0.928
 9442SOL    HW229226   1.122   3.615   1.015
 9443SOL     OW29227   1.321   3.085   1.375
 9443SOL    HW129228   1.237   3.125   1.340
 9443SOL    HW229229   1.311   2.985   1.381
 9444SOL     OW29230   1.228   4.532   5.718
 9444SOL    HW129231   1.289   4.510   5.641
 9444SOL    HW229232   1.134   4.509   5.693
 9445SOL     OW29233   6.333   2.963   1.576
 9445SOL    HW129234   6.350   2.916   1.489
 9445SOL    HW229235   6.348   3.061   1.564
 9446SOL     OW29236   5.362   3.932   0.121
 9446SOL    HW129237   5.407   3.847   0.091
 9446SOL    HW229238   5.268   3.933   0.089
 9447SOL     OW29239   5.712   1.737   2.116
 9447SOL    HW129240   5.686   1.644   2.092
 9447SOL    HW229241   5.811   1.748   2.105
 9448SOL     OW29242   6.221   5.991   0.130
 9448SOL    HW129243   6.309   5.995   0.178
 9448SOL    HW229244   6.154   5.948   0.190
 9449SOL     OW29245   5.955   5.307   5.497
 9449SOL    HW129246   6.018   5.232   5.516
 9449SOL    HW229247   5.999   5.372   5.434
 9450SOL     OW29248   2.738   6.213   3.928
 9450SOL    HW129249   2.717   6.115   3.925
 9450SOL    HW229250   2.657   6.263   3.960
 9451SOL     OW29251   4.283   3.576   5.448
 9451SOL    HW129252   4.322   3.553   5.537
 9451SOL    HW229253   4.339   3.535   5.376
 9452SOL     OW29254   3.084   3.727   0.615
 9452SOL    HW129255   3.101   3.735   0.713
 9452SOL    HW229256   3.154   3.779   0.565
 9453SOL     OW29257   3.246   5.439   1.323
 9453SOL    HW129258   3.152   5.470   1.309
 9453SOL    HW229259   3.246   5.351   1.370
 9454SOL     OW29260   2.195   2.060   5.521
 9454SOL    HW129261   2.252   2.019   5.450
 9454SOL    HW229262   2.100   2.029   5.510
 9455SOL     OW29263   1.939   2.009   2.982
 9455SOL    HW129264   1.989   2.093   2.957
 9455SOL    HW229265   1.852   2.007   2.934
 9456SOL     OW29266   1.358   3.049   0.600
 9456SOL    HW129267   1.324   2.971   0.547
 9456SOL    HW229268   1.289   3.121   0.601
 9457SOL     OW29269   6.326   3.509   0.011
 9457SOL    HW129270   6.299   3.480   6.937
 9457SOL    HW229271   6.390   3.586   0.005
 9458SOL     OW29272   0.820   6.259   4.544
 9458SOL    HW129273   0.811   6.203   4.627
 9458SOL    HW229274   0.751   6.332   4.547
 9459SOL     OW29275   4.403   5.927   1.655
 9459SOL    HW129276   4.312   5.956   1.626
 9459SOL    HW229277   4.430   5.846   1.603
 9460SOL     OW29278   1.537   3.348   5.783
 9460SOL    HW129279   1.623   3.400   5.782
 9460SOL    HW229280   1.478   3.381   5.710
 9461SOL     OW29281   1.760   0.311   3.025
 9461SOL    HW129282   1.682   0.299   3.086
 9461SOL    HW229283   1.808   0.396   3.048
 9462SOL     OW29284   0.478   2.907   3.052
 9462SOL    HW129285   0.421   2.931   2.974
 9462SOL    HW229286   0.423   2.857   3.119
 9463SOL     OW29287   6.345   1.907   6.776
 9463SOL    HW129288   6.295   1.835   6.729
 9463SOL    HW229289   6.289   1.990   6.779
 9464SOL     OW29290   4.285   6.639   5.534
 9464SOL    HW129291   4.206   6.690   5.501
 9464SOL    HW229292   4.260   6.589   5.618
 9465SOL     OW29293   5.160   6.312   4.309
 9465SOL    HW129294   5.064   6.334   4.328
 9465SOL    HW229295   5.197   6.380   4.246
 9466SOL     OW29296   3.498   1.655   0.095
 9466SOL    HW129297   3.591   1.641   0.061
 9466SOL    HW229298   3.469   1.576   0.149
 9467SOL     OW29299   1.603   3.313   2.278
 9467SOL    HW129300   1.630   3.358   2.193
 9467SOL    HW229301   1.677   3.252   2.308
 9468SOL     OW29302   0.692   2.419   6.072
 9468SOL    HW129303   0.693   2.319   6.074
 9468SOL    HW229304   0.599   2.451   6.087
 9469SOL     OW29305   6.896   4.391   2.651
 9469SOL    HW129306   6.822   4.324   2.654
 9469SOL    HW229307   6.953   4.382   2.732
 9470SOL     OW29308   6.762   3.806   1.493
 9470SOL    HW129309   6.701   3.745   1.442
 9470SOL    HW229310   6.831   3.843   1.431
 9471SOL     OW29311   0.446   2.519   6.151
 9471SOL    HW129312   0.411   2.556   6.065
 9471SOL    HW229313   0.377   2.531   6.223
 9472SOL     OW29314   6.666   2.152   5.236
 9472SOL    HW129315   6.616   2.117   5.156
 9472SOL    HW229316   6.719   2.233   5.210
 9473SOL     OW29317   3.191   5.734   5.121
 9473SOL    HW129318   3.110   5.678   5.106
 9473SOL    HW229319   3.181   5.784   5.208
 9474SOL     OW29320   3.286   5.321   3.701
 9474SOL    HW129321   3.362   5.361   3.752
 9474SOL    HW229322   3.213   5.388   3.693
 9475SOL     OW29323   1.662   3.226   1.647
 9475SOL    HW129324   1.753   3.184   1.638
 9475SOL    HW229325   1.672   3.323   1.669
 9476SOL     OW29326   2.875   3.766   5.432
 9476SOL    HW129327   2.815   3.687   5.420
 9476SOL    HW229328   2.949   3.761   5.365
 9477SOL     OW29329   0.649   2.071   0.730
 9477SOL    HW129330   0.660   2.122   0.815
 9477SOL    HW229331   0.738   2.055   0.688
 9478SOL     OW29332   5.594   4.136   5.549
 9478SOL    HW129333   5.534   4.207   5.585
 9478SOL    HW229334   5.568   4.048   5.588
 9479SOL     OW29335   5.790   5.542   4.836
 9479SOL    HW129336   5.697   5.510   4.817
 9479SOL    HW229337   5.811   5.527   4.933
 9480SOL     OW29338   6.072   4.052   6.521
 9480SOL    HW129339   6.006   4.085   6.454
 9480SOL    HW229340   6.075   3.952   6.517
 9481SOL     OW29341   6.464   3.128   2.647
 9481SOL    HW129342   6.464   3.029   2.661
 9481SOL    HW229343   6.373   3.157   2.615
 9482SOL     OW29344   4.512   0.201   2.386
 9482SOL    HW129345   4.420   0.168   2.368
 9482SOL    HW229346   4.551   0.150   2.463
 9483SOL     OW29347   1.401   1.585   0.861
 9483SOL    HW129348   1.345   1.524   0.804
 9483SOL    HW229349   1.382   1.567   0.957
 9484SOL     OW29350   6.178   0.581   3.356
 9484SOL    HW129351   6.086   0.546   3.336
 9484SOL    HW229352   6.245   0.509   3.343
 9485SOL     OW29353   1.237   0.006   2.377
 9485SOL    HW129354   1.295   0.088   2.369
 9485SOL    HW229355   1.177   0.016   2.456
 9486SOL     OW29356   2.709   6.387   1.906
 9486SOL    HW129357   2.770   6.310   1.892
 9486SOL    HW229358   2.735   6.462   1.845
 9487SOL     OW29359   3.353   3.552   4.133
 9487SOL    HW129360   3.343   3.557   4.232
 9487SOL    HW229361   3.265   3.527   4.092
 9488SOL     OW29362   1.232   1.234   1.665
 9488SOL    HW129363   1.306   1.168   1.658
 9488SOL    HW229364   1.269   1.327   1.657
 9489SOL     OW29365   2.807   4.510   0.682
 9489SOL    HW129366   2.775   4.421   0.714
 9489SOL    HW229367   2.792   4.517   0.583
 9490SOL     OW29368   4.927   1.519   0.110
 9490SOL    HW129369   4.837   1.532   0.151
 9490SOL    HW229370   4.929   1.433   0.060
 9491SOL     OW29371   6.444   5.477   5.931
 9491SOL    HW129372   6.424   5.392   5.882
 9491SOL    HW229373   6.529   5.517   5.895
 9492SOL     OW29374   2.616   4.466   1.389
 9492SOL    HW129375   2.685   4.451   1.460
 9492SOL    HW229376   2.607   4.383   1.333
 9493SOL     OW29377   5.415   6.255   2.554
 9493SOL    HW129378   5.470   6.275   2.634
 9493SOL    HW229379   5.471   6.265   2.472
 9494SOL     OW29380   3.140   3.230   5.982
 9494SOL    HW129381   3.165   3.134   5.994
 9494SOL    HW229382   3.126   3.272   6.072
 9495SOL     OW29383   5.428   2.432   4.294
 9495SOL    HW129384   5.463   2.388   4.377
 9495SOL    HW229385   5.390   2.362   4.233
 9496SOL     OW29386   6.215   4.168   0.048
 9496SOL    HW129387   6.121   4.200   0.062
 9496SOL    HW229388   6.215   4.072   0.020
 9497SOL     OW29389   0.597   5.720   5.777
 9497SOL    HW129390   0.644   5.760   5.699
 9497SOL    HW229391   0.543   5.790   5.822
 9498SOL     OW29392   3.956   0.167   6.750
 9498SOL    HW129393   4.032   0.157   6.685
 9498SOL    HW229394   3.981   0.126   6.837
 9499SOL     OW29395   4.190   3.929   5.872
 9499SOL    HW129396   4.203   3.915   5.773
 9499SOL    HW229397   4.102   3.974   5.887
 9500SOL     OW29398   5.226   5.394   1.448
 9500SOL    HW129399   5.254   5.448   1.527
 9500SOL    HW229400   5.308   5.354   1.405
 9501SOL     OW29401   3.196   2.093   4.791
 9501SOL    HW129402   3.200   2.168   4.725
 9501SOL    HW229403   3.163   2.128   4.879
 9502SOL     OW29404   3.562   3.123   5.733
 9502SOL    HW129405   3.640   3.106   5.674
 9502SOL    HW229406   3.541   3.221   5.734
 9503SOL     OW29407   1.326   6.768   1.720
 9503SOL    HW129408   1.389   6.703   1.676
 9503SOL    HW229409   1.345   6.770   1.819
 9504SOL     OW29410   0.600   3.189   0.346
 9504SOL    HW129411   0.694   3.184   0.379
 9504SOL    HW229412   0.578   3.284   0.322
 9505SOL     OW29413   4.948   3.088   3.044
 9505SOL    HW129414   5.030   3.090   2.986
 9505SOL    HW229415   4.942   3.173   3.096
 9506SOL     OW29416   0.133   1.732   1.056
 9506SOL    HW129417   0.132   1.654   1.118
 9506SOL    HW229418   0.110   1.816   1.106
 9507SOL     OW29419   1.181   2.099   4.701
 9507SOL    HW129420   1.189   2.074   4.604
 9507SOL    HW229421   1.127   2.030   4.748
 9508SOL     OW29422   4.772   1.465   6.164
 9508SOL    HW129423   4.715   1.538   6.201
 9508SOL    HW229424   4.775   1.389   6.230
 9509SOL     OW29425   3.211   0.401   6.267
 9509SOL    HW129426   3.256   0.490   6.261
 9509SOL    HW229427   3.276   0.334   6.304
 9510SOL     OW29428   6.658   4.318   2.976
 9510SOL    HW129429   6.563   4.340   3.001
 9510SOL    HW229430   6.667   4.319   2.877
 9511SOL     OW29431   2.394   1.283   1.417
 9511SOL    HW129432   2.462   1.263   1.487
 9511SOL    HW229433   2.438   1.282   1.327
 9512SOL     OW29434   1.362   3.386   4.880
 9512SOL    HW129435   1.353   3.419   4.974
 9512SOL    HW229436   1.277   3.339   4.853
 9513SOL     OW29437   2.167   4.149   4.440
 9513SOL    HW129438   2.186   4.124   4.345
 9513SOL    HW229439   2.203   4.078   4.501
 9514SOL     OW29440   2.760   2.990   6.068
 9514SOL    HW129441   2.825   2.913   6.069
 9514SOL    HW229442   2.744   3.019   5.974
 9515SOL     OW29443   2.073   5.281   5.934
 9515SOL    HW129444   2.161   5.246   5.901
 9515SOL    HW229445   2.029   5.334   5.861
 9516SOL     OW29446   5.218   4.462   5.336
 9516SOL    HW129447   5.129   4.417   5.324
 9516SOL    HW229448   5.254   4.489   5.247
 9517SOL     OW29449   1.242   5.365   2.385
 9517SOL    HW129450   1.249   5.435   2.457
 9517SOL    HW229451   1.238   5.409   2.296
 9518SOL     OW29452   0.669   3.233   5.619
 9518SOL    HW129453   0.678   3.169   5.543
 9518SOL    HW229454   0.643   3.182   5.702
 9519SOL     OW29455   3.248   2.918   3.085
 9519SOL    HW129456   3.334   2.881   3.119
 9519SOL    HW229457   3.228   3.004   3.130
 9520SOL     OW29458   5.429   0.797   6.417
 9520SOL    HW129459   5.472   0.736   6.349
 9520SOL    HW229460   5.374   0.742   6.480
 9521SOL     OW29461   3.802   1.278   1.304
 9521SOL    HW129462   3.719   1.223   1.304
 9521SOL    HW229463   3.805   1.335   1.387
 9522SOL     OW29464   3.723   6.517   1.608
 9522SOL    HW129465   3.790   6.455   1.647
 9522SOL    HW229466   3.761   6.610   1.607
 9523SOL     OW29467   2.611   5.121   4.371
 9523SOL    HW129468   2.518   5.135   4.335
 9523SOL    HW229469   2.621   5.026   4.400
 9524SOL     OW29470   1.973   4.353   0.380
 9524SOL    HW129471   2.033   4.339   0.301
 9524SOL    HW229472   1.931   4.443   0.374
 9525SOL     OW29473   2.139   3.375   6.570
 9525SOL    HW129474   2.108   3.290   6.613
 9525SOL    HW229475   2.073   3.403   6.501
 9526SOL     OW29476   5.490   5.480   6.599
 9526SOL    HW129477   5.467   5.389   6.566
 9526SOL    HW229478   5.589   5.488   6.609
 9527SOL     OW29479   4.038   6.941   4.548
 9527SOL    HW129480   4.117   6.902   4.594
 9527SOL    HW229481   3.988   7.001   4.611
 9528SOL     OW29482   5.010   2.501   0.679
 9528SOL    HW129483   5.100   2.493   0.721
 9528SOL    HW229484   5.002   2.591   0.635
 9529SOL     OW29485   5.546   0.991   1.807
 9529SOL    HW129486   5.634   0.959   1.841
 9529SOL    HW229487   5.550   1.003   1.708
 9530SOL     OW29488   1.191   5.915   3.620
 9530SOL    HW129489   1.102   5.870   3.620
 9530SOL    HW229490   1.204   5.962   3.532
 9531SOL     OW29491   3.245   5.365   2.126
 9531SOL    HW129492   3.188   5.287   2.101
 9531SOL    HW229493   3.209   5.448   2.083
 9532SOL     OW29494   6.963   5.035   3.760
 9532SOL    HW129495   7.000   4.997   3.675
 9532SOL    HW229496   6.943   5.132   3.747
 9533SOL     OW29497   1.303   4.272   3.191
 9533SOL    HW129498   1.212   4.308   3.211
 9533SOL    HW229499   1.307   4.176   3.217
 9534SOL     OW29500   4.310   5.593   4.227
 9534SOL    HW129501   4.233   5.534   4.254
 9534SOL    HW229502   4.395   5.555   4.263
 9535SOL     OW29503   6.882   1.440   4.729
 9535SOL    HW129504   6.908   1.348   4.699
 9535SOL    HW229505   6.886   1.445   4.829
 9536SOL     OW29506   3.415   4.001   5.503
 9536SOL    HW129507   3.497   3.944   5.491
 9536SOL    HW229508   3.368   3.975   5.586
 9537SOL     OW29509   6.611   0.929   3.768
 9537SOL    HW129510   6.707   0.903   3.782
 9537SOL    HW229511   6.605   1.028   3.753
 9538SOL     OW29512   5.603   0.420   4.525
 9538SOL    HW129513   5.619   0.400   4.429
 9538SOL    HW229514   5.510   0.393   4.550
 9539SOL     OW29515   3.615   4.107   2.920
 9539SOL    HW129516   3.647   4.135   3.010
 9539SOL    HW229517   3.688   4.059   2.872
 9540SOL     OW29518   4.158   4.729   3.481
 9540SOL    HW129519   4.131   4.712   3.386
 9540SOL    HW229520   4.080   4.764   3.532
 9541SOL     OW29521   1.710   5.931   5.554
 9541SOL    HW129522   1.692   5.853   5.495
 9541SOL    HW229523   1.670   6.014   5.513
 9542SOL     OW29524   6.317   4.067   2.979
 9542SOL    HW129525   6.343   4.071   2.882
 9542SOL    HW229526   6.221   4.093   2.989
 9543SOL     OW29527   2.327   0.586   6.049
 9543SOL    HW129528   2.281   0.498   6.033
 9543SOL    HW229529   2.390   0.576   6.127
 9544SOL     OW29530   6.471   3.624   4.637
 9544SOL    HW129531   6.439   3.530   4.637
 9544SOL    HW229532   6.537   3.637   4.562
 9545SOL     OW29533   6.649   4.424   2.307
 9545SOL    HW129534   6.575   4.382   2.254
 9545SOL    HW229535   6.736   4.379   2.286
 9546SOL     OW29536   2.903   2.847   1.455
 9546SOL    HW129537   2.822   2.794   1.431
 9546SOL    HW229538   2.880   2.914   1.525
 9547SOL     OW29539   4.870   0.361   3.669
 9547SOL    HW129540   4.855   0.458   3.648
 9547SOL    HW229541   4.811   0.334   3.745
 9548SOL     OW29542   0.666   5.074   6.337
 9548SOL    HW129543   0.665   5.101   6.434
 9548SOL    HW229544   0.723   5.138   6.285
 9549SOL     OW29545   4.019   1.634   1.475
 9549SOL    HW129546   4.104   1.678   1.446
 9549SOL    HW229547   4.027   1.535   1.462
 9550SOL     OW29548   5.941   3.181   1.753
 9550SOL    HW129549   5.868   3.136   1.804
 9550SOL    HW229550   6.010   3.114   1.727
 9551SOL     OW29551   5.837   2.927   6.368
 9551SOL    HW129552   5.842   3.026   6.351
 9551SOL    HW229553   5.929   2.890   6.378
 9552SOL     OW29554   2.766   1.938   0.743
 9552SOL    HW129555   2.712   1.985   0.672
 9552SOL    HW229556   2.813   2.005   0.799
 9553SOL     OW29557   5.830   1.602   6.899
 9553SOL    HW129558   5.851   1.534   6.969
 9553SOL    HW229559   5.861   1.568   6.810
 9554SOL     OW29560   3.018   0.720   4.065
 9554SOL    HW129561   2.998   0.786   4.138
 9554SOL    HW229562   2.959   0.737   3.987
 9555SOL     OW29563   0.458   6.656   3.560
 9555SOL    HW129564   0.442   6.628   3.655
 9555SOL    HW229565   0.411   6.743   3.543
 9556SOL     OW29566   2.302   4.547   6.740
 9556SOL    HW129567   2.361   4.530   6.660
 9556SOL    HW229568   2.211   4.576   6.709
 9557SOL     OW29569   6.064   1.024   0.740
 9557SOL    HW129570   6.103   0.934   0.718
 9557SOL    HW229571   6.103   1.056   0.826
 9558SOL     OW29572   5.030   6.415   6.089
 9558SOL    HW129573   5.071   6.501   6.059
 9558SOL    HW229574   5.026   6.352   6.012
 9559SOL     OW29575   2.418   4.723   6.933
 9559SOL    HW129576   2.340   4.784   6.951
 9559SOL    HW229577   2.386   4.641   6.886
 9560SOL     OW29578   2.782   0.203   2.517
 9560SOL    HW129579   2.693   0.180   2.558
 9560SOL    HW229580   2.844   0.234   2.589
 9561SOL     OW29581   0.524   0.355   0.125
 9561SOL    HW129582   0.479   0.267   0.116
 9561SOL    HW229583   0.617   0.342   0.160
 9562SOL     OW29584   2.301   5.986   2.924
 9562SOL    HW129585   2.267   5.945   3.008
 9562SOL    HW229586   2.368   6.056   2.946
 9563SOL     OW29587   1.025   5.781   6.294
 9563SOL    HW129588   1.026   5.763   6.195
 9563SOL    HW229589   1.067   5.704   6.342
 9564SOL     OW29590   1.810   1.128   0.910
 9564SOL    HW129591   1.753   1.133   0.828
 9564SOL    HW229592   1.907   1.132   0.884
 9565SOL     OW29593   2.572   1.440   4.215
 9565SOL    HW129594   2.479   1.460   4.245
 9565SOL    HW229595   2.637   1.487   4.274
 9566SOL     OW29596   2.828   0.382   0.225
 9566SOL    HW129597   2.892   0.459   0.227
 9566SOL    HW229598   2.849   0.323   0.147
 9567SOL     OW29599   6.774   4.154   0.872
 9567SOL    HW129600   6.861   4.114   0.898
 9567SOL    HW229601   6.740   4.213   0.946
 9568SOL     OW29602   4.292   1.614   6.702
 9568SOL    HW129603   4.228   1.538   6.715
 9568SOL    HW229604   4.243   1.692   6.665
 9569SOL     OW29605   5.712   0.251   2.267
 9569SOL    HW129606   5.681   0.345   2.282
 9569SOL    HW229607   5.806   0.253   2.232
 9570SOL     OW29608   0.655   3.463   1.647
 9570SOL    HW129609   0.596   3.399   1.596
 9570SOL    HW229610   0.672   3.426   1.738
 9571SOL     OW29611   1.656   1.058   6.967
 9571SOL    HW129612   1.697   1.075   6.877
 9571SOL    HW229613   1.586   0.986   6.959
 9572SOL     OW29614   2.229   4.735   4.660
 9572SOL    HW129615   2.150   4.713   4.718
 9572SOL    HW229616   2.264   4.651   4.619
 9573SOL     OW29617   6.579   0.303   4.162
 9573SOL    HW129618   6.498   0.360   4.159
 9573SOL    HW229619   6.620   0.306   4.253
 9574SOL     OW29620   4.302   3.060   0.573
 9574SOL    HW129621   4.347   2.988   0.626
 9574SOL    HW229622   4.357   3.080   0.492
 9575SOL     OW29623   5.410   0.094   1.955
 9575SOL    HW129624   5.357   0.175   1.982
 9575SOL    HW229625   5.432   0.100   1.858
 9576SOL     OW29626   0.662   0.795   6.847
 9576SOL    HW129627   0.753   0.761   6.872
 9576SOL    HW229628   0.663   0.825   6.752
 9577SOL     OW29629   6.197   5.416   2.907
 9577SOL    HW129630   6.119   5.460   2.862
 9577SOL    HW229631   6.188   5.317   2.901
 9578SOL     OW29632   1.745   3.550   2.428
 9578SOL    HW129633   1.738   3.582   2.523
 9578SOL    HW229634   1.670   3.589   2.375
 9579SOL     OW29635   5.770   5.793   2.372
 9579SOL    HW129636   5.713   5.874   2.380
 9579SOL    HW229637   5.736   5.736   2.297
 9580SOL     OW29638   4.635   4.258   3.357
 9580SOL    HW129639   4.679   4.178   3.398
 9580SOL    HW229640   4.603   4.320   3.430
 9581SOL     OW29641   5.797   1.880   6.774
 9581SOL    HW129642   5.748   1.948   6.829
 9581SOL    HW229643   5.805   1.795   6.826
 9582SOL     OW29644   5.482   6.486   4.858
 9582SOL    HW129645   5.432   6.402   4.882
 9582SOL    HW229646   5.416   6.559   4.840
 9583SOL     OW29647   3.559   4.866   1.675
 9583SOL    HW129648   3.567   4.783   1.730
 9583SOL    HW229649   3.583   4.946   1.732
 9584SOL     OW29650   2.518   5.024   4.055
 9584SOL    HW129651   2.492   4.961   4.129
 9584SOL    HW229652   2.611   5.004   4.026
 9585SOL     OW29653   4.542   6.115   0.993
 9585SOL    HW129654   4.478   6.076   0.927
 9585SOL    HW229655   4.532   6.215   0.995
 9586SOL     OW29656   3.545   5.733   2.690
 9586SOL    HW129657   3.604   5.803   2.650
 9586SOL    HW229658   3.460   5.727   2.637
 9587SOL     OW29659   3.598   6.244   0.904
 9587SOL    HW129660   3.642   6.211   0.821
 9587SOL    HW229661   3.564   6.166   0.957
 9588SOL     OW29662   6.255   5.556   6.859
 9588SOL    HW129663   6.347   5.531   6.829
 9588SOL    HW229664   6.252   5.653   6.882
 9589SOL     OW29665   1.978   2.544   6.529
 9589SOL    HW129666   1.893   2.579   6.489
 9589SOL    HW229667   1.964   2.528   6.627
 9590SOL     OW29668   6.455   0.528   0.820
 9590SOL    HW129669   6.464   0.431   0.843
 9590SOL    HW229670   6.544   0.563   0.790
 9591SOL     OW29671   5.097   0.995   0.546
 9591SOL    HW129672   5.020   0.932   0.551
 9591SOL    HW229673   5.079   1.065   0.477
 9592SOL     OW29674   2.173   6.400   5.954
 9592SOL    HW129675   2.110   6.400   5.877
 9592SOL    HW229676   2.232   6.481   5.949
 9593SOL     OW29677   1.741   2.240   3.700
 9593SOL    HW129678   1.762   2.314   3.635
 9593SOL    HW229679   1.755   2.273   3.793
 9594SOL     OW29680   6.806   6.389   3.558
 9594SOL    HW129681   6.782   6.307   3.506
 9594SOL    HW229682   6.905   6.401   3.555
 9595SOL     OW29683   0.351   3.306   3.301
 9595SOL    HW129684   0.419   3.366   3.259
 9595SOL    HW229685   0.373   3.293   3.398
 9596SOL     OW29686   1.060   6.730   0.785
 9596SOL    HW129687   0.987   6.738   0.717
 9596SOL    HW229688   1.032   6.779   0.868
 9597SOL     OW29689   1.210   3.634   1.605
 9597SOL    HW129690   1.163   3.660   1.689
 9597SOL    HW229691   1.216   3.535   1.600
 9598SOL     OW29692   2.243   4.090   4.182
 9598SOL    HW129693   2.288   4.016   4.132
 9598SOL    HW229694   2.291   4.176   4.166
 9599SOL     OW29695   4.116   6.744   4.341
 9599SOL    HW129696   4.123   6.827   4.396
 9599SOL    HW229697   4.044   6.685   4.376
 9600SOL     OW29698   3.745   1.452   1.540
 9600SOL    HW129699   3.668   1.488   1.488
 9600SOL    HW229700   3.792   1.526   1.587
 9601SOL     OW29701   0.921   3.479   0.454
 9601SOL    HW129702   1.017   3.501   0.470
 9601SOL    HW229703   0.863   3.549   0.495
 9602SOL     OW29704   4.212   4.912   5.475
 9602SOL    HW129705   4.293   4.855   5.458
 9602SOL    HW229706   4.130   4.862   5.450
 9603SOL     OW29707   5.072   6.736   5.757
 9603SOL    HW129708   5.146   6.763   5.696
 9603SOL    HW229709   5.071   6.795   5.838
 9604SOL     OW29710   5.087   6.828   0.521
 9604SOL    HW129711   5.077   6.887   0.441
 9604SOL    HW229712   5.184   6.804   0.532
 9605SOL     OW29713   5.771   5.688   1.702
 9605SOL    HW129714   5.726   5.610   1.746
 9605SOL    HW229715   5.734   5.773   1.740
 9606SOL     OW29716   1.477   0.868   6.936
 9606SOL    HW129717   1.517   0.776   6.935
 9606SOL    HW229718   1.377   0.860   6.933
 9607SOL     OW29719   2.054   2.062   6.003
 9607SOL    HW129720   1.980   2.002   5.973
 9607SOL    HW229721   2.121   2.073   5.929
 9608SOL     OW29722   5.902   2.951   4.346
 9608SOL    HW129723   5.896   2.854   4.325
 9608SOL    HW229724   5.990   2.987   4.314
 9609SOL     OW29725   4.527   2.607   6.499
 9609SOL    HW129726   4.478   2.691   6.523
 9609SOL    HW229727   4.465   2.544   6.454
 9610SOL     OW29728   0.740   4.965   2.886
 9610SOL    HW129729   0.719   5.024   2.807
 9610SOL    HW229730   0.778   5.020   2.960
 9611SOL     OW29731   2.198   0.628   0.539
 9611SOL    HW129732   2.236   0.558   0.480
 9611SOL    HW229733   2.262   0.647   0.614
 9612SOL     OW29734   0.312   2.181   4.004
 9612SOL    HW129735   0.271   2.253   3.949
 9612SOL    HW229736   0.265   2.094   3.986
 9613SOL     OW29737   5.862   5.344   3.231
 9613SOL    HW129738   5.887   5.292   3.312
 9613SOL    HW229739   5.944   5.364   3.177
 9614SOL     OW29740   4.625   2.345   3.616
 9614SOL    HW129741   4.602   2.407   3.691
 9614SOL    HW229742   4.724   2.345   3.602
 9615SOL     OW29743   1.945   4.445   1.299
 9615SOL    HW129744   1.879   4.370   1.293
 9615SOL    HW229745   1.935   4.492   1.386
 9616SOL     OW29746   4.008   3.442   6.767
 9616SOL    HW129747   4.006   3.403   6.675
 9616SOL    HW229748   4.049   3.376   6.831
 9617SOL     OW29749   1.959   2.773   2.966
 9617SOL    HW129750   1.936   2.765   2.870
 9617SOL    HW229751   2.009   2.858   2.982
 9618SOL     OW29752   2.290   1.727   1.034
 9618SOL    HW129753   2.265   1.810   1.084
 9618SOL    HW229754   2.243   1.648   1.075
 9619SOL     OW29755   2.386   0.559   6.602
 9619SOL    HW129756   2.465   0.603   6.644
 9619SOL    HW229757   2.328   0.628   6.558
 9620SOL     OW29758   5.756   1.347   5.318
 9620SOL    HW129759   5.782   1.381   5.409
 9620SOL    HW229760   5.790   1.409   5.248
 9621SOL     OW29761   1.566   3.481   3.080
 9621SOL    HW129762   1.612   3.569   3.071
 9621SOL    HW229763   1.632   3.407   3.068
 9622SOL     OW29764   5.553   0.029   0.985
 9622SOL    HW129765   5.498   0.112   0.976
 9622SOL    HW229766   5.606   0.015   0.902
 9623SOL     OW29767   2.513   3.950   6.453
 9623SOL    HW129768   2.435   3.999   6.491
 9623SOL    HW229769   2.523   3.974   6.357
 9624SOL     OW29770   6.287   2.772   4.268
 9624SOL    HW129771   6.332   2.776   4.357
 9624SOL    HW229772   6.348   2.730   4.201
 9625SOL     OW29773   5.779   5.781   1.250
 9625SOL    HW129774   5.721   5.734   1.184
 9625SOL    HW229775   5.735   5.779   1.340
 9626SOL     OW29776   3.592   6.543   0.210
 9626SOL    HW129777   3.580   6.558   0.308
 9626SOL    HW229778   3.615   6.447   0.194
 9627SOL     OW29779   1.503   6.918   6.999
 9627SOL    HW129780   1.447   6.835   6.995
 9627SOL    HW229781   1.473   6.982   6.929
 9628SOL     OW29782   3.056   6.910   2.324
 9628SOL    HW129783   3.129   6.846   2.351
 9628SOL    HW229784   2.972   6.859   2.306
 9629SOL     OW29785   2.364   0.267   1.142
 9629SOL    HW129786   2.439   0.288   1.080
 9629SOL    HW229787   2.285   0.235   1.090
 9630SOL     OW29788   6.782   1.869   6.357
 9630SOL    HW129789   6.780   1.810   6.438
 9630SOL    HW229790   6.811   1.816   6.278
 9631SOL     OW29791   6.223   6.269   0.040
 9631SOL    HW129792   6.255   6.176   0.061
 9631SOL    HW229793   6.150   6.294   0.103
 9632SOL     OW29794   0.495   5.532   2.107
 9632SOL    HW129795   0.404   5.501   2.134
 9632SOL    HW229796   0.495   5.632   2.096
 9633SOL     OW29797   6.874   5.051   6.049
 9633SOL    HW129798   6.819   5.042   6.132
 9633SOL    HW229799   6.969   5.030   6.069
 9634SOL     OW29800   1.007   5.802   6.020
 9634SOL    HW129801   1.000   5.901   6.009
 9634SOL    HW229802   0.998   5.758   5.931
 9635SOL     OW29803   0.254   5.834   5.395
 9635SOL    HW129804   0.238   5.864   5.489
 9635SOL    HW229805   0.198   5.889   5.333
 9636SOL     OW29806   4.231   1.109   0.202
 9636SOL    HW129807   4.250   1.132   0.297
 9636SOL    HW229808   4.172   1.179   0.162
 9637SOL     OW29809   1.998   1.083   6.892
 9637SOL    HW129810   1.964   1.111   6.982
 9637SOL    HW229811   1.922   1.048   6.837
 9638SOL     OW29812   6.737   2.225   6.681
 9638SOL    HW129813   6.697   2.316   6.696
 9638SOL    HW229814   6.743   2.209   6.582
 9639SOL     OW29815   3.945   0.912   2.140
 9639SOL    HW129816   3.887   0.887   2.217
 9639SOL    HW229817   3.978   1.006   2.151
 9640SOL     OW29818   1.562   2.271   2.588
 9640SOL    HW129819   1.468   2.297   2.568
 9640SOL    HW229820   1.563   2.193   2.651
 9641SOL     OW29821   5.753   5.546   6.813
 9641SOL    HW129822   5.834   5.502   6.851
 9641SOL    HW229823   5.678   5.542   6.880
 9642SOL     OW29824   3.755   0.697   3.625
 9642SOL    HW129825   3.814   0.777   3.612
 9642SOL    HW229826   3.682   0.720   3.689
 9643SOL     OW29827   4.265   4.699   2.622
 9643SOL    HW129828   4.289   4.782   2.570
 9643SOL    HW229829   4.341   4.634   2.616
 9644SOL     OW29830   3.097   1.747   0.031
 9644SOL    HW129831   3.178   1.741   6.991
 9644SOL    HW229832   3.123   1.788   0.119
 9645SOL     OW29833   2.969   5.560   5.088
 9645SOL    HW129834   2.930   5.518   5.007
 9645SOL    HW229835   2.980   5.492   5.160
 9646SOL     OW29836   4.030   5.232   4.180
 9646SOL    HW129837   3.966   5.303   4.152
 9646SOL    HW229838   3.995   5.186   4.261
 9647SOL     OW29839   6.404   2.798   6.162
 9647SOL    HW129840   6.469   2.869   6.134
 9647SOL    HW229841   6.412   2.720   6.100
 9648SOL     OW29842   4.155   3.878   0.797
 9648SOL    HW129843   4.056   3.888   0.785
 9648SOL    HW229844   4.175   3.785   0.828
 9649SOL     OW29845   2.362   5.274   1.754
 9649SOL    HW129846   2.282   5.244   1.702
 9649SOL    HW229847   2.352   5.248   1.850
 9650SOL     OW29848   0.480   6.830   0.863
 9650SOL    HW129849   0.484   6.734   0.892
 9650SOL    HW229850   0.556   6.881   0.903
 9651SOL     OW29851   0.504   1.741   6.308
 9651SOL    HW129852   0.510   1.688   6.393
 9651SOL    HW229853   0.486   1.679   6.232
 9652SOL     OW29854   0.747   4.843   1.961
 9652SOL    HW129855   0.678   4.911   1.986
 9652SOL    HW229856   0.772   4.857   1.865
 9653SOL     OW29857   6.261   6.623   4.056
 9653SOL    HW129858   6.232   6.531   4.082
 9653SOL    HW229859   6.227   6.689   4.123
 9654SOL     OW29860   2.123   3.022   3.026
 9654SOL    HW129861   2.112   3.109   3.073
 9654SOL    HW229862   2.175   3.035   2.941
 9655SOL     OW29863   6.324   1.577   6.643
 9655SOL    HW129864   6.249   1.639   6.662
 9655SOL    HW229865   6.404   1.603   6.696
 9656SOL     OW29866   2.940   1.497   3.000
 9656SOL    HW129867   2.844   1.473   3.017
 9656SOL    HW229868   2.984   1.424   2.949
 9657SOL     OW29869   0.063   6.761   4.893
 9657SOL    HW129870   0.066   6.764   4.793
 9657SOL    HW229871   0.052   6.854   4.929
 9658SOL     OW29872   5.313   2.014   3.220
 9658SOL    HW129873   5.328   1.916   3.223
 9658SOL    HW229874   5.227   2.036   3.267
 9659SOL     OW29875   1.132   5.231   6.712
 9659SOL    HW129876   1.118   5.184   6.799
 9659SOL    HW229877   1.214   5.288   6.718
 9660SOL     OW29878   1.092   5.305   0.450
 9660SOL    HW129879   1.079   5.294   0.352
 9660SOL    HW229880   1.028   5.375   0.484
 9661SOL     OW29881   4.282   0.088   1.025
 9661SOL    HW129882   4.201   0.031   1.032
 9661SOL    HW229883   4.259   0.183   1.046
 9662SOL     OW29884   5.293   1.481   4.445
 9662SOL    HW129885   5.225   1.546   4.411
 9662SOL    HW229886   5.270   1.454   4.539
 9663SOL     OW29887   2.310   6.093   3.282
 9663SOL    HW129888   2.342   6.055   3.369
 9663SOL    HW229889   2.243   6.031   3.241
 9664SOL     OW29890   2.247   5.835   1.589
 9664SOL    HW129891   2.331   5.795   1.626
 9664SOL    HW229892   2.223   5.790   1.503
 9665SOL     OW29893   4.931   4.310   4.082
 9665SOL    HW129894   4.891   4.246   4.017
 9665SOL    HW229895   4.865   4.383   4.101
 9666SOL     OW29896   5.279   4.940   4.681
 9666SOL    HW129897   5.268   4.929   4.780
 9666SOL    HW229898   5.271   4.851   4.637
 9667SOL     OW29899   3.220   2.948   3.709
 9667SOL    HW129900   3.316   2.926   3.697
 9667SOL    HW229901   3.172   2.939   3.622
 9668SOL     OW29902   0.897   1.109   5.448
 9668SOL    HW129903   0.807   1.084   5.414
 9668SOL    HW229904   0.905   1.081   5.544
 9669SOL     OW29905   1.343   6.316   6.875
 9669SOL    HW129906   1.402   6.357   6.806
 9669SOL    HW229907   1.363   6.355   6.965
 9670SOL     OW29908   5.680   4.783   6.615
 9670SOL    HW129909   5.749   4.714   6.594
 9670SOL    HW229910   5.619   4.749   6.686
 9671SOL     OW29911   0.038   0.729   6.961
 9671SOL    HW129912   6.978   0.674   6.990
 9671SOL    HW229913   0.083   0.769   0.023
 9672SOL     OW29914   1.290   6.136   4.991
 9672SOL    HW129915   1.275   6.233   5.011
 9672SOL    HW229916   1.264   6.081   5.071
 9673SOL     OW29917   2.160   2.812   6.305
 9673SOL    HW129918   2.077   2.814   6.249
 9673SOL    HW229919   2.228   2.875   6.267
 9674SOL     OW29920   2.795   6.813   2.271
 9674SOL    HW129921   2.727   6.752   2.312
 9674SOL    HW229922   2.798   6.799   2.172
 9675SOL     OW29923   0.079   2.422   2.564
 9675SOL    HW129924   7.013   2.375   2.592
 9675SOL    HW229925   0.113   2.478   2.640
 9676SOL     OW29926   0.354   2.423   4.524
 9676SOL    HW129927   0.321   2.417   4.618
 9676SOL    HW229928   0.376   2.518   4.502
 9677SOL     OW29929   1.622   3.336   5.391
 9677SOL    HW129930   1.617   3.353   5.293
 9677SOL    HW229931   1.659   3.416   5.438
 9678SOL     OW29932   3.281   3.150   3.291
 9678SOL    HW129933   3.270   3.227   3.354
 9678SOL    HW229934   3.280   3.183   3.197
 9679SOL     OW29935   0.637   3.678   1.021
 9679SOL    HW129936   0.687   3.591   1.023
 9679SOL    HW229937   0.540   3.661   1.041
 9680SOL     OW29938   4.710   4.958   3.153
 9680SOL    HW129939   4.795   5.010   3.143
 9680SOL    HW229940   4.654   4.999   3.224
 9681SOL     OW29941   0.907   0.577   4.431
 9681SOL    HW129942   0.922   0.609   4.524
 9681SOL    HW229943   0.946   0.485   4.419
 9682SOL     OW29944   0.412   4.887   3.046
 9682SOL    HW129945   0.357   4.919   2.969
 9682SOL    HW229946   0.396   4.789   3.060
 9683SOL     OW29947   5.156   6.656   6.064
 9683SOL    HW129948   5.134   6.725   5.995
 9683SOL    HW229949   5.255   6.647   6.072
 9684SOL     OW29950   0.981   4.557   3.469
 9684SOL    HW129951   0.914   4.565   3.543
 9684SOL    HW229952   0.988   4.644   3.420
 9685SOL     OW29953   2.192   1.919   6.871
 9685SOL    HW129954   2.096   1.945   6.878
 9685SOL    HW229955   2.250   2.000   6.883
 9686SOL     OW29956   5.318   2.116   1.702
 9686SOL    HW129957   5.324   2.190   1.769
 9686SOL    HW229958   5.406   2.103   1.657
 9687SOL     OW29959   3.830   1.468   4.494
 9687SOL    HW129960   3.906   1.514   4.540
 9687SOL    HW229961   3.753   1.531   4.487
 9688SOL     OW29962   6.488   1.908   3.855
 9688SOL    HW129963   6.577   1.953   3.857
 9688SOL    HW229964   6.423   1.960   3.911
 9689SOL     OW29965   2.197   5.498   5.748
 9689SOL    HW129966   2.208   5.438   5.669
 9689SOL    HW229967   2.101   5.519   5.762
 9690SOL     OW29968   5.841   3.570   0.439
 9690SOL    HW129969   5.880   3.662   0.446
 9690SOL    HW229970   5.772   3.558   0.510
 9691SOL     OW29971   1.487   4.393   0.657
 9691SOL    HW129972   1.500   4.372   0.560
 9691SOL    HW229973   1.428   4.473   0.667
 9692SOL     OW29974   3.280   5.830   0.749
 9692SOL    HW129975   3.198   5.820   0.693
 9692SOL    HW229976   3.298   5.745   0.798
 9693SOL     OW29977   5.993   5.977   1.437
 9693SOL    HW129978   5.899   6.006   1.453
 9693SOL    HW229979   6.050   6.003   1.516
 9694SOL     OW29980   1.509   2.049   0.997
 9694SOL    HW129981   1.470   2.074   0.909
 9694SOL    HW229982   1.582   1.981   0.983
 9695SOL     OW29983   6.979   4.247   0.490
 9695SOL    HW129984   6.901   4.252   0.427
 9695SOL    HW229985   0.037   4.300   0.452
 9696SOL     OW29986   3.756   4.553   0.498
 9696SOL    HW129987   3.778   4.482   0.564
 9696SOL    HW229988   3.810   4.634   0.516
 9697SOL     OW29989   0.521   5.992   5.840
 9697SOL    HW129990   0.536   6.068   5.776
 9697SOL    HW229991   0.424   5.987   5.864
 9698SOL     OW29992   4.517   1.626   5.200
 9698SOL    HW129993   4.531   1.704   5.140
 9698SOL    HW229994   4.604   1.576   5.211
 9699SOL     OW29995   2.082   2.170   6.671
 9699SOL    HW129996   2.145   2.177   6.748
 9699SOL    HW229997   2.108   2.235   6.599
 9700SOL     OW29998   3.792   3.892   3.398
 9700SOL    HW129999   3.882   3.872   3.437
 9700SOL    HW230000   3.751   3.808   3.364
 9701SOL     OW30001   4.567   4.706   4.711
 9701SOL    HW130002   4.542   4.655   4.793
 9701SOL    HW230003   4.636   4.775   4.734
 9702SOL     OW30004   5.516   0.432   0.523
 9702SOL    HW130005   5.580   0.506   0.504
 9702SOL    HW230006   5.496   0.430   0.621
 9703SOL     OW30007   2.697   5.931   3.900
 9703SOL    HW130008   2.749   5.863   3.951
 9703SOL    HW230009   2.679   5.897   3.808
 9704SOL     OW30010   2.353   1.534   3.777
 9704SOL    HW130011   2.415   1.603   3.814
 9704SOL    HW230012   2.361   1.450   3.830
 9705SOL     OW30013   3.422   4.069   1.082
 9705SOL    HW130014   3.477   3.987   1.070
 9705SOL    HW230015   3.366   4.084   1.000
 9706SOL     OW30016   6.648   2.585   3.700
 9706SOL    HW130017   6.681   2.637   3.779
 9706SOL    HW230018   6.651   2.487   3.721
 9707SOL     OW30019   2.516   4.971   2.793
 9707SOL    HW130020   2.431   4.992   2.840
 9707SOL    HW230021   2.590   4.963   2.859
 9708SOL     OW30022   1.698   1.952   2.256
 9708SOL    HW130023   1.778   1.894   2.240
 9708SOL    HW230024   1.695   1.979   2.352
 9709SOL     OW30025   1.660   5.619   3.134
 9709SOL    HW130026   1.715   5.564   3.197
 9709SOL    HW230027   1.566   5.626   3.168
 9710SOL     OW30028   0.537   0.517   4.111
 9710SOL    HW130029   0.608   0.548   4.047
 9710SOL    HW230030   0.573   0.519   4.204
 9711SOL     OW30031   1.489   2.896   6.507
 9711SOL    HW130032   1.521   2.990   6.497
 9711SOL    HW230033   1.459   2.861   6.418
 9712SOL     OW30034   4.887   3.627   4.577
 9712SOL    HW130035   4.877   3.567   4.497
 9712SOL    HW230036   4.893   3.571   4.659
 9713SOL     OW30037   6.679   4.965   2.689
 9713SOL    HW130038   6.619   5.026   2.740
 9713SOL    HW230039   6.771   5.005   2.685
 9714SOL     OW30040   2.133   2.318   2.627
 9714SOL    HW130041   2.095   2.396   2.676
 9714SOL    HW230042   2.228   2.303   2.657
 9715SOL     OW30043   6.359   5.269   5.802
 9715SOL    HW130044   6.388   5.328   5.727
 9715SOL    HW230045   6.348   5.175   5.768
 9716SOL     OW30046   3.863   1.367   6.048
 9716SOL    HW130047   3.929   1.398   5.979
 9716SOL    HW230048   3.907   1.365   6.138
 9717SOL     OW30049   5.579   5.882   3.379
 9717SOL    HW130050   5.632   5.912   3.300
 9717SOL    HW230051   5.482   5.888   3.358
 9718SOL     OW30052   4.711   3.128   1.628
 9718SOL    HW130053   4.722   3.076   1.712
 9718SOL    HW230054   4.659   3.074   1.562
 9719SOL     OW30055   0.304   1.140   0.648
 9719SOL    HW130056   0.385   1.143   0.590
 9719SOL    HW230057   0.229   1.190   0.603
 9720SOL     OW30058   0.870   0.214   0.611
 9720SOL    HW130059   0.916   0.303   0.608
 9720SOL    HW230060   0.867   0.181   0.706
 9721SOL     OW30061   6.987   2.855   3.439
 9721SOL    HW130062   0.005   2.906   3.361
 9721SOL    HW230063   0.031   2.781   3.463
 9722SOL     OW30064   6.914   0.160   4.792
 9722SOL    HW130065   6.832   0.107   4.773
 9722SOL    HW230066   6.891   0.257   4.796
 9723SOL     OW30067   6.873   0.907   3.845
 9723SOL    HW130068   6.935   0.946   3.778
 9723SOL    HW230069   6.886   0.953   3.933
 9724SOL     OW30070   3.796   2.506   1.585
 9724SOL    HW130071   3.805   2.429   1.647
 9724SOL    HW230072   3.768   2.587   1.637
 9725SOL     OW30073   4.199   3.420   5.762
 9725SOL    HW130074   4.195   3.374   5.673
 9725SOL    HW230075   4.254   3.503   5.754
 9726SOL     OW30076   5.707   5.904   4.277
 9726SOL    HW130077   5.776   5.964   4.316
 9726SOL    HW230078   5.634   5.959   4.237
 9727SOL     OW30079   1.892   0.228   0.196
 9727SOL    HW130080   1.907   0.295   0.123
 9727SOL    HW230081   1.825   0.160   0.165
 9728SOL     OW30082   3.316   6.080   6.518
 9728SOL    HW130083   3.251   6.005   6.507
 9728SOL    HW230084   3.282   6.143   6.587
 9729SOL     OW30085   3.041   5.189   2.069
 9729SOL    HW130086   2.970   5.214   2.004
 9729SOL    HW230087   2.999   5.148   2.150
 9730SOL     OW30088   5.762   3.414   3.218
 9730SOL    HW130089   5.705   3.448   3.293
 9730SOL    HW230090   5.733   3.457   3.132
 9731SOL     OW30091   5.430   5.285   1.311
 9731SOL    HW130092   5.530   5.292   1.305
 9731SOL    HW230093   5.402   5.190   1.293
 9732SOL     OW30094   5.207   6.133   4.592
 9732SOL    HW130095   5.170   6.198   4.526
 9732SOL    HW230096   5.276   6.075   4.548
 9733SOL     OW30097   5.456   4.693   5.693
 9733SOL    HW130098   5.480   4.660   5.784
 9733SOL    HW230099   5.372   4.748   5.699
 9734SOL     OW30100   5.971   1.762   5.914
 9734SOL    HW130101   5.968   1.809   5.826
 9734SOL    HW230102   6.063   1.769   5.952
 9735SOL     OW30103   3.268   4.641   0.871
 9735SOL    HW130104   3.266   4.548   0.908
 9735SOL    HW230105   3.362   4.666   0.847
 9736SOL     OW30106   3.277   1.916   1.791
 9736SOL    HW130107   3.206   1.888   1.856
 9736SOL    HW230108   3.287   2.015   1.794
 9737SOL     OW30109   4.183   2.264   4.665
 9737SOL    HW130110   4.170   2.249   4.567
 9737SOL    HW230111   4.202   2.177   4.710
 9738SOL     OW30112   2.487   1.082   2.131
 9738SOL    HW130113   2.537   1.010   2.083
 9738SOL    HW230114   2.536   1.168   2.123
 9739SOL     OW30115   6.055   4.356   1.628
 9739SOL    HW130116   5.968   4.307   1.621
 9739SOL    HW230117   6.064   4.395   1.720
 9740SOL     OW30118   6.330   3.460   2.902
 9740SOL    HW130119   6.380   3.537   2.863
 9740SOL    HW230120   6.232   3.473   2.888
 9741SOL     OW30121   4.012   1.528   2.096
 9741SOL    HW130122   3.912   1.534   2.098
 9741SOL    HW230123   4.041   1.463   2.025
 9742SOL     OW30124   4.458   1.618   3.591
 9742SOL    HW130125   4.558   1.606   3.593
 9742SOL    HW230126   4.429   1.635   3.497
 9743SOL     OW30127   1.344   1.577   5.378
 9743SOL    HW130128   1.282   1.554   5.304
 9743SOL    HW230129   1.435   1.597   5.340
 9744SOL     OW30130   2.341   0.414   1.803
 9744SOL    HW130131   2.416   0.376   1.748
 9744SOL    HW230132   2.377   0.483   1.866
 9745SOL     OW30133   0.481   0.651   4.902
 9745SOL    HW130134   0.472   0.736   4.849
 9745SOL    HW230135   0.548   0.665   4.975
 9746SOL     OW30136   6.799   0.644   3.843
 9746SOL    HW130137   6.874   0.579   3.855
 9746SOL    HW230138   6.828   0.735   3.872
 9747SOL     OW30139   0.568   0.122   6.515
 9747SOL    HW130140   0.550   0.026   6.535
 9747SOL    HW230141   0.515   0.180   6.577
 9748SOL     OW30142   0.965   4.241   4.439
 9748SOL    HW130143   0.946   4.209   4.346
 9748SOL    HW230144   0.910   4.322   4.458
 9749SOL     OW30145   0.285   4.960   3.949
 9749SOL    HW130146   0.294   4.909   3.864
 9749SOL    HW230147   0.188   4.973   3.971
 9750SOL     OW30148   3.045   5.391   2.339
 9750SOL    HW130149   3.137   5.402   2.302
 9750SOL    HW230150   3.048   5.406   2.438
 9751SOL     OW30151   1.488   2.497   0.840
 9751SOL    HW130152   1.418   2.455   0.782
 9751SOL    HW230153   1.509   2.436   0.916
 9752SOL     OW30154   4.310   0.776   5.703
 9752SOL    HW130155   4.283   0.849   5.640
 9752SOL    HW230156   4.246   0.774   5.780
 9753SOL     OW30157   0.027   6.698   7.001
 9753SOL    HW130158   0.023   6.693   6.901
 9753SOL    HW230159   7.012   6.787   0.013
 9754SOL     OW30160   0.053   3.106   6.000
 9754SOL    HW130161   0.101   3.065   6.077
 9754SOL    HW230162   0.114   3.112   5.921
 9755SOL     OW30163   3.437   5.460   5.593
 9755SOL    HW130164   3.498   5.384   5.614
 9755SOL    HW230165   3.361   5.428   5.537
 9756SOL     OW30166   5.162   2.663   5.829
 9756SOL    HW130167   5.094   2.737   5.831
 9756SOL    HW230168   5.234   2.683   5.895
 9757SOL     OW30169   6.638   0.853   3.474
 9757SOL    HW130170   6.693   0.937   3.475
 9757SOL    HW230171   6.558   0.864   3.533
 9758SOL     OW30172   3.545   0.502   0.383
 9758SOL    HW130173   3.513   0.499   0.478
 9758SOL    HW230174   3.534   0.411   0.342
 9759SOL     OW30175   3.397   5.794   1.507
 9759SOL    HW130176   3.307   5.795   1.551
 9759SOL    HW230177   3.394   5.732   1.428
 9760SOL     OW30178   5.754   4.646   6.068
 9760SOL    HW130179   5.761   4.678   5.974
 9760SOL    HW230180   5.767   4.723   6.131
 9761SOL     OW30181   5.263   5.310   2.567
 9761SOL    HW130182   5.273   5.352   2.657
 9761SOL    HW230183   5.251   5.211   2.577
 9762SOL     OW30184   3.375   0.624   2.833
 9762SOL    HW130185   3.305   0.619   2.763
 9762SOL    HW230186   3.338   0.666   2.916
 9763SOL     OW30187   1.960   1.906   2.169
 9763SOL    HW130188   1.961   2.003   2.145
 9763SOL    HW230189   2.052   1.868   2.161
 9764SOL     OW30190   0.811   2.738   2.660
 9764SOL    HW130191   0.909   2.727   2.642
 9764SOL    HW230192   0.799   2.802   2.736
 9765SOL     OW30193   0.123   0.570   5.561
 9765SOL    HW130194   0.060   0.628   5.509
 9765SOL    HW230195   0.202   0.549   5.504
 9766SOL     OW30196   2.126   0.361   3.021
 9766SOL    HW130197   2.129   0.405   2.931
 9766SOL    HW230198   2.210   0.309   3.036
 9767SOL     OW30199   5.067   0.483   5.467
 9767SOL    HW130200   5.095   0.543   5.542
 9767SOL    HW230201   5.022   0.402   5.504
 9768SOL     OW30202   4.575   2.585   4.412
 9768SOL    HW130203   4.499   2.547   4.464
 9768SOL    HW230204   4.621   2.656   4.466
 9769SOL     OW30205   0.462   1.942   1.109
 9769SOL    HW130206   0.537   1.884   1.079
 9769SOL    HW230207   0.493   2.000   1.184
 9770SOL     OW30208   0.624   3.080   5.850
 9770SOL    HW130209   0.623   2.980   5.857
 9770SOL    HW230210   0.580   3.119   5.932
 9771SOL     OW30211   2.856   5.575   3.688
 9771SOL    HW130212   2.797   5.634   3.743
 9771SOL    HW230213   2.811   5.557   3.600
 9772SOL     OW30214   6.101   6.831   0.662
 9772SOL    HW130215   6.160   6.836   0.743
 9772SOL    HW230216   6.153   6.792   0.586
 9773SOL     OW30217   4.800   5.193   3.831
 9773SOL    HW130218   4.897   5.217   3.830
 9773SOL    HW230219   4.778   5.143   3.747
 9774SOL     OW30220   6.877   4.982   4.332
 9774SOL    HW130221   6.921   5.067   4.302
 9774SOL    HW230222   6.861   4.985   4.430
 9775SOL     OW30223   2.930   2.092   4.642
 9775SOL    HW130224   2.926   2.167   4.708
 9775SOL    HW230225   2.852   2.100   4.579
 9776SOL     OW30226   0.379   4.720   4.174
 9776SOL    HW130227   0.421   4.691   4.088
 9776SOL    HW230228   0.284   4.745   4.159
 9777SOL     OW30229   4.991   5.927   6.248
 9777SOL    HW130230   5.075   5.971   6.217
 9777SOL    HW230231   4.925   5.925   6.173
 9778SOL     OW30232   3.974   0.584   4.653
 9778SOL    HW130233   3.905   0.654   4.671
 9778SOL    HW230234   4.057   0.627   4.618
 9779SOL     OW30235   3.166   1.957   6.634
 9779SOL    HW130236   3.114   1.992   6.556
 9779SOL    HW230237   3.183   2.031   6.698
 9780SOL     OW30238   2.774   4.255   0.814
 9780SOL    HW130239   2.784   4.313   0.895
 9780SOL    HW230240   2.849   4.188   0.811
 9781SOL     OW30241   1.248   6.604   4.578
 9781SOL    HW130242   1.160   6.617   4.531
 9781SOL    HW230243   1.311   6.556   4.517
 9782SOL     OW30244   5.866   0.338   0.363
 9782SOL    HW130245   5.847   0.434   0.344
 9782SOL    HW230246   5.952   0.330   0.413
 9783SOL     OW30247   6.185   0.367   3.134
 9783SOL    HW130248   6.221   0.442   3.078
 9783SOL    HW230249   6.253   0.341   3.203
 9784SOL     OW30250   5.813   0.352   4.691
 9784SOL    HW130251   5.816   0.260   4.731
 9784SOL    HW230252   5.722   0.368   4.652
 9785SOL     OW30253   0.868   2.738   1.328
 9785SOL    HW130254   0.952   2.760   1.277
 9785SOL    HW230255   0.830   2.821   1.368
 9786SOL     OW30256   2.521   6.892   4.844
 9786SOL    HW130257   2.448   6.854   4.787
 9786SOL    HW230258   2.605   6.896   4.791
 9787SOL     OW30259   5.852   4.430   1.140
 9787SOL    HW130260   5.804   4.429   1.052
 9787SOL    HW230261   5.951   4.429   1.124
 9788SOL     OW30262   6.747   0.903   5.964
 9788SOL    HW130263   6.806   0.822   5.963
 9788SOL    HW230264   6.805   0.985   5.968
 9789SOL     OW30265   1.776   4.823   4.642
 9789SOL    HW130266   1.809   4.813   4.548
 9789SOL    HW230267   1.826   4.897   4.687
 9790SOL     OW30268   6.968   1.321   3.553
 9790SOL    HW130269   6.963   1.280   3.462
 9790SOL    HW230270   0.032   1.290   3.599
 9791SOL     OW30271   1.312   2.824   1.406
 9791SOL    HW130272   1.293   2.850   1.501
 9791SOL    HW230273   1.369   2.742   1.404
 9792SOL     OW30274   3.450   5.701   2.116
 9792SOL    HW130275   3.493   5.611   2.108
 9792SOL    HW230276   3.482   5.760   2.041
 9793SOL     OW30277   5.325   6.158   2.253
 9793SOL    HW130278   5.227   6.139   2.261
 9793SOL    HW230279   5.343   6.251   2.286
 9794SOL     OW30280   3.448   3.214   6.382
 9794SOL    HW130281   3.376   3.187   6.447
 9794SOL    HW230282   3.459   3.143   6.313
 9795SOL     OW30283   2.089   5.368   3.091
 9795SOL    HW130284   2.063   5.458   3.057
 9795SOL    HW230285   2.156   5.327   3.029
 9796SOL     OW30286   3.728   5.098   0.370
 9796SOL    HW130287   3.655   5.051   0.320
 9796SOL    HW230288   3.816   5.074   0.329
 9797SOL     OW30289   5.509   3.384   5.285
 9797SOL    HW130290   5.440   3.449   5.318
 9797SOL    HW230291   5.493   3.364   5.188
 9798SOL     OW30292   2.536   1.746   2.140
 9798SOL    HW130293   2.557   1.838   2.106
 9798SOL    HW230294   2.605   1.682   2.106
 9799SOL     OW30295   3.564   3.690   2.745
 9799SOL    HW130296   3.567   3.590   2.736
 9799SOL    HW230297   3.540   3.713   2.840
 9800SOL     OW30298   3.893   5.443   0.329
 9800SOL    HW130299   3.853   5.422   0.418
 9800SOL    HW230300   3.895   5.542   0.316
 9801SOL     OW30301   5.289   5.030   1.297
 9801SOL    HW130302   5.293   5.001   1.201
 9801SOL    HW230303   5.196   5.060   1.318
 9802SOL     OW30304   0.878   5.752   1.663
 9802SOL    HW130305   0.948   5.709   1.719
 9802SOL    HW230306   0.897   5.735   1.567
 9803SOL     OW30307   5.120   0.147   6.357
 9803SOL    HW130308   5.207   0.192   6.337
 9803SOL    HW230309   5.128   0.049   6.338
 9804SOL     OW30310   4.822   5.365   4.375
 9804SOL    HW130311   4.811   5.440   4.440
 9804SOL    HW230312   4.759   5.377   4.299
 9805SOL     OW30313   3.634   3.862   1.000
 9805SOL    HW130314   3.706   3.853   0.932
 9805SOL    HW230315   3.674   3.874   1.091
 9806SOL     OW30316   6.754   1.847   2.457
 9806SOL    HW130317   6.837   1.791   2.460
 9806SOL    HW230318   6.770   1.928   2.400
 9807SOL     OW30319   2.103   3.319   1.168
 9807SOL    HW130320   2.174   3.314   1.238
 9807SOL    HW230321   2.146   3.333   1.078
 9808SOL     OW30322   1.992   1.690   4.272
 9808SOL    HW130323   1.943   1.759   4.219
 9808SOL    HW230324   2.046   1.733   4.343
 9809SOL     OW30325   0.553   0.762   4.385
 9809SOL    HW130326   0.478   0.753   4.451
 9809SOL    HW230327   0.525   0.820   4.310
 9810SOL     OW30328   4.168   1.531   2.618
 9810SOL    HW130329   4.089   1.479   2.649
 9810SOL    HW230330   4.154   1.561   2.523
 9811SOL     OW30331   0.931   0.424   3.013
 9811SOL    HW130332   0.876   0.344   2.989
 9811SOL    HW230333   0.925   0.441   3.112
 9812SOL     OW30334   5.940   3.226   5.981
 9812SOL    HW130335   6.023   3.241   5.927
 9812SOL    HW230336   5.866   3.282   5.945
 9813SOL     OW30337   6.442   4.256   0.188
 9813SOL    HW130338   6.515   4.199   0.151
 9813SOL    HW230339   6.355   4.232   0.144
 9814SOL     OW30340   6.478   0.928   6.119
 9814SOL    HW130341   6.570   0.916   6.156
 9814SOL    HW230342   6.467   0.871   6.037
 9815SOL     OW30343   6.985   4.275   2.406
 9815SOL    HW130344   6.958   4.329   2.485
 9815SOL    HW230345   0.065   4.281   2.392
 9816SOL     OW30346   6.121   1.568   5.641
 9816SOL    HW130347   6.105   1.591   5.737
 9816SOL    HW230348   6.150   1.650   5.592
 9817SOL     OW30349   2.226   0.964   0.734
 9817SOL    HW130350   2.285   0.887   0.761
 9817SOL    HW230351   2.187   0.945   0.644
 9818SOL     OW30352   0.355   7.002   2.209
 9818SOL    HW130353   0.326   0.050   2.278
 9818SOL    HW230354   0.279   6.940   2.189
 9819SOL     OW30355   6.368   1.807   4.179
 9819SOL    HW130356   6.456   1.763   4.197
 9819SOL    HW230357   6.340   1.859   4.259
 9820SOL     OW30358   3.845   1.117   6.650
 9820SOL    HW130359   3.886   1.180   6.584
 9820SOL    HW230360   3.747   1.134   6.656
 9821SOL     OW30361   4.910   3.504   0.062
 9821SOL    HW130362   4.893   3.423   0.006
 9821SOL    HW230363   4.898   3.586   0.007
 9822SOL     OW30364   3.469   4.961   4.114
 9822SOL    HW130365   3.567   4.957   4.134
 9822SOL    HW230366   3.456   4.986   4.018
 9823SOL     OW30367   4.250   6.623   3.413
 9823SOL    HW130368   4.266   6.722   3.407
 9823SOL    HW230369   4.193   6.604   3.493
 9824SOL     OW30370   0.999   5.504   5.365
 9824SOL    HW130371   1.080   5.467   5.319
 9824SOL    HW230372   0.988   5.459   5.454
 9825SOL     OW30373   0.979   6.243   4.837
 9825SOL    HW130374   0.956   6.339   4.853
 9825SOL    HW230375   1.063   6.238   4.783
 9826SOL     OW30376   1.923   5.837   6.375
 9826SOL    HW130377   2.023   5.841   6.373
 9826SOL    HW230378   1.891   5.843   6.469
 9827SOL     OW30379   1.742   4.763   1.363
 9827SOL    HW130380   1.735   4.671   1.402
 9827SOL    HW230381   1.836   4.796   1.374
 9828SOL     OW30382   4.651   2.213   4.047
 9828SOL    HW130383   4.578   2.159   4.004
 9828SOL    HW230384   4.611   2.292   4.094
 9829SOL     OW30385   5.412   5.023   5.782
 9829SOL    HW130386   5.415   5.038   5.683
 9829SOL    HW230387   5.385   4.929   5.800
 9830SOL     OW30388   6.564   1.267   3.457
 9830SOL    HW130389   6.468   1.293   3.470
 9830SOL    HW230390   6.589   1.195   3.522
 9831SOL     OW30391   0.331   5.238   1.905
 9831SOL    HW130392   0.296   5.277   1.990
 9831SOL    HW230393   0.339   5.310   1.836
 9832SOL     OW30394   5.036   6.600   5.071
 9832SOL    HW130395   5.119   6.552   5.102
 9832SOL    HW230396   4.997   6.652   5.147
 9833SOL     OW30397   3.942   3.538   4.786
 9833SOL    HW130398   3.894   3.478   4.850
 9833SOL    HW230399   4.040   3.530   4.800
 9834SOL     OW30400   3.208   5.986   5.923
 9834SOL    HW130401   3.195   5.888   5.908
 9834SOL    HW230402   3.263   6.000   6.006
 9835SOL     OW30403   3.796   3.247   3.940
 9835SOL    HW130404   3.719   3.250   4.004
 9835SOL    HW230405   3.843   3.159   3.949
 9836SOL     OW30406   6.426   3.288   5.483
 9836SOL    HW130407   6.343   3.308   5.534
 9836SOL    HW230408   6.403   3.275   5.386
 9837SOL     OW30409   6.719   0.604   3.574
 9837SOL    HW130410   6.766   0.613   3.662
 9837SOL    HW230411   6.684   0.694   3.546
 9838SOL     OW30412   0.383   5.601   0.848
 9838SOL    HW130413   0.323   5.525   0.873
 9838SOL    HW230414   0.349   5.686   0.888
 9839SOL     OW30415   4.383   6.177   3.502
 9839SOL    HW130416   4.306   6.225   3.544
 9839SOL    HW230417   4.467   6.199   3.552
 9840SOL     OW30418   6.637   1.922   6.765
 9840SOL    HW130419   6.653   2.006   6.714
 9840SOL    HW230420   6.539   1.907   6.777
 9841SOL     OW30421   0.065   6.110   2.165
 9841SOL    HW130422   0.131   6.171   2.121
 9841SOL    HW230423   7.015   6.081   2.098
 9842SOL     OW30424   3.813   0.406   0.679
 9842SOL    HW130425   3.878   0.424   0.604
 9842SOL    HW230426   3.770   0.317   0.665
 9843SOL     OW30427   0.269   0.067   0.448
 9843SOL    HW130428   0.365   0.092   0.466
 9843SOL    HW230429   0.264   6.987   0.426
 9844SOL     OW30430   5.112   0.745   5.018
 9844SOL    HW130431   5.013   0.746   5.007
 9844SOL    HW230432   5.149   0.835   4.994
 9845SOL     OW30433   0.865   3.417   1.818
 9845SOL    HW130434   0.935   3.413   1.889
 9845SOL    HW230435   0.843   3.324   1.789
 9846SOL     OW30436   5.600   2.106   2.591
 9846SOL    HW130437   5.685   2.060   2.565
 9846SOL    HW230438   5.530   2.087   2.523
 9847SOL     OW30439   3.809   4.281   6.816
 9847SOL    HW130440   3.866   4.326   6.747
 9847SOL    HW230441   3.712   4.296   6.794
 9848SOL     OW30442   2.756   3.965   5.986
 9848SOL    HW130443   2.779   3.982   5.890
 9848SOL    HW230444   2.803   4.032   6.044
 9849SOL     OW30445   1.505   2.332   3.069
 9849SOL    HW130446   1.564   2.309   3.146
 9849SOL    HW230447   1.558   2.330   2.984
 9850SOL     OW30448   1.421   0.200   4.639
 9850SOL    HW130449   1.490   0.141   4.596
 9850SOL    HW230450   1.409   0.174   4.735
 9851SOL     OW30451   3.464   5.143   3.566
 9851SOL    HW130452   3.370   5.177   3.574
 9851SOL    HW230453   3.528   5.220   3.571
 9852SOL     OW30454   2.346   6.563   0.147
 9852SOL    HW130455   2.275   6.630   0.169
 9852SOL    HW230456   2.342   6.541   0.050
 9853SOL     OW30457   0.414   4.202   3.780
 9853SOL    HW130458   0.326   4.157   3.789
 9853SOL    HW230459   0.401   4.296   3.747
 9854SOL     OW30460   6.279   3.445   6.743
 9854SOL    HW130461   6.244   3.359   6.706
 9854SOL    HW230462   6.356   3.476   6.688
 9855SOL     OW30463   1.288   5.959   0.293
 9855SOL    HW130464   1.273   5.992   0.200
 9855SOL    HW230465   1.223   5.885   0.313
 9856SOL     OW30466   5.248   3.844   3.378
 9856SOL    HW130467   5.240   3.929   3.430
 9856SOL    HW230468   5.206   3.769   3.428
 9857SOL     OW30469   5.256   0.544   6.004
 9857SOL    HW130470   5.295   0.483   5.936
 9857SOL    HW230471   5.320   0.555   6.080
 9858SOL     OW30472   6.889   5.408   2.279
 9858SOL    HW130473   6.971   5.416   2.335
 9858SOL    HW230474   6.831   5.335   2.316
 9859SOL     OW30475   1.098   5.242   2.583
 9859SOL    HW130476   1.011   5.289   2.567
 9859SOL    HW230477   1.165   5.273   2.516
 9860SOL     OW30478   1.921   3.106   4.143
 9860SOL    HW130479   2.011   3.130   4.106
 9860SOL    HW230480   1.884   3.184   4.193
 9861SOL     OW30481   3.199   2.014   4.038
 9861SOL    HW130482   3.226   1.918   4.024
 9861SOL    HW230483   3.208   2.036   4.135
 9862SOL     OW30484   1.791   2.860   6.576
 9862SOL    HW130485   1.808   2.938   6.514
 9862SOL    HW230486   1.737   2.891   6.654
 9863SOL     OW30487   4.046   6.587   2.050
 9863SOL    HW130488   4.107   6.509   2.064
 9863SOL    HW230489   4.025   6.596   1.953
 9864SOL     OW30490   2.880   6.327   5.276
 9864SOL    HW130491   2.932   6.409   5.299
 9864SOL    HW230492   2.938   6.246   5.286
 9865SOL     OW30493   2.539   6.448   6.128
 9865SOL    HW130494   2.453   6.496   6.110
 9865SOL    HW230495   2.583   6.488   6.208
 9866SOL     OW30496   6.963   5.538   6.337
 9866SOL    HW130497   0.002   5.530   6.255
 9866SOL    HW230498   6.868   5.520   6.312
 9867SOL     OW30499   4.705   1.284   2.630
 9867SOL    HW130500   4.784   1.225   2.648
 9867SOL    HW230501   4.723   1.340   2.550
 9868SOL     OW30502   2.308   4.549   3.036
 9868SOL    HW130503   2.273   4.460   3.005
 9868SOL    HW230504   2.407   4.552   3.023
 9869SOL     OW30505   6.025   2.552   2.930
 9869SOL    HW130506   5.984   2.590   3.013
 9869SOL    HW230507   6.050   2.456   2.946
 9870SOL     OW30508   1.855   2.625   3.175
 9870SOL    HW130509   1.873   2.685   3.097
 9870SOL    HW230510   1.899   2.661   3.257
 9871SOL     OW30511   5.712   5.963   3.171
 9871SOL    HW130512   5.687   5.997   3.080
 9871SOL    HW230513   5.810   5.942   3.173
 9872SOL     OW30514   1.342   6.510   5.489
 9872SOL    HW130515   1.363   6.546   5.580
 9872SOL    HW230516   1.377   6.573   5.419
 9873SOL     OW30517   0.384   0.462   5.117
 9873SOL    HW130518   0.382   0.501   5.025
 9873SOL    HW230519   0.439   0.378   5.116
 9874SOL     OW30520   0.239   1.950   3.602
 9874SOL    HW130521   0.169   1.898   3.553
 9874SOL    HW230522   0.210   2.046   3.609
 9875SOL     OW30523   6.393   5.972   0.605
 9875SOL    HW130524   6.353   6.062   0.624
 9875SOL    HW230525   6.480   5.964   0.653
 9876SOL     OW30526   0.252   6.848   3.511
 9876SOL    HW130527   0.269   6.941   3.477
 9876SOL    HW230528   0.153   6.836   3.526
 9877SOL     OW30529   1.579   5.914   5.232
 9877SOL    HW130530   1.642   5.853   5.280
 9877SOL    HW230531   1.624   5.950   5.151
 9878SOL     OW30532   4.469   2.959   0.167
 9878SOL    HW130533   4.560   2.944   0.206
 9878SOL    HW230534   4.443   3.055   0.180
 9879SOL     OW30535   5.422   5.975   4.458
 9879SOL    HW130536   5.488   6.005   4.528
 9879SOL    HW230537   5.454   6.004   4.368
 9880SOL     OW30538   3.714   1.115   0.989
 9880SOL    HW130539   3.619   1.120   1.019
 9880SOL    HW230540   3.770   1.179   1.041
 9881SOL     OW30541   6.468   0.113   3.181
 9881SOL    HW130542   6.483   0.202   3.223
 9881SOL    HW230543   6.386   0.117   3.124
 9882SOL     OW30544   3.392   3.345   4.465
 9882SOL    HW130545   3.410   3.288   4.545
 9882SOL    HW230546   3.309   3.398   4.479
 9883SOL     OW30547   1.820   5.900   2.793
 9883SOL    HW130548   1.763   5.824   2.763
 9883SOL    HW230549   1.858   5.881   2.883
 9884SOL     OW30550   3.337   2.476   5.359
 9884SOL    HW130551   3.391   2.396   5.387
 9884SOL    HW230552   3.267   2.448   5.294
 9885SOL     OW30553   5.322   2.480   5.244
 9885SOL    HW130554   5.233   2.520   5.267
 9885SOL    HW230555   5.353   2.422   5.320
 9886SOL     OW30556   3.040   6.260   1.190
 9886SOL    HW130557   2.994   6.295   1.108
 9886SOL    HW230558   3.136   6.286   1.188
 9887SOL     OW30559   4.240   0.980   6.749
 9887SOL    HW130560   4.157   1.003   6.800
 9887SOL    HW230561   4.240   0.882   6.729
 9888SOL     OW30562   6.419   6.531   3.845
 9888SOL    HW130563   6.343   6.520   3.781
 9888SOL    HW230564   6.384   6.551   3.936
 9889SOL     OW30565   6.285   5.866   2.000
 9889SOL    HW130566   6.187   5.875   2.016
 9889SOL    HW230567   6.326   5.956   1.991
 9890SOL     OW30568   1.846   3.087   3.134
 9890SOL    HW130569   1.821   3.074   3.230
 9890SOL    HW230570   1.946   3.081   3.125
 9891SOL     OW30571   4.106   6.561   1.755
 9891SOL    HW130572   4.190   6.508   1.746
 9891SOL    HW230573   4.118   6.652   1.716
 9892SOL     OW30574   1.915   6.081   3.085
 9892SOL    HW130575   1.963   6.119   3.006
 9892SOL    HW230576   1.830   6.130   3.100
 9893SOL     OW30577   5.584   4.473   5.079
 9893SOL    HW130578   5.580   4.490   5.177
 9893SOL    HW230579   5.662   4.414   5.057
 9894SOL     OW30580   4.266   3.536   6.078
 9894SOL    HW130581   4.201   3.567   6.009
 9894SOL    HW230582   4.358   3.567   6.053
 9895SOL     OW30583   4.986   1.886   5.910
 9895SOL    HW130584   5.007   1.842   5.823
 9895SOL    HW230585   5.031   1.837   5.985
 9896SOL     OW30586   3.891   4.027   0.677
 9896SOL    HW130587   3.859   3.994   0.588
 9896SOL    HW230588   3.862   3.964   0.749
 9897SOL     OW30589   1.079   1.559   2.515
 9897SOL    HW130590   1.069   1.646   2.466
 9897SOL    HW230591   0.992   1.511   2.515
 9898SOL     OW30592   0.360   4.872   0.257
 9898SOL    HW130593   0.299   4.940   0.216
 9898SOL    HW230594   0.421   4.918   0.322
 9899SOL     OW30595   4.141   5.563   1.800
 9899SOL    HW130596   4.177   5.569   1.893
 9899SOL    HW230597   4.057   5.509   1.800
 9900SOL     OW30598   2.145   5.198   3.701
 9900SOL    HW130599   2.217   5.153   3.755
 9900SOL    HW230600   2.185   5.239   3.619
 9901SOL     OW30601   3.057   1.661   5.738
 9901SOL    HW130602   3.133   1.709   5.693
 9901SOL    HW230603   3.075   1.656   5.836
 9902SOL     OW30604   3.929   4.038   0.355
 9902SOL    HW130605   4.004   3.978   0.384
 9902SOL    HW230606   3.966   4.119   0.310
 9903SOL     OW30607   2.919   0.993   1.147
 9903SOL    HW130608   2.958   0.904   1.126
 9903SOL    HW230609   2.901   1.000   1.245
 9904SOL     OW30610   6.693   6.229   2.068
 9904SOL    HW130611   6.638   6.308   2.041
 9904SOL    HW230612   6.729   6.244   2.160
 9905SOL     OW30613   2.321   7.002   6.355
 9905SOL    HW130614   2.373   6.931   6.404
 9905SOL    HW230615   2.311   0.064   6.414
 9906SOL     OW30616   3.286   4.173   5.937
 9906SOL    HW130617   3.225   4.236   5.889
 9906SOL    HW230618   3.238   4.088   5.956
 9907SOL     OW30619   0.699   6.554   2.650
 9907SOL    HW130620   0.701   6.603   2.564
 9907SOL    HW230621   0.741   6.464   2.638
 9908SOL     OW30622   6.877   2.761   4.669
 9908SOL    HW130623   6.896   2.663   4.679
 9908SOL    HW230624   6.960   2.813   4.690
 9909SOL     OW30625   2.540   6.120   3.131
 9909SOL    HW130626   2.457   6.098   3.183
 9909SOL    HW230627   2.525   6.205   3.079
 9910SOL     OW30628   0.702   5.723   0.553
 9910SOL    HW130629   0.717   5.820   0.574
 9910SOL    HW230630   0.605   5.702   0.562
 9911SOL     OW30631   3.800   4.889   2.526
 9911SOL    HW130632   3.767   4.917   2.616
 9911SOL    HW230633   3.730   4.906   2.457
 9912SOL     OW30634   5.807   6.516   0.191
 9912SOL    HW130635   5.742   6.507   0.266
 9912SOL    HW230636   5.820   6.612   0.169
 9913SOL     OW30637   5.020   2.097   2.901
 9913SOL    HW130638   5.048   2.002   2.912
 9913SOL    HW230639   5.052   2.131   2.812
 9914SOL     OW30640   1.970   5.180   4.033
 9914SOL    HW130641   1.962   5.149   3.938
 9914SOL    HW230642   1.981   5.100   4.092
 9915SOL     OW30643   6.432   4.669   4.263
 9915SOL    HW130644   6.367   4.740   4.291
 9915SOL    HW230645   6.408   4.582   4.306
 9916SOL     OW30646   2.090   3.488   0.628
 9916SOL    HW130647   2.137   3.454   0.545
 9916SOL    HW230648   2.157   3.531   0.688
 9917SOL     OW30649   2.055   3.340   4.433
 9917SOL    HW130650   2.088   3.302   4.346
 9917SOL    HW230651   1.955   3.339   4.434
 9918SOL     OW30652   2.021   1.321   4.818
 9918SOL    HW130653   1.931   1.305   4.860
 9918SOL    HW230654   2.010   1.376   4.736
 9919SOL     OW30655   0.948   5.512   1.251
 9919SOL    HW130656   1.020   5.512   1.182
 9919SOL    HW230657   0.878   5.446   1.226
 9920SOL     OW30658   3.479   0.434   3.266
 9920SOL    HW130659   3.531   0.502   3.319
 9920SOL    HW230660   3.396   0.477   3.230
 9921SOL     OW30661   4.839   0.941   2.389
 9921SOL    HW130662   4.788   0.857   2.406
 9921SOL    HW230663   4.776   1.018   2.381
 9922SOL     OW30664   5.606   2.762   2.255
 9922SOL    HW130665   5.701   2.742   2.232
 9922SOL    HW230666   5.555   2.783   2.172
 9923SOL     OW30667   6.592   0.121   6.395
 9923SOL    HW130668   6.522   0.188   6.417
 9923SOL    HW230669   6.593   0.048   6.463
 9924SOL     OW30670   5.117   1.039   3.907
 9924SOL    HW130671   5.023   1.040   3.941
 9924SOL    HW230672   5.155   1.132   3.910
 9925SOL     OW30673   3.974   2.206   5.017
 9925SOL    HW130674   4.050   2.269   5.033
 9925SOL    HW230675   3.895   2.256   4.983
 9926SOL     OW30676   2.306   1.515   5.563
 9926SOL    HW130677   2.302   1.609   5.597
 9926SOL    HW230678   2.213   1.484   5.541
 9927SOL     OW30679   1.279   3.677   3.569
 9927SOL    HW130680   1.352   3.612   3.547
 9927SOL    HW230681   1.300   3.722   3.656
 9928SOL     OW30682   6.868   2.512   1.788
 9928SOL    HW130683   6.875   2.606   1.755
 9928SOL    HW230684   6.904   2.450   1.719
 9929SOL     OW30685   0.974   4.839   5.319
 9929SOL    HW130686   0.903   4.810   5.255
 9929SOL    HW230687   0.971   4.780   5.400
 9930SOL     OW30688   6.655   5.053   6.577
 9930SOL    HW130689   6.752   5.038   6.597
 9930SOL    HW230690   6.600   5.022   6.654
 9931SOL     OW30691   2.150   4.364   0.107
 9931SOL    HW130692   2.198   4.278   0.123
 9931SOL    HW230693   2.071   4.348   0.048
 9932SOL     OW30694   2.030   2.326   1.443
 9932SOL    HW130695   2.108   2.355   1.388
 9932SOL    HW230696   2.062   2.276   1.524
 9933SOL     OW30697   0.970   1.387   3.216
 9933SOL    HW130698   0.990   1.388   3.314
 9933SOL    HW230699   1.001   1.473   3.175
 9934SOL     OW30700   4.955   0.847   5.962
 9934SOL    HW130701   4.929   0.943   5.970
 9934SOL    HW230702   4.986   0.828   5.869
 9935SOL     OW30703   2.881   3.066   0.524
 9935SOL    HW130704   2.829   2.991   0.483
 9935SOL    HW230705   2.840   3.153   0.497
 9936SOL     OW30706   4.920   6.363   6.782
 9936SOL    HW130707   4.878   6.273   6.791
 9936SOL    HW230708   4.849   6.433   6.776
 9937SOL     OW30709   1.638   6.771   4.423
 9937SOL    HW130710   1.705   6.703   4.394
 9937SOL    HW230711   1.553   6.759   4.372
 9938SOL     OW30712   6.899   1.658   3.321
 9938SOL    HW130713   6.869   1.624   3.232
 9938SOL    HW230714   6.821   1.696   3.370
 9939SOL     OW30715   2.751   3.728   1.345
 9939SOL    HW130716   2.741   3.730   1.444
 9939SOL    HW230717   2.848   3.716   1.321
 9940SOL     OW30718   0.316   0.951   2.904
 9940SOL    HW130719   0.360   1.029   2.947
 9940SOL    HW230720   0.328   0.955   2.805
 9941SOL     OW30721   6.115   3.096   0.494
 9941SOL    HW130722   6.071   3.158   0.429
 9941SOL    HW230723   6.206   3.131   0.516
 9942SOL     OW30724   6.026   5.484   2.692
 9942SOL    HW130725   5.964   5.413   2.658
 9942SOL    HW230726   5.992   5.574   2.666
 9943SOL     OW30727   1.004   4.553   5.532
 9943SOL    HW130728   1.065   4.496   5.477
 9943SOL    HW230729   0.916   4.562   5.485
 9944SOL     OW30730   2.662   5.882   6.736
 9944SOL    HW130731   2.627   5.961   6.686
 9944SOL    HW230732   2.750   5.905   6.777
 9945SOL     OW30733   6.418   3.143   6.044
 9945SOL    HW130734   6.490   3.082   6.077
 9945SOL    HW230735   6.348   3.090   5.996
 9946SOL     OW30736   5.749   2.236   1.841
 9946SOL    HW130737   5.682   2.162   1.830
 9946SOL    HW230738   5.739   2.278   1.931
 9947SOL     OW30739   0.448   0.396   2.994
 9947SOL    HW130740   0.494   0.364   2.912
 9947SOL    HW230741   0.435   0.495   2.989
 9948SOL     OW30742   5.705   0.765   5.427
 9948SOL    HW130743   5.647   0.767   5.346
 9948SOL    HW230744   5.660   0.713   5.499
 9949SOL     OW30745   6.191   3.200   3.011
 9949SOL    HW130746   6.135   3.131   2.966
 9949SOL    HW230747   6.194   3.283   2.954
 9950SOL     OW30748   4.633   5.185   6.513
 9950SOL    HW130749   4.685   5.236   6.581
 9950SOL    HW230750   4.599   5.249   6.443
 9951SOL     OW30751   0.256   2.035   2.776
 9951SOL    HW130752   0.185   2.046   2.846
 9951SOL    HW230753   0.280   2.124   2.738
 9952SOL     OW30754   1.484   4.764   1.463
 9952SOL    HW130755   1.566   4.757   1.405
 9952SOL    HW230756   1.426   4.684   1.448
 9953SOL     OW30757   5.798   4.661   4.667
 9953SOL    HW130758   5.874   4.714   4.704
 9953SOL    HW230759   5.739   4.722   4.613
 9954SOL     OW30760   4.761   1.614   1.559
 9954SOL    HW130761   4.744   1.518   1.583
 9954SOL    HW230762   4.685   1.648   1.504
 9955SOL     OW30763   6.312   4.997   1.216
 9955SOL    HW130764   6.252   5.021   1.140
 9955SOL    HW230765   6.300   5.064   1.290
 9956SOL     OW30766   1.604   3.977   3.405
 9956SOL    HW130767   1.638   4.028   3.326
 9956SOL    HW230768   1.679   3.960   3.469
 9957SOL     OW30769   5.707   6.797   0.145
 9957SOL    HW130770   5.622   6.761   0.184
 9957SOL    HW230771   5.687   6.877   0.089
 9958SOL     OW30772   6.358   5.929   5.661
 9958SOL    HW130773   6.366   6.029   5.653
 9958SOL    HW230774   6.274   5.906   5.710
 9959SOL     OW30775   5.694   5.199   6.875
 9959SOL    HW130776   5.744   5.128   6.826
 9959SOL    HW230777   5.712   5.288   6.834
 9960SOL     OW30778   0.183   0.030   6.148
 9960SOL    HW130779   0.170   0.010   6.245
 9960SOL    HW230780   0.101   0.002   6.097
 9961SOL     OW30781   3.536   0.092   0.487
 9961SOL    HW130782   3.524   0.189   0.468
 9961SOL    HW230783   3.454   0.056   0.531
 9962SOL     OW30784   3.485   0.288   1.307
 9962SOL    HW130785   3.505   0.361   1.242
 9962SOL    HW230786   3.388   0.292   1.333
 9963SOL     OW30787   1.309   0.352   6.717
 9963SOL    HW130788   1.225   0.322   6.764
 9963SOL    HW230789   1.388   0.333   6.776
 9964SOL     OW30790   4.448   5.586   5.515
 9964SOL    HW130791   4.529   5.632   5.552
 9964SOL    HW230792   4.448   5.491   5.545
 9965SOL     OW30793   2.037   4.964   4.170
 9965SOL    HW130794   1.982   4.988   4.250
 9965SOL    HW230795   2.091   4.883   4.190
 9966SOL     OW30796   2.620   5.319   1.802
 9966SOL    HW130797   2.702   5.305   1.747
 9966SOL    HW230798   2.539   5.313   1.744
 9967SOL     OW30799   0.178   0.666   2.573
 9967SOL    HW130800   0.219   0.642   2.485
 9967SOL    HW230801   0.157   0.583   2.624
 9968SOL     OW30802   4.953   6.134   0.574
 9968SOL    HW130803   4.895   6.054   0.581
 9968SOL    HW230804   5.049   6.106   0.574
 9969SOL     OW30805   0.218   6.094   2.737
 9969SOL    HW130806   0.306   6.054   2.762
 9969SOL    HW230807   0.151   6.076   2.809
 9970SOL     OW30808   6.801   3.443   1.504
 9970SOL    HW130809   6.713   3.477   1.472
 9970SOL    HW230810   6.814   3.350   1.471
 9971SOL     OW30811   6.641   5.339   5.655
 9971SOL    HW130812   6.545   5.351   5.632
 9971SOL    HW230813   6.667   5.406   5.724
 9972SOL     OW30814   2.777   4.574   5.872
 9972SOL    HW130815   2.774   4.509   5.796
 9972SOL    HW230816   2.708   4.645   5.858
 9973SOL     OW30817   2.735   2.289   3.113
 9973SOL    HW130818   2.714   2.387   3.110
 9973SOL    HW230819   2.758   2.257   3.021
 9974SOL     OW30820   0.669   3.125   3.075
 9974SOL    HW130821   0.758   3.104   3.116
 9974SOL    HW230822   0.609   3.046   3.084
 9975SOL     OW30823   1.218   4.028   0.206
 9975SOL    HW130824   1.183   4.117   0.176
 9975SOL    HW230825   1.165   3.996   0.284
 9976SOL     OW30826   4.204   6.227   5.144
 9976SOL    HW130827   4.238   6.212   5.051
 9976SOL    HW230828   4.137   6.301   5.144
 9977SOL     OW30829   4.482   0.283   5.656
 9977SOL    HW130830   4.452   0.190   5.675
 9977SOL    HW230831   4.409   0.347   5.679
 9978SOL     OW30832   6.425   2.773   0.609
 9978SOL    HW130833   6.481   2.694   0.582
 9978SOL    HW230834   6.330   2.758   0.582
 9979SOL     OW30835   3.805   4.086   3.746
 9979SOL    HW130836   3.885   4.027   3.737
 9979SOL    HW230837   3.748   4.079   3.664
 9980SOL     OW30838   0.445   6.862   0.016
 9980SOL    HW130839   0.465   6.809   6.952
 9980SOL    HW230840   0.467   6.958   7.018
 9981SOL     OW30841   5.965   1.764   0.665
 9981SOL    HW130842   5.885   1.705   0.656
 9981SOL    HW230843   5.950   1.849   0.615
 9982SOL     OW30844   2.650   2.107   4.818
 9982SOL    HW130845   2.628   2.170   4.743
 9982SOL    HW230846   2.607   2.018   4.800
 9983SOL     OW30847   0.011   2.963   2.154
 9983SOL    HW130848   6.961   2.913   2.208
 9983SOL    HW230849   0.019   2.921   2.064
 9984SOL     OW30850   0.903   4.593   0.900
 9984SOL    HW130851   0.911   4.638   0.989
 9984SOL    HW230852   0.919   4.495   0.911
 9985SOL     OW30853   4.987   4.074   6.681
 9985SOL    HW130854   5.064   4.127   6.647
 9985SOL    HW230855   4.937   4.034   6.604
 9986SOL     OW30856   5.440   4.828   6.765
 9986SOL    HW130857   5.441   4.852   6.862
 9986SOL    HW230858   5.427   4.729   6.756
 9987SOL     OW30859   4.648   2.425   0.806
 9987SOL    HW130860   4.644   2.523   0.789
 9987SOL    HW230861   4.724   2.404   0.867
 9988SOL     OW30862   5.744   6.590   3.430
 9988SOL    HW130863   5.771   6.602   3.334
 9988SOL    HW230864   5.681   6.663   3.456
 9989SOL     OW30865   5.554   5.855   1.440
 9989SOL    HW130866   5.543   5.901   1.352
 9989SOL    HW230867   5.542   5.756   1.428
 9990SOL     OW30868   0.452   5.957   2.798
 9990SOL    HW130869   0.432   5.969   2.895
 9990SOL    HW230870   0.430   5.863   2.771
 9991SOL     OW30871   1.821   3.847   1.951
 9991SOL    HW130872   1.910   3.831   1.909
 9991SOL    HW230873   1.750   3.803   1.895
 9992SOL     OW30874   2.161   4.853   6.992
 9992SOL    HW130875   2.119   4.770   0.011
 9992SOL    HW230876   2.092   4.925   6.984
 9993SOL     OW30877   3.895   0.048   4.740
 9993SOL    HW130878   3.961   0.092   4.800
 9993SOL    HW230879   3.805   0.092   4.752
 9994SOL     OW30880   5.807   5.093   4.855
 9994SOL    HW130881   5.719   5.140   4.866
 9994SOL    HW230882   5.879   5.146   4.900
 9995SOL     OW30883   4.424   1.329   6.385
 9995SOL    HW130884   4.492   1.384   6.434
 9995SOL    HW230885   4.383   1.262   6.447
 9996SOL     OW30886   2.555   4.948   0.803
 9996SOL    HW130887   2.460   4.952   0.836
 9996SOL    HW230888   2.602   4.870   0.844
 9997SOL     OW30889   6.819   0.916   2.811
 9997SOL    HW130890   6.845   0.878   2.899
 9997SOL    HW230891   6.896   0.908   2.747
 9998SOL     OW30892   5.313   3.484   2.615
 9998SOL    HW130893   5.287   3.403   2.562
 9998SOL    HW230894   5.258   3.562   2.584
 9999SOL     OW30895   0.785   6.861   5.091
 9999SOL    HW130896   0.848   6.936   5.111
 9999SOL    HW230897   0.747   6.874   4.999
10000SOL     OW30898   4.555   2.663   0.985
10000SOL    HW130899   4.477   2.620   1.030
10000SOL    HW230900   4.537   2.761   0.973
10001SOL     OW30901   4.152   6.805   1.637
10001SOL    HW130902   4.188   6.824   1.546
10001SOL    HW230903   4.175   6.881   1.698
10002SOL     OW30904   1.900   6.538   2.443
10002SOL    HW130905   1.918   6.518   2.540
10002SOL    HW230906   1.974   6.501   2.387
10003SOL     OW30907   1.224   0.781   2.152
10003SOL    HW130908   1.321   0.778   2.125
10003SOL    HW230909   1.184   0.690   2.142
10004SOL     OW30910   6.655   3.168   3.715
10004SOL    HW130911   6.606   3.143   3.798
10004SOL    HW230912   6.673   3.267   3.715
10005SOL     OW30913   2.420   5.685   2.554
10005SOL    HW130914   2.471   5.620   2.498
10005SOL    HW230915   2.433   5.777   2.517
10006SOL     OW30916   5.534   2.078   6.112
10006SOL    HW130917   5.566   2.011   6.045
10006SOL    HW230918   5.594   2.158   6.110
10007SOL     OW30919   1.627   5.342   3.872
10007SOL    HW130920   1.641   5.243   3.869
10007SOL    HW230921   1.581   5.366   3.958
10008SOL     OW30922   4.554   0.878   5.408
10008SOL    HW130923   4.566   0.783   5.437
10008SOL    HW230924   4.457   0.902   5.410
10009SOL     OW30925   1.095   5.136   1.802
10009SOL    HW130926   1.136   5.050   1.771
10009SOL    HW230927   1.000   5.141   1.769
10010SOL     OW30928   1.889   4.363   1.039
10010SOL    HW130929   1.915   4.415   1.120
10010SOL    HW230930   1.852   4.275   1.066
10011SOL     OW30931   3.208   3.655   0.138
10011SOL    HW130932   3.258   3.740   0.156
10011SOL    HW230933   3.256   3.603   0.067
10012SOL     OW30934   5.526   2.215   3.481
10012SOL    HW130935   5.592   2.191   3.410
10012SOL    HW230936   5.480   2.132   3.514
10013SOL     OW30937   0.814   6.254   5.209
10013SOL    HW130938   0.836   6.209   5.122
10013SOL    HW230939   0.719   6.236   5.233
10014SOL     OW30940   1.030   0.660   3.635
10014SOL    HW130941   1.085   0.616   3.706
10014SOL    HW230942   1.069   0.639   3.546
10015SOL     OW30943   4.420   6.993   6.880
10015SOL    HW130944   4.441   6.968   6.975
10015SOL    HW230945   4.332   6.954   6.854
10016SOL     OW30946   2.996   0.943   4.599
10016SOL    HW130947   3.092   0.940   4.571
10016SOL    HW230948   2.951   0.858   4.571
10017SOL     OW30949   3.012   1.749   2.915
10017SOL    HW130950   2.994   1.655   2.944
10017SOL    HW230951   3.107   1.773   2.933
10018SOL     OW30952   0.101   4.837   5.380
10018SOL    HW130953   0.150   4.858   5.295
10018SOL    HW230954   0.147   4.882   5.457
10019SOL     OW30955   6.408   2.209   2.589
10019SOL    HW130956   6.411   2.126   2.534
10019SOL    HW230957   6.477   2.205   2.661
10020SOL     OW30958   6.475   0.907   2.357
10020SOL    HW130959   6.550   0.916   2.291
10020SOL    HW230960   6.416   0.831   2.331
10021SOL     OW30961   1.333   3.440   1.307
10021SOL    HW130962   1.415   3.496   1.318
10021SOL    HW230963   1.293   3.422   1.397
10022SOL     OW30964   1.505   6.529   5.990
10022SOL    HW130965   1.505   6.430   6.004
10022SOL    HW230966   1.445   6.553   5.914
10023SOL     OW30967   0.750   1.528   5.759
10023SOL    HW130968   0.658   1.552   5.729
10023SOL    HW230969   0.750   1.437   5.799
10024SOL     OW30970   2.145   4.412   3.602
10024SOL    HW130971   2.191   4.496   3.629
10024SOL    HW230972   2.148   4.402   3.503
10025SOL     OW30973   0.688   2.531   1.317
10025SOL    HW130974   0.769   2.588   1.332
10025SOL    HW230975   0.715   2.444   1.275
10026SOL     OW30976   6.397   1.029   4.918
10026SOL    HW130977   6.392   1.013   5.016
10026SOL    HW230978   6.428   0.945   4.872
10027SOL     OW30979   3.524   0.871   5.448
10027SOL    HW130980   3.586   0.948   5.431
10027SOL    HW230981   3.439   0.904   5.489
10028SOL     OW30982   3.973   0.148   2.204
10028SOL    HW130983   3.888   0.095   2.193
10028SOL    HW230984   4.049   0.085   2.216
10029SOL     OW30985   6.713   4.941   3.839
10029SOL    HW130986   6.697   4.992   3.923
10029SOL    HW230987   6.802   4.967   3.801
10030SOL     OW30988   2.378   6.941   4.514
10030SOL    HW130989   2.456   6.995   4.544
10030SOL    HW230990   2.301   6.954   4.577
10031SOL     OW30991   2.203   6.229   3.615
10031SOL    HW130992   2.263   6.168   3.668
10031SOL    HW230993   2.192   6.315   3.664
10032SOL     OW30994   3.135   5.784   3.868
10032SOL    HW130995   3.190   5.802   3.949
10032SOL    HW230996   3.133   5.865   3.810
10033SOL     OW30997   2.586   1.313   5.075
10033SOL    HW130998   2.645   1.393   5.090
10033SOL    HW230999   2.523   1.333   5.000
10034SOL     OW31000   2.228   1.100   2.117
10034SOL    HW131001   2.327   1.095   2.135
10034SOL    HW231002   2.184   1.020   2.157
10035SOL     OW31003   6.880   2.954   2.641
10035SOL    HW131004   6.840   3.042   2.665
10035SOL    HW231005   6.823   2.909   2.573
10036SOL     OW31006   0.409   0.938   6.621
10036SOL    HW131007   0.479   0.989   6.571
10036SOL    HW231008   0.386   0.855   6.569
10037SOL     OW31009   6.008   0.312   6.019
10037SOL    HW131010   5.965   0.233   5.976
10037SOL    HW231011   5.941   0.361   6.075
10038SOL     OW31012   5.382   6.742   6.706
10038SOL    HW131013   5.381   6.806   6.783
10038SOL    HW231014   5.292   6.700   6.695
10039SOL     OW31015   6.930   5.335   1.852
10039SOL    HW131016   6.997   5.374   1.789
10039SOL    HW231017   6.902   5.405   1.917
10040SOL     OW31018   2.635   0.031   0.320
10040SOL    HW131019   2.725   0.030   0.363
10040SOL    HW231020   2.565   0.014   0.390
10041SOL     OW31021   5.509   4.898   4.960
10041SOL    HW131022   5.566   4.972   4.996
10041SOL    HW231023   5.567   4.819   4.939
10042SOL     OW31024   6.605   0.393   5.436
10042SOL    HW131025   6.519   0.442   5.420
10042SOL    HW231026   6.680   0.459   5.440
10043SOL     OW31027   0.522   0.661   2.688
10043SOL    HW131028   0.502   0.681   2.592
10043SOL    HW231029   0.437   0.664   2.741
10044SOL     OW31030   2.752   2.123   6.914
10044SOL    HW131031   2.718   2.050   6.855
10044SOL    HW231032   2.846   2.103   6.941
10045SOL     OW31033   3.941   6.440   3.879
10045SOL    HW131034   4.026   6.415   3.925
10045SOL    HW231035   3.928   6.539   3.883
10046SOL     OW31036   0.114   2.292   1.937
10046SOL    HW131037   0.069   2.206   1.913
10046SOL    HW231038   0.179   2.316   1.865
10047SOL     OW31039   1.109   2.430   3.173
10047SOL    HW131040   1.015   2.410   3.198
10047SOL    HW231041   1.134   2.521   3.208
10048SOL     OW31042   3.737   2.645   1.801
10048SOL    HW131043   3.694   2.721   1.850
10048SOL    HW231044   3.716   2.559   1.848
10049SOL     OW31045   1.944   6.038   4.355
10049SOL    HW131046   1.903   5.948   4.343
10049SOL    HW231047   2.036   6.028   4.395
10050SOL     OW31048   5.896   1.642   4.819
10050SOL    HW131049   5.940   1.731   4.816
10050SOL    HW231050   5.924   1.587   4.740
10051SOL     OW31051   6.384   2.438   0.414
10051SOL    HW131052   6.430   2.463   0.499
10051SOL    HW231053   6.331   2.355   0.429
10052SOL     OW31054   1.652   5.026   0.983
10052SOL    HW131055   1.662   4.927   0.990
10052SOL    HW231056   1.578   5.056   1.043
10053SOL     OW31057   3.114   6.505   3.372
10053SOL    HW131058   3.079   6.413   3.357
10053SOL    HW231059   3.214   6.502   3.376
10054SOL     OW31060   4.539   5.714   3.565
10054SOL    HW131061   4.444   5.688   3.550
10054SOL    HW231062   4.594   5.632   3.580
10055SOL     OW31063   6.007   2.765   6.720
10055SOL    HW131064   6.100   2.769   6.757
10055SOL    HW231065   5.966   2.856   6.724
10056SOL     OW31066   5.717   4.296   2.286
10056SOL    HW131067   5.740   4.247   2.202
10056SOL    HW231068   5.618   4.291   2.301
10057SOL     OW31069   2.433   2.488   3.381
10057SOL    HW131070   2.526   2.502   3.416
10057SOL    HW231071   2.434   2.419   3.308
10058SOL     OW31072   0.655   4.878   3.690
10058SOL    HW131073   0.604   4.948   3.740
10058SOL    HW231074   0.616   4.788   3.709
10059SOL     OW31075   5.402   0.589   1.535
10059SOL    HW131076   5.424   0.632   1.623
10059SOL    HW231077   5.303   0.577   1.529
10060SOL     OW31078   2.293   2.368   2.188
10060SOL    HW131079   2.367   2.408   2.241
10060SOL    HW231080   2.211   2.361   2.245
10061SOL     OW31081   6.342   1.871   4.981
10061SOL    HW131082   6.349   1.852   4.883
10061SOL    HW231083   6.253   1.841   5.015
10062SOL     OW31084   5.379   5.829   2.800
10062SOL    HW131085   5.382   5.917   2.848
10062SOL    HW231086   5.399   5.843   2.703
10063SOL     OW31087   0.542   2.706   2.391
10063SOL    HW131088   0.561   2.786   2.334
10063SOL    HW231089   0.542   2.731   2.487
10064SOL     OW31090   5.179   5.871   5.316
10064SOL    HW131091   5.102   5.820   5.354
10064SOL    HW231092   5.254   5.808   5.296
10065SOL     OW31093   0.694   6.792   2.822
10065SOL    HW131094   0.784   6.818   2.858
10065SOL    HW231095   0.701   6.704   2.776
10066SOL     OW31096   0.243   0.269   3.385
10066SOL    HW131097   0.325   0.314   3.348
10066SOL    HW231098   0.170   0.271   3.317
10067SOL     OW31099   4.964   6.682   3.587
10067SOL    HW131100   4.955   6.767   3.536
10067SOL    HW231101   5.050   6.682   3.638
10068SOL     OW31102   5.002   3.922   5.785
10068SOL    HW131103   5.026   3.982   5.860
10068SOL    HW231104   4.991   3.976   5.701
10069SOL     OW31105   4.855   1.047   4.016
10069SOL    HW131106   4.811   0.969   4.061
10069SOL    HW231107   4.868   1.120   4.083
10070SOL     OW31108   1.298   6.895   4.636
10070SOL    HW131109   1.260   6.814   4.681
10070SOL    HW231110   1.298   6.972   4.700
10071SOL     OW31111   4.941   4.926   5.074
10071SOL    HW131112   4.978   4.949   5.164
10071SOL    HW231113   4.974   4.836   5.047
10072SOL     OW31114   1.425   6.702   4.282
10072SOL    HW131115   1.358   6.736   4.216
10072SOL    HW231116   1.380   6.637   4.345
10073SOL     OW31117   6.875   5.938   6.490
10073SOL    HW131118   6.848   6.034   6.502
10073SOL    HW231119   6.802   5.890   6.441
10074SOL     OW31120   2.704   0.048   5.569
10074SOL    HW131121   2.653   0.018   5.488
10074SOL    HW231122   2.734   6.987   5.622
10075SOL     OW31123   1.472   2.283   3.911
10075SOL    HW131124   1.567   2.312   3.899
10075SOL    HW231125   1.464   2.232   3.997
10076SOL     OW31126   5.939   0.405   3.919
10076SOL    HW131127   5.985   0.481   3.872
10076SOL    HW231128   5.851   0.387   3.875
10077SOL     OW31129   2.550   1.562   6.985
10077SOL    HW131130   2.619   1.628   6.959
10077SOL    HW231131   2.504   1.592   0.051
10078SOL     OW31132   5.646   6.085   5.371
10078SOL    HW131133   5.568   6.136   5.407
10078SOL    HW231134   5.730   6.115   5.415
10079SOL     OW31135   6.944   2.579   5.881
10079SOL    HW131136   6.966   2.676   5.871
10079SOL    HW231137   6.936   2.537   5.790
10080SOL     OW31138   1.244   2.726   5.616
10080SOL    HW131139   1.193   2.649   5.579
10080SOL    HW231140   1.241   2.803   5.552
10081SOL     OW31141   0.553   1.166   0.523
10081SOL    HW131142   0.629   1.195   0.581
10081SOL    HW231143   0.579   1.085   0.471
10082SOL     OW31144   6.992   0.418   0.676
10082SOL    HW131145   0.033   0.338   0.667
10082SOL    HW231146   6.946   0.436   0.589
10083SOL     OW31147   5.564   1.554   4.449
10083SOL    HW131148   5.622   1.485   4.492
10083SOL    HW231149   5.468   1.524   4.453
10084SOL     OW31150   2.467   0.971   6.864
10084SOL    HW131151   2.529   1.000   6.791
10084SOL    HW231152   2.521   0.947   6.945
10085SOL     OW31153   0.869   5.387   2.567
10085SOL    HW131154   0.933   5.462   2.585
10085SOL    HW231155   0.779   5.425   2.545
10086SOL     OW31156   6.869   3.485   2.123
10086SOL    HW131157   6.823   3.464   2.037
10086SOL    HW231158   6.887   3.400   2.173
10087SOL     OW31159   1.550   0.064   3.907
10087SOL    HW131160   1.552   0.157   3.872
10087SOL    HW231161   1.474   0.054   3.971
10088SOL     OW31162   6.580   0.737   5.022
10088SOL    HW131163   6.529   0.652   5.012
10088SOL    HW231164   6.602   0.752   5.119
10089SOL     OW31165   2.285   2.669   2.243
10089SOL    HW131166   2.274   2.646   2.146
10089SOL    HW231167   2.225   2.610   2.298
10090SOL     OW31168   6.729   5.047   2.083
10090SOL    HW131169   6.707   5.133   2.037
10090SOL    HW231170   6.753   5.066   2.179
10091SOL     OW31171   0.570   2.139   3.738
10091SOL    HW131172   0.525   2.227   3.722
10091SOL    HW231173   0.513   2.082   3.797
10092SOL     OW31174   1.633   2.700   5.181
10092SOL    HW131175   1.559   2.657   5.129
10092SOL    HW231176   1.701   2.737   5.118
10093SOL     OW31177   0.312   6.022   6.194
10093SOL    HW131178   0.271   6.096   6.247
10093SOL    HW231179   0.298   6.038   6.096
10094SOL     OW31180   1.858   1.331   2.155
10094SOL    HW131181   1.920   1.340   2.076
10094SOL    HW231182   1.802   1.249   2.144
10095SOL     OW31183   0.458   1.586   5.708
10095SOL    HW131184   0.391   1.543   5.649
10095SOL    HW231185   0.414   1.612   5.795
10096SOL     OW31186   0.150   5.547   2.379
10096SOL    HW131187   0.203   5.631   2.364
10096SOL    HW231188   0.173   5.510   2.469
10097SOL     OW31189   1.410   2.422   6.013
10097SOL    HW131190   1.435   2.375   5.928
10097SOL    HW231191   1.382   2.516   5.992
10098SOL     OW31192   3.505   5.310   6.600
10098SOL    HW131193   3.517   5.235   6.535
10098SOL    HW231194   3.414   5.349   6.589
10099SOL     OW31195   6.880   5.072   4.813
10099SOL    HW131196   6.844   5.155   4.770
10099SOL    HW231197   6.966   5.093   4.858
10100SOL     OW31198   5.372   0.980   5.687
10100SOL    HW131199   5.280   0.993   5.724
10100SOL    HW231200   5.416   0.903   5.734
10101SOL     OW31201   0.043   4.669   2.784
10101SOL    HW131202   0.019   4.582   2.827
10101SOL    HW231203   0.009   4.670   2.690
10102SOL     OW31204   4.040   0.186   3.977
10102SOL    HW131205   4.079   0.162   4.066
10102SOL    HW231206   3.960   0.129   3.960
10103SOL     OW31207   1.320   2.044   0.477
10103SOL    HW131208   1.366   2.069   0.562
10103SOL    HW231209   1.382   1.992   0.420
10104SOL     OW31210   1.603   6.020   5.953
10104SOL    HW131211   1.562   6.108   5.980
10104SOL    HW231212   1.576   5.998   5.859
10105SOL     OW31213   3.438   0.530   0.096
10105SOL    HW131214   3.351   0.483   0.112
10105SOL    HW231215   3.508   0.462   0.071
10106SOL     OW31216   5.216   5.221   1.732
10106SOL    HW131217   5.277   5.299   1.751
10106SOL    HW231218   5.200   5.215   1.633
10107SOL     OW31219   5.861   0.977   5.844
10107SOL    HW131220   5.872   0.950   5.749
10107SOL    HW231221   5.944   0.953   5.895
10108SOL     OW31222   5.913   6.327   6.734
10108SOL    HW131223   5.981   6.401   6.735
10108SOL    HW231224   5.840   6.348   6.798
10109SOL     OW31225   4.467   5.943   3.351
10109SOL    HW131226   4.481   5.882   3.429
10109SOL    HW231227   4.467   6.038   3.382
10110SOL     OW31228   3.322   1.285   5.346
10110SOL    HW131229   3.373   1.370   5.340
10110SOL    HW231230   3.383   1.208   5.327
10111SOL     OW31231   0.102   2.844   2.695
10111SOL    HW131232   0.017   2.895   2.681
10111SOL    HW231233   0.145   2.826   2.606
10112SOL     OW31234   3.994   3.414   5.975
10112SOL    HW131235   3.982   3.513   5.977
10112SOL    HW231236   4.016   3.385   5.882
10113SOL     OW31237   4.269   6.588   0.534
10113SOL    HW131238   4.264   6.509   0.595
10113SOL    HW231239   4.362   6.597   0.500
10114SOL     OW31240   4.375   1.571   1.582
10114SOL    HW131241   4.441   1.556   1.656
10114SOL    HW231242   4.327   1.658   1.598
10115SOL     OW31243   1.261   1.733   4.023
10115SOL    HW131244   1.161   1.740   4.020
10115SOL    HW231245   1.296   1.792   4.096
10116SOL     OW31246   0.541   0.525   0.679
10116SOL    HW131247   0.616   0.473   0.719
10116SOL    HW231248   0.466   0.530   0.745
10117SOL     OW31249   4.812   0.742   5.565
10117SOL    HW131250   4.789   0.655   5.609
10117SOL    HW231251   4.824   0.728   5.466
10118SOL     OW31252   6.064   4.982   2.325
10118SOL    HW131253   6.112   4.939   2.401
10118SOL    HW231254   6.108   5.070   2.304
10119SOL     OW31255   2.225   0.367   5.957
10119SOL    HW131256   2.241   0.286   6.014
10119SOL    HW231257   2.224   0.341   5.861
10120SOL     OW31258   5.842   3.335   3.847
10120SOL    HW131259   5.859   3.357   3.751
10120SOL    HW231260   5.749   3.299   3.856
10121SOL     OW31261   5.634   5.116   3.819
10121SOL    HW131262   5.635   5.117   3.919
10121SOL    HW231263   5.627   5.022   3.787
10122SOL     OW31264   5.188   3.169   6.718
10122SOL    HW131265   5.172   3.250   6.775
10122SOL    HW231266   5.104   3.116   6.710
10123SOL     OW31267   6.986   6.558   0.294
10123SOL    HW131268   7.011   6.606   0.210
10123SOL    HW231269   0.048   6.513   0.332
10124SOL     OW31270   2.875   4.091   1.182
10124SOL    HW131271   2.904   4.096   1.277
10124SOL    HW231272   2.781   4.125   1.174
10125SOL     OW31273   2.078   0.588   0.944
10125SOL    HW131274   2.042   0.513   0.999
10125SOL    HW231275   2.052   0.576   0.849
10126SOL     OW31276   5.366   5.115   6.718
10126SOL    HW131277   5.411   5.025   6.717
10126SOL    HW231278   5.390   5.163   6.802
10127SOL     OW31279   3.496   4.703   5.288
10127SOL    HW131280   3.460   4.762   5.216
10127SOL    HW231281   3.461   4.610   5.277
10128SOL     OW31282   0.206   2.079   1.637
10128SOL    HW131283   0.214   2.062   1.735
10128SOL    HW231284   0.116   2.047   1.606
10129SOL     OW31285   5.031   2.612   3.356
10129SOL    HW131286   5.006   2.697   3.309
10129SOL    HW231287   5.117   2.626   3.405
10130SOL     OW31288   6.240   6.020   1.205
10130SOL    HW131289   6.186   5.962   1.144
10130SOL    HW231290   6.205   6.114   1.200
10131SOL     OW31291   0.164   0.233   0.245
10131SOL    HW131292   0.196   0.167   0.313
10131SOL    HW231293   0.152   0.323   0.288
10132SOL     OW31294   2.310   7.000   2.665
10132SOL    HW131295   2.354   6.943   2.735
10132SOL    HW231296   2.242   0.041   2.709
10133SOL     OW31297   5.927   4.718   2.478
10133SOL    HW131298   5.913   4.638   2.419
10133SOL    HW231299   5.981   4.787   2.429
10134SOL     OW31300   0.292   1.556   1.870
10134SOL    HW131301   0.388   1.575   1.890
10134SOL    HW231302   0.261   1.617   1.796
10135SOL     OW31303   3.038   6.013   3.428
10135SOL    HW131304   3.057   5.992   3.524
10135SOL    HW231305   3.003   6.106   3.420
10136SOL     OW31306   6.555   6.690   2.196
10136SOL    HW131307   6.626   6.759   2.200
10136SOL    HW231308   6.494   6.709   2.119
10137SOL     OW31309   5.593   5.073   4.094
10137SOL    HW131310   5.557   4.992   4.139
10137SOL    HW231311   5.568   5.154   4.148
10138SOL     OW31312   5.193   2.432   6.153
10138SOL    HW131313   5.199   2.381   6.067
10138SOL    HW231314   5.099   2.463   6.166
10139SOL     OW31315   3.766   3.006   3.398
10139SOL    HW131316   3.692   2.942   3.377
10139SOL    HW231317   3.823   3.019   3.316
10140SOL     OW31318   0.966   5.539   4.477
10140SOL    HW131319   0.920   5.627   4.493
10140SOL    HW231320   0.962   5.517   4.380
10141SOL     OW31321   2.247   0.763   4.001
10141SOL    HW131322   2.310   0.839   3.986
10141SOL    HW231323   2.156   0.789   3.971
10142SOL     OW31324   5.023   5.913   4.107
10142SOL    HW131325   4.993   5.904   4.202
10142SOL    HW231326   5.102   5.974   4.104
10143SOL     OW31327   4.817   5.981   1.629
10143SOL    HW131328   4.853   6.013   1.541
10143SOL    HW231329   4.799   5.883   1.624
10144SOL     OW31330   2.636   4.854   3.046
10144SOL    HW131331   2.544   4.889   3.064
10144SOL    HW231332   2.676   4.820   3.131
10145SOL     OW31333   2.980   7.004   5.838
10145SOL    HW131334   2.981   0.066   5.777
10145SOL    HW231335   3.004   0.014   5.931
10146SOL     OW31336   5.211   4.899   3.988
10146SOL    HW131337   5.225   4.994   3.959
10146SOL    HW231338   5.146   4.896   4.064
10147SOL     OW31339   4.620   5.582   4.289
10147SOL    HW131340   4.652   5.636   4.367
10147SOL    HW231341   4.650   5.626   4.204
10148SOL     OW31342   6.189   4.960   0.278
10148SOL    HW131343   6.160   5.010   0.360
10148SOL    HW231344   6.168   4.863   0.289
10149SOL     OW31345   4.250   3.599   0.894
10149SOL    HW131346   4.322   3.540   0.930
10149SOL    HW231347   4.161   3.568   0.928
10150SOL     OW31348   5.478   4.143   0.972
10150SOL    HW131349   5.477   4.147   0.872
10150SOL    HW231350   5.544   4.210   1.007
10151SOL     OW31351   1.284   5.955   5.511
10151SOL    HW131352   1.280   6.054   5.495
10151SOL    HW231353   1.194   5.922   5.539
10152SOL     OW31354   0.161   5.629   3.860
10152SOL    HW131355   0.114   5.663   3.779
10152SOL    HW231356   0.142   5.532   3.871
10153SOL     OW31357   5.213   6.198   3.977
10153SOL    HW131358   5.234   6.143   4.058
10153SOL    HW231359   5.233   6.294   3.996
10154SOL     OW31360   6.587   5.778   5.633
10154SOL    HW131361   6.503   5.831   5.645
10154SOL    HW231362   6.641   5.782   5.717
10155SOL     OW31363   3.633   1.539   6.047
10155SOL    HW131364   3.716   1.508   6.000
10155SOL    HW231365   3.566   1.465   6.048
10156SOL     OW31366   5.556   7.015   2.328
10156SOL    HW131367   5.474   0.047   2.357
10156SOL    HW231368   5.625   0.061   2.295
10157SOL     OW31369   4.706   0.885   4.664
10157SOL    HW131370   4.719   0.790   4.693
10157SOL    HW231371   4.640   0.930   4.724
10158SOL     OW31372   4.497   3.593   5.957
10158SOL    HW131373   4.569   3.527   5.979
10158SOL    HW231374   4.539   3.678   5.925
10159SOL     OW31375   1.544   1.277   6.223
10159SOL    HW131376   1.642   1.289   6.233
10159SOL    HW231377   1.496   1.323   6.298
10160SOL     OW31378   0.831   5.977   3.106
10160SOL    HW131379   0.741   5.935   3.097
10160SOL    HW231380   0.892   5.915   3.155
10161SOL     OW31381   1.876   5.950   5.959
10161SOL    HW131382   1.778   5.965   5.971
10161SOL    HW231383   1.926   6.032   5.987
10162SOL     OW31384   3.313   2.435   6.709
10162SOL    HW131385   3.320   2.353   6.764
10162SOL    HW231386   3.256   2.503   6.756
10163SOL     OW31387   6.957   2.885   5.332
10163SOL    HW131388   6.881   2.823   5.349
10163SOL    HW231389   0.025   2.839   5.354
10164SOL     OW31390   1.230   2.531   5.296
10164SOL    HW131391   1.310   2.503   5.349
10164SOL    HW231392   1.222   2.473   5.215
10165SOL     OW31393   0.021   1.921   3.179
10165SOL    HW131394   0.117   1.894   3.169
10165SOL    HW231395   6.990   1.897   3.095
10166SOL     OW31396   0.703   1.231   1.974
10166SOL    HW131397   0.721   1.301   1.905
10166SOL    HW231398   0.633   1.264   2.037
10167SOL     OW31399   5.041   0.424   1.029
10167SOL    HW131400   5.107   0.439   0.955
10167SOL    HW231401   4.985   0.345   1.007
10168SOL     OW31402   6.772   4.652   4.603
10168SOL    HW131403   6.792   4.744   4.635
10168SOL    HW231404   6.848   4.591   4.625
10169SOL     OW31405   6.382   4.194   4.502
10169SOL    HW131406   6.475   4.199   4.539
10169SOL    HW231407   6.317   4.201   4.578
10170SOL     OW31408   1.449   3.838   4.855
10170SOL    HW131409   1.423   3.911   4.791
10170SOL    HW231410   1.366   3.801   4.898
10171SOL     OW31411   6.074   2.915   5.999
10171SOL    HW131412   6.140   2.959   6.060
10171SOL    HW231413   5.985   2.960   6.008
10172SOL     OW31414   4.637   1.175   4.225
10172SOL    HW131415   4.603   1.080   4.224
10172SOL    HW231416   4.737   1.174   4.226
10173SOL     OW31417   2.111   2.201   2.923
10173SOL    HW131418   2.139   2.273   2.986
10173SOL    HW231419   2.173   2.200   2.845
10174SOL     OW31420   5.862   4.124   0.688
10174SOL    HW131421   5.958   4.146   0.708
10174SOL    HW231422   5.808   4.133   0.771
10175SOL     OW31423   6.322   2.442   6.294
10175SOL    HW131424   6.248   2.479   6.350
10175SOL    HW231425   6.381   2.385   6.350
10176SOL     OW31426   2.291   3.674   0.267
10176SOL    HW131427   2.238   3.739   0.321
10176SOL    HW231428   2.284   3.583   0.308
10177SOL     OW31429   1.865   0.196   5.806
10177SOL    HW131430   1.958   0.231   5.805
10177SOL    HW231431   1.861   0.112   5.860
10178SOL     OW31432   5.518   3.024   5.523
10178SOL    HW131433   5.500   2.985   5.432
10178SOL    HW231434   5.574   2.961   5.576
10179SOL     OW31435   0.281   3.303   6.319
10179SOL    HW131436   0.206   3.298   6.385
10179SOL    HW231437   0.362   3.341   6.363
10180SOL     OW31438   2.321   6.631   5.995
10180SOL    HW131439   2.371   6.648   5.910
10180SOL    HW231440   2.313   6.716   6.046
10181SOL     OW31441   5.696   3.440   1.521
10181SOL    HW131442   5.706   3.521   1.579
10181SOL    HW231443   5.784   3.395   1.510
10182SOL     OW31444   4.355   1.395   0.357
10182SOL    HW131445   4.304   1.426   0.278
10182SOL    HW231446   4.452   1.417   0.345
10183SOL     OW31447   1.787   1.353   6.788
10183SOL    HW131448   1.767   1.399   6.875
10183SOL    HW231449   1.841   1.414   6.730
10184SOL     OW31450   4.599   0.435   6.776
10184SOL    HW131451   4.697   0.441   6.758
10184SOL    HW231452   4.580   0.356   6.834
10185SOL     OW31453   4.754   1.132   0.014
10185SOL    HW131454   4.703   1.109   6.950
10185SOL    HW231455   4.820   1.204   7.011
10186SOL     OW31456   4.503   2.156   3.023
10186SOL    HW131457   4.596   2.150   2.987
10186SOL    HW231458   4.444   2.205   2.958
10187SOL     OW31459   0.598   2.121   1.927
10187SOL    HW131460   0.696   2.137   1.919
10187SOL    HW231461   0.579   2.075   2.014
10188SOL     OW31462   3.843   4.640   0.852
10188SOL    HW131463   3.921   4.601   0.900
10188SOL    HW231464   3.765   4.577   0.858
10189SOL     OW31465   1.373   6.613   5.765
10189SOL    HW131466   1.334   6.705   5.770
10189SOL    HW231467   1.310   6.547   5.805
10190SOL     OW31468   4.749   2.388   0.039
10190SOL    HW131469   4.785   2.455   6.992
10190SOL    HW231470   4.712   2.436   0.118
10191SOL     OW31471   6.795   4.729   6.567
10191SOL    HW131472   6.802   4.793   6.490
10191SOL    HW231473   6.699   4.722   6.595
10192SOL     OW31474   3.702   1.572   0.421
10192SOL    HW131475   3.743   1.612   0.340
10192SOL    HW231476   3.704   1.472   0.414
10193SOL     OW31477   4.095   4.224   0.651
10193SOL    HW131478   4.028   4.291   0.619
10193SOL    HW231479   4.046   4.147   0.693
10194SOL     OW31480   5.008   2.968   5.385
10194SOL    HW131481   5.027   2.952   5.482
10194SOL    HW231482   5.084   3.020   5.345
10195SOL     OW31483   6.221   4.114   1.783
10195SOL    HW131484   6.190   4.092   1.690
10195SOL    HW231485   6.280   4.195   1.779
10196SOL     OW31486   0.360   1.510   4.830
10196SOL    HW131487   0.378   1.441   4.760
10196SOL    HW231488   0.382   1.473   4.920
10197SOL     OW31489   5.573   0.589   6.744
10197SOL    HW131490   5.615   0.529   6.675
10197SOL    HW231491   5.505   0.537   6.796
10198SOL     OW31492   4.437   6.959   3.163
10198SOL    HW131493   4.521   6.959   3.217
10198SOL    HW231494   4.365   6.908   3.212
10199SOL     OW31495   0.543   2.233   5.250
10199SOL    HW131496   0.461   2.279   5.216
10199SOL    HW231497   0.595   2.296   5.308
10200SOL     OW31498   5.326   1.761   1.729
10200SOL    HW131499   5.324   1.826   1.804
10200SOL    HW231500   5.240   1.765   1.678
10201SOL     OW31501   1.069   3.944   0.403
10201SOL    HW131502   1.124   3.944   0.486
10201SOL    HW231503   1.073   3.853   0.361
10202SOL     OW31504   5.222   0.635   4.459
10202SOL    HW131505   5.279   0.673   4.531
10202SOL    HW231506   5.158   0.705   4.426
10203SOL     OW31507   6.974   2.474   4.497
10203SOL    HW131508   7.017   2.508   4.581
10203SOL    HW231509   0.026   2.436   4.437
10204SOL     OW31510   5.642   5.012   6.476
10204SOL    HW131511   5.640   4.930   6.532
10204SOL    HW231512   5.713   5.004   6.406
10205SOL     OW31513   0.725   1.248   6.398
10205SOL    HW131514   0.777   1.325   6.434
10205SOL    HW231515   0.785   1.169   6.388
10206SOL     OW31516   1.534   1.109   4.957
10206SOL    HW131517   1.576   1.030   4.912
10206SOL    HW231518   1.511   1.085   5.052
10207SOL     OW31519   2.441   2.349   5.321
10207SOL    HW131520   2.451   2.249   5.326
10207SOL    HW231521   2.346   2.374   5.342
10208SOL     OW31522   6.846   6.339   5.447
10208SOL    HW131523   6.906   6.388   5.384
10208SOL    HW231524   6.897   6.315   5.530
10209SOL     OW31525   0.296   6.820   6.029
10209SOL    HW131526   0.394   6.809   6.046
10209SOL    HW231527   0.274   6.917   6.023
10210SOL     OW31528   3.401   0.442   1.678
10210SOL    HW131529   3.455   0.370   1.634
10210SOL    HW231530   3.456   0.487   1.747
10211SOL     OW31531   5.090   5.468   5.995
10211SOL    HW131532   5.006   5.450   6.046
10211SOL    HW231533   5.131   5.381   5.967
10212SOL     OW31534   0.758   0.480   6.553
10212SOL    HW131535   0.666   0.491   6.590
10212SOL    HW231536   0.772   0.385   6.526
10213SOL     OW31537   6.680   2.385   0.877
10213SOL    HW131538   6.721   2.306   0.924
10213SOL    HW231539   6.636   2.444   0.945
10214SOL     OW31540   1.315   2.432   0.246
10214SOL    HW131541   1.255   2.412   0.324
10214SOL    HW231542   1.310   2.356   0.181
10215SOL     OW31543   3.063   3.666   2.085
10215SOL    HW131544   3.003   3.603   2.035
10215SOL    HW231545   3.098   3.621   2.167
10216SOL     OW31546   0.650   6.220   1.871
10216SOL    HW131547   0.555   6.205   1.843
10216SOL    HW231548   0.711   6.198   1.794
10217SOL     OW31549   3.627   1.440   5.042
10217SOL    HW131550   3.543   1.435   4.989
10217SOL    HW231551   3.656   1.536   5.050
10218SOL     OW31552   0.810   3.368   2.592
10218SOL    HW131553   0.735   3.334   2.535
10218SOL    HW231554   0.884   3.300   2.593
10219SOL     OW31555   0.057   5.666   3.027
10219SOL    HW131556   0.059   5.666   3.127
10219SOL    HW231557   0.075   5.759   2.993
10220SOL     OW31558   3.492   3.362   0.196
10220SOL    HW131559   3.563   3.352   0.266
10220SOL    HW231560   3.404   3.332   0.233
10221SOL     OW31561   0.802   5.501   3.775
10221SOL    HW131562   0.897   5.471   3.783
10221SOL    HW231563   0.743   5.441   3.829
10222SOL     OW31564   3.441   3.748   3.629
10222SOL    HW131565   3.432   3.676   3.698
10222SOL    HW231566   3.422   3.837   3.671
10223SOL     OW31567   2.304   6.568   0.962
10223SOL    HW131568   2.358   6.557   1.045
10223SOL    HW231569   2.271   6.478   0.932
10224SOL     OW31570   6.444   3.738   2.990
10224SOL    HW131571   6.351   3.760   3.018
10224SOL    HW231572   6.470   3.796   2.912
10225SOL     OW31573   1.971   3.453   5.939
10225SOL    HW131574   2.023   3.531   5.904
10225SOL    HW231575   2.034   3.383   5.973
10226SOL     OW31576   5.177   4.200   0.156
10226SOL    HW131577   5.219   4.157   0.236
10226SOL    HW231578   5.125   4.280   0.185
10227SOL     OW31579   5.721   3.721   1.259
10227SOL    HW131580   5.808   3.680   1.231
10227SOL    HW231581   5.736   3.783   1.336
10228SOL     OW31582   5.137   0.439   0.776
10228SOL    HW131583   5.063   0.389   0.733
10228SOL    HW231584   5.223   0.421   0.728
10229SOL     OW31585   0.464   2.611   4.919
10229SOL    HW131586   0.499   2.532   4.869
10229SOL    HW231587   0.535   2.647   4.980
10230SOL     OW31588   6.513   6.044   1.280
10230SOL    HW131589   6.549   5.996   1.360
10230SOL    HW231590   6.415   6.024   1.270
10231SOL     OW31591   0.286   4.335   2.495
10231SOL    HW131592   0.292   4.265   2.425
10231SOL    HW231593   0.332   4.303   2.578
10232SOL     OW31594   4.961   4.420   2.832
10232SOL    HW131595   4.940   4.358   2.907
10232SOL    HW231596   4.913   4.507   2.845
10233SOL     OW31597   2.371   4.223   5.279
10233SOL    HW131598   2.382   4.191   5.373
10233SOL    HW231599   2.378   4.145   5.217
10234SOL     OW31600   1.091   1.138   2.239
10234SOL    HW131601   1.062   1.062   2.181
10234SOL    HW231602   1.173   1.112   2.289
10235SOL     OW31603   1.176   1.027   3.037
10235SOL    HW131604   1.240   0.980   2.975
10235SOL    HW231605   1.084   1.025   2.998
10236SOL     OW31606   1.439   6.872   2.583
10236SOL    HW131607   1.363   6.873   2.518
10236SOL    HW231608   1.405   6.851   2.674
10237SOL     OW31609   0.123   3.498   4.444
10237SOL    HW131610   0.198   3.465   4.501
10237SOL    HW231611   0.098   3.590   4.473
10238SOL     OW31612   2.681   6.920   1.522
10238SOL    HW131613   2.619   6.841   1.519
10238SOL    HW231614   2.639   6.992   1.576
10239SOL     OW31615   0.519   1.787   4.835
10239SOL    HW131616   0.460   1.850   4.786
10239SOL    HW231617   0.485   1.694   4.824
10240SOL     OW31618   2.023   6.089   0.988
10240SOL    HW131619   2.067   6.074   1.077
10240SOL    HW231620   2.026   6.186   0.966
10241SOL     OW31621   4.421   3.619   1.305
10241SOL    HW131622   4.361   3.540   1.292
10241SOL    HW231623   4.446   3.626   1.401
10242SOL     OW31624   6.811   3.030   0.578
10242SOL    HW131625   6.759   3.086   0.643
10242SOL    HW231626   6.797   2.933   0.599
10243SOL     OW31627   2.938   6.238   2.136
10243SOL    HW131628   2.931   6.141   2.157
10243SOL    HW231629   2.933   6.251   2.037
10244SOL     OW31630   3.044   5.130   1.707
10244SOL    HW131631   3.013   5.048   1.660
10244SOL    HW231632   3.101   5.105   1.785
10245SOL     OW31633   5.446   4.483   0.977
10245SOL    HW131634   5.347   4.492   0.987
10245SOL    HW231635   5.491   4.547   1.040
10246SOL     OW31636   3.376   3.205   4.213
10246SOL    HW131637   3.459   3.213   4.158
10246SOL    HW231638   3.382   3.266   4.292
10247SOL     OW31639   0.928   3.011   4.499
10247SOL    HW131640   0.911   2.976   4.591
10247SOL    HW231641   0.975   3.099   4.505
10248SOL     OW31642   0.631   1.036   5.415
10248SOL    HW131643   0.600   0.985   5.495
10248SOL    HW231644   0.574   1.117   5.403
10249SOL     OW31645   2.448   4.962   5.998
10249SOL    HW131646   2.411   4.908   5.923
10249SOL    HW231647   2.547   4.950   6.002
10250SOL     OW31648   3.063   2.248   0.771
10250SOL    HW131649   3.140   2.271   0.831
10250SOL    HW231650   3.011   2.331   0.750
10251SOL     OW31651   1.605   0.722   4.390
10251SOL    HW131652   1.646   0.713   4.299
10251SOL    HW231653   1.613   0.635   4.439
10252SOL     OW31654   4.541   4.642   5.732
10252SOL    HW131655   4.608   4.717   5.731
10252SOL    HW231656   4.473   4.658   5.660
10253SOL     OW31657   3.647   6.244   6.467
10253SOL    HW131658   3.592   6.192   6.532
10253SOL    HW231659   3.658   6.191   6.383
10254SOL     OW31660   6.660   1.473   5.738
10254SOL    HW131661   6.640   1.519   5.825
10254SOL    HW231662   6.578   1.471   5.681
10255SOL     OW31663   3.957   4.368   1.687
10255SOL    HW131664   4.009   4.318   1.618
10255SOL    HW231665   3.890   4.308   1.729
10256SOL     OW31666   3.787   1.282   4.691
10256SOL    HW131667   3.693   1.252   4.704
10256SOL    HW231668   3.791   1.351   4.619
10257SOL     OW31669   3.954   5.885   2.992
10257SOL    HW131670   4.031   5.842   3.038
10257SOL    HW231671   3.874   5.825   2.996
10258SOL     OW31672   2.714   1.346   2.678
10258SOL    HW131673   2.653   1.299   2.616
10258SOL    HW231674   2.661   1.410   2.735
10259SOL     OW31675   1.717   3.752   4.208
10259SOL    HW131676   1.659   3.820   4.162
10259SOL    HW231677   1.700   3.756   4.307
10260SOL     OW31678   0.051   0.000   2.996
10260SOL    HW131679   0.009   7.014   2.905
10260SOL    HW231680   0.139   0.048   2.989
10261SOL     OW31681   0.324   4.256   0.606
10261SOL    HW131682   0.242   4.282   0.656
10261SOL    HW231683   0.340   4.322   0.533
10262SOL     OW31684   3.734   0.840   6.688
10262SOL    HW131685   3.804   0.911   6.677
10262SOL    HW231686   3.751   0.766   6.623
10263SOL     OW31687   5.870   0.867   2.852
10263SOL    HW131688   5.894   0.814   2.933
10263SOL    HW231689   5.804   0.938   2.877
10264SOL     OW31690   6.844   0.212   6.284
10264SOL    HW131691   6.890   0.126   6.260
10264SOL    HW231692   6.760   0.192   6.335
10265SOL     OW31693   1.792   1.860   1.932
10265SOL    HW131694   1.722   1.927   1.955
10265SOL    HW231695   1.858   1.853   2.008
10266SOL     OW31696   2.657   3.484   1.762
10266SOL    HW131697   2.692   3.560   1.708
10266SOL    HW231698   2.563   3.503   1.790
10267SOL     OW31699   6.500   0.409   0.524
10267SOL    HW131700   6.465   0.317   0.545
10267SOL    HW231701   6.441   0.477   0.566
10268SOL     OW31702   3.483   5.943   2.276
10268SOL    HW131703   3.447   5.851   2.261
10268SOL    HW231704   3.578   5.947   2.245
10269SOL     OW31705   2.050   1.598   0.780
10269SOL    HW131706   2.148   1.613   0.793
10269SOL    HW231707   2.034   1.510   0.736
10270SOL     OW31708   2.447   0.114   3.531
10270SOL    HW131709   2.462   0.203   3.574
10270SOL    HW231710   2.375   0.064   3.579
10271SOL     OW31711   2.316   1.183   6.973
10271SOL    HW131712   2.365   1.100   6.945
10271SOL    HW231713   2.217   1.166   6.968
10272SOL     OW31714   6.118   0.078   4.259
10272SOL    HW131715   6.030   0.078   4.211
10272SOL    HW231716   6.184   0.133   4.209
10273SOL     OW31717   2.057   5.444   3.789
10273SOL    HW131718   2.135   5.493   3.749
10273SOL    HW231719   2.045   5.357   3.743
10274SOL     OW31720   0.724   4.226   4.857
10274SOL    HW131721   0.743   4.138   4.813
10274SOL    HW231722   0.626   4.234   4.875
10275SOL     OW31723   6.440   1.213   2.055
10275SOL    HW131724   6.363   1.267   2.022
10275SOL    HW231725   6.514   1.217   1.988
10276SOL     OW31726   2.766   5.683   5.190
10276SOL    HW131727   2.740   5.780   5.188
10276SOL    HW231728   2.844   5.668   5.131
10277SOL     OW31729   1.230   6.089   3.817
10277SOL    HW131730   1.227   6.005   3.763
10277SOL    HW231731   1.310   6.087   3.877
10278SOL     OW31732   6.392   0.172   4.412
10278SOL    HW131733   6.422   0.121   4.332
10278SOL    HW231734   6.428   0.265   4.408
10279SOL     OW31735   1.304   5.601   3.936
10279SOL    HW131736   1.363   5.596   3.856
10279SOL    HW231737   1.353   5.568   4.017
10280SOL     OW31738   6.374   4.786   0.617
10280SOL    HW131739   6.421   4.735   0.545
10280SOL    HW231740   6.359   4.880   0.586
10281SOL     OW31741   6.490   0.919   3.202
10281SOL    HW131742   6.523   0.889   3.292
10281SOL    HW231743   6.519   0.853   3.133
10282SOL     OW31744   4.989   2.937   3.307
10282SOL    HW131745   4.974   3.023   3.357
10282SOL    HW231746   4.980   2.954   3.209
10283SOL     OW31747   0.398   2.492   1.345
10283SOL    HW131748   0.484   2.533   1.315
10283SOL    HW231749   0.338   2.480   1.266
10284SOL     OW31750   0.188   4.254   4.029
10284SOL    HW131751   0.140   4.338   4.004
10284SOL    HW231752   0.185   4.190   3.952
10285SOL     OW31753   6.628   6.509   6.103
10285SOL    HW131754   6.554   6.492   6.169
10285SOL    HW231755   6.626   6.439   6.032
10286SOL     OW31756   2.626   1.393   3.050
10286SOL    HW131757   2.578   1.455   2.987
10286SOL    HW231758   2.640   1.439   3.138
10287SOL     OW31759   1.423   5.274   2.628
10287SOL    HW131760   1.387   5.184   2.600
10287SOL    HW231761   1.497   5.301   2.566
10288SOL     OW31762   3.608   5.797   4.806
10288SOL    HW131763   3.595   5.887   4.766
10288SOL    HW231764   3.667   5.804   4.886
10289SOL     OW31765   4.046   6.308   0.069
10289SOL    HW131766   4.004   6.387   0.025
10289SOL    HW231767   4.088   6.337   0.155
10290SOL     OW31768   3.292   3.273   1.961
10290SOL    HW131769   3.222   3.337   1.929
10290SOL    HW231770   3.255   3.180   1.957
10291SOL     OW31771   2.469   1.660   2.521
10291SOL    HW131772   2.568   1.678   2.523
10291SOL    HW231773   2.441   1.639   2.428
10292SOL     OW31774   6.992   6.715   6.161
10292SOL    HW131775   0.062   6.714   6.115
10292SOL    HW231776   6.969   6.809   6.189
10293SOL     OW31777   1.234   3.949   5.217
10293SOL    HW131778   1.271   3.858   5.204
10293SOL    HW231779   1.299   4.017   5.185
10294SOL     OW31780   3.156   0.512   2.361
10294SOL    HW131781   3.059   0.490   2.364
10294SOL    HW231782   3.203   0.445   2.303
10295SOL     OW31783   1.167   1.432   6.985
10295SOL    HW131784   1.100   1.488   0.016
10295SOL    HW231785   1.236   1.398   0.030
10296SOL     OW31786   6.269   2.031   5.902
10296SOL    HW131787   6.222   1.955   5.946
10296SOL    HW231788   6.360   2.002   5.873
10297SOL     OW31789   3.905   1.081   0.808
10297SOL    HW131790   3.815   1.108   0.841
10297SOL    HW231791   3.935   1.145   0.737
10298SOL     OW31792   0.423   2.302   2.167
10298SOL    HW131793   0.340   2.308   2.223
10298SOL    HW231794   0.446   2.206   2.151
10299SOL     OW31795   4.590   0.155   2.712
10299SOL    HW131796   4.553   0.234   2.761
10299SOL    HW231797   4.563   0.071   2.758
10300SOL     OW31798   1.431   3.468   0.864
10300SOL    HW131799   1.500   3.408   0.825
10300SOL    HW231800   1.398   3.431   0.950
10301SOL     OW31801   3.858   0.703   0.006
10301SOL    HW131802   3.761   0.716   0.025
10301SOL    HW231803   3.909   0.702   0.093
10302SOL     OW31804   2.973   6.466   4.938
10302SOL    HW131805   2.968   6.367   4.949
10302SOL    HW231806   2.916   6.510   5.007
10303SOL     OW31807   0.421   4.988   4.454
10303SOL    HW131808   0.393   4.925   4.381
10303SOL    HW231809   0.476   4.939   4.521
10304SOL     OW31810   5.750   6.358   0.802
10304SOL    HW131811   5.712   6.436   0.852
10304SOL    HW231812   5.696   6.276   0.821
10305SOL     OW31813   3.129   3.751   5.787
10305SOL    HW131814   3.094   3.721   5.698
10305SOL    HW231815   3.133   3.673   5.850
10306SOL     OW31816   3.950   0.396   0.957
10306SOL    HW131817   3.900   0.314   0.985
10306SOL    HW231818   3.886   0.470   0.939
10307SOL     OW31819   1.797   0.275   5.357
10307SOL    HW131820   1.712   0.238   5.394
10307SOL    HW231821   1.815   0.234   5.267
10308SOL     OW31822   3.026   4.666   1.718
10308SOL    HW131823   3.125   4.660   1.729
10308SOL    HW231824   2.982   4.596   1.774
10309SOL     OW31825   0.150   0.761   5.784
10309SOL    HW131826   0.135   0.703   5.704
10309SOL    HW231827   0.186   0.850   5.754
10310SOL     OW31828   2.901   3.995   5.736
10310SOL    HW131829   2.945   4.019   5.822
10310SOL    HW231830   2.911   3.896   5.720
10311SOL     OW31831   5.281   5.697   6.859
10311SOL    HW131832   5.289   5.598   6.850
10311SOL    HW231833   5.247   5.736   6.773
10312SOL     OW31834   3.476   6.574   2.542
10312SOL    HW131835   3.524   6.548   2.459
10312SOL    HW231836   3.532   6.638   2.595
10313SOL     OW31837   5.226   6.943   2.639
10313SOL    HW131838   5.259   6.999   2.715
10313SOL    HW231839   5.243   6.846   2.659
10314SOL     OW31840   0.341   0.255   0.891
10314SOL    HW131841   0.279   0.205   0.831
10314SOL    HW231842   0.435   0.242   0.860
10315SOL     OW31843   5.423   5.628   3.623
10315SOL    HW131844   5.438   5.530   3.639
10315SOL    HW231845   5.408   5.643   3.525
10316SOL     OW31846   0.470   1.574   0.021
10316SOL    HW131847   0.514   1.494   6.999
10316SOL    HW231848   0.511   1.592   0.111
10317SOL     OW31849   3.377   6.036   4.947
10317SOL    HW131850   3.290   5.992   4.922
10317SOL    HW231851   3.401   6.013   5.041
10318SOL     OW31852   6.508   0.491   0.259
10318SOL    HW131853   6.499   0.461   0.354
10318SOL    HW231854   6.461   0.579   0.248
10319SOL     OW31855   0.652   4.090   3.930
10319SOL    HW131856   0.580   4.072   3.997
10319SOL    HW231857   0.612   4.129   3.848
10320SOL     OW31858   6.994   6.829   3.190
10320SOL    HW131859   7.001   6.897   3.118
10320SOL    HW231860   7.006   6.737   3.151
10321SOL     OW31861   5.794   3.190   2.460
10321SOL    HW131862   5.724   3.151   2.400
10321SOL    HW231863   5.874   3.214   2.406
10322SOL     OW31864   4.583   4.560   4.944
10322SOL    HW131865   4.625   4.470   4.952
10322SOL    HW231866   4.486   4.555   4.970
10323SOL     OW31867   1.075   3.927   5.993
10323SOL    HW131868   1.172   3.942   6.013
10323SOL    HW231869   1.020   3.997   6.040
10324SOL     OW31870   3.121   3.000   2.515
10324SOL    HW131871   3.163   2.972   2.601
10324SOL    HW231872   3.188   2.989   2.441
10325SOL     OW31873   5.929   5.993   4.485
10325SOL    HW131874   5.935   5.916   4.548
10325SOL    HW231875   6.013   6.047   4.489
10326SOL     OW31876   5.268   3.499   6.530
10326SOL    HW131877   5.346   3.538   6.481
10326SOL    HW231878   5.252   3.406   6.499
10327SOL     OW31879   2.613   5.319   0.016
10327SOL    HW131880   2.536   5.383   0.007
10327SOL    HW231881   2.699   5.369   0.006
10328SOL     OW31882   5.527   2.212   2.045
10328SOL    HW131883   5.517   2.276   2.121
10328SOL    HW231884   5.534   2.119   2.081
10329SOL     OW31885   3.652   1.833   2.124
10329SOL    HW131886   3.555   1.811   2.111
10329SOL    HW231887   3.694   1.765   2.184
10330SOL     OW31888   5.537   0.626   1.795
10330SOL    HW131889   5.609   0.562   1.822
10330SOL    HW231890   5.474   0.639   1.872
10331SOL     OW31891   5.828   6.168   5.816
10331SOL    HW131892   5.827   6.130   5.909
10331SOL    HW231893   5.823   6.268   5.821
10332SOL     OW31894   1.412   1.727   6.250
10332SOL    HW131895   1.355   1.803   6.221
10332SOL    HW231896   1.504   1.761   6.272
10333SOL     OW31897   1.602   3.553   4.558
10333SOL    HW131898   1.543   3.487   4.606
10333SOL    HW231899   1.571   3.646   4.577
10334SOL     OW31900   3.131   1.434   4.092
10334SOL    HW131901   3.215   1.482   4.067
10334SOL    HW231902   3.052   1.489   4.066
10335SOL     OW31903   1.193   2.438   5.029
10335SOL    HW131904   1.140   2.497   4.969
10335SOL    HW231905   1.278   2.413   4.984
10336SOL     OW31906   5.578   0.039   2.977
10336SOL    HW131907   5.593   0.101   3.055
10336SOL    HW231908   5.613   0.081   2.894
10337SOL     OW31909   6.663   5.678   6.881
10337SOL    HW131910   6.645   5.636   6.970
10337SOL    HW231911   6.746   5.639   6.842
10338SOL     OW31912   1.150   6.677   1.416
10338SOL    HW131913   1.239   6.706   1.382
10338SOL    HW231914   1.162   6.605   1.485
10339SOL     OW31915   5.994   2.400   5.839
10339SOL    HW131916   6.056   2.462   5.790
10339SOL    HW231917   5.901   2.414   5.807
10340SOL     OW31918   2.048   3.964   6.039
10340SOL    HW131919   2.048   4.001   5.946
10340SOL    HW231920   2.029   4.037   6.105
10341SOL     OW31921   2.446   4.431   3.735
10341SOL    HW131922   2.494   4.477   3.660
10341SOL    HW231923   2.489   4.457   3.822
10342SOL     OW31924   0.717   0.831   3.510
10342SOL    HW131925   0.765   0.861   3.593
10342SOL    HW231926   0.698   0.733   3.517
10343SOL     OW31927   3.870   5.454   1.818
10343SOL    HW131928   3.854   5.453   1.719
10343SOL    HW231929   3.818   5.528   1.860
10344SOL     OW31930   4.447   6.674   0.091
10344SOL    HW131931   4.353   6.640   0.089
10344SOL    HW231932   4.449   6.763   0.136
10345SOL     OW31933   2.068   3.849   4.108
10345SOL    HW131934   2.117   3.925   4.152
10345SOL    HW231935   1.982   3.834   4.156
10346SOL     OW31936   7.002   6.188   0.209
10346SOL    HW131937   6.921   6.244   0.193
10346SOL    HW231938   0.043   6.190   0.128
10347SOL     OW31939   5.692   1.869   5.062
10347SOL    HW131940   5.658   1.938   4.998
10347SOL    HW231941   5.758   1.911   5.124
10348SOL     OW31942   6.679   4.942   1.138
10348SOL    HW131943   6.654   4.920   1.232
10348SOL    HW231944   6.777   4.960   1.133
10349SOL     OW31945   0.650   6.533   6.140
10349SOL    HW131946   0.593   6.556   6.061
10349SOL    HW231947   0.740   6.576   6.129
10350SOL     OW31948   3.314   1.090   6.465
10350SOL    HW131949   3.235   1.095   6.404
10350SOL    HW231950   3.372   1.014   6.438
10351SOL     OW31951   3.880   5.296   6.386
10351SOL    HW131952   3.840   5.306   6.477
10351SOL    HW231953   3.978   5.315   6.390
10352SOL     OW31954   3.867   3.855   6.571
10352SOL    HW131955   3.768   3.847   6.582
10352SOL    HW231956   3.897   3.796   6.496
10353SOL     OW31957   0.678   2.989   4.714
10353SOL    HW131958   0.771   2.974   4.750
10353SOL    HW231959   0.629   2.902   4.712
10354SOL     OW31960   5.664   1.642   1.081
10354SOL    HW131961   5.646   1.561   1.025
10354SOL    HW231962   5.756   1.634   1.122
10355SOL     OW31963   1.251   4.795   3.034
10355SOL    HW131964   1.265   4.888   3.069
10355SOL    HW231965   1.310   4.732   3.084
10356SOL     OW31966   0.055   2.205   4.587
10356SOL    HW131967   7.004   2.132   4.587
10356SOL    HW231968   0.014   2.289   4.623
10357SOL     OW31969   3.578   2.696   6.907
10357SOL    HW131970   3.539   2.745   6.829
10357SOL    HW231971   3.656   2.641   6.875
10358SOL     OW31972   0.112   1.420   2.347
10358SOL    HW131973   0.022   1.412   2.391
10358SOL    HW231974   0.170   1.343   2.374
10359SOL     OW31975   0.902   1.281   1.105
10359SOL    HW131976   0.962   1.296   1.184
10359SOL    HW231977   0.810   1.313   1.127
10360SOL     OW31978   0.344   4.628   2.756
10360SOL    HW131979   0.296   4.540   2.763
10360SOL    HW231980   0.290   4.690   2.699
10361SOL     OW31981   1.999   4.847   1.414
10361SOL    HW131982   2.053   4.777   1.369
10361SOL    HW231983   2.059   4.920   1.448
10362SOL     OW31984   1.493   4.645   5.213
10362SOL    HW131985   1.417   4.647   5.277
10362SOL    HW231986   1.556   4.721   5.232
10363SOL     OW31987   5.772   7.001   3.415
10363SOL    HW131988   5.720   0.067   3.424
10363SOL    HW231989   5.852   7.017   3.358
10364SOL     OW31990   1.585   3.620   1.219
10364SOL    HW131991   1.626   3.569   1.144
10364SOL    HW231992   1.638   3.703   1.236
10365SOL     OW31993   4.780   5.190   6.851
10365SOL    HW131994   4.859   5.150   6.898
10365SOL    HW231995   4.765   5.283   6.885
10366SOL     OW31996   3.754   6.390   3.688
10366SOL    HW131997   3.775   6.294   3.669
10366SOL    HW231998   3.821   6.427   3.752
10367SOL     OW31999   6.578   1.593   3.314
10367SOL    HW132000   6.615   1.501   3.298
10367SOL    HW232001   6.576   1.644   3.227
10368SOL     OW32002   2.553   0.312   1.344
10368SOL    HW132003   2.477   0.283   1.286
10368SOL    HW232004   2.558   0.412   1.344
10369SOL     OW32005   4.343   2.658   0.380
10369SOL    HW132006   4.292   2.698   0.304
10369SOL    HW232007   4.390   2.575   0.349
10370SOL     OW32008   4.080   1.215   5.070
10370SOL    HW132009   4.078   1.124   5.112
10370SOL    HW232010   3.990   1.237   5.033
10371SOL     OW32011   5.369   6.592   5.440
10371SOL    HW132012   5.349   6.533   5.362
10371SOL    HW232013   5.345   6.545   5.525
10372SOL     OW32014   1.219   0.426   3.685
10372SOL    HW132015   1.310   0.432   3.644
10372SOL    HW232016   1.167   0.354   3.640
10373SOL     OW32017   1.500   5.156   5.009
10373SOL    HW132018   1.544   5.088   4.950
10373SOL    HW232019   1.422   5.114   5.056
10374SOL     OW32020   2.973   1.770   3.808
10374SOL    HW132021   2.916   1.754   3.728
10374SOL    HW232022   2.950   1.858   3.849
10375SOL     OW32023   0.143   1.741   0.603
10375SOL    HW132024   0.167   1.716   0.697
10375SOL    HW232025   0.124   1.839   0.598
10376SOL     OW32026   6.804   0.181   3.484
10376SOL    HW132027   6.840   0.164   3.576
10376SOL    HW232028   6.781   0.093   3.441
10377SOL     OW32029   0.443   6.397   4.300
10377SOL    HW132030   0.454   6.322   4.234
10377SOL    HW232031   0.347   6.405   4.326
10378SOL     OW32032   6.114   6.389   5.667
10378SOL    HW132033   6.177   6.439   5.726
10378SOL    HW232034   6.028   6.375   5.715
10379SOL     OW32035   4.463   1.947   4.601
10379SOL    HW132036   4.553   1.980   4.573
10379SOL    HW232037   4.470   1.851   4.629
10380SOL     OW32038   4.043   1.163   3.813
10380SOL    HW132039   3.974   1.118   3.871
10380SOL    HW232040   4.112   1.096   3.785
10381SOL     OW32041   4.119   5.336   4.856
10381SOL    HW132042   4.035   5.294   4.821
10381SOL    HW232043   4.198   5.283   4.827
10382SOL     OW32044   1.061   5.715   0.257
10382SOL    HW132045   1.127   5.657   0.208
10382SOL    HW232046   0.971   5.672   0.255
10383SOL     OW32047   5.410   2.419   0.483
10383SOL    HW132048   5.431   2.516   0.484
10383SOL    HW232049   5.416   2.383   0.390
10384SOL     OW32050   5.686   1.227   6.708
10384SOL    HW132051   5.699   1.171   6.626
10384SOL    HW232052   5.674   1.167   6.787
10385SOL     OW32053   6.859   2.311   0.019
10385SOL    HW132054   6.775   2.256   0.009
10385SOL    HW232055   6.905   2.317   6.949
10386SOL     OW32056   6.822   1.688   6.143
10386SOL    HW132057   6.762   1.624   6.096
10386SOL    HW232058   6.889   1.725   6.079
10387SOL     OW32059   1.429   3.997   2.351
10387SOL    HW132060   1.443   3.916   2.294
10387SOL    HW232061   1.443   3.974   2.447
10388SOL     OW32062   2.033   4.452   2.657
10388SOL    HW132063   2.027   4.460   2.558
10388SOL    HW232064   1.944   4.423   2.693
10389SOL     OW32065   0.958   5.799   3.326
10389SOL    HW132066   1.008   5.743   3.392
10389SOL    HW232067   0.868   5.821   3.363
10390SOL     OW32068   2.195   3.973   3.672
10390SOL    HW132069   2.104   3.963   3.710
10390SOL    HW232070   2.236   4.058   3.706
10391SOL     OW32071   3.718   6.316   4.715
10391SOL    HW132072   3.766   6.282   4.635
10391SOL    HW232073   3.689   6.410   4.699
10392SOL     OW32074   6.199   5.414   6.395
10392SOL    HW132075   6.196   5.400   6.494
10392SOL    HW232076   6.124   5.475   6.368
10393SOL     OW32077   0.451   0.904   4.782
10393SOL    HW132078   0.393   0.957   4.719
10393SOL    HW232079   0.545   0.904   4.749
10394SOL     OW32080   3.350   0.075   1.179
10394SOL    HW132081   3.266   0.067   1.233
10394SOL    HW232082   3.405   7.010   1.191
10395SOL     OW32083   1.573   1.177   4.125
10395SOL    HW132084   1.568   1.245   4.052
10395SOL    HW232085   1.667   1.166   4.154
10396SOL     OW32086   0.431   0.074   4.926
10396SOL    HW132087   0.456   0.131   5.004
10396SOL    HW232088   0.358   0.119   4.874
10397SOL     OW32089   4.269   2.045   2.575
10397SOL    HW132090   4.354   2.087   2.606
10397SOL    HW232091   4.209   2.115   2.535
10398SOL     OW32092   6.586   3.078   1.950
10398SOL    HW132093   6.647   3.046   1.877
10398SOL    HW232094   6.640   3.101   2.030
10399SOL     OW32095   6.231   3.050   5.372
10399SOL    HW132096   6.132   3.060   5.381
10399SOL    HW232097   6.274   3.064   5.462
10400SOL     OW32098   1.527   5.013   1.926
10400SOL    HW132099   1.522   4.985   1.830
10400SOL    HW232100   1.532   4.932   1.985
10401SOL     OW32101   1.151   5.212   1.226
10401SOL    HW132102   1.108   5.173   1.144
10401SOL    HW232103   1.094   5.191   1.306
10402SOL     OW32104   0.828   2.091   4.654
10402SOL    HW132105   0.866   2.000   4.669
10402SOL    HW232106   0.765   2.114   4.728
10403SOL     OW32107   5.604   0.823   2.455
10403SOL    HW132108   5.689   0.778   2.428
10403SOL    HW232109   5.586   0.806   2.552
10404SOL     OW32110   6.903   0.411   4.699
10404SOL    HW132111   6.836   0.481   4.724
10404SOL    HW232112   6.932   0.425   4.604
10405SOL     OW32113   2.933   6.932   6.904
10405SOL    HW132114   2.980   6.858   6.954
10405SOL    HW232115   2.906   7.003   6.969
10406SOL     OW32116   2.162   5.882   5.571
10406SOL    HW132117   2.065   5.859   5.581
10406SOL    HW232118   2.182   5.962   5.628
10407SOL     OW32119   1.791   1.372   6.224
10407SOL    HW132120   1.842   1.296   6.262
10407SOL    HW232121   1.831   1.458   6.256
10408SOL     OW32122   3.844   6.902   3.002
10408SOL    HW132123   3.799   6.845   3.070
10408SOL    HW232124   3.823   6.998   3.020
10409SOL     OW32125   6.457   4.817   2.507
10409SOL    HW132126   6.455   4.794   2.409
10409SOL    HW232127   6.538   4.872   2.527
10410SOL     OW32128   4.881   5.585   1.353
10410SOL    HW132129   4.869   5.528   1.272
10410SOL    HW232130   4.943   5.660   1.331
10411SOL     OW32131   1.906   4.663   2.232
10411SOL    HW132132   1.858   4.738   2.187
10411SOL    HW232133   1.921   4.686   2.328
10412SOL     OW32134   0.697   2.201   6.747
10412SOL    HW132135   0.753   2.284   6.751
10412SOL    HW232136   0.617   2.218   6.690
10413SOL     OW32137   6.726   1.630   4.947
10413SOL    HW132138   6.760   1.538   4.930
10413SOL    HW232139   6.762   1.664   5.034
10414SOL     OW32140   5.663   6.190   5.070
10414SOL    HW132141   5.584   6.176   5.011
10414SOL    HW232142   5.632   6.221   5.160
10415SOL     OW32143   0.044   5.603   3.315
10415SOL    HW132144   6.984   5.590   3.376
10415SOL    HW232145   0.072   5.515   3.277
10416SOL     OW32146   4.929   0.595   0.608
10416SOL    HW132147   4.897   0.685   0.577
10416SOL    HW232148   4.993   0.606   0.683
10417SOL     OW32149   4.668   4.358   4.185
10417SOL    HW132150   4.657   4.309   4.098
10417SOL    HW232151   4.718   4.301   4.250
10418SOL     OW32152   6.021   3.522   7.013
10418SOL    HW132153   6.105   3.474   0.020
10418SOL    HW232154   5.945   3.486   0.049
10419SOL     OW32155   1.578   0.478   4.834
10419SOL    HW132156   1.581   0.554   4.769
10419SOL    HW232157   1.661   0.423   4.825
10420SOL     OW32158   6.290   3.861   4.326
10420SOL    HW132159   6.370   3.827   4.278
10420SOL    HW232160   6.266   3.952   4.291
10421SOL     OW32161   0.468   3.690   4.413
10421SOL    HW132162   0.539   3.758   4.432
10421SOL    HW232163   0.381   3.721   4.452
10422SOL     OW32164   5.491   3.284   5.565
10422SOL    HW132165   5.511   3.187   5.552
10422SOL    HW232166   5.490   3.330   5.476
10423SOL     OW32167   2.548   5.325   2.335
10423SOL    HW132168   2.478   5.265   2.296
10423SOL    HW232169   2.633   5.313   2.284
10424SOL     OW32170   4.353   0.918   2.066
10424SOL    HW132171   4.450   0.911   2.088
10424SOL    HW232172   4.323   1.013   2.076
10425SOL     OW32173   0.824   4.081   0.359
10425SOL    HW132174   0.873   3.999   0.388
10425SOL    HW232175   0.780   4.124   0.438
10426SOL     OW32176   6.767   1.902   0.269
10426SOL    HW132177   6.700   1.837   0.232
10426SOL    HW232178   6.726   1.994   0.272
10427SOL     OW32179   6.076   0.651   3.816
10427SOL    HW132180   6.148   0.639   3.748
10427SOL    HW232181   6.116   0.670   3.905
10428SOL     OW32182   1.849   6.528   4.586
10428SOL    HW132183   1.870   6.489   4.497
10428SOL    HW232184   1.864   6.460   4.658
10429SOL     OW32185   2.373   4.132   1.716
10429SOL    HW132186   2.414   4.223   1.715
10429SOL    HW232187   2.380   4.092   1.625
10430SOL     OW32188   3.751   0.084   4.278
10430SOL    HW132189   3.694   0.149   4.229
10430SOL    HW232190   3.841   0.125   4.295
10431SOL     OW32191   4.122   2.258   4.043
10431SOL    HW132192   4.043   2.288   3.990
10431SOL    HW232193   4.107   2.164   4.074
10432SOL     OW32194   0.526   4.954   0.437
10432SOL    HW132195   0.587   5.034   0.433
10432SOL    HW232196   0.579   4.871   0.419
10433SOL     OW32197   3.768   6.469   4.300
10433SOL    HW132198   3.691   6.521   4.338
10433SOL    HW232199   3.851   6.492   4.351
10434SOL     OW32200   4.063   1.261   7.006
10434SOL    HW132201   4.055   1.171   6.964
10434SOL    HW232202   3.974   1.289   0.025
10435SOL     OW32203   2.592   1.281   1.613
10435SOL    HW132204   2.594   1.356   1.679
10435SOL    HW232205   2.646   1.305   1.533
10436SOL     OW32206   1.079   3.637   5.197
10436SOL    HW132207   1.156   3.602   5.251
10436SOL    HW232208   1.032   3.708   5.249
10437SOL     OW32209   6.960   6.528   4.820
10437SOL    HW132210   6.994   6.609   4.867
10437SOL    HW232211   6.930   6.554   4.728
10438SOL     OW32212   6.690   5.328   6.575
10438SOL    HW132213   6.760   5.319   6.645
10438SOL    HW232214   6.644   5.239   6.563
10439SOL     OW32215   6.039   5.547   4.405
10439SOL    HW132216   6.027   5.510   4.313
10439SOL    HW232217   6.096   5.484   4.459
10440SOL     OW32218   6.192   2.743   1.139
10440SOL    HW132219   6.151   2.652   1.132
10440SOL    HW232220   6.185   2.789   1.050
10441SOL     OW32221   4.517   1.890   6.728
10441SOL    HW132222   4.540   1.917   6.822
10441SOL    HW232223   4.431   1.838   6.729
10442SOL     OW32224   2.432   0.901   5.088
10442SOL    HW132225   2.490   0.954   5.150
10442SOL    HW232226   2.403   0.959   5.012
10443SOL     OW32227   0.820   0.629   7.002
10443SOL    HW132228   0.915   0.597   7.008
10443SOL    HW232229   0.795   0.676   0.069
10444SOL     OW32230   4.236   5.178   3.565
10444SOL    HW132231   4.299   5.250   3.535
10444SOL    HW232232   4.161   5.170   3.500
10445SOL     OW32233   1.042   3.700   4.004
10445SOL    HW132234   0.982   3.686   3.925
10445SOL    HW232235   1.110   3.626   4.008
10446SOL     OW32236   2.372   4.932   4.806
10446SOL    HW132237   2.332   4.857   4.753
10446SOL    HW232238   2.453   4.966   4.760
10447SOL     OW32239   1.326   2.106   2.777
10447SOL    HW132240   1.313   2.203   2.797
10447SOL    HW232241   1.362   2.060   2.858
10448SOL     OW32242   1.069   5.599   2.565
10448SOL    HW132243   1.167   5.587   2.584
10448SOL    HW232244   1.054   5.691   2.528
10449SOL     OW32245   3.819   4.953   4.772
10449SOL    HW132246   3.918   4.938   4.762
10449SOL    HW232247   3.773   4.865   4.784
10450SOL     OW32248   0.804   2.015   3.766
10450SOL    HW132249   0.863   2.083   3.810
10450SOL    HW232250   0.712   2.052   3.754
10451SOL     OW32251   3.043   1.594   4.426
10451SOL    HW132252   3.026   1.671   4.365
10451SOL    HW232253   2.994   1.607   4.512
10452SOL     OW32254   6.743   2.417   4.398
10452SOL    HW132255   6.833   2.451   4.425
10452SOL    HW232256   6.672   2.471   4.443
10453SOL     OW32257   3.376   5.200   4.278
10453SOL    HW132258   3.442   5.130   4.251
10453SOL    HW232259   3.363   5.265   4.203
10454SOL     OW32260   6.898   1.205   6.961
10454SOL    HW132261   6.832   1.265   6.916
10454SOL    HW232262   6.951   1.259   0.009
10455SOL     OW32263   0.527   6.235   2.338
10455SOL    HW132264   0.482   6.304   2.281
10455SOL    HW232265   0.461   6.196   2.402
10456SOL     OW32266   1.655   5.386   6.571
10456SOL    HW132267   1.726   5.358   6.636
10456SOL    HW232268   1.697   5.401   6.481
10457SOL     OW32269   4.026   1.255   0.634
10457SOL    HW132270   4.061   1.331   0.688
10457SOL    HW232271   4.102   1.209   0.587
10458SOL     OW32272   1.535   6.415   0.338
10458SOL    HW132273   1.437   6.434   0.346
10458SOL    HW232274   1.577   6.418   0.429
10459SOL     OW32275   5.735   6.066   1.513
10459SOL    HW132276   5.684   6.152   1.513
10459SOL    HW232277   5.671   5.989   1.508
10460SOL     OW32278   5.987   1.097   6.378
10460SOL    HW132279   5.916   1.029   6.359
10460SOL    HW232280   6.020   1.136   6.293
10461SOL     OW32281   6.976   3.862   5.603
10461SOL    HW132282   6.911   3.827   5.671
10461SOL    HW232283   6.945   3.952   5.571
10462SOL     OW32284   4.035   4.017   6.714
10462SOL    HW132285   3.965   3.953   6.683
10462SOL    HW232286   4.121   3.968   6.728
10463SOL     OW32287   4.606   2.408   5.528
10463SOL    HW132288   4.557   2.469   5.466
10463SOL    HW232289   4.574   2.423   5.621
10464SOL     OW32290   6.435   4.353   1.832
10464SOL    HW132291   6.473   4.444   1.815
10464SOL    HW232292   6.504   4.283   1.812
10465SOL     OW32293   5.122   4.012   1.534
10465SOL    HW132294   5.078   3.961   1.608
10465SOL    HW232295   5.077   3.991   1.447
10466SOL     OW32296   5.961   4.125   5.169
10466SOL    HW132297   5.918   4.182   5.239
10466SOL    HW232298   6.027   4.064   5.212
10467SOL     OW32299   0.358   2.621   6.712
10467SOL    HW132300   0.329   2.657   6.801
10467SOL    HW232301   0.282   2.629   6.648
10468SOL     OW32302   1.614   3.699   3.692
10468SOL    HW132303   1.682   3.666   3.758
10468SOL    HW232304   1.599   3.630   3.621
10469SOL     OW32305   1.205   1.243   3.964
10469SOL    HW132306   1.236   1.337   3.952
10469SOL    HW232307   1.281   1.180   3.950
10470SOL     OW32308   2.196   3.958   2.167
10470SOL    HW132309   2.249   3.999   2.242
10470SOL    HW232310   2.099   3.961   2.189
10471SOL     OW32311   2.462   4.599   6.439
10471SOL    HW132312   2.451   4.662   6.362
10471SOL    HW232313   2.534   4.632   6.499
10472SOL     OW32314   4.311   5.461   5.965
10472SOL    HW132315   4.282   5.367   5.949
10472SOL    HW232316   4.293   5.486   6.060
10473SOL     OW32317   6.509   5.286   0.033
10473SOL    HW132318   6.578   5.303   0.104
10473SOL    HW232319   6.431   5.346   0.047
10474SOL     OW32320   6.366   5.982   5.222
10474SOL    HW132321   6.349   5.937   5.310
10474SOL    HW232322   6.289   5.967   5.161
10475SOL     OW32323   0.589   5.641   1.474
10475SOL    HW132324   0.639   5.727   1.468
10475SOL    HW232325   0.601   5.601   1.565
10476SOL     OW32326   5.315   6.915   1.178
10476SOL    HW132327   5.222   6.946   1.163
10476SOL    HW232328   5.372   6.943   1.101
10477SOL     OW32329   0.043   5.785   3.657
10477SOL    HW132330   0.050   5.755   3.562
10477SOL    HW232331   6.965   5.793   3.683
10478SOL     OW32332   0.390   0.698   6.448
10478SOL    HW132333   0.384   0.617   6.389
10478SOL    HW232334   0.403   0.780   6.393
10479SOL     OW32335   0.406   3.893   2.121
10479SOL    HW132336   0.483   3.897   2.058
10479SOL    HW232337   0.426   3.950   2.201
10480SOL     OW32338   2.239   0.529   3.250
10480SOL    HW132339   2.243   0.574   3.161
10480SOL    HW232340   2.269   0.434   3.241
10481SOL     OW32341   6.450   1.018   1.257
10481SOL    HW132342   6.465   0.919   1.246
10481SOL    HW232343   6.460   1.063   1.169
10482SOL     OW32344   5.586   3.993   3.957
10482SOL    HW132345   5.533   3.909   3.945
10482SOL    HW232346   5.617   4.000   4.052
10483SOL     OW32347   6.102   0.897   6.642
10483SOL    HW132348   6.110   0.829   6.568
10483SOL    HW232349   6.150   0.981   6.615
10484SOL     OW32350   5.808   0.928   1.841
10484SOL    HW132351   5.813   0.865   1.764
10484SOL    HW232352   5.894   0.979   1.848
10485SOL     OW32353   5.694   3.163   5.316
10485SOL    HW132354   5.655   3.114   5.393
10485SOL    HW232355   5.643   3.248   5.301
10486SOL     OW32356   5.517   2.464   2.174
10486SOL    HW132357   5.550   2.492   2.264
10486SOL    HW232358   5.466   2.538   2.132
10487SOL     OW32359   4.251   0.110   2.339
10487SOL    HW132360   4.205   0.199   2.336
10487SOL    HW232361   4.192   0.044   2.386
10488SOL     OW32362   3.819   4.156   6.424
10488SOL    HW132363   3.809   4.103   6.509
10488SOL    HW232364   3.844   4.095   6.349
10489SOL     OW32365   1.613   4.889   5.248
10489SOL    HW132366   1.686   4.949   5.215
10489SOL    HW232367   1.525   4.931   5.230
10490SOL     OW32368   6.294   0.272   4.132
10490SOL    HW132369   6.222   0.258   4.064
10490SOL    HW232370   6.322   0.368   4.130
10491SOL     OW32371   6.533   5.626   5.436
10491SOL    HW132372   6.536   5.668   5.527
10491SOL    HW232373   6.626   5.610   5.403
10492SOL     OW32374   4.979   4.332   5.968
10492SOL    HW132375   5.040   4.409   5.987
10492SOL    HW232376   4.934   4.347   5.880
10493SOL     OW32377   3.624   1.630   1.142
10493SOL    HW132378   3.716   1.618   1.180
10493SOL    HW232379   3.631   1.666   1.049
10494SOL     OW32380   5.559   1.575   5.663
10494SOL    HW132381   5.633   1.591   5.728
10494SOL    HW232382   5.523   1.482   5.676
10495SOL     OW32383   1.944   0.032   6.536
10495SOL    HW132384   1.991   6.991   6.471
10495SOL    HW232385   2.012   0.083   6.590
10496SOL     OW32386   6.449   0.191   5.597
10496SOL    HW132387   6.459   0.217   5.501
10496SOL    HW232388   6.539   0.187   5.641
10497SOL     OW32389   1.428   1.480   6.366
10497SOL    HW132390   1.340   1.473   6.412
10497SOL    HW232391   1.442   1.573   6.333
10498SOL     OW32392   3.308   4.977   6.063
10498SOL    HW132393   3.385   5.032   6.095
10498SOL    HW232394   3.303   4.892   6.116
10499SOL     OW32395   3.179   5.917   3.100
10499SOL    HW132396   3.087   5.916   3.138
10499SOL    HW232397   3.199   6.009   3.065
10500SOL     OW32398   2.508   2.222   6.738
10500SOL    HW132399   2.488   2.235   6.641
10500SOL    HW232400   2.563   2.298   6.771
10501SOL     OW32401   1.744   4.013   3.156
10501SOL    HW132402   1.679   4.022   3.081
10501SOL    HW232403   1.772   3.917   3.165
10502SOL     OW32404   3.369   5.383   4.086
10502SOL    HW132405   3.338   5.478   4.085
10502SOL    HW232406   3.464   5.379   4.054
10503SOL     OW32407   2.454   3.174   6.009
10503SOL    HW132408   2.499   3.145   5.924
10503SOL    HW232409   2.505   3.251   6.049
10504SOL     OW32410   2.163   3.656   1.226
10504SOL    HW132411   2.154   3.646   1.325
10504SOL    HW232412   2.260   3.652   1.201
10505SOL     OW32413   0.884   6.491   0.559
10505SOL    HW132414   0.827   6.566   0.525
10505SOL    HW232415   0.873   6.484   0.658
10506SOL     OW32416   6.843   4.308   5.345
10506SOL    HW132417   6.791   4.380   5.390
10506SOL    HW232418   6.869   4.337   5.253
10507SOL     OW32419   1.818   6.999   3.349
10507SOL    HW132420   1.916   7.006   3.369
10507SOL    HW232421   1.775   6.935   3.413
10508SOL     OW32422   5.945   4.138   2.848
10508SOL    HW132423   6.019   4.201   2.822
10508SOL    HW232424   5.938   4.064   2.782
10509SOL     OW32425   1.899   0.817   5.491
10509SOL    HW132426   1.809   0.826   5.534
10509SOL    HW232427   1.968   0.862   5.548
10510SOL     OW32428   5.837   0.442   6.787
10510SOL    HW132429   5.852   0.504   6.864
10510SOL    HW232430   5.896   0.468   6.711
10511SOL     OW32431   6.858   2.603   1.230
10511SOL    HW132432   6.893   2.510   1.238
10511SOL    HW232433   6.787   2.618   1.299
10512SOL     OW32434   2.487   0.619   6.281
10512SOL    HW132435   2.441   0.662   6.359
10512SOL    HW232436   2.565   0.565   6.314
10513SOL     OW32437   0.259   1.876   0.247
10513SOL    HW132438   0.333   1.879   0.180
10513SOL    HW232439   0.190   1.944   0.223
10514SOL     OW32440   0.483   3.204   1.823
10514SOL    HW132441   0.420   3.131   1.796
10514SOL    HW232442   0.432   3.287   1.845
10515SOL     OW32443   6.766   3.152   4.785
10515SOL    HW132444   6.860   3.161   4.819
10515SOL    HW232445   6.723   3.242   4.782
10516SOL     OW32446   2.789   6.646   0.731
10516SOL    HW132447   2.802   6.623   0.635
10516SOL    HW232448   2.691   6.652   0.751
10517SOL     OW32449   0.756   2.824   3.044
10517SOL    HW132450   0.708   2.816   2.956
10517SOL    HW232451   0.690   2.808   3.118
10518SOL     OW32452   0.674   5.954   2.611
10518SOL    HW132453   0.646   5.891   2.538
10518SOL    HW232454   0.596   5.973   2.670
10519SOL     OW32455   4.305   3.199   5.903
10519SOL    HW132456   4.258   3.277   5.861
10519SOL    HW232457   4.283   3.196   6.001
10520SOL     OW32458   3.190   4.812   6.286
10520SOL    HW132459   3.260   4.758   6.332
10520SOL    HW232460   3.166   4.891   6.342
10521SOL     OW32461   6.521   5.799   2.420
10521SOL    HW132462   6.575   5.785   2.337
10521SOL    HW232463   6.440   5.740   2.418
10522SOL     OW32464   0.066   0.276   2.181
10522SOL    HW132465   0.139   0.250   2.118
10522SOL    HW232466   7.000   0.292   2.129
10523SOL     OW32467   6.860   6.138   5.775
10523SOL    HW132468   6.781   6.191   5.806
10523SOL    HW232469   6.934   6.200   5.750
10524SOL     OW32470   4.849   1.139   4.557
10524SOL    HW132471   4.807   1.062   4.604
10524SOL    HW232472   4.777   1.203   4.528
10525SOL     OW32473   3.234   6.691   4.954
10525SOL    HW132474   3.305   6.701   4.884
10525SOL    HW232475   3.148   6.728   4.919
10526SOL     OW32476   4.812   6.697   2.544
10526SOL    HW132477   4.838   6.786   2.582
10526SOL    HW232478   4.852   6.624   2.600
10527SOL     OW32479   1.630   2.694   4.643
10527SOL    HW132480   1.566   2.728   4.574
10527SOL    HW232481   1.647   2.597   4.628
10528SOL     OW32482   5.730   4.979   5.495
10528SOL    HW132483   5.823   4.957   5.525
10528SOL    HW232484   5.685   5.035   5.565
10529SOL     OW32485   0.189   6.048   4.148
10529SOL    HW132486   0.097   6.015   4.127
10529SOL    HW232487   0.257   5.991   4.101
10530SOL     OW32488   1.985   1.983   5.024
10530SOL    HW132489   2.048   2.036   5.079
10530SOL    HW232490   1.970   1.894   5.068
10531SOL     OW32491   1.994   2.092   4.764
10531SOL    HW132492   1.994   2.047   4.854
10531SOL    HW232493   1.999   2.191   4.777
10532SOL     OW32494   3.320   3.213   4.958
10532SOL    HW132495   3.294   3.129   5.006
10532SOL    HW232496   3.278   3.214   4.867
10533SOL     OW32497   2.925   1.477   6.345
10533SOL    HW132498   2.897   1.381   6.339
10533SOL    HW232499   2.946   1.500   6.440
10534SOL     OW32500   5.660   4.899   1.561
10534SOL    HW132501   5.701   4.963   1.626
10534SOL    HW232502   5.699   4.913   1.471
10535SOL     OW32503   6.651   0.744   1.698
10535SOL    HW132504   6.580   0.718   1.633
10535SOL    HW232505   6.741   0.735   1.654
10536SOL     OW32506   5.117   5.933   3.041
10536SOL    HW132507   5.146   6.019   2.998
10536SOL    HW232508   5.133   5.939   3.140
10537SOL     OW32509   6.195   5.532   1.002
10537SOL    HW132510   6.211   5.549   0.905
10537SOL    HW232511   6.130   5.600   1.037
10538SOL     OW32512   4.107   3.716   0.195
10538SOL    HW132513   4.114   3.628   0.147
10538SOL    HW232514   4.041   3.774   0.149
10539SOL     OW32515   0.936   3.255   5.264
10539SOL    HW132516   0.959   3.210   5.350
10539SOL    HW232517   1.016   3.259   5.205
10540SOL     OW32518   3.607   0.743   0.144
10540SOL    HW132519   3.606   0.754   0.243
10540SOL    HW232520   3.534   0.681   0.116
10541SOL     OW32521   3.746   2.520   1.086
10541SOL    HW132522   3.686   2.567   1.021
10541SOL    HW232523   3.741   2.421   1.070
10542SOL     OW32524   1.678   2.148   0.329
10542SOL    HW132525   1.640   2.056   0.337
10542SOL    HW232526   1.623   2.212   0.383
10543SOL     OW32527   2.205   0.058   4.678
10543SOL    HW132528   2.206   0.118   4.759
10543SOL    HW232529   2.156   0.103   4.604
10544SOL     OW32530   0.271   2.340   1.713
10544SOL    HW132531   0.236   2.251   1.683
10544SOL    HW232532   0.370   2.336   1.722
10545SOL     OW32533   4.753   1.592   2.945
10545SOL    HW132534   4.678   1.529   2.965
10545SOL    HW232535   4.717   1.684   2.931
10546SOL     OW32536   4.270   1.627   5.556
10546SOL    HW132537   4.301   1.718   5.530
10546SOL    HW232538   4.284   1.564   5.480
10547SOL     OW32539   5.046   6.651   1.600
10547SOL    HW132540   5.068   6.554   1.615
10547SOL    HW232541   5.000   6.687   1.681
10548SOL     OW32542   4.452   4.457   5.349
10548SOL    HW132543   4.415   4.454   5.256
10548SOL    HW232544   4.461   4.552   5.377
10549SOL     OW32545   0.875   1.671   1.629
10549SOL    HW132546   0.900   1.662   1.532
10549SOL    HW232547   0.776   1.667   1.638
10550SOL     OW32548   5.299   6.703   4.837
10550SOL    HW132549   5.219   6.665   4.790
10550SOL    HW232550   5.272   6.786   4.886
10551SOL     OW32551   1.199   2.876   5.872
10551SOL    HW132552   1.191   2.824   5.787
10551SOL    HW232553   1.109   2.886   5.913
10552SOL     OW32554   3.154   1.826   4.701
10552SOL    HW132555   3.159   1.924   4.721
10552SOL    HW232556   3.058   1.796   4.705
10553SOL     OW32557   2.938   5.095   6.166
10553SOL    HW132558   2.984   5.023   6.113
10553SOL    HW232559   2.913   5.060   6.256
10554SOL     OW32560   5.926   3.922   5.716
10554SOL    HW132561   6.011   3.877   5.745
10554SOL    HW232562   5.918   3.916   5.617
10555SOL     OW32563   3.648   2.737   1.341
10555SOL    HW132564   3.737   2.721   1.297
10555SOL    HW232565   3.608   2.649   1.366
10556SOL     OW32566   1.399   3.593   3.898
10556SOL    HW132567   1.429   3.576   3.804
10556SOL    HW232568   1.366   3.687   3.906
10557SOL     OW32569   5.444   1.445   3.769
10557SOL    HW132570   5.524   1.424   3.713
10557SOL    HW232571   5.385   1.508   3.719
10558SOL     OW32572   4.936   6.001   5.020
10558SOL    HW132573   4.946   5.983   4.922
10558SOL    HW232574   4.936   5.914   5.070
10559SOL     OW32575   4.316   2.786   0.775
10559SOL    HW132576   4.228   2.745   0.750
10559SOL    HW232577   4.389   2.741   0.723
10560SOL     OW32578   0.171   2.148   4.330
10560SOL    HW132579   0.190   2.238   4.291
10560SOL    HW232580   0.153   2.158   4.428
10561SOL     OW32581   2.360   4.211   6.510
10561SOL    HW132582   2.282   4.234   6.569
10561SOL    HW232583   2.327   4.174   6.424
10562SOL     OW32584   3.561   1.677   0.670
10562SOL    HW132585   3.476   1.730   0.681
10562SOL    HW232586   3.552   1.617   0.591
10563SOL     OW32587   1.059   2.470   2.876
10563SOL    HW132588   1.143   2.443   2.923
10563SOL    HW232589   1.080   2.532   2.801
10564SOL     OW32590   6.488   2.409   2.428
10564SOL    HW132591   6.418   2.469   2.466
10564SOL    HW232592   6.487   2.322   2.476
10565SOL     OW32593   5.260   1.785   4.963
10565SOL    HW132594   5.246   1.687   4.947
10565SOL    HW232595   5.260   1.833   4.875
10566SOL     OW32596   4.509   5.409   6.752
10566SOL    HW132597   4.603   5.422   6.720
10566SOL    HW232598   4.499   5.317   6.790
10567SOL     OW32599   2.621   5.377   4.298
10567SOL    HW132600   2.629   5.278   4.310
10567SOL    HW232601   2.555   5.414   4.363
10568SOL     OW32602   3.403   1.051   3.288
10568SOL    HW132603   3.499   1.048   3.258
10568SOL    HW232604   3.383   1.143   3.323
10569SOL     OW32605   6.648   2.431   3.149
10569SOL    HW132606   6.612   2.516   3.187
10569SOL    HW232607   6.747   2.428   3.161
10570SOL     OW32608   1.739   3.916   0.914
10570SOL    HW132609   1.728   3.946   0.819
10570SOL    HW232610   1.753   3.817   0.916
10571SOL     OW32611   6.449   6.852   4.440
10571SOL    HW132612   6.533   6.896   4.410
10571SOL    HW232613   6.404   6.908   4.509
10572SOL     OW32614   0.165   3.514   1.568
10572SOL    HW132615   0.168   3.514   1.667
10572SOL    HW232616   0.077   3.551   1.537
10573SOL     OW32617   5.935   4.689   5.835
10573SOL    HW132618   6.019   4.636   5.822
10573SOL    HW232619   5.909   4.732   5.749
10574SOL     OW32620   0.386   2.506   3.116
10574SOL    HW132621   0.478   2.475   3.090
10574SOL    HW232622   0.377   2.502   3.216
10575SOL     OW32623   1.071   6.493   6.547
10575SOL    HW132624   1.153   6.541   6.520
10575SOL    HW232625   1.018   6.549   6.610
10576SOL     OW32626   1.069   5.782   2.908
10576SOL    HW132627   1.069   5.684   2.928
10576SOL    HW232628   1.124   5.799   2.825
10577SOL     OW32629   0.819   2.483   5.813
10577SOL    HW132630   0.859   2.406   5.763
10577SOL    HW232631   0.788   2.452   5.903
10578SOL     OW32632   5.397   1.408   5.439
10578SOL    HW132633   5.446   1.458   5.510
10578SOL    HW232634   5.405   1.458   5.352
10579SOL     OW32635   5.649   6.833   0.772
10579SOL    HW132636   5.701   6.813   0.689
10579SOL    HW232637   5.701   6.803   0.852
10580SOL     OW32638   0.641   5.425   0.144
10580SOL    HW132639   0.561   5.385   0.188
10580SOL    HW232640   0.620   5.449   0.050
10581SOL     OW32641   4.808   2.795   3.754
10581SOL    HW132642   4.858   2.712   3.776
10581SOL    HW232643   4.808   2.810   3.655
10582SOL     OW32644   3.065   4.759   0.028
10582SOL    HW132645   2.978   4.745   0.074
10582SOL    HW232646   3.118   4.674   0.032
10583SOL     OW32647   4.728   1.375   1.655
10583SOL    HW132648   4.797   1.362   1.725
10583SOL    HW232649   4.724   1.294   1.596
10584SOL     OW32650   5.997   6.542   0.851
10584SOL    HW132651   6.078   6.551   0.793
10584SOL    HW232652   5.956   6.452   0.838
10585SOL     OW32653   2.639   4.291   6.375
10585SOL    HW132654   2.556   4.343   6.396
10585SOL    HW232655   2.687   4.269   6.459
10586SOL     OW32656   4.872   2.051   1.116
10586SOL    HW132657   4.927   2.130   1.142
10586SOL    HW232658   4.932   1.972   1.101
10587SOL     OW32659   6.138   2.877   0.348
10587SOL    HW132660   6.077   2.885   0.269
10587SOL    HW232661   6.125   2.956   0.408
10588SOL     OW32662   1.555   5.157   3.369
10588SOL    HW132663   1.505   5.118   3.446
10588SOL    HW232664   1.574   5.253   3.387
10589SOL     OW32665   5.968   1.677   4.063
10589SOL    HW132666   5.964   1.597   4.004
10589SOL    HW232667   6.059   1.686   4.102
10590SOL     OW32668   1.567   0.154   5.363
10590SOL    HW132669   1.552   0.092   5.286
10590SOL    HW232670   1.488   0.214   5.374
10591SOL     OW32671   1.675   2.509   1.869
10591SOL    HW132672   1.750   2.506   1.934
10591SOL    HW232673   1.621   2.425   1.876
10592SOL     OW32674   5.753   1.494   6.457
10592SOL    HW132675   5.699   1.534   6.382
10592SOL    HW232676   5.733   1.396   6.463
10593SOL     OW32677   0.979   4.524   1.792
10593SOL    HW132678   0.885   4.490   1.783
10593SOL    HW232679   1.043   4.448   1.777
10594SOL     OW32680   1.488   1.164   4.385
10594SOL    HW132681   1.389   1.160   4.391
10594SOL    HW232682   1.516   1.170   4.289
10595SOL     OW32683   2.193   6.086   4.518
10595SOL    HW132684   2.275   6.030   4.526
10595SOL    HW232685   2.137   6.076   4.600
10596SOL     OW32686   3.177   1.164   1.905
10596SOL    HW132687   3.138   1.135   1.993
10596SOL    HW232688   3.262   1.215   1.921
10597SOL     OW32689   1.306   0.335   4.066
10597SOL    HW132690   1.289   0.309   4.161
10597SOL    HW232691   1.277   0.261   4.005
10598SOL     OW32692   2.365   0.702   0.733
10598SOL    HW132693   2.375   0.681   0.831
10598SOL    HW232694   2.451   0.684   0.686
10599SOL     OW32695   4.808   0.607   6.617
10599SOL    HW132696   4.845   0.524   6.577
10599SOL    HW232697   4.751   0.654   6.550
10600SOL     OW32698   1.639   2.954   4.797
10600SOL    HW132699   1.673   2.880   4.739
10600SOL    HW232700   1.540   2.948   4.804
10601SOL     OW32701   3.249   6.387   5.220
10601SOL    HW132702   3.313   6.413   5.148
10601SOL    HW232703   3.186   6.317   5.185
10602SOL     OW32704   5.029   1.590   1.380
10602SOL    HW132705   5.040   1.633   1.469
10602SOL    HW232706   4.933   1.598   1.351
10603SOL     OW32707   0.820   5.123   5.538
10603SOL    HW132708   0.775   5.034   5.549
10603SOL    HW232709   0.821   5.148   5.441
10604SOL     OW32710   0.488   4.378   5.826
10604SOL    HW132711   0.512   4.475   5.827
10604SOL    HW232712   0.556   4.325   5.876
10605SOL     OW32713   1.668   5.073   6.413
10605SOL    HW132714   1.676   5.059   6.315
10605SOL    HW232715   1.594   5.138   6.432
10606SOL     OW32716   0.248   1.398   2.106
10606SOL    HW132717   0.273   1.459   2.031
10606SOL    HW232718   0.190   1.448   2.171
10607SOL     OW32719   5.467   4.456   6.466
10607SOL    HW132720   5.500   4.502   6.384
10607SOL    HW232721   5.532   4.385   6.493
10608SOL     OW32722   5.656   0.054   2.689
10608SOL    HW132723   5.707   0.123   2.638
10608SOL    HW232724   5.627   6.998   2.628
10609SOL     OW32725   4.028   0.034   2.544
10609SOL    HW132726   4.089   7.018   2.615
10609SOL    HW232727   3.990   0.122   2.572
10610SOL     OW32728   1.951   4.134   4.870
10610SOL    HW132729   1.983   4.140   4.965
10610SOL    HW232730   2.024   4.162   4.808
10611SOL     OW32731   4.960   2.303   6.178
10611SOL    HW132732   4.907   2.235   6.127
10611SOL    HW232733   4.925   2.309   6.271
10612SOL     OW32734   1.916   0.158   1.041
10612SOL    HW132735   1.905   0.076   1.098
10612SOL    HW232736   1.834   0.171   0.985
10613SOL     OW32737   0.559   6.450   6.814
10613SOL    HW132738   0.524   6.472   6.905
10613SOL    HW232739   0.568   6.534   6.761
10614SOL     OW32740   0.381   1.039   2.639
10614SOL    HW132741   0.478   1.050   2.660
10614SOL    HW232742   0.369   0.966   2.571
10615SOL     OW32743   0.242   6.340   5.497
10615SOL    HW132744   0.340   6.324   5.508
10615SOL    HW232745   0.226   6.432   5.463
10616SOL     OW32746   3.067   5.801   1.300
10616SOL    HW132747   3.043   5.837   1.210
10616SOL    HW232748   3.042   5.705   1.307
10617SOL     OW32749   0.684   1.456   6.700
10617SOL    HW132750   0.773   1.463   6.747
10617SOL    HW232751   0.632   1.380   6.740
10618SOL     OW32752   6.211   4.147   0.449
10618SOL    HW132753   6.215   4.247   0.441
10618SOL    HW232754   6.299   4.108   0.425
10619SOL     OW32755   0.365   3.656   3.486
10619SOL    HW132756   0.347   3.739   3.434
10619SOL    HW232757   0.299   3.647   3.560
10620SOL     OW32758   1.296   5.423   4.396
10620SOL    HW132759   1.289   5.326   4.419
10620SOL    HW232760   1.391   5.445   4.373
10621SOL     OW32761   3.758   6.164   0.695
10621SOL    HW132762   3.817   6.244   0.703
10621SOL    HW232763   3.729   6.153   0.600
10622SOL     OW32764   3.915   2.033   0.938
10622SOL    HW132765   4.012   2.060   0.937
10622SOL    HW232766   3.858   2.114   0.929
10623SOL     OW32767   6.930   1.385   4.989
10623SOL    HW132768   0.005   1.362   4.960
10623SOL    HW232769   6.934   1.428   5.080
10624SOL     OW32770   2.935   0.899   4.244
10624SOL    HW132771   2.837   0.919   4.244
10624SOL    HW232772   2.985   0.983   4.223
10625SOL     OW32773   1.110   2.630   0.624
10625SOL    HW132774   1.169   2.705   0.594
10625SOL    HW232775   1.070   2.586   0.544
10626SOL     OW32776   6.297   2.563   2.576
10626SOL    HW132777   6.369   2.626   2.550
10626SOL    HW232778   6.221   2.614   2.617
10627SOL     OW32779   5.461   5.774   4.720
10627SOL    HW132780   5.535   5.784   4.653
10627SOL    HW232781   5.481   5.832   4.800
10628SOL     OW32782   6.770   5.459   5.363
10628SOL    HW132783   6.729   5.389   5.421
10628SOL    HW232784   6.843   5.419   5.308
10629SOL     OW32785   2.083   4.245   6.657
10629SOL    HW132786   2.022   4.269   6.732
10629SOL    HW232787   2.056   4.294   6.574
10630SOL     OW32788   5.103   0.755   2.202
10630SOL    HW132789   5.157   0.837   2.219
10630SOL    HW232790   5.162   0.681   2.169
10631SOL     OW32791   1.217   6.785   4.902
10631SOL    HW132792   1.303   6.733   4.906
10631SOL    HW232793   1.145   6.732   4.947
10632SOL     OW32794   0.075   3.128   6.518
10632SOL    HW132795   0.052   3.165   6.428
10632SOL    HW232796   0.105   3.203   6.578
10633SOL     OW32797   0.852   4.983   0.090
10633SOL    HW132798   0.868   5.048   0.164
10633SOL    HW232799   0.859   4.890   0.126
10634SOL     OW32800   3.664   6.512   2.324
10634SOL    HW132801   3.603   6.501   2.246
10634SOL    HW232802   3.753   6.546   2.293
10635SOL     OW32803   1.693   1.473   1.494
10635SOL    HW132804   1.635   1.521   1.429
10635SOL    HW232805   1.789   1.494   1.475
10636SOL     OW32806   4.868   1.702   0.612
10636SOL    HW132807   4.940   1.727   0.548
10636SOL    HW232808   4.909   1.679   0.700
10637SOL     OW32809   3.050   4.161   6.341
10637SOL    HW132810   3.090   4.209   6.263
10637SOL    HW232811   3.057   4.219   6.423
10638SOL     OW32812   6.505   0.601   5.795
10638SOL    HW132813   6.426   0.555   5.757
10638SOL    HW232814   6.498   0.602   5.895
10639SOL     OW32815   3.541   1.962   5.204
10639SOL    HW132816   3.466   2.027   5.202
10639SOL    HW232817   3.533   1.899   5.126
10640SOL     OW32818   4.775   6.183   0.849
10640SOL    HW132819   4.759   6.223   0.758
10640SOL    HW232820   4.687   6.167   0.893
10641SOL     OW32821   3.482   0.045   0.018
10641SOL    HW132822   3.462   0.001   0.106
10641SOL    HW232823   3.530   6.998   6.978
10642SOL     OW32824   7.016   4.854   0.532
10642SOL    HW132825   6.934   4.912   0.538
10642SOL    HW232826   0.048   4.858   0.618
10643SOL     OW32827   4.358   3.190   5.316
10643SOL    HW132828   4.361   3.278   5.269
10643SOL    HW232829   4.434   3.133   5.284
10644SOL     OW32830   4.122   1.365   5.361
10644SOL    HW132831   4.093   1.269   5.367
10644SOL    HW232832   4.219   1.372   5.384
10645SOL     OW32833   2.259   6.758   4.778
10645SOL    HW132834   2.232   6.678   4.724
10645SOL    HW232835   2.182   6.821   4.786
10646SOL     OW32836   6.794   5.017   6.915
10646SOL    HW132837   6.848   4.948   6.867
10646SOL    HW232838   6.800   5.001   7.014
10647SOL     OW32839   0.693   5.988   0.619
10647SOL    HW132840   0.651   6.002   0.709
10647SOL    HW232841   0.671   6.065   0.559
10648SOL     OW32842   5.091   4.657   5.903
10648SOL    HW132843   5.128   4.714   5.830
10648SOL    HW232844   5.149   4.665   5.984
10649SOL     OW32845   0.499   4.352   6.338
10649SOL    HW132846   0.402   4.377   6.341
10649SOL    HW232847   0.528   4.320   6.429
10650SOL     OW32848   2.725   0.316   5.566
10650SOL    HW132849   2.817   0.349   5.545
10650SOL    HW232850   2.725   0.217   5.572
10651SOL     OW32851   2.582   0.369   5.144
10651SOL    HW132852   2.506   0.304   5.133
10651SOL    HW232853   2.546   0.462   5.145
10652SOL     OW32854   4.127   1.438   0.782
10652SOL    HW132855   4.219   1.419   0.818
10652SOL    HW232856   4.101   1.532   0.805
10653SOL     OW32857   6.511   4.201   4.168
10653SOL    HW132858   6.589   4.261   4.187
10653SOL    HW232859   6.543   4.117   4.124
10654SOL     OW32860   4.764   0.697   1.820
10654SOL    HW132861   4.795   0.716   1.913
10654SOL    HW232862   4.671   0.733   1.807
10655SOL     OW32863   2.410   5.863   1.282
10655SOL    HW132864   2.421   5.775   1.235
10655SOL    HW232865   2.494   5.886   1.330
10656SOL     OW32866   6.631   2.825   6.762
10656SOL    HW132867   6.577   2.903   6.792
10656SOL    HW232868   6.697   2.801   6.834
10657SOL     OW32869   6.614   0.502   1.058
10657SOL    HW132870   6.552   0.481   0.983
10657SOL    HW232871   6.669   0.422   1.080
10658SOL     OW32872   0.159   6.249   4.324
10658SOL    HW132873   0.065   6.258   4.289
10658SOL    HW232874   0.207   6.179   4.272
10659SOL     OW32875   4.816   1.127   0.897
10659SOL    HW132876   4.799   1.211   0.947
10659SOL    HW232877   4.914   1.116   0.882
10660SOL     OW32878   5.410   5.718   5.271
10660SOL    HW132879   5.483   5.768   5.224
10660SOL    HW232880   5.432   5.621   5.275
10661SOL     OW32881   6.913   0.796   1.911
10661SOL    HW132882   6.940   0.728   1.843
10661SOL    HW232883   6.852   0.863   1.869
10662SOL     OW32884   6.910   1.661   0.295
10662SOL    HW132885   6.906   1.760   0.285
10662SOL    HW232886   7.004   1.630   0.280
10663SOL     OW32887   0.852   2.299   0.764
10663SOL    HW132888   0.767   2.310   0.816
10663SOL    HW232889   0.915   2.374   0.786
10664SOL     OW32890   2.352   5.216   5.945
10664SOL    HW132891   2.396   5.132   5.974
10664SOL    HW232892   2.418   5.274   5.897
10665SOL     OW32893   5.955   1.799   0.111
10665SOL    HW132894   5.981   1.742   0.033
10665SOL    HW232895   5.868   1.766   0.149
10666SOL     OW32896   0.733   6.675   0.441
10666SOL    HW132897   0.651   6.721   0.474
10666SOL    HW232898   0.771   6.727   0.364
10667SOL     OW32899   3.209   2.585   5.581
10667SOL    HW132900   3.245   2.679   5.578
10667SOL    HW232901   3.250   2.532   5.507
10668SOL     OW32902   1.874   0.875   5.870
10668SOL    HW132903   1.954   0.841   5.820
10668SOL    HW232904   1.903   0.910   5.959
10669SOL     OW32905   2.004   6.146   6.443
10669SOL    HW132906   1.918   6.111   6.480
10669SOL    HW232907   2.059   6.071   6.406
10670SOL     OW32908   6.277   4.237   4.763
10670SOL    HW132909   6.358   4.181   4.781
10670SOL    HW232910   6.271   4.310   4.831
10671SOL     OW32911   1.996   2.818   3.364
10671SOL    HW132912   2.013   2.848   3.458
10671SOL    HW232913   2.062   2.861   3.303
10672SOL     OW32914   7.016   2.041   0.844
10672SOL    HW132915   0.072   2.019   0.908
10672SOL    HW232916   0.037   2.066   0.756
10673SOL     OW32917   3.607   4.179   4.062
10673SOL    HW132918   3.559   4.201   4.148
10673SOL    HW232919   3.690   4.128   4.083
10674SOL     OW32920   4.387   1.353   2.257
10674SOL    HW132921   4.379   1.292   2.336
10674SOL    HW232922   4.372   1.448   2.288
10675SOL     OW32923   1.272   1.172   5.696
10675SOL    HW132924   1.243   1.211   5.609
10675SOL    HW232925   1.243   1.231   5.771
10676SOL     OW32926   6.823   0.599   6.967
10676SOL    HW132927   6.801   0.670   6.900
10676SOL    HW232928   6.804   0.509   6.928
10677SOL     OW32929   5.580   1.417   0.604
10677SOL    HW132930   5.481   1.409   0.604
10677SOL    HW232931   5.610   1.475   0.680
10678SOL     OW32932   1.439   5.347   3.660
10678SOL    HW132933   1.508   5.356   3.732
10678SOL    HW232934   1.471   5.395   3.578
10679SOL     OW32935   5.637   4.919   3.499
10679SOL    HW132936   5.560   4.893   3.558
10679SOL    HW232937   5.625   5.013   3.467
10680SOL     OW32938   0.349   2.903   3.802
10680SOL    HW132939   0.305   2.915   3.892
10680SOL    HW232940   0.305   2.827   3.754
10681SOL     OW32941   0.493   2.822   0.089
10681SOL    HW132942   0.567   2.881   0.056
10681SOL    HW232943   0.450   2.776   0.012
10682SOL     OW32944   6.091   2.174   3.488
10682SOL    HW132945   6.113   2.162   3.392
10682SOL    HW232946   6.078   2.271   3.508
10683SOL     OW32947   0.917   0.761   4.217
10683SOL    HW132948   0.995   0.796   4.164
10683SOL    HW232949   0.950   0.723   4.303
10684SOL     OW32950   5.364   5.870   0.994
10684SOL    HW132951   5.403   5.872   0.902
10684SOL    HW232952   5.266   5.888   0.990
10685SOL     OW32953   6.313   2.889   2.321
10685SOL    HW132954   6.228   2.849   2.354
10685SOL    HW232955   6.324   2.870   2.223
10686SOL     OW32956   4.578   4.342   1.174
10686SOL    HW132957   4.479   4.344   1.180
10686SOL    HW232958   4.617   4.324   1.264
10687SOL     OW32959   6.922   5.032   1.267
10687SOL    HW132960   6.874   5.039   1.355
10687SOL    HW232961   7.010   5.079   1.274
10688SOL     OW32962   1.144   4.803   0.933
10688SOL    HW132963   1.111   4.758   1.016
10688SOL    HW232964   1.141   4.739   0.857
10689SOL     OW32965   0.975   0.481   0.666
10689SOL    HW132966   0.969   0.540   0.585
10689SOL    HW232967   0.906   0.510   0.732
10690SOL     OW32968   4.591   0.162   3.092
10690SOL    HW132969   4.516   0.097   3.087
10690SOL    HW232970   4.573   0.228   3.165
10691SOL     OW32971   5.220   1.437   1.253
10691SOL    HW132972   5.308   1.483   1.239
10691SOL    HW232973   5.163   1.492   1.314
10692SOL     OW32974   6.098   6.800   3.899
10692SOL    HW132975   6.099   6.827   3.803
10692SOL    HW232976   6.154   6.718   3.911
10693SOL     OW32977   4.767   2.896   4.205
10693SOL    HW132978   4.839   2.958   4.175
10693SOL    HW232979   4.757   2.904   4.305
10694SOL     OW32980   2.263   5.872   0.257
10694SOL    HW132981   2.329   5.868   0.333
10694SOL    HW232982   2.311   5.857   0.171
10695SOL     OW32983   5.558   3.544   5.905
10695SOL    HW132984   5.654   3.515   5.915
10695SOL    HW232985   5.498   3.465   5.914
10696SOL     OW32986   6.513   0.272   0.878
10696SOL    HW132987   6.480   0.192   0.927
10696SOL    HW232988   6.613   0.270   0.873
10697SOL     OW32989   2.192   5.897   3.162
10697SOL    HW132990   2.094   5.914   3.155
10697SOL    HW232991   2.208   5.806   3.202
10698SOL     OW32992   3.235   0.607   4.781
10698SOL    HW132993   3.310   0.630   4.844
10698SOL    HW232994   3.223   0.508   4.780
10699SOL     OW32995   1.279   2.912   3.716
10699SOL    HW132996   1.197   2.932   3.661
10699SOL    HW232997   1.254   2.854   3.793
10700SOL     OW32998   1.016   3.179   2.642
10700SOL    HW132999   1.097   3.217   2.598
10700SOL    HW233000   1.015   3.080   2.631
10701SOL     OW33001   2.849   0.013   1.295
10701SOL    HW133002   2.792   6.964   1.342
10701SOL    HW233003   2.793   0.067   1.232
10702SOL     OW33004   4.907   2.043   0.488
10702SOL    HW133005   4.926   2.020   0.584
10702SOL    HW233006   4.898   2.143   0.480
10703SOL     OW33007   3.723   3.705   3.883
10703SOL    HW133008   3.764   3.781   3.833
10703SOL    HW233009   3.639   3.734   3.927
10704SOL     OW33010   5.274   5.624   1.951
10704SOL    HW133011   5.218   5.618   2.034
10704SOL    HW233012   5.362   5.666   1.973
10705SOL     OW33013   1.180   3.055   6.807
10705SOL    HW133014   1.124   3.138   6.805
10705SOL    HW233015   1.276   3.079   6.793
10706SOL     OW33016   3.582   3.255   0.848
10706SOL    HW133017   3.633   3.179   0.807
10706SOL    HW233018   3.626   3.341   0.823
10707SOL     OW33019   5.694   0.197   6.798
10707SOL    HW133020   5.736   0.288   6.806
10707SOL    HW233021   5.598   0.202   6.827
10708SOL     OW33022   4.503   2.178   1.819
10708SOL    HW133023   4.493   2.082   1.792
10708SOL    HW233024   4.570   2.223   1.760
10709SOL     OW33025   1.021   0.604   6.361
10709SOL    HW133026   0.944   0.617   6.299
10709SOL    HW233027   0.988   0.600   6.455
10710SOL     OW33028   0.325   6.296   3.545
10710SOL    HW133029   0.367   6.327   3.459
10710SOL    HW233030   0.392   6.301   3.619
10711SOL     OW33031   1.943   3.949   5.370
10711SOL    HW133032   2.041   3.956   5.351
10711SOL    HW233033   1.892   3.972   5.287
10712SOL     OW33034   3.427   1.861   6.609
10712SOL    HW133035   3.442   1.762   6.599
10712SOL    HW233036   3.329   1.879   6.613
10713SOL     OW33037   2.511   6.739   6.894
10713SOL    HW133038   2.440   6.668   6.888
10713SOL    HW233039   2.527   6.762   6.990
10714SOL     OW33040   5.045   5.635   4.184
10714SOL    HW133041   5.048   5.728   4.219
10714SOL    HW233042   4.973   5.627   4.115
10715SOL     OW33043   6.088   0.316   2.696
10715SOL    HW133044   6.111   0.404   2.654
10715SOL    HW233045   6.168   0.279   2.742
10716SOL     OW33046   6.920   1.128   2.072
10716SOL    HW133047   6.996   1.087   2.123
10716SOL    HW233048   6.835   1.112   2.122
10717SOL     OW33049   0.724   6.787   1.886
10717SOL    HW133050   0.645   6.815   1.941
10717SOL    HW233051   0.793   6.859   1.888
10718SOL     OW33052   0.492   4.758   5.159
10718SOL    HW133053   0.486   4.660   5.142
10718SOL    HW233054   0.437   4.806   5.091
10719SOL     OW33055   3.704   6.757   3.199
10719SOL    HW133056   3.645   6.822   3.249
10719SOL    HW233057   3.681   6.664   3.226
10720SOL     OW33058   0.321   2.662   5.944
10720SOL    HW133059   0.342   2.629   5.852
10720SOL    HW233060   0.225   2.693   5.947
10721SOL     OW33061   5.513   1.618   3.948
10721SOL    HW133062   5.427   1.654   3.984
10721SOL    HW233063   5.494   1.547   3.880
10722SOL     OW33064   0.917   5.256   0.264
10722SOL    HW133065   0.828   5.252   0.310
10722SOL    HW233066   0.905   5.286   0.170
10723SOL     OW33067   6.955   3.966   6.574
10723SOL    HW133068   6.924   3.936   6.664
10723SOL    HW233069   0.019   4.022   6.584
10724SOL     OW33070   3.304   6.348   5.892
10724SOL    HW133071   3.236   6.397   5.946
10724SOL    HW233072   3.260   6.269   5.847
10725SOL     OW33073   6.986   6.758   5.805
10725SOL    HW133074   0.013   6.779   5.718
10725SOL    HW233075   0.011   6.679   5.848
10726SOL     OW33076   0.012   0.175   3.252
10726SOL    HW133077   7.004   0.096   3.197
10726SOL    HW233078   6.978   0.175   3.337
10727SOL     OW33079   4.732   6.397   6.107
10727SOL    HW133080   4.702   6.492   6.097
10727SOL    HW233081   4.831   6.391   6.089
10728SOL     OW33082   5.894   5.773   3.630
10728SOL    HW133083   5.818   5.833   3.654
10728SOL    HW233084   5.859   5.682   3.607
10729SOL     OW33085   0.149   2.779   3.992
10729SOL    HW133086   0.076   2.711   4.001
10729SOL    HW233087   0.208   2.776   4.072
10730SOL     OW33088   1.607   6.153   4.421
10730SOL    HW133089   1.645   6.213   4.350
10730SOL    HW233090   1.674   6.082   4.444
10731SOL     OW33091   4.854   4.283   5.716
10731SOL    HW133092   4.768   4.254   5.758
10731SOL    HW233093   4.888   4.210   5.656
10732SOL     OW33094   5.844   6.077   1.978
10732SOL    HW133095   5.898   5.995   1.995
10732SOL    HW233096   5.906   6.152   1.953
10733SOL     OW33097   0.602   1.367   5.997
10733SOL    HW133098   0.546   1.297   5.954
10733SOL    HW233099   0.546   1.448   6.016
10734SOL     OW33100   0.657   0.463   4.792
10734SOL    HW133101   0.697   0.409   4.866
10734SOL    HW233102   0.593   0.530   4.829
10735SOL     OW33103   6.481   0.708   1.491
10735SOL    HW133104   6.498   0.612   1.472
10735SOL    HW233105   6.390   0.719   1.530
10736SOL     OW33106   5.690   5.928   3.728
10736SOL    HW133107   5.592   5.909   3.729
10736SOL    HW233108   5.707   6.016   3.684
10737SOL     OW33109   0.094   0.832   0.762
10737SOL    HW133110   0.192   0.840   0.747
10737SOL    HW233111   0.075   0.749   0.815
10738SOL     OW33112   1.583   6.554   1.882
10738SOL    HW133113   1.634   6.558   1.796
10738SOL    HW233114   1.646   6.531   1.957
10739SOL     OW33115   5.021   2.538   4.124
10739SOL    HW133116   4.976   2.493   4.201
10739SOL    HW233117   5.001   2.488   4.040
10740SOL     OW33118   2.733   0.652   6.105
10740SOL    HW133119   2.648   0.647   6.052
10740SOL    HW233120   2.715   0.618   6.198
10741SOL     OW33121   1.458   2.530   4.256
10741SOL    HW133122   1.446   2.498   4.350
10741SOL    HW233123   1.555   2.527   4.232
10742SOL     OW33124   0.434   0.425   2.007
10742SOL    HW133125   0.487   0.377   2.077
10742SOL    HW233126   0.354   0.370   1.982
10743SOL     OW33127   4.030   2.385   6.131
10743SOL    HW133128   4.061   2.368   6.038
10743SOL    HW233129   4.078   2.324   6.194
10744SOL     OW33130   1.798   2.299   1.284
10744SOL    HW133131   1.838   2.307   1.193
10744SOL    HW233132   1.866   2.321   1.353
10745SOL     OW33133   2.969   5.548   1.310
10745SOL    HW133134   2.882   5.537   1.357
10745SOL    HW233135   2.964   5.504   1.220
10746SOL     OW33136   2.591   5.701   6.326
10746SOL    HW133137   2.657   5.635   6.290
10746SOL    HW233138   2.498   5.673   6.300
10747SOL     OW33139   6.719   0.052   4.633
10747SOL    HW133140   6.690   0.067   4.539
10747SOL    HW233141   6.747   6.974   4.644
10748SOL     OW33142   2.711   6.455   2.623
10748SOL    HW133143   2.708   6.382   2.692
10748SOL    HW233144   2.779   6.431   2.554
10749SOL     OW33145   4.979   3.449   2.050
10749SOL    HW133146   5.016   3.425   1.960
10749SOL    HW233147   4.946   3.366   2.095
10750SOL     OW33148   3.607   1.804   4.156
10750SOL    HW133149   3.577   1.891   4.117
10750SOL    HW233150   3.690   1.773   4.111
10751SOL     OW33151   6.239   6.000   3.779
10751SOL    HW133152   6.316   6.005   3.715
10751SOL    HW233153   6.159   6.045   3.739
10752SOL     OW33154   0.271   5.966   6.822
10752SOL    HW133155   0.196   6.031   6.815
10752SOL    HW233156   0.250   5.885   6.767
10753SOL     OW33157   5.313   6.744   5.146
10753SOL    HW133158   5.383   6.802   5.188
10753SOL    HW233159   5.357   6.678   5.085
10754SOL     OW33160   6.848   5.507   2.023
10754SOL    HW133161   6.797   5.592   2.011
10754SOL    HW233162   6.828   5.469   2.113
10755SOL     OW33163   0.280   1.952   1.894
10755SOL    HW133164   0.187   1.981   1.917
10755SOL    HW233165   0.306   1.873   1.950
10756SOL     OW33166   1.284   6.868   6.289
10756SOL    HW133167   1.204   6.906   6.335
10756SOL    HW233168   1.357   6.853   6.357
10757SOL     OW33169   6.944   2.747   1.630
10757SOL    HW133170   6.932   2.844   1.607
10757SOL    HW233171   0.020   2.720   1.613
10758SOL     OW33172   0.814   1.699   0.547
10758SOL    HW133173   0.717   1.675   0.542
10758SOL    HW233174   0.823   1.796   0.571
10759SOL     OW33175   3.934   4.314   5.564
10759SOL    HW133176   3.967   4.256   5.638
10759SOL    HW233177   3.840   4.288   5.541
10760SOL     OW33178   0.536   4.739   0.116
10760SOL    HW133179   0.504   4.646   0.100
10760SOL    HW233180   0.460   4.794   0.151
10761SOL     OW33181   1.283   1.087   6.680
10761SOL    HW133182   1.289   0.989   6.699
10761SOL    HW233183   1.363   1.116   6.627
10762SOL     OW33184   1.707   6.497   1.063
10762SOL    HW133185   1.756   6.518   1.148
10762SOL    HW233186   1.692   6.398   1.057
10763SOL     OW33187   4.937   1.165   2.280
10763SOL    HW133188   4.953   1.067   2.291
10763SOL    HW233189   4.847   1.179   2.239
10764SOL     OW33190   5.270   6.422   5.224
10764SOL    HW133191   5.299   6.326   5.223
10764SOL    HW233192   5.173   6.428   5.244
10765SOL     OW33193   6.999   2.807   1.121
10765SOL    HW133194   0.063   2.800   1.177
10765SOL    HW233195   6.932   2.738   1.149
10766SOL     OW33196   2.919   4.798   6.420
10766SOL    HW133197   2.922   4.889   6.460
10766SOL    HW233198   3.000   4.782   6.364
10767SOL     OW33199   1.900   4.701   6.434
10767SOL    HW133200   1.958   4.776   6.401
10767SOL    HW233201   1.809   4.737   6.456
10768SOL     OW33202   5.527   6.580   6.919
10768SOL    HW133203   5.534   6.676   6.944
10768SOL    HW233204   5.488   6.572   6.827
10769SOL     OW33205   2.951   3.534   4.771
10769SOL    HW133206   2.949   3.522   4.871
10769SOL    HW233207   2.960   3.632   4.750
10770SOL     OW33208   4.882   0.035   3.756
10770SOL    HW133209   4.973   0.014   3.793
10770SOL    HW233210   4.832   0.091   3.822
10771SOL     OW33211   4.771   5.876   5.996
10771SOL    HW133212   4.800   5.947   5.932
10771SOL    HW233213   4.672   5.880   6.008
10772SOL     OW33214   4.901   3.730   3.256
10772SOL    HW133215   4.921   3.779   3.341
10772SOL    HW233216   4.985   3.689   3.221
10773SOL     OW33217   0.511   4.026   0.910
10773SOL    HW133218   0.603   4.059   0.927
10773SOL    HW233219   0.496   3.940   0.961
10774SOL     OW33220   6.861   2.690   0.253
10774SOL    HW133221   6.893   2.784   0.244
10774SOL    HW233222   6.935   2.633   0.289
10775SOL     OW33223   2.637   4.914   7.002
10775SOL    HW133224   2.655   4.957   0.072
10775SOL    HW233225   2.540   4.890   6.996
10776SOL     OW33226   0.643   3.694   3.523
10776SOL    HW133227   0.545   3.692   3.503
10776SOL    HW233228   0.675   3.601   3.542
10777SOL     OW33229   1.511   6.856   1.978
10777SOL    HW133230   1.533   6.781   2.041
10777SOL    HW233231   1.575   6.855   1.901
10778SOL     OW33232   4.835   0.674   3.948
10778SOL    HW133233   4.855   0.729   3.866
10778SOL    HW233234   4.746   0.630   3.937
10779SOL     OW33235   5.449   2.988   6.280
10779SOL    HW133236   5.419   3.067   6.227
10779SOL    HW233237   5.469   3.016   6.374
10780SOL     OW33238   0.969   5.081   4.641
10780SOL    HW133239   0.885   5.028   4.651
10780SOL    HW233240   1.048   5.020   4.648
10781SOL     OW33241   6.018   2.665   5.565
10781SOL    HW133242   5.992   2.703   5.476
10781SOL    HW233243   6.025   2.739   5.632
10782SOL     OW33244   1.406   3.468   5.577
10782SOL    HW133245   1.370   3.403   5.509
10782SOL    HW233246   1.332   3.528   5.607
10783SOL     OW33247   1.511   3.894   4.090
10783SOL    HW133248   1.509   3.928   3.996
10783SOL    HW233249   1.419   3.900   4.129
10784SOL     OW33250   4.540   5.313   3.618
10784SOL    HW133251   4.492   5.379   3.559
10784SOL    HW233252   4.507   5.221   3.599
10785SOL     OW33253   1.307   5.043   1.479
10785SOL    HW133254   1.367   4.975   1.521
10785SOL    HW233255   1.252   4.999   1.407
10786SOL     OW33256   5.019   1.407   2.473
10786SOL    HW133257   4.991   1.312   2.461
10786SOL    HW233258   5.118   1.414   2.460
10787SOL     OW33259   3.119   1.553   3.695
10787SOL    HW133260   3.207   1.598   3.711
10787SOL    HW233261   3.049   1.594   3.753
10788SOL     OW33262   1.640   3.038   0.125
10788SOL    HW133263   1.702   3.115   0.144
10788SOL    HW233264   1.566   3.068   0.066
10789SOL     OW33265   6.014   2.223   2.604
10789SOL    HW133266   6.086   2.231   2.672
10789SOL    HW233267   5.977   2.130   2.604
10790SOL     OW33268   0.036   2.154   5.216
10790SOL    HW133269   0.108   2.085   5.208
10790SOL    HW233270   7.002   2.138   5.300
10791SOL     OW33271   1.791   3.751   3.288
10791SOL    HW133272   1.845   3.686   3.342
10791SOL    HW233273   1.695   3.744   3.314
10792SOL     OW33274   3.998   1.180   2.154
10792SOL    HW133275   4.014   1.230   2.240
10792SOL    HW233276   3.925   1.225   2.102
10793SOL     OW33277   3.811   2.127   4.665
10793SOL    HW133278   3.797   2.140   4.567
10793SOL    HW233279   3.896   2.170   4.693
10794SOL     OW33280   4.886   2.657   6.580
10794SOL    HW133281   4.845   2.578   6.624
10794SOL    HW233282   4.964   2.628   6.523
10795SOL     OW33283   6.293   2.887   3.500
10795SOL    HW133284   6.215   2.896   3.561
10795SOL    HW233285   6.376   2.920   3.546
10796SOL     OW33286   0.560   1.703   6.618
10796SOL    HW133287   0.602   1.621   6.658
10796SOL    HW233288   0.611   1.784   6.648
10797SOL     OW33289   5.476   5.227   6.517
10797SOL    HW133290   5.415   5.182   6.582
10797SOL    HW233291   5.551   5.166   6.493
10798SOL     OW33292   2.352   5.541   0.620
10798SOL    HW133293   2.296   5.623   0.612
10798SOL    HW233294   2.310   5.467   0.568
10799SOL     OW33295   1.963   0.574   3.093
10799SOL    HW133296   1.998   0.668   3.097
10799SOL    HW233297   2.040   0.510   3.100
10800SOL     OW33298   1.919   0.829   4.813
10800SOL    HW133299   1.895   0.919   4.776
10800SOL    HW233300   1.836   0.775   4.825
10801SOL     OW33301   2.802   6.279   6.520
10801SOL    HW133302   2.857   6.294   6.601
10801SOL    HW233303   2.710   6.317   6.535
10802SOL     OW33304   0.668   4.688   3.982
10802SOL    HW133305   0.651   4.764   4.044
10802SOL    HW233306   0.764   4.660   3.988
10803SOL     OW33307   7.008   4.520   4.541
10803SOL    HW133308   0.060   4.462   4.582
10803SOL    HW233309   0.030   4.572   4.465
10804SOL     OW33310   4.242   4.942   6.914
10804SOL    HW133311   4.223   4.845   6.899
10804SOL    HW233312   4.334   4.954   6.951
10805SOL     OW33313   4.799   5.912   0.492
10805SOL    HW133314   4.706   5.949   0.487
10805SOL    HW233315   4.802   5.822   0.449
10806SOL     OW33316   5.015   2.903   5.670
10806SOL    HW133317   5.004   2.995   5.708
10806SOL    HW233318   5.108   2.891   5.638
10807SOL     OW33319   4.562   2.965   5.275
10807SOL    HW133320   4.588   2.875   5.309
10807SOL    HW233321   4.633   3.000   5.214
10808SOL     OW33322   0.583   2.868   0.672
10808SOL    HW133323   0.511   2.847   0.606
10808SOL    HW233324   0.602   2.787   0.727
10809SOL     OW33325   1.171   0.863   2.618
10809SOL    HW133326   1.078   0.864   2.582
10809SOL    HW233327   1.189   0.774   2.661
10810SOL     OW33328   1.632   1.474   5.923
10810SOL    HW133329   1.707   1.467   5.990
10810SOL    HW233330   1.615   1.384   5.883
10811SOL     OW33331   4.134   6.202   6.579
10811SOL    HW133332   4.106   6.117   6.535
10811SOL    HW233333   4.219   6.235   6.538
10812SOL     OW33334   6.404   3.283   3.161
10812SOL    HW133335   6.471   3.214   3.135
10812SOL    HW233336   6.319   3.267   3.112
10813SOL     OW33337   3.018   5.985   2.227
10813SOL    HW133338   3.104   5.971   2.178
10813SOL    HW233339   3.036   5.995   2.324
10814SOL     OW33340   2.212   6.130   4.232
10814SOL    HW133341   2.145   6.203   4.214
10814SOL    HW233342   2.213   6.110   4.330
10815SOL     OW33343   5.639   1.890   5.858
10815SOL    HW133344   5.689   1.911   5.774
10815SOL    HW233345   5.552   1.846   5.835
10816SOL     OW33346   2.338   2.189   1.095
10816SOL    HW133347   2.282   2.269   1.117
10816SOL    HW233348   2.435   2.211   1.111
10817SOL     OW33349   3.652   1.737   1.674
10817SOL    HW133350   3.555   1.747   1.652
10817SOL    HW233351   3.677   1.806   1.743
10818SOL     OW33352   4.584   3.285   6.478
10818SOL    HW133353   4.530   3.281   6.394
10818SOL    HW233354   4.526   3.265   6.556
10819SOL     OW33355   2.172   3.616   5.146
10819SOL    HW133356   2.183   3.596   5.048
10819SOL    HW233357   2.196   3.535   5.199
10820SOL     OW33358   1.339   6.183   5.763
10820SOL    HW133359   1.384   6.096   5.785
10820SOL    HW233360   1.329   6.191   5.664
10821SOL     OW33361   0.126   0.215   6.802
10821SOL    HW133362   0.182   0.221   6.885
10821SOL    HW233363   0.140   0.298   6.747
10822SOL     OW33364   0.450   4.676   6.091
10822SOL    HW133365   0.489   4.764   6.119
10822SOL    HW233366   0.480   4.655   5.998
10823SOL     OW33367   1.759   1.923   0.923
10823SOL    HW133368   1.816   1.852   0.964
10823SOL    HW233369   1.817   1.993   0.882
10824SOL     OW33370   5.381   1.489   4.969
10824SOL    HW133371   5.449   1.532   4.909
10824SOL    HW233372   5.290   1.497   4.927
10825SOL     OW33373   3.593   1.169   2.359
10825SOL    HW133374   3.607   1.174   2.458
10825SOL    HW233375   3.513   1.223   2.334
10826SOL     OW33376   6.906   3.474   1.011
10826SOL    HW133377   6.909   3.495   0.913
10826SOL    HW233378   6.953   3.386   1.027
10827SOL     OW33379   0.895   2.306   4.525
10827SOL    HW133380   0.869   2.215   4.558
10827SOL    HW233381   0.820   2.370   4.542
10828SOL     OW33382   2.852   4.677   0.175
10828SOL    HW133383   2.867   4.579   0.179
10828SOL    HW233384   2.755   4.697   0.191
10829SOL     OW33385   2.304   3.914   1.912
10829SOL    HW133386   2.311   3.997   1.856
10829SOL    HW233387   2.264   3.938   2.001
10830SOL     OW33388   6.577   0.718   3.045
10830SOL    HW133389   6.671   0.741   3.071
10830SOL    HW233390   6.546   0.639   3.098
10831SOL     OW33391   5.342   2.634   2.064
10831SOL    HW133392   5.281   2.557   2.086
10831SOL    HW233393   5.308   2.681   1.983
10832SOL     OW33394   1.552   2.852   2.213
10832SOL    HW133395   1.594   2.764   2.192
10832SOL    HW233396   1.544   2.862   2.312
10833SOL     OW33397   3.491   6.971   4.712
10833SOL    HW133398   3.474   6.958   4.614
10833SOL    HW233399   3.550   0.032   4.726
10834SOL     OW33400   0.213   1.697   5.948
10834SOL    HW133401   0.151   1.624   5.975
10834SOL    HW233402   0.165   1.760   5.886
10835SOL     OW33403   0.545   1.630   0.523
10835SOL    HW133404   0.535   1.683   0.440
10835SOL    HW233405   0.460   1.581   0.541
10836SOL     OW33406   0.405   2.213   1.417
10836SOL    HW133407   0.418   2.313   1.416
10836SOL    HW233408   0.394   2.182   1.511
10837SOL     OW33409   1.414   5.537   0.487
10837SOL    HW133410   1.502   5.581   0.468
10837SOL    HW233411   1.370   5.512   0.401
10838SOL     OW33412   6.455   5.919   0.333
10838SOL    HW133413   6.492   5.998   0.283
10838SOL    HW233414   6.418   5.950   0.421
10839SOL     OW33415   2.280   2.206   6.895
10839SOL    HW133416   2.369   2.211   6.849
10839SOL    HW233417   2.232   2.293   6.885
10840SOL     OW33418   2.101   0.285   3.513
10840SOL    HW133419   2.078   0.265   3.608
10840SOL    HW233420   2.029   0.342   3.472
10841SOL     OW33421   4.316   3.994   0.158
10841SOL    HW133422   4.261   4.076   0.139
10841SOL    HW233423   4.413   4.015   0.140
10842SOL     OW33424   6.361   1.847   2.114
10842SOL    HW133425   6.442   1.835   2.172
10842SOL    HW233426   6.281   1.811   2.162
10843SOL     OW33427   0.985   2.431   1.170
10843SOL    HW133428   1.005   2.467   1.261
10843SOL    HW233429   1.056   2.459   1.106
10844SOL     OW33430   5.207   0.054   4.098
10844SOL    HW133431   5.306   0.037   4.096
10844SOL    HW233432   5.189   0.149   4.071
10845SOL     OW33433   2.208   3.678   1.504
10845SOL    HW133434   2.306   3.696   1.503
10845SOL    HW233435   2.174   3.685   1.598
10846SOL     OW33436   3.660   2.919   1.977
10846SOL    HW133437   3.749   2.928   1.932
10846SOL    HW233438   3.608   3.004   1.966
10847SOL     OW33439   5.400   1.970   5.322
10847SOL    HW133440   5.493   1.970   5.358
10847SOL    HW233441   5.346   2.040   5.369
10848SOL     OW33442   1.536   0.624   6.887
10848SOL    HW133443   1.563   0.588   6.797
10848SOL    HW233444   1.609   0.606   6.953
10849SOL     OW33445   0.818   4.475   4.689
10849SOL    HW133446   0.735   4.438   4.731
10849SOL    HW233447   0.898   4.436   4.734
10850SOL     OW33448   6.437   0.871   2.873
10850SOL    HW133449   6.381   0.926   2.935
10850SOL    HW233450   6.504   0.819   2.926
10851SOL     OW33451   4.658   2.718   6.983
10851SOL    HW133452   4.562   2.747   6.985
10851SOL    HW233453   4.714   2.790   6.943
10852SOL     OW33454   6.261   1.246   5.861
10852SOL    HW133455   6.257   1.156   5.817
10852SOL    HW233456   6.333   1.246   5.931
10853SOL     OW33457   2.968   0.355   5.461
10853SOL    HW133458   2.968   0.312   5.371
10853SOL    HW233459   3.052   0.409   5.472
10854SOL     OW33460   6.335   0.220   6.881
10854SOL    HW133461   6.237   0.220   6.902
10854SOL    HW233462   6.387   0.213   6.966
10855SOL     OW33463   1.101   5.963   0.654
10855SOL    HW133464   1.059   6.011   0.732
10855SOL    HW233465   1.173   6.019   0.615
10856SOL     OW33466   4.831   6.926   6.865
10856SOL    HW133467   4.891   6.847   6.851
10856SOL    HW233468   4.742   6.909   6.823
10857SOL     OW33469   6.510   6.815   4.753
10857SOL    HW133470   6.480   6.758   4.829
10857SOL    HW233471   6.439   6.818   4.683
10858SOL     OW33472   1.791   2.574   0.765
10858SOL    HW133473   1.703   2.598   0.806
10858SOL    HW233474   1.796   2.475   0.752
10859SOL     OW33475   2.517   5.745   1.646
10859SOL    HW133476   2.590   5.777   1.706
10859SOL    HW233477   2.557   5.700   1.565
10860SOL     OW33478   6.135   1.594   1.580
10860SOL    HW133479   6.125   1.653   1.661
10860SOL    HW233480   6.046   1.555   1.557
10861SOL     OW33481   1.707   4.733   1.077
10861SOL    HW133482   1.702   4.755   1.174
10861SOL    HW233483   1.649   4.654   1.057
10862SOL     OW33484   3.565   4.288   5.257
10862SOL    HW133485   3.543   4.249   5.167
10862SOL    HW233486   3.484   4.333   5.294
10863SOL     OW33487   0.923   6.888   3.231
10863SOL    HW133488   0.901   6.986   3.236
10863SOL    HW233489   0.851   6.840   3.182
10864SOL     OW33490   3.077   4.002   1.833
10864SOL    HW133491   3.082   3.996   1.933
10864SOL    HW233492   3.026   4.084   1.807
10865SOL     OW33493   2.945   1.772   2.650
10865SOL    HW133494   2.995   1.817   2.576
10865SOL    HW233495   2.966   1.817   2.736
10866SOL     OW33496   0.624   3.454   4.462
10866SOL    HW133497   0.563   3.530   4.437
10866SOL    HW233498   0.719   3.480   4.446
10867SOL     OW33499   4.974   2.749   0.573
10867SOL    HW133500   5.011   2.787   0.658
10867SOL    HW233501   4.893   2.801   0.547
10868SOL     OW33502   0.887   0.076   5.711
10868SOL    HW133503   0.920   0.064   5.804
10868SOL    HW233504   0.833   7.015   5.684
10869NA      NA33505   0.185   0.663   6.579
10870NA      NA33506   4.704   4.939   5.042
10871NA      NA33507   0.797   4.727   2.895
10872NA      NA33508   6.192   3.701   3.494
10873NA      NA33509   4.132   2.341   5.318
10874NA      NA33510   2.321   3.602   0.030
10875NA      NA33511   1.885   5.654   0.399
10876NA      NA33512   4.244   4.978   2.041
10877NA      NA33513   5.249   3.568   1.279
10878NA      NA33514   3.792   1.675   0.766
10879NA      NA33515   5.487   6.773   1.285
10880NA      NA33516   2.990   6.566   4.704
10881NA      NA33517   3.398   5.561   2.857
10882NA      NA33518   3.927   4.868   6.451
   7.01822   7.01822   7.01822
